REMARK VINA RESULT:    -7.304      1.596      2.322
REMARK INTER + INTRA:         -11.722
REMARK INTER:                 -10.666
REMARK INTRA:                  -1.056
REMARK UNBOUND:                -1.001
ROOT
ATOM      1  N6  665 L   1       0.204  10.015  -9.814  1.00  0.00    -0.2626 NA
ATOM      2 C16  665 L   1      -3.072   7.954 -13.074  1.00  0.00    +0.0423  A
ATOM      3 C18  665 L   1      -3.212   8.584 -11.836  1.00  0.00    -0.0305  A
ATOM      4 C19  665 L   1      -2.087   9.067 -11.149  1.00  0.00    -0.0131  A
ATOM      5 C20  665 L   1      -1.811   7.799 -13.641  1.00  0.00    -0.0377  A
ATOM      6 C21  665 L   1      -0.810   8.906 -11.727  1.00  0.00    +0.0004  A
ATOM      7 C22  665 L   1      -0.682   8.270 -12.973  1.00  0.00    -0.0506  A
ATOM      8 C26  665 L   1      -2.194   9.703  -9.906  1.00  0.00    -0.0358  A
ATOM      9 C30  665 L   1       0.286   9.398 -11.014  1.00  0.00    +0.0353  A
ATOM     10 C33  665 L   1      -1.034  10.151  -9.291  1.00  0.00    +0.0281  A
ATOM     11 H47  665 L   1      -4.203   8.704 -11.400  1.00  0.00    +0.0644  H
ATOM     12 H48  665 L   1      -1.623   7.325 -14.594  1.00  0.00    +0.0638  H
ATOM     13 H49  665 L   1       0.298   8.142 -13.429  1.00  0.00    +0.0625  H
ATOM     14 H50  665 L   1      -3.155   9.847  -9.423  1.00  0.00    +0.0639  H
ATOM     15 H53  665 L   1       1.296   9.308 -11.403  1.00  0.00    +0.0836  H
ATOM     16 H58  665 L   1      -1.076  10.649  -8.329  1.00  0.00    +0.0830  H
ENDROOT
BRANCH 2 18
ATOM     17  O2  665 L   1      -3.528   7.468 -15.999  1.00  0.00    -0.2722 OA
ATOM     18  N4  665 L   1      -4.203   7.482 -13.745  1.00  0.00    -0.3256  N
ATOM     19 C10  665 L   1      -4.370   7.276 -15.125  1.00  0.00    +0.2339  C
ATOM     20 H42  665 L   1      -4.999   7.269 -13.150  1.00  0.00    +0.1686 HD
BRANCH 19 21
ATOM     21  C7  665 L   1      -5.771   6.742 -15.462  1.00  0.00    +0.0752  C
ATOM     22 H35  665 L   1      -6.297   7.528 -16.023  1.00  0.00    +0.0458  H
BRANCH 21 23
ATOM     23  C8  665 L   1      -5.665   5.500 -16.332  1.00  0.00    -0.0341  A
ATOM     24 C11  665 L   1      -5.904   5.586 -17.704  1.00  0.00    -0.0574  A
ATOM     25 C12  665 L   1      -5.328   4.272 -15.759  1.00  0.00    -0.0574  A
ATOM     26 C13  665 L   1      -5.471   3.219 -17.927  1.00  0.00    -0.0103  A
ATOM     27 C14  665 L   1      -5.808   4.445 -18.501  1.00  0.00    -0.0551  A
ATOM     28 C15  665 L   1      -5.233   3.133 -16.555  1.00  0.00    -0.0551  A
ATOM     29 H38  665 L   1      -6.166   6.535 -18.165  1.00  0.00    +0.0621  H
ATOM     30 H39  665 L   1      -5.136   4.185 -14.693  1.00  0.00    +0.0621  H
ATOM     31 H40  665 L   1      -5.995   4.528 -19.568  1.00  0.00    +0.0621  H
ATOM     32 H41  665 L   1      -4.968   2.183 -16.098  1.00  0.00    +0.0621  H
BRANCH 26 33
ATOM     33 C17  665 L   1      -5.369   2.000 -18.781  1.00  0.00    +0.1179  C
ATOM     34 H43  665 L   1      -6.141   2.029 -19.558  1.00  0.00    +0.0749  H
ATOM     35 H44  665 L   1      -4.392   1.958 -19.280  1.00  0.00    +0.0749  H
BRANCH 33 36
ATOM     36  O1  665 L   1      -5.538   0.841 -17.970  1.00  0.00    -0.4564 OA
BRANCH 36 38
ATOM     37  O3  665 L   1      -7.203  -0.017 -19.308  1.00  0.00    -0.2449 OA
ATOM     38 C25  665 L   1      -6.643   0.091 -18.227  1.00  0.00    +0.3398  C
BRANCH 38 39
ATOM     39 C23  665 L   1      -7.105  -0.600 -16.996  1.00  0.00    +0.0619  A
ATOM     40 C24  665 L   1      -7.977   0.023 -16.104  1.00  0.00    -0.0362  A
ATOM     41 C27  665 L   1      -7.942  -1.943 -14.699  1.00  0.00    -0.0502  A
ATOM     42 C28  665 L   1      -8.396  -0.648 -14.955  1.00  0.00    -0.0551  A
ATOM     43 C29  665 L   1      -6.651  -1.895 -16.740  1.00  0.00    -0.0473  A
ATOM     44 C31  665 L   1      -7.069  -2.566 -15.592  1.00  0.00    -0.0580  A
ATOM     45 C32  665 L   1      -8.480   1.408 -16.355  1.00  0.00    -0.0389  C
ATOM     46 C34  665 L   1      -8.387  -2.661 -13.471  1.00  0.00    -0.0397  C
ATOM     47 H51  665 L   1      -9.073  -0.167 -14.254  1.00  0.00    +0.0623  H
ATOM     48 H52  665 L   1      -5.969  -2.390 -17.426  1.00  0.00    +0.0626  H
ATOM     49 H54  665 L   1      -6.707  -3.572 -15.403  1.00  0.00    +0.0620  H
ATOM     50 H55  665 L   1      -7.673   2.135 -16.223  1.00  0.00    +0.0278  H
ATOM     51 H56  665 L   1      -8.889   1.496 -17.366  1.00  0.00    +0.0278  H
ATOM     52 H57  665 L   1      -9.285   1.677 -15.662  1.00  0.00    +0.0278  H
ATOM     53 H59  665 L   1      -8.396  -3.747 -13.628  1.00  0.00    +0.0278  H
ATOM     54 H60  665 L   1      -9.406  -2.369 -13.191  1.00  0.00    +0.0278  H
ATOM     55 H61  665 L   1      -7.716  -2.434 -12.637  1.00  0.00    +0.0278  H
ENDBRANCH 38 39
ENDBRANCH 36 38
ENDBRANCH 33 36
ENDBRANCH 26 33
ENDBRANCH 21 23
BRANCH 21 57
ATOM     56  N5  665 L   1      -7.444   7.634 -13.851  1.00  0.00    -0.3289 NA
ATOM     57  C9  665 L   1      -6.577   6.502 -14.170  1.00  0.00    +0.0085  C
ATOM     58 H36  665 L   1      -7.188   5.595 -14.240  1.00  0.00    +0.0432  H
ATOM     59 H37  665 L   1      -5.884   6.348 -13.334  1.00  0.00    +0.0432  H
ATOM     60 H45  665 L   1      -7.950   7.437 -12.989  1.00  0.00    +0.1182 HD
ATOM     61 H46  665 L   1      -8.153   7.742 -14.575  1.00  0.00    +0.1182 HD
ENDBRANCH 21 57
ENDBRANCH 19 21
ENDBRANCH 2 18
TORSDOF 8
BEGIN_RES SER A 29
REMARK INDEX MAP 3 1 15 2 18 3 19 4
ROOT
ATOM      1  CA  SER A  29       5.259 -11.150 -15.111  1.00  0.00    +0.197 C 
ENDROOT
BRANCH   1   2
ATOM      2  CB  SER A  29       3.952 -10.733 -15.792  1.00  0.00    +0.191 C 
BRANCH   2   3
ATOM      3  OG  SER A  29       3.172  -9.948 -14.905  1.00  0.00    -0.392 OA
ATOM      4  HG  SER A  29       3.692  -9.763 -14.084  1.00  0.00    +0.210 HD
ENDBRANCH   2   3
ENDBRANCH   1   2
END_RES SER A 29
BEGIN_RES LYS A 33
REMARK INDEX MAP 3 1 15 2 18 3 21 4 24 5 27 6 28 7 29 8 30 9
ROOT
ATOM      5  CA  LYS A  33       4.948 -12.969  -9.324  1.00  0.00    +0.171 C 
ENDROOT
BRANCH   5   6
ATOM      6  CB  LYS A  33       3.624 -13.219 -10.050  1.00  0.00    +0.035 C 
BRANCH   6   7
ATOM      7  CG  LYS A  33       2.660 -12.053  -9.821  1.00  0.00    +0.008 C 
BRANCH   7   8
ATOM      8  CD  LYS A  33       1.276 -12.409 -10.358  1.00  0.00    +0.061 C 
BRANCH   8   9
ATOM      9  CE  LYS A  33       0.336 -11.254 -10.025  1.00  0.00    +0.258 C 
BRANCH   9  10
ATOM     10  NZ  LYS A  33      -1.046 -11.552 -10.467  1.00  0.00    -0.357 N 
ATOM     11  HZ1 LYS A  33      -1.529 -12.097  -9.739  1.00  0.00    +0.345 HD
ATOM     12  HZ2 LYS A  33      -1.552 -10.669 -10.629  1.00  0.00    +0.345 HD
ATOM     13  HZ3 LYS A  33      -1.017 -12.096 -11.342  1.00  0.00    +0.345 HD
ENDBRANCH   9  10
ENDBRANCH   8   9
ENDBRANCH   7   8
ENDBRANCH   6   7
ENDBRANCH   5   6
END_RES LYS A 33
BEGIN_RES SER A 149
REMARK INDEX MAP 3 1 15 2 18 3 19 4
ROOT
ATOM     14  CA  SER A 149       1.336  -0.609  -7.911  1.00  0.00    +0.197 C 
ENDROOT
BRANCH  14  15
ATOM     15  CB  SER A 149       1.855  -1.867  -7.199  1.00  0.00    +0.191 C 
BRANCH  15  16
ATOM     16  OG  SER A 149       3.174  -1.681  -6.722  1.00  0.00    -0.392 OA
ATOM     17  HG  SER A 149       3.163  -1.632  -5.733  1.00  0.00    +0.210 HD
ENDBRANCH  15  16
ENDBRANCH  14  15
END_RES SER A 149
BEGIN_RES VAL A 150
REMARK INDEX MAP 3 1 15 2 17 3 18 4
ROOT
ATOM     18  CA  VAL A 150      -2.392  -0.627  -8.917  1.00  0.00    +0.173 C 
ENDROOT
BRANCH  18  19
ATOM     19  CB  VAL A 150      -3.617  -0.174  -8.103  1.00  0.00    +0.015 C 
ATOM     20  CG1 VAL A 150      -3.981  -1.202  -7.033  1.00  0.00    +0.010 C 
ATOM     21  CG2 VAL A 150      -3.442   1.205  -7.467  1.00  0.00    +0.010 C 
ENDBRANCH  18  19
END_RES VAL A 150
BEGIN_RES LYS A 151
REMARK INDEX MAP 3 1 15 2 18 3 21 4 24 5 27 6 28 7 29 8 30 9
ROOT
ATOM     22  CA  LYS A 151      -3.311   0.059 -12.575  1.00  0.00    +0.171 C 
ENDROOT
BRANCH  22  23
ATOM     23  CB  LYS A 151      -3.945  -0.970 -13.516  1.00  0.00    +0.035 C 
BRANCH  23  24
ATOM     24  CG  LYS A 151      -2.886  -1.892 -14.132  1.00  0.00    +0.008 C 
BRANCH  24  25
ATOM     25  CD  LYS A 151      -3.554  -3.044 -14.886  1.00  0.00    +0.061 C 
BRANCH  25  26
ATOM     26  CE  LYS A 151      -2.466  -3.930 -15.497  1.00  0.00    +0.258 C 
BRANCH  26  27
ATOM     27  NZ  LYS A 151      -3.044  -5.113 -16.179  1.00  0.00    -0.357 N 
ATOM     28  HZ1 LYS A 151      -3.101  -5.898 -15.515  1.00  0.00    +0.345 HD
ATOM     29  HZ2 LYS A 151      -3.987  -4.884 -16.523  1.00  0.00    +0.345 HD
ATOM     30  HZ3 LYS A 151      -2.445  -5.378 -16.974  1.00  0.00    +0.345 HD
ENDBRANCH  26  27
ENDBRANCH  25  26
ENDBRANCH  24  25
ENDBRANCH  23  24
ENDBRANCH  22  23
END_RES LYS A 151
BEGIN_RES ASP A 192
REMARK INDEX MAP 3 1 15 2 18 3 19 4 20 5
ROOT
ATOM     31  CA  ASP A 192      10.903   4.326 -12.109  1.00  0.00    +0.176 C 
ENDROOT
BRANCH  31  32
ATOM     32  CB  ASP A 192       9.944   5.512 -12.333  1.00  0.00    +0.087 C 
BRANCH  32  33
ATOM     33  CG  ASP A 192       8.485   5.225 -11.987  1.00  0.00    +0.044 C 
ATOM     34  OD1 ASP A 192       8.039   5.727 -10.928  1.00  0.00    -0.548 OA
ATOM     35  OD2 ASP A 192       7.786   4.651 -12.843  1.00  0.00    -0.549 OA
ENDBRANCH  32  33
ENDBRANCH  31  32
END_RES ASP A 192
BEGIN_RES HIS A 196
REMARK INDEX MAP 3 1 15 2 18 3 19 4 20 5 21 6 22 7 25 8
ROOT
ATOM     36  CA  HIS A 196       8.166  -0.861 -12.004  1.00  0.00    +0.177 C 
ENDROOT
BRANCH  36  37
ATOM     37  CB  HIS A 196       7.611   0.004 -13.145  1.00  0.00    +0.093 C 
BRANCH  37  38
ATOM     38  CG  HIS A 196       6.430  -0.625 -13.835  1.00  0.00    +0.061 A 
ATOM     39  ND1 HIS A 196       5.126  -0.501 -13.441  1.00  0.00    -0.242 NA
ATOM     40  CD2 HIS A 196       6.434  -1.442 -14.933  1.00  0.00    +0.107 A 
ATOM     41  CE1 HIS A 196       4.357  -1.216 -14.269  1.00  0.00    +0.196 A 
ATOM     42  NE2 HIS A 196       5.109  -1.815 -15.208  1.00  0.00    -0.350 N 
ATOM     43  HE2 HIS A 196       4.781  -2.422 -15.972  1.00  0.00    +0.167 HD
ENDBRANCH  37  38
ENDBRANCH  36  37
END_RES HIS A 196
BEGIN_RES LEU A 197
REMARK INDEX MAP 3 1 15 2 18 3 20 4 21 5
ROOT
ATOM     44  CA  LEU A 197       9.520  -4.001 -13.690  1.00  0.00    +0.172 C 
ENDROOT
BRANCH  44  45
ATOM     45  CB  LEU A 197      10.529  -3.881 -14.840  1.00  0.00    +0.038 C 
BRANCH  45  46
ATOM     46  CG  LEU A 197      10.076  -4.549 -16.138  1.00  0.00    -0.015 C 
ATOM     47  CD1 LEU A 197       9.108  -3.671 -16.929  1.00  0.00    +0.007 C 
ATOM     48  CD2 LEU A 197      11.300  -4.776 -17.012  1.00  0.00    +0.007 C 
ENDBRANCH  45  46
ENDBRANCH  44  45
END_RES LEU A 197
BEGIN_RES LEU A 198
REMARK INDEX MAP 3 1 15 2 18 3 20 4 21 5
ROOT
ATOM     49  CA  LEU A 198      11.452  -5.354 -10.643  1.00  0.00    +0.172 C 
ENDROOT
BRANCH  49  50
ATOM     50  CB  LEU A 198      12.799  -4.722 -10.252  1.00  0.00    +0.038 C 
BRANCH  50  51
ATOM     51  CG  LEU A 198      14.005  -5.236 -11.062  1.00  0.00    -0.015 C 
ATOM     52  CD1 LEU A 198      15.264  -4.482 -10.636  1.00  0.00    +0.007 C 
ATOM     53  CD2 LEU A 198      14.251  -6.730 -10.850  1.00  0.00    +0.007 C 
ENDBRANCH  50  51
ENDBRANCH  49  50
END_RES LEU A 198
BEGIN_RES ASP A 200
REMARK INDEX MAP 3 1 15 2 18 3 19 4 20 5
ROOT
ATOM     54  CA  ASP A 200       5.649  -6.036  -9.219  1.00  0.00    +0.176 C 
ENDROOT
BRANCH  54  55
ATOM     55  CB  ASP A 200       5.124  -6.978  -8.114  1.00  0.00    +0.087 C 
BRANCH  55  56
ATOM     56  CG  ASP A 200       4.334  -8.195  -8.639  1.00  0.00    +0.044 C 
ATOM     57  OD1 ASP A 200       4.479  -8.553  -9.837  1.00  0.00    -0.548 OA
ATOM     58  OD2 ASP A 200       3.681  -8.877  -7.816  1.00  0.00    -0.549 OA
ENDBRANCH  55  56
ENDBRANCH  54  55
END_RES ASP A 200
BEGIN_RES CYS A 202
REMARK INDEX MAP 3 1 15 2 18 3 19 4
ROOT
ATOM     59  CA  CYS A 202       5.388  -0.342  -8.181  1.00  0.00    +0.181 C 
ENDROOT
BRANCH  59  60
ATOM     60  CB  CYS A 202       6.325  -0.781  -7.055  1.00  0.00    +0.101 C 
BRANCH  60  61
ATOM     61  SG  CYS A 202       5.952   0.079  -5.518  1.00  0.00    -0.177 SA
ATOM     62  HG  CYS A 202       5.929  -0.820  -4.485  1.00  0.00    +0.102 HD
ENDBRANCH  60  61
ENDBRANCH  59  60
END_RES CYS A 202
BEGIN_RES ASN A 203
REMARK INDEX MAP 3 1 15 2 18 3 19 4 20 5 21 6 22 7
ROOT
ATOM     63  CA  ASN A 203       5.685   3.325  -9.344  1.00  0.00    +0.180 C 
ENDROOT
BRANCH  63  64
ATOM     64  CB  ASN A 203       4.492   3.963 -10.072  1.00  0.00    +0.134 C 
BRANCH  64  65
ATOM     65  CG  ASN A 203       4.444   3.688 -11.560  1.00  0.00    +0.220 C 
ATOM     66  OD1 ASN A 203       4.990   2.751 -12.094  1.00  0.00    -0.275 OA
ATOM     67  ND2 ASN A 203       3.791   4.538 -12.317  1.00  0.00    -0.368 N 
ATOM     68 HD22 ASN A 203       3.737   4.384 -13.334  1.00  0.00    +0.159 HD
ATOM     69 HD21 ASN A 203       3.335   5.359 -11.895  1.00  0.00    +0.159 HD
ENDBRANCH  64  65
ENDBRANCH  63  64
END_RES ASN A 203
BEGIN_RES LEU A 204
REMARK INDEX MAP 3 1 15 2 18 3 20 4 21 5
ROOT
ATOM     70  CA  LEU A 204       8.257   5.530  -7.491  1.00  0.00    +0.172 C 
ENDROOT
BRANCH  70  71
ATOM     71  CB  LEU A 204       9.742   5.577  -7.891  1.00  0.00    +0.038 C 
BRANCH  71  72
ATOM     72  CG  LEU A 204      10.595   4.422  -7.353  1.00  0.00    -0.015 C 
ATOM     73  CD1 LEU A 204      12.058   4.678  -7.714  1.00  0.00    +0.007 C 
ATOM     74  CD2 LEU A 204      10.478   4.308  -5.831  1.00  0.00    +0.007 C 
ENDBRANCH  71  72
ENDBRANCH  70  71
END_RES LEU A 204
BEGIN_RES THR A 205
REMARK INDEX MAP 3 1 15 2 17 3 18 4 22 5
ROOT
ATOM     75  CA  THR A 205       6.717   8.700  -9.018  1.00  0.00    +0.199 C 
ENDROOT
BRANCH  75  76
ATOM     76  CB  THR A 205       7.097   9.171 -10.425  1.00  0.00    +0.143 C 
ATOM     77  CG2 THR A 205       8.599   9.426 -10.549  1.00  0.00    +0.041 C 
BRANCH  76  78
ATOM     78  OG1 THR A 205       6.730   8.210 -11.394  1.00  0.00    -0.389 OA
ATOM     79  HG1 THR A 205       6.370   7.407 -10.942  1.00  0.00    +0.211 HD
ENDBRANCH  76  78
ENDBRANCH  75  76
END_RES THR A 205
BEGIN_RES ARG A 206
REMARK INDEX MAP 3 1 15 2 18 3 21 4 24 5 25 6 26 7 27 8 28 9 29 10 30 11 31 12
REMARK INDEX MAP 32 13
ROOT
ATOM     80  CA  ARG A 206       3.145   7.848  -7.883  1.00  0.00    +0.171 C 
ENDROOT
BRANCH  80  81
ATOM     81  CB  ARG A 206       2.696   6.441  -7.482  1.00  0.00    +0.038 C 
BRANCH  81  82
ATOM     82  CG  ARG A 206       1.306   6.107  -8.022  1.00  0.00    +0.040 C 
BRANCH  82  83
ATOM     83  CD  ARG A 206       1.336   5.548  -9.452  1.00  0.00    +0.197 C 
BRANCH  83  84
ATOM     84  NE  ARG A 206      -0.035   5.296  -9.913  1.00  0.00    -0.278 N 
ATOM     85  HE  ARG A 206      -0.736   6.012  -9.674  1.00  0.00    +0.260 HD
ATOM     86  CZ  ARG A 206      -0.468   4.260 -10.599  1.00  0.00    +0.339 C 
ATOM     87  NH1 ARG A 206       0.323   3.455 -11.244  1.00  0.00    -0.290 N 
ATOM     88  NH2 ARG A 206      -1.734   3.993 -10.617  1.00  0.00    -0.290 N 
ATOM     89 HH12 ARG A 206      -0.067   2.657 -11.766  1.00  0.00    +0.256 HD
ATOM     90 HH11 ARG A 206       1.341   3.614 -11.233  1.00  0.00    +0.256 HD
ATOM     91 HH22 ARG A 206      -2.082   3.184 -11.151  1.00  0.00    +0.256 HD
ATOM     92 HH21 ARG A 206      -2.394   4.589 -10.098  1.00  0.00    +0.256 HD
ENDBRANCH  83  84
ENDBRANCH  82  83
ENDBRANCH  81  82
ENDBRANCH  80  81
END_RES ARG A 206
BEGIN_RES GLU A 207
REMARK INDEX MAP 3 1 15 2 18 3 21 4 22 5 23 6
ROOT
ATOM     93  CA  GLU A 207       1.252  10.799  -6.333  1.00  0.00    +0.171 C 
ENDROOT
BRANCH  93  94
ATOM     94  CB  GLU A 207       1.086  12.112  -7.105  1.00  0.00    +0.041 C 
BRANCH  94  95
ATOM     95  CG  GLU A 207       2.374  12.587  -7.789  1.00  0.00    +0.055 C 
BRANCH  95  96
ATOM     96  CD  GLU A 207       2.015  13.529  -8.935  1.00  0.00    +0.041 C 
ATOM     97  OE1 GLU A 207       2.703  14.553  -9.139  1.00  0.00    -0.548 OA
ATOM     98  OE2 GLU A 207       0.925  13.362  -9.533  1.00  0.00    -0.549 OA
ENDBRANCH  95  96
ENDBRANCH  94  95
ENDBRANCH  93  94
END_RES GLU A 207
