ROOT
ATOM      1  N6  665 L   1       7.413  -8.195 -10.409  1.00  0.00    -0.2626 NA
ATOM      2 C16  665 L   1      10.335  -8.331  -6.280  1.00  0.00    +0.0423  A
ATOM      3 C18  665 L   1       9.111  -8.913  -6.614  1.00  0.00    -0.0305  A
ATOM      4 C19  665 L   1       8.531  -8.686  -7.873  1.00  0.00    -0.0131  A
ATOM      5 C20  665 L   1      10.994  -7.515  -7.195  1.00  0.00    -0.0377  A
ATOM      6 C21  665 L   1       9.202  -7.858  -8.797  1.00  0.00    +0.0004  A
ATOM      7 C22  665 L   1      10.434  -7.276  -8.449  1.00  0.00    -0.0506  A
ATOM      8 C26  665 L   1       7.305  -9.255  -8.238  1.00  0.00    -0.0358  A
ATOM      9 C30  665 L   1       8.595  -7.654 -10.038  1.00  0.00    +0.0353  A
ATOM     10 C33  665 L   1       6.799  -8.980  -9.500  1.00  0.00    +0.0281  A
ATOM     11 H48  665 L   1       8.596  -9.556  -5.884  1.00  0.00    +0.0644  H
ATOM     12 H49  665 L   1      11.959  -7.057  -6.928  1.00  0.00    +0.0638  H
ATOM     13 H50  665 L   1      10.957  -6.631  -9.170  1.00  0.00    +0.0625  H
ATOM     14 H51  665 L   1       6.757  -9.905  -7.541  1.00  0.00    +0.0639  H
ATOM     15 H54  665 L   1       9.114  -7.009 -10.762  1.00  0.00    +0.0836  H
ATOM     16 H59  665 L   1       5.835  -9.432  -9.778  1.00  0.00    +0.0830  H
ENDROOT
BRANCH 2 18
ATOM     17  O2  665 L   1      13.040  -7.613  -5.202  1.00  0.00    -0.2720 OA
ATOM     18  N4  665 L   1      10.898  -8.569  -5.024  1.00  0.00    -0.3255  N
ATOM     19 C10  665 L   1      12.179  -8.217  -4.567  1.00  0.00    +0.2381  C
ATOM     20 H35  665 L   1      10.300  -9.066  -4.349  1.00  0.00    +0.1686 HD
BRANCH 19 21
ATOM     21  C7  665 L   1      12.415  -8.662  -3.116  1.00  0.00    +0.1122  C
ATOM     22 H39  665 L   1      13.104  -9.519  -3.100  1.00  0.00    +0.0502  H
BRANCH 21 23
ATOM     23  C8  665 L   1      13.080  -7.547  -2.325  1.00  0.00    -0.0300  A
ATOM     24 C11  665 L   1      14.428  -7.642  -1.981  1.00  0.00    -0.0573  A
ATOM     25 C12  665 L   1      12.341  -6.426  -1.942  1.00  0.00    -0.0573  A
ATOM     26 C13  665 L   1      14.298  -5.500  -0.873  1.00  0.00    -0.0103  A
ATOM     27 C14  665 L   1      15.037  -6.619  -1.254  1.00  0.00    -0.0551  A
ATOM     28 C15  665 L   1      12.950  -5.404  -1.215  1.00  0.00    -0.0551  A
ATOM     29 H42  665 L   1      15.012  -8.525  -2.284  1.00  0.00    +0.0621  H
ATOM     30 H43  665 L   1      11.277  -6.349  -2.214  1.00  0.00    +0.0621  H
ATOM     31 H44  665 L   1      16.100  -6.695  -0.982  1.00  0.00    +0.0621  H
ATOM     32 H45  665 L   1      12.367  -4.522  -0.912  1.00  0.00    +0.0621  H
BRANCH 26 33
ATOM     33 C17  665 L   1      14.950  -4.406  -0.096  1.00  0.00    +0.1179  C
ATOM     34 H46  665 L   1      15.286  -3.616  -0.783  1.00  0.00    +0.0749  H
ATOM     35 H47  665 L   1      15.816  -4.809   0.450  1.00  0.00    +0.0749  H
BRANCH 33 36
ATOM     36  O1  665 L   1      14.015  -3.863   0.830  1.00  0.00    -0.4564 OA
BRANCH 36 38
ATOM     37  O3  665 L   1      14.849  -5.198   2.510  1.00  0.00    -0.2449 OA
ATOM     38 C25  665 L   1      14.019  -4.415   2.074  1.00  0.00    +0.3398  C
BRANCH 38 39
ATOM     39 C23  665 L   1      12.856  -3.936   2.864  1.00  0.00    +0.0619  A
ATOM     40 C24  665 L   1      11.634  -4.609   2.830  1.00  0.00    -0.0362  A
ATOM     41 C27  665 L   1      10.703  -2.994   4.367  1.00  0.00    -0.0502  A
ATOM     42 C28  665 L   1      10.558  -4.139   3.581  1.00  0.00    -0.0551  A
ATOM     43 C29  665 L   1      13.001  -2.792   3.650  1.00  0.00    -0.0473  A
ATOM     44 C31  665 L   1      11.924  -2.320   4.401  1.00  0.00    -0.0580  A
ATOM     45 C32  665 L   1      11.454  -5.837   1.998  1.00  0.00    -0.0389  C
ATOM     46 C34  665 L   1       9.552  -2.489   5.169  1.00  0.00    -0.0397  C
ATOM     47 H52  665 L   1       9.595  -4.669   3.554  1.00  0.00    +0.0623  H
ATOM     48 H53  665 L   1      13.964  -2.261   3.677  1.00  0.00    +0.0626  H
ATOM     49 H55  665 L   1      12.039  -1.417   5.019  1.00  0.00    +0.0620  H
ATOM     50 H56  665 L   1      11.359  -6.714   2.656  1.00  0.00    +0.0278  H
ATOM     51 H57  665 L   1      10.544  -5.736   1.388  1.00  0.00    +0.0278  H
ATOM     52 H58  665 L   1      12.325  -5.966   1.339  1.00  0.00    +0.0278  H
ATOM     53 H60  665 L   1       9.768  -2.616   6.241  1.00  0.00    +0.0278  H
ATOM     54 H61  665 L   1       9.392  -1.424   4.951  1.00  0.00    +0.0278  H
ATOM     55 H62  665 L   1       8.647  -3.056   4.909  1.00  0.00    +0.0278  H
ENDBRANCH 38 39
ENDBRANCH 36 38
ENDBRANCH 33 36
ENDBRANCH 26 33
ENDBRANCH 21 23
BRANCH 21 57
ATOM     56  N5  665 L   1      11.007 -10.599  -2.439  1.00  0.00    -0.3600  N
ATOM     57  C9  665 L   1      11.093  -9.141  -2.482  1.00  0.00    +0.0921  C
ATOM     58 H36  665 L   1      10.874 -10.907  -1.466  1.00  0.00    +0.3450 HD
ATOM     59 H37  665 L   1      10.209 -10.913  -3.011  1.00  0.00    +0.3450 HD
ATOM     60 H38  665 L   1      11.877 -11.005  -2.812  1.00  0.00    +0.3450 HD
ATOM     61 H40  665 L   1      10.253  -8.752  -3.076  1.00  0.00    +0.0926  H
ATOM     62 H41  665 L   1      11.054  -8.766  -1.449  1.00  0.00    +0.0926  H
ENDBRANCH 21 57
ENDBRANCH 19 21
ENDBRANCH 2 18
TORSDOF 8
BEGIN_RES GLN A 29
REMARK INDEX MAP 3 1 15 2 18 3 21 4 22 5 23 6 24 7 25 8
ROOT
ATOM      1  CA  GLN A  29      16.975   0.393   8.263  1.00  0.00    +0.171 C 
ENDROOT
BRANCH   1   2
ATOM      2  CB  GLN A  29      16.816  -1.139   8.255  1.00  0.00    +0.045 C 
BRANCH   2   3
ATOM      3  CG  GLN A  29      16.869  -1.723   6.835  1.00  0.00    +0.102 C 
BRANCH   3   4
ATOM      4  CD  GLN A  29      15.709  -1.248   5.967  1.00  0.00    +0.217 C 
ATOM      5  OE1 GLN A  29      14.579  -1.146   6.407  1.00  0.00    -0.275 OA
ATOM      6  NE2 GLN A  29      15.940  -0.940   4.711  1.00  0.00    -0.368 N 
ATOM      7 HE22 GLN A  29      15.169  -0.617   4.109  1.00  0.00    +0.159 HD
ATOM      8 HE21 GLN A  29      16.892  -1.022   4.328  1.00  0.00    +0.159 HD
ENDBRANCH   3   4
ENDBRANCH   2   3
ENDBRANCH   1   2
END_RES GLN A 29
BEGIN_RES LYS A 33
REMARK INDEX MAP 3 1 15 2 18 3 21 4 24 5 27 6 28 7 29 8 30 9
ROOT
ATOM      9  CA  LYS A  33      11.989   3.808   9.373  1.00  0.00    +0.171 C 
ENDROOT
BRANCH   9  10
ATOM     10  CB  LYS A  33      11.876   2.482  10.136  1.00  0.00    +0.035 C 
BRANCH  10  11
ATOM     11  CG  LYS A  33      11.370   1.365   9.217  1.00  0.00    +0.008 C 
BRANCH  11  12
ATOM     12  CD  LYS A  33      10.750   0.234  10.040  1.00  0.00    +0.061 C 
BRANCH  12  13
ATOM     13  CE  LYS A  33      10.067  -0.746   9.084  1.00  0.00    +0.258 C 
BRANCH  13  14
ATOM     14  NZ  LYS A  33       9.159  -1.666   9.812  1.00  0.00    -0.357 N 
ATOM     15  HZ1 LYS A  33       9.357  -1.616  10.822  1.00  0.00    +0.345 HD
ATOM     16  HZ2 LYS A  33       8.182  -1.391   9.640  1.00  0.00    +0.345 HD
ATOM     17  HZ3 LYS A  33       9.309  -2.630   9.480  1.00  0.00    +0.345 HD
ENDBRANCH  13  14
ENDBRANCH  12  13
ENDBRANCH  11  12
ENDBRANCH  10  11
ENDBRANCH   9  10
END_RES LYS A 33
BEGIN_RES SER A 149
REMARK INDEX MAP 3 1 15 2 18 3 19 4
ROOT
ATOM     18  CA  SER A 149       7.343  -2.533  -0.915  1.00  0.00    +0.197 C 
ENDROOT
BRANCH  18  19
ATOM     19  CB  SER A 149       7.142  -1.337   0.020  1.00  0.00    +0.191 C 
BRANCH  19  20
ATOM     20  OG  SER A 149       7.373  -0.126  -0.673  1.00  0.00    -0.392 OA
ATOM     21  HG  SER A 149       7.435   0.619  -0.023  1.00  0.00    +0.210 HD
ENDBRANCH  19  20
ENDBRANCH  18  19
END_RES SER A 149
BEGIN_RES VAL A 150
REMARK INDEX MAP 3 1 15 2 17 3 18 4
ROOT
ATOM     22  CA  VAL A 150       6.162  -5.910   0.524  1.00  0.00    +0.173 C 
ENDROOT
BRANCH  22  23
ATOM     23  CB  VAL A 150       4.686  -6.355   0.550  1.00  0.00    +0.015 C 
ATOM     24  CG1 VAL A 150       3.845  -5.269   1.243  1.00  0.00    +0.010 C 
ATOM     25  CG2 VAL A 150       4.151  -6.662  -0.851  1.00  0.00    +0.010 C 
ENDBRANCH  22  23
END_RES VAL A 150
BEGIN_RES GLN A 151
REMARK INDEX MAP 3 1 15 2 18 3 21 4 22 5 23 6 24 7 25 8
ROOT
ATOM     26  CA  GLN A 151       8.198  -9.163   0.318  1.00  0.00    +0.171 C 
ENDROOT
BRANCH  26  27
ATOM     27  CB  GLN A 151       8.689  -9.980   1.515  1.00  0.00    +0.045 C 
BRANCH  27  28
ATOM     28  CG  GLN A 151       9.809  -9.274   2.287  1.00  0.00    +0.102 C 
BRANCH  28  29
ATOM     29  CD  GLN A 151      10.377 -10.142   3.403  1.00  0.00    +0.217 C 
ATOM     30  OE1 GLN A 151       9.952 -11.257   3.668  1.00  0.00    -0.275 OA
ATOM     31  NE2 GLN A 151      11.387  -9.669   4.099  1.00  0.00    -0.368 N 
ATOM     32 HE22 GLN A 151      11.795 -10.229   4.861  1.00  0.00    +0.159 HD
ATOM     33 HE21 GLN A 151      11.769  -8.737   3.884  1.00  0.00    +0.159 HD
ENDBRANCH  28  29
ENDBRANCH  27  28
ENDBRANCH  26  27
END_RES GLN A 151
BEGIN_RES GLU A 192
REMARK INDEX MAP 3 1 15 2 18 3 21 4 22 5 23 6
ROOT
ATOM     34  CA  GLU A 192      15.855   0.073  -7.983  1.00  0.00    +0.171 C 
ENDROOT
BRANCH  34  35
ATOM     35  CB  GLU A 192      15.246  -1.153  -8.688  1.00  0.00    +0.041 C 
BRANCH  35  36
ATOM     36  CG  GLU A 192      14.542  -2.058  -7.671  1.00  0.00    +0.055 C 
BRANCH  36  37
ATOM     37  CD  GLU A 192      13.768  -3.191  -8.330  1.00  0.00    +0.041 C 
ATOM     38  OE1 GLU A 192      14.314  -4.321  -8.333  1.00  0.00    -0.548 OA
ATOM     39  OE2 GLU A 192      12.595  -2.948  -8.694  1.00  0.00    -0.549 OA
ENDBRANCH  36  37
ENDBRANCH  35  36
ENDBRANCH  34  35
END_RES GLU A 192
BEGIN_RES LYS A 196
REMARK INDEX MAP 3 1 15 2 18 3 21 4 24 5 27 6 28 7 29 8 30 9
ROOT
ATOM     40  CA  LYS A 196      14.847  -0.109  -2.051  1.00  0.00    +0.171 C 
ENDROOT
BRANCH  40  41
ATOM     41  CB  LYS A 196      15.401  -1.519  -2.305  1.00  0.00    +0.035 C 
BRANCH  41  42
ATOM     42  CG  LYS A 196      14.526  -2.303  -3.291  1.00  0.00    +0.008 C 
BRANCH  42  43
ATOM     43  CD  LYS A 196      15.231  -3.575  -3.778  1.00  0.00    +0.061 C 
BRANCH  43  44
ATOM     44  CE  LYS A 196      14.267  -4.299  -4.721  1.00  0.00    +0.258 C 
BRANCH  44  45
ATOM     45  NZ  LYS A 196      14.916  -5.321  -5.572  1.00  0.00    -0.357 N 
ATOM     46  HZ1 LYS A 196      15.427  -5.989  -4.977  1.00  0.00    +0.345 HD
ATOM     47  HZ2 LYS A 196      14.197  -5.824  -6.113  1.00  0.00    +0.345 HD
ATOM     48  HZ3 LYS A 196      15.574  -4.863  -6.219  1.00  0.00    +0.345 HD
ENDBRANCH  44  45
ENDBRANCH  43  44
ENDBRANCH  42  43
ENDBRANCH  41  42
ENDBRANCH  40  41
END_RES LYS A 196
BEGIN_RES HIS A 197
REMARK INDEX MAP 3 1 15 2 18 3 19 4 20 5 21 6 22 7 25 8
ROOT
ATOM     49  CA  HIS A 197      16.925   1.640   0.668  1.00  0.00    +0.177 C 
ENDROOT
BRANCH  49  50
ATOM     50  CB  HIS A 197      18.448   1.811   0.600  1.00  0.00    +0.093 C 
BRANCH  50  51
ATOM     51  CG  HIS A 197      19.194   0.507   0.499  1.00  0.00    +0.061 A 
ATOM     52  ND1 HIS A 197      18.751  -0.713   0.957  1.00  0.00    -0.242 NA
ATOM     53  CD2 HIS A 197      20.434   0.306  -0.047  1.00  0.00    +0.107 A 
ATOM     54  CE1 HIS A 197      19.702  -1.625   0.701  1.00  0.00    +0.196 A 
ATOM     55  NE2 HIS A 197      20.751  -1.048   0.104  1.00  0.00    -0.350 N 
ATOM     56  HE2 HIS A 197      21.624  -1.512  -0.189  1.00  0.00    +0.167 HD
ENDBRANCH  50  51
ENDBRANCH  49  50
END_RES HIS A 197
BEGIN_RES ILE A 198
REMARK INDEX MAP 3 1 15 2 17 3 18 4 24 5
ROOT
ATOM     57  CA  ILE A 198      15.384   5.175   0.385  1.00  0.00    +0.174 C 
ENDROOT
BRANCH  57  58
ATOM     58  CB  ILE A 198      16.001   6.256  -0.525  1.00  0.00    +0.018 C 
ATOM     59  CG2 ILE A 198      17.417   6.592  -0.026  1.00  0.00    +0.010 C 
BRANCH  58  60
ATOM     60  CG1 ILE A 198      16.011   5.829  -2.008  1.00  0.00    +0.002 C 
ATOM     61  CD1 ILE A 198      16.312   6.966  -2.989  1.00  0.00    +0.004 C 
ENDBRANCH  58  60
ENDBRANCH  57  58
END_RES ILE A 198
BEGIN_RES ASP A 200
REMARK INDEX MAP 3 1 15 2 18 3 19 4 20 5
ROOT
ATOM     62  CA  ASP A 200      11.340   1.754   2.515  1.00  0.00    +0.176 C 
ENDROOT
BRANCH  62  63
ATOM     63  CB  ASP A 200      10.261   2.408   3.406  1.00  0.00    +0.087 C 
BRANCH  63  64
ATOM     64  CG  ASP A 200      10.313   1.967   4.879  1.00  0.00    +0.044 C 
ATOM     65  OD1 ASP A 200      11.418   1.626   5.365  1.00  0.00    -0.548 OA
ATOM     66  OD2 ASP A 200       9.273   2.082   5.568  1.00  0.00    -0.549 OA
ENDBRANCH  63  64
ENDBRANCH  62  63
END_RES ASP A 200
BEGIN_RES CYS A 202
REMARK INDEX MAP 3 1 15 2 18 3 19 4
ROOT
ATOM     67  CA  CYS A 202       9.840  -0.148  -2.684  1.00  0.00    +0.181 C 
ENDROOT
BRANCH  67  68
ATOM     68  CB  CYS A 202       9.556   1.346  -2.861  1.00  0.00    +0.101 C 
BRANCH  68  69
ATOM     69  SG  CYS A 202       8.562   1.668  -4.339  1.00  0.00    -0.177 SA
ATOM     70  HG  CYS A 202       7.412   2.322  -3.983  1.00  0.00    +0.102 HD
ENDBRANCH  68  69
ENDBRANCH  67  68
END_RES CYS A 202
BEGIN_RES CYS A 203
REMARK INDEX MAP 3 1 15 2 18 3 19 4
ROOT
ATOM     71  CA  CYS A 203      10.562  -2.205  -5.856  1.00  0.00    +0.181 C 
ENDROOT
BRANCH  71  72
ATOM     72  CB  CYS A 203      10.246  -3.705  -5.867  1.00  0.00    +0.101 C 
BRANCH  72  73
ATOM     73  SG  CYS A 203      11.237  -4.567  -4.613  1.00  0.00    -0.177 SA
ATOM     74  HG  CYS A 203      10.911  -4.096  -3.369  1.00  0.00    +0.102 HD
ENDBRANCH  72  73
ENDBRANCH  71  72
END_RES CYS A 203
BEGIN_RES LEU A 204
REMARK INDEX MAP 3 1 15 2 18 3 20 4 21 5
ROOT
ATOM     75  CA  LEU A 204      10.344   0.047  -8.968  1.00  0.00    +0.172 C 
ENDROOT
BRANCH  75  76
ATOM     76  CB  LEU A 204      11.507   0.932  -9.440  1.00  0.00    +0.038 C 
BRANCH  76  77
ATOM     77  CG  LEU A 204      11.907   2.036  -8.448  1.00  0.00    -0.015 C 
ATOM     78  CD1 LEU A 204      13.212   2.670  -8.923  1.00  0.00    +0.007 C 
ATOM     79  CD2 LEU A 204      10.830   3.117  -8.344  1.00  0.00    +0.007 C 
ENDBRANCH  76  77
ENDBRANCH  75  76
END_RES LEU A 204
BEGIN_RES THR A 205
REMARK INDEX MAP 3 1 15 2 17 3 18 4 22 5
ROOT
ATOM     80  CA  THR A 205      10.171  -2.845 -11.498  1.00  0.00    +0.199 C 
ENDROOT
BRANCH  80  81
ATOM     81  CB  THR A 205      11.447  -3.524 -12.008  1.00  0.00    +0.143 C 
ATOM     82  CG2 THR A 205      12.477  -2.513 -12.512  1.00  0.00    +0.041 C 
BRANCH  81  83
ATOM     83  OG1 THR A 205      12.052  -4.311 -11.007  1.00  0.00    -0.389 OA
ATOM     84  HG1 THR A 205      11.841  -3.932 -10.116  1.00  0.00    +0.211 HD
ENDBRANCH  81  83
ENDBRANCH  80  81
END_RES THR A 205
BEGIN_RES ARG A 206
REMARK INDEX MAP 3 1 15 2 18 3 21 4 24 5 25 6 26 7 27 8 28 9 29 10 30 11 31 12
REMARK INDEX MAP 32 13
ROOT
ATOM     85  CA  ARG A 206       7.295  -4.660  -9.716  1.00  0.00    +0.171 C 
ENDROOT
BRANCH  85  86
ATOM     86  CB  ARG A 206       6.943  -4.502  -8.237  1.00  0.00    +0.038 C 
BRANCH  86  87
ATOM     87  CG  ARG A 206       6.169  -5.743  -7.768  1.00  0.00    +0.040 C 
BRANCH  87  88
ATOM     88  CD  ARG A 206       6.054  -5.808  -6.254  1.00  0.00    +0.197 C 
BRANCH  88  89
ATOM     89  NE  ARG A 206       7.365  -6.001  -5.595  1.00  0.00    -0.278 N 
ATOM     90  HE  ARG A 206       8.212  -5.902  -6.173  1.00  0.00    +0.260 HD
ATOM     91  CZ  ARG A 206       7.523  -6.291  -4.319  1.00  0.00    +0.339 C 
ATOM     92  NH1 ARG A 206       8.678  -6.555  -3.792  1.00  0.00    -0.290 N 
ATOM     93  NH2 ARG A 206       6.518  -6.334  -3.511  1.00  0.00    -0.290 N 
ATOM     94 HH12 ARG A 206       8.749  -6.776  -2.788  1.00  0.00    +0.256 HD
ATOM     95 HH11 ARG A 206       9.525  -6.545  -4.378  1.00  0.00    +0.256 HD
ATOM     96 HH22 ARG A 206       6.666  -6.563  -2.518  1.00  0.00    +0.256 HD
ATOM     97 HH21 ARG A 206       5.568  -6.140  -3.860  1.00  0.00    +0.256 HD
ENDBRANCH  88  89
ENDBRANCH  87  88
ENDBRANCH  86  87
ENDBRANCH  85  86
END_RES ARG A 206
BEGIN_RES GLU A 207
REMARK INDEX MAP 3 1 15 2 18 3 21 4 22 5 23 6
ROOT
ATOM     98  CA  GLU A 207       4.503  -5.915 -11.996  1.00  0.00    +0.171 C 
ENDROOT
BRANCH  98  99
ATOM     99  CB  GLU A 207       4.773  -7.004 -13.033  1.00  0.00    +0.041 C 
BRANCH  99 100
ATOM    100  CG  GLU A 207       6.222  -7.062 -13.514  1.00  0.00    +0.055 C 
BRANCH 100 101
ATOM    101  CD  GLU A 207       6.301  -8.200 -14.520  1.00  0.00    +0.041 C 
ATOM    102  OE1 GLU A 207       6.120  -7.947 -15.731  1.00  0.00    -0.548 OA
ATOM    103  OE2 GLU A 207       6.325  -9.385 -14.115  1.00  0.00    -0.549 OA
ENDBRANCH 100 101
ENDBRANCH  99 100
ENDBRANCH  98  99
END_RES GLU A 207
BEGIN_RES ASP A 211
REMARK INDEX MAP 3 1 15 2 18 3 19 4 20 5
ROOT
ATOM    104  CA  ASP A 211      -0.213 -10.060  -8.774  1.00  0.00    +0.176 C 
ENDROOT
BRANCH 104 105
ATOM    105  CB  ASP A 211       0.609  -9.358  -7.683  1.00  0.00    +0.087 C 
BRANCH 105 106
ATOM    106  CG  ASP A 211       2.111  -9.626  -7.782  1.00  0.00    +0.044 C 
ATOM    107  OD1 ASP A 211       2.506 -10.795  -7.566  1.00  0.00    -0.548 OA
ATOM    108  OD2 ASP A 211       2.863  -8.642  -7.957  1.00  0.00    -0.549 OA
ENDBRANCH 105 106
ENDBRANCH 104 105
END_RES ASP A 211
