ROOT
ATOM      1 C17  WH0 L   1      -1.006  -2.002   0.650  1.00  0.00    +0.0883  C
ATOM      2 C18  WH0 L   1      -2.162  -1.017   0.177  1.00  0.00    +0.0835  C
ATOM      3 C29  WH0 L   1      -3.132  -0.698   1.359  1.00  0.00    +0.0873  C
ATOM      4 C30  WH0 L   1      -4.286   0.219   0.940  1.00  0.00    -0.0340  C
ATOM      5 O31  WH0 L   1      -2.453  -0.090   2.463  1.00  0.00    -0.3867 OA
ATOM      6 C32  WH0 L   1      -3.704  -2.021   1.884  1.00  0.00    -0.0039  C
ATOM      7 C33  WH0 L   1      -2.592  -2.971   2.304  1.00  0.00    +0.0325  C
ATOM      8 N34  WH0 L   1      -1.693  -3.263   1.142  1.00  0.00    -0.2915 NA
ATOM      9 H52  WH0 L   1      -0.501  -1.540   1.504  1.00  0.00    +0.0602  H
ATOM     10 H53  WH0 L   1      -2.772  -1.566  -0.556  1.00  0.00    +0.0575  H
ATOM     11 H59  WH0 L   1      -4.980   0.372   1.774  1.00  0.00    +0.0258  H
ATOM     12 H60  WH0 L   1      -4.846  -0.198   0.097  1.00  0.00    +0.0258  H
ATOM     13 H61  WH0 L   1      -3.930   1.216   0.661  1.00  0.00    +0.0258  H
ATOM     14 H62  WH0 L   1      -2.023   0.729   2.125  1.00  0.00    +0.2102 HD
ATOM     15 H63  WH0 L   1      -4.343  -1.836   2.757  1.00  0.00    +0.0311  H
ATOM     16 H64  WH0 L   1      -4.326  -2.498   1.116  1.00  0.00    +0.0311  H
ATOM     17 H65  WH0 L   1      -2.005  -2.552   3.129  1.00  0.00    +0.0496  H
ATOM     18 H66  WH0 L   1      -3.066  -3.885   2.673  1.00  0.00    +0.0496  H
ENDROOT
BRANCH 1 24
ATOM     19 C11  WH0 L   1       1.385  -1.887  -0.373  1.00  0.00    -0.0421  A
ATOM     20 C12  WH0 L   1       2.216  -2.045  -1.504  1.00  0.00    -0.0582  A
ATOM     21 C13  WH0 L   1       1.713  -2.487  -2.726  1.00  0.00    -0.0615  A
ATOM     22 C14  WH0 L   1       0.368  -2.800  -2.841  1.00  0.00    -0.0614  A
ATOM     23 C15  WH0 L   1      -0.472  -2.656  -1.739  1.00  0.00    -0.0563  A
ATOM     24 C16  WH0 L   1       0.004  -2.183  -0.492  1.00  0.00    -0.0192  A
ATOM     25 H48  WH0 L   1       3.282  -1.833  -1.435  1.00  0.00    +0.0620  H
ATOM     26 H49  WH0 L   1       2.379  -2.613  -3.575  1.00  0.00    +0.0618  H
ATOM     27 H50  WH0 L   1      -0.025  -3.186  -3.778  1.00  0.00    +0.0618  H
ATOM     28 H51  WH0 L   1      -1.512  -2.961  -1.847  1.00  0.00    +0.0621  H
BRANCH 19 29
ATOM     29 C10  WH0 L   1       2.061  -1.424   0.903  1.00  0.00    -0.0258  C
ATOM     30 H46  WH0 L   1       1.608  -1.925   1.761  1.00  0.00    +0.0314  H
ATOM     31 H47  WH0 L   1       3.104  -1.769   0.906  1.00  0.00    +0.0314  H
BRANCH 29 32
ATOM     32  C9  WH0 L   1       2.030   0.082   1.154  1.00  0.00    -0.0315  C
ATOM     33 H44  WH0 L   1       2.484   0.282   2.133  1.00  0.00    +0.0285  H
ATOM     34 H45  WH0 L   1       0.996   0.419   1.232  1.00  0.00    +0.0285  H
BRANCH 32 35
ATOM     35  C8  WH0 L   1       2.767   0.896   0.098  1.00  0.00    +0.0187  C
ATOM     36 H42  WH0 L   1       3.824   0.609   0.060  1.00  0.00    +0.0486  H
ATOM     37 H43  WH0 L   1       2.343   0.738  -0.897  1.00  0.00    +0.0486  H
BRANCH 35 40
ATOM     38  C5  WH0 L   1       3.423   3.205  -0.390  1.00  0.00    +0.2618  C
ATOM     39  O6  WH0 L   1       4.243   2.827  -1.224  1.00  0.00    -0.2669 OA
ATOM     40  N7  WH0 L   1       2.684   2.319   0.365  1.00  0.00    -0.3514  N
ATOM     41 H41  WH0 L   1       1.904   2.644   0.927  1.00  0.00    +0.1626 HD
BRANCH 38 43
ATOM     42  C1  WH0 L   1       3.827   5.557  -0.906  1.00  0.00    -0.0760  C
ATOM     43  C2  WH0 L   1       3.164   4.661  -0.154  1.00  0.00    +0.1085  C
ATOM     44 H39  WH0 L   1       3.679   6.626  -0.785  1.00  0.00    +0.0549  H
ATOM     45 H40  WH0 L   1       4.536   5.244  -1.668  1.00  0.00    +0.0549  H
BRANCH 43 46
ATOM     46  C3  WH0 L   1       2.238   5.093   0.831  1.00  0.00    +0.1040  C
ATOM     47  N4  WH0 L   1       1.461   5.429   1.625  1.00  0.00    -0.1907 NA
ENDBRANCH 43 46
ENDBRANCH 38 43
ENDBRANCH 35 40
ENDBRANCH 32 35
ENDBRANCH 29 32
ENDBRANCH 19 29
ENDBRANCH 1 24
BRANCH 2 48
ATOM     48 N19  WH0 L   1      -1.711   0.150  -0.611  1.00  0.00    -0.3442  N
ATOM     49 C20  WH0 L   1      -1.182   1.316  -0.125  1.00  0.00    +0.2524  C
ATOM     50 O21  WH0 L   1      -1.143   1.603   1.066  1.00  0.00    -0.2676 OA
ATOM     51 H54  WH0 L   1      -1.694   0.004  -1.613  1.00  0.00    +0.1631 HD
BRANCH 49 52
ATOM     52 C22  WH0 L   1      -0.669   2.282  -1.131  1.00  0.00    +0.0391  A
ATOM     53 C23  WH0 L   1      -0.802   3.652  -0.863  1.00  0.00    -0.0467  A
ATOM     54 C24  WH0 L   1      -0.315   4.592  -1.772  1.00  0.00    -0.0257  A
ATOM     55 C25  WH0 L   1       0.318   4.160  -2.931  1.00  0.00    +0.1234  A
ATOM     56 F26  WH0 L   1       0.800   5.064  -3.794  1.00  0.00    -0.2055  F
ATOM     57 C27  WH0 L   1       0.473   2.804  -3.202  1.00  0.00    -0.0257  A
ATOM     58 C28  WH0 L   1      -0.023   1.858  -2.301  1.00  0.00    -0.0467  A
ATOM     59 H55  WH0 L   1      -1.286   3.989   0.053  1.00  0.00    +0.0626  H
ATOM     60 H56  WH0 L   1      -0.420   5.656  -1.577  1.00  0.00    +0.0646  H
ATOM     61 H57  WH0 L   1       0.990   2.494  -4.105  1.00  0.00    +0.0646  H
ATOM     62 H58  WH0 L   1       0.141   0.803  -2.508  1.00  0.00    +0.0626  H
ENDBRANCH 49 52
ENDBRANCH 2 48
BRANCH 8 63
ATOM     63 S35  WH0 L   1      -0.905  -4.767   1.243  1.00  0.00    +0.2299  S
ATOM     64 C36  WH0 L   1       0.217  -4.559   2.609  1.00  0.00    +0.0573  C
ATOM     65 O37  WH0 L   1      -1.898  -5.738   1.659  1.00  0.00    -0.2056 OA
ATOM     66 O38  WH0 L   1      -0.123  -5.016   0.055  1.00  0.00    -0.2056 OA
ATOM     67 H67  WH0 L   1       0.696  -5.524   2.791  1.00  0.00    +0.0407  H
ATOM     68 H68  WH0 L   1       0.976  -3.828   2.349  1.00  0.00    +0.0407  H
ATOM     69 H69  WH0 L   1      -0.338  -4.260   3.499  1.00  0.00    +0.0407  H
ENDBRANCH 8 63
TORSDOF 10
