ROOT
ATOM      1  C6  CHE L   1      -0.962  -0.213   0.791  1.00  0.00    -0.0199  A
ATOM      2  C7  CHE L   1      -1.224  -1.385   1.476  1.00  0.00    +0.0060  A
ATOM      3  N8  CHE L   1      -2.550  -1.687   1.324  1.00  0.00    -0.3604  N
ATOM      4  C9  CHE L   1      -3.170  -0.731   0.557  1.00  0.00    +0.0467  A
ATOM      5 C10  CHE L   1      -4.507  -0.630   0.152  1.00  0.00    -0.0378  A
ATOM      6 C11  CHE L   1      -4.865   0.466  -0.639  1.00  0.00    -0.0598  A
ATOM      7 C12  CHE L   1      -3.921   1.419  -1.009  1.00  0.00    -0.0611  A
ATOM      8 C13  CHE L   1      -2.588   1.303  -0.595  1.00  0.00    -0.0523  A
ATOM      9 C14  CHE L   1      -2.199   0.208   0.204  1.00  0.00    +0.0029  A
ATOM     10 H26  CHE L   1      -0.579  -2.029   2.060  1.00  0.00    +0.0810  H
ATOM     11 H27  CHE L   1      -3.015  -2.492   1.720  1.00  0.00    +0.1653 HD
ATOM     12 H28  CHE L   1      -5.245  -1.372   0.438  1.00  0.00    +0.0638  H
ATOM     13 H29  CHE L   1      -5.894   0.573  -0.971  1.00  0.00    +0.0618  H
ATOM     14 H30  CHE L   1      -4.215   2.262  -1.630  1.00  0.00    +0.0618  H
ATOM     15 H31  CHE L   1      -1.861   2.050  -0.900  1.00  0.00    +0.0624  H
ENDROOT
BRANCH 1 16
ATOM     16  C5  CHE L   1       0.370   0.477   0.707  1.00  0.00    +0.0058  C
ATOM     17 H24  CHE L   1       0.806   0.435   1.714  1.00  0.00    +0.0339  H
ATOM     18 H25  CHE L   1       0.225   1.541   0.484  1.00  0.00    +0.0339  H
BRANCH 16 19
ATOM     19  C4  CHE L   1       1.318  -0.178  -0.311  1.00  0.00    +0.1411  C
ATOM     20 H23  CHE L   1       1.012  -1.210  -0.525  1.00  0.00    +0.0649  H
BRANCH 19 22
ATOM     21  O1  CHE L   1       0.257   0.884  -2.263  1.00  0.00    -0.2487 OA
ATOM     22  C2  CHE L   1       1.264   0.551  -1.658  1.00  0.00    +0.3284  C
ATOM     23  O3  CHE L   1       2.468   0.791  -2.224  1.00  0.00    -0.4792 OA
ATOM     24 H22  CHE L   1       2.242   1.228  -3.073  1.00  0.00    +0.2951 HD
ENDBRANCH 19 22
BRANCH 19 25
ATOM     25 N15  CHE L   1       2.701  -0.243   0.169  1.00  0.00    -0.2615  N
ATOM     26 C16  CHE L   1       3.541  -1.276  -0.085  1.00  0.00    +0.2549  C
ATOM     27 O17  CHE L   1       3.309  -2.335  -0.637  1.00  0.00    -0.2676 OA
ATOM     28 C18  CHE L   1       4.861  -0.897   0.430  1.00  0.00    +0.0082  C
ATOM     29 C19  CHE L   1       4.771   0.348   0.899  1.00  0.00    +0.0082  C
ATOM     30 C20  CHE L   1       3.391   0.799   0.693  1.00  0.00    +0.2549  C
ATOM     31 O21  CHE L   1       3.000   1.924   0.946  1.00  0.00    -0.2676 OA
ATOM     32 H32  CHE L   1       5.721  -1.542   0.393  1.00  0.00    +0.0673  H
ATOM     33 H33  CHE L   1       5.539   0.962   1.334  1.00  0.00    +0.0673  H
ENDBRANCH 19 25
ENDBRANCH 16 19
ENDBRANCH 1 16
TORSDOF 4
