ROOT
ATOM      1 C33  WH0 L   1      -0.394  -2.526   0.345  1.00  0.00    -0.0133  A
ATOM      2 C34  WH0 L   1      -1.160  -2.931   1.463  1.00  0.00    -0.0519  A
ATOM      3 C35  WH0 L   1      -1.931  -4.102   1.409  1.00  0.00    -0.0374  A
ATOM      4 C36  WH0 L   1      -1.919  -4.847   0.231  1.00  0.00    +0.0454  A
ATOM      5 C37  WH0 L   1      -1.175  -4.459  -0.864  1.00  0.00    -0.0145  A
ATOM      6 C38  WH0 L   1      -0.400  -3.300  -0.832  1.00  0.00    -0.0483  A
ATOM      7 C39  WH0 L   1      -1.342  -5.429  -1.988  1.00  0.00    +0.0535  C
ATOM      8 C40  WH0 L   1      -2.285  -6.403  -1.345  1.00  0.00    +0.2296  C
ATOM      9 O41  WH0 L   1      -2.734  -7.432  -1.915  1.00  0.00    -0.2725 OA
ATOM     10 N42  WH0 L   1      -2.627  -6.048  -0.010  1.00  0.00    -0.3256  N
ATOM     11 H69  WH0 L   1      -1.157  -2.337   2.368  1.00  0.00    +0.0624  H
ATOM     12 H70  WH0 L   1      -2.521  -4.417   2.260  1.00  0.00    +0.0638  H
ATOM     13 H71  WH0 L   1       0.182  -3.005  -1.697  1.00  0.00    +0.0627  H
ATOM     14 H72  WH0 L   1      -0.376  -5.916  -2.243  1.00  0.00    +0.0410  H
ATOM     15 H73  WH0 L   1      -1.812  -4.941  -2.869  1.00  0.00    +0.0410  H
ATOM     16 H74  WH0 L   1      -3.262  -6.557   0.644  1.00  0.00    +0.1686 HD
ENDROOT
BRANCH 1 24
ATOM     17 C11  WH0 L   1      -1.118   0.503  -0.574  1.00  0.00    -0.0030  A
ATOM     18 C12  WH0 L   1      -1.032   1.804  -1.125  1.00  0.00    +0.0366  A
ATOM     19 N13  WH0 L   1       0.130   2.513  -1.069  1.00  0.00    -0.2204 NA
ATOM     20 C14  WH0 L   1       1.253   1.989  -0.511  1.00  0.00    +0.2282  A
ATOM     21 N22  WH0 L   1       1.208   0.718  -0.042  1.00  0.00    -0.1984  N
ATOM     22 N23  WH0 L   1       2.243   0.007   0.371  1.00  0.00    -0.1627 NA
ATOM     23 C24  WH0 L   1       1.790  -1.231   0.659  1.00  0.00    +0.1015  A
ATOM     24 C32  WH0 L   1       0.415  -1.299   0.409  1.00  0.00    +0.0356  A
ATOM     25 C43  WH0 L   1       0.087  -0.027  -0.060  1.00  0.00    +0.0835  A
ATOM     26 H53  WH0 L   1      -1.884   2.268  -1.597  1.00  0.00    +0.0834  H
BRANCH 17 27
ATOM     27 C10  WH0 L   1      -2.406  -0.303  -0.635  1.00  0.00    -0.0226  C
ATOM     28 H51  WH0 L   1      -2.451  -1.002   0.219  1.00  0.00    +0.0315  H
ATOM     29 H52  WH0 L   1      -2.400  -0.905  -1.568  1.00  0.00    +0.0315  H
BRANCH 27 30
ATOM     30  C9  WH0 L   1      -3.709   0.514  -0.574  1.00  0.00    -0.0314  C
ATOM     31 H49  WH0 L   1      -3.800   1.175  -1.459  1.00  0.00    +0.0285  H
ATOM     32 H50  WH0 L   1      -4.562  -0.199  -0.631  1.00  0.00    +0.0285  H
BRANCH 30 33
ATOM     33  C8  WH0 L   1      -3.838   1.312   0.733  1.00  0.00    +0.0187  C
ATOM     34 H47  WH0 L   1      -3.001   2.033   0.847  1.00  0.00    +0.0486  H
ATOM     35 H48  WH0 L   1      -3.796   0.607   1.592  1.00  0.00    +0.0486  H
BRANCH 33 38
ATOM     36  C5  WH0 L   1      -5.333   3.236   0.020  1.00  0.00    +0.2618  C
ATOM     37  O6  WH0 L   1      -4.458   3.630  -0.799  1.00  0.00    -0.2669 OA
ATOM     38  N7  WH0 L   1      -5.110   2.031   0.772  1.00  0.00    -0.3514  N
ATOM     39 H46  WH0 L   1      -5.862   1.647   1.384  1.00  0.00    +0.1626 HD
BRANCH 36 41
ATOM     40  C1  WH0 L   1      -7.318   3.985   1.279  1.00  0.00    -0.0760  C
ATOM     41  C2  WH0 L   1      -6.580   4.022   0.167  1.00  0.00    +0.1085  C
ATOM     42 H44  WH0 L   1      -8.220   4.579   1.365  1.00  0.00    +0.0549  H
ATOM     43 H45  WH0 L   1      -7.028   3.397   2.140  1.00  0.00    +0.0549  H
BRANCH 41 44
ATOM     44  C3  WH0 L   1      -6.988   4.895  -0.908  1.00  0.00    +0.1040  C
ATOM     45  N4  WH0 L   1      -7.315   5.594  -1.770  1.00  0.00    -0.1907 NA
ENDBRANCH 41 44
ENDBRANCH 36 41
ENDBRANCH 33 38
ENDBRANCH 30 33
ENDBRANCH 27 30
ENDBRANCH 17 27
BRANCH 20 46
ATOM     46 N15  WH0 L   1       2.462   2.763  -0.459  1.00  0.00    -0.3402  N
ATOM     47 C16  WH0 L   1       3.104   3.029   0.835  1.00  0.00    +0.0228  C
ATOM     48 C17  WH0 L   1       4.618   3.130   0.644  1.00  0.00    -0.0199  C
ATOM     49 C18  WH0 L   1       5.000   4.252  -0.350  1.00  0.00    +0.0080  C
ATOM     50 N19  WH0 L   1       6.245   3.896  -1.038  1.00  0.00    -0.3271 NA
ATOM     51 C20  WH0 L   1       3.873   4.591  -1.364  1.00  0.00    -0.0199  C
ATOM     52 C21  WH0 L   1       2.975   3.388  -1.687  1.00  0.00    +0.0228  C
ATOM     53 H54  WH0 L   1       2.711   3.981   1.255  1.00  0.00    +0.0489  H
ATOM     54 H55  WH0 L   1       2.885   2.221   1.564  1.00  0.00    +0.0489  H
ATOM     55 H56  WH0 L   1       4.982   2.146   0.273  1.00  0.00    +0.0297  H
ATOM     56 H57  WH0 L   1       5.104   3.317   1.626  1.00  0.00    +0.0297  H
ATOM     57 H58  WH0 L   1       5.193   5.173   0.246  1.00  0.00    +0.0459  H
ATOM     58 H59  WH0 L   1       6.581   4.728  -1.576  1.00  0.00    +0.1185 HD
ATOM     59 H60  WH0 L   1       6.051   3.134  -1.730  1.00  0.00    +0.1185 HD
ATOM     60 H61  WH0 L   1       3.231   5.391  -0.931  1.00  0.00    +0.0297  H
ATOM     61 H62  WH0 L   1       4.299   4.998  -2.307  1.00  0.00    +0.0297  H
ATOM     62 H63  WH0 L   1       3.549   2.633  -2.267  1.00  0.00    +0.0489  H
ATOM     63 H64  WH0 L   1       2.133   3.743  -2.321  1.00  0.00    +0.0489  H
ENDBRANCH 20 46
BRANCH 23 64
ATOM     64 C25  WH0 L   1       2.691  -2.342   1.039  1.00  0.00    +0.0029  A
ATOM     65 C26  WH0 L   1       3.991  -2.392   0.506  1.00  0.00    -0.0498  A
ATOM     66 C27  WH0 L   1       4.855  -3.439   0.843  1.00  0.00    -0.0258  A
ATOM     67 C28  WH0 L   1       4.434  -4.437   1.727  1.00  0.00    +0.1234  A
ATOM     68 F29  WH0 L   1       5.272  -5.452   2.053  1.00  0.00    -0.2055  F
ATOM     69 C30  WH0 L   1       3.151  -4.385   2.277  1.00  0.00    -0.0258  A
ATOM     70 C31  WH0 L   1       2.285  -3.341   1.940  1.00  0.00    -0.0498  A
ATOM     71 H65  WH0 L   1       4.332  -1.634  -0.189  1.00  0.00    +0.0625  H
ATOM     72 H66  WH0 L   1       5.849  -3.477   0.417  1.00  0.00    +0.0646  H
ATOM     73 H67  WH0 L   1       2.829  -5.150   2.972  1.00  0.00    +0.0646  H
ATOM     74 H68  WH0 L   1       1.313  -3.302   2.411  1.00  0.00    +0.0625  H
ENDBRANCH 23 64
ENDBRANCH 1 24
TORSDOF 9
