ROOT
ATOM      1 C15  EUB L   1       0.375   1.703  -1.273  1.00  0.00    +0.0503  A
ATOM      2 C16  EUB L   1       1.420   2.625  -1.190  1.00  0.00    -0.0358  A
ATOM      3 C17  EUB L   1       2.684   2.239  -0.729  1.00  0.00    -0.0356  A
ATOM      4 C18  EUB L   1       2.925   0.922  -0.322  1.00  0.00    +0.0518  A
ATOM      5 C19  EUB L   1       1.870   0.001  -0.385  1.00  0.00    +0.0009  A
ATOM      6 C20  EUB L   1       0.602   0.395  -0.847  1.00  0.00    -0.0286  A
ATOM      7 C21  EUB L   1       2.088  -1.380   0.033  1.00  0.00    -0.0445  A
ATOM      8 C22  EUB L   1       3.285  -1.780   0.483  1.00  0.00    +0.0146  A
ATOM      9 C23  EUB L   1       3.562  -3.185   0.920  1.00  0.00    -0.0346  C
ATOM     10 C24  EUB L   1       4.429  -0.820   0.570  1.00  0.00    +0.2544  A
ATOM     11 O25  EUB L   1       5.513  -1.218   0.995  1.00  0.00    -0.2674 OA
ATOM     12 N26  EUB L   1       4.198   0.491   0.158  1.00  0.00    -0.3109  N
ATOM     13 C27  EUB L   1       5.302   1.435   0.227  1.00  0.00    +0.0153  C
ATOM     14 H35  EUB L   1       1.269   3.661  -1.487  1.00  0.00    +0.0639  H
ATOM     15 H36  EUB L   1       3.461   2.997  -0.696  1.00  0.00    +0.0639  H
ATOM     16 H37  EUB L   1      -0.188  -0.348  -0.878  1.00  0.00    +0.0645  H
ATOM     17 H38  EUB L   1       1.258  -2.075  -0.036  1.00  0.00    +0.0628  H
ATOM     18 H39  EUB L   1       2.678  -3.824   0.824  1.00  0.00    +0.0279  H
ATOM     19 H40  EUB L   1       3.872  -3.207   1.970  1.00  0.00    +0.0279  H
ATOM     20 H41  EUB L   1       4.358  -3.627   0.311  1.00  0.00    +0.0279  H
ATOM     21 H42  EUB L   1       5.513   1.822  -0.775  1.00  0.00    +0.0457  H
ATOM     22 H43  EUB L   1       5.039   2.253   0.904  1.00  0.00    +0.0457  H
ATOM     23 H44  EUB L   1       6.218   0.971   0.604  1.00  0.00    +0.0457  H
ENDROOT
BRANCH 1 24
ATOM     24 N14  EUB L   1      -0.895   2.207  -1.679  1.00  0.00    -0.2796  N
ATOM     25 H34  EUB L   1      -0.953   3.142  -2.081  1.00  0.00    +0.1788 HD
BRANCH 24 26
ATOM     26 S11  EUB L   1      -2.212   1.255  -2.114  1.00  0.00    +0.2665  S
ATOM     27 O12  EUB L   1      -1.703   0.124  -2.858  1.00  0.00    -0.1999 OA
ATOM     28 O13  EUB L   1      -3.172   2.180  -2.681  1.00  0.00    -0.1999 OA
BRANCH 26 34
ATOM     29  C3  EUB L   1      -3.690  -0.451  -0.517  1.00  0.00    +0.1412  A
ATOM     30  C4  EUB L   1      -4.191  -0.873   0.722  1.00  0.00    -0.0013  A
ATOM     31  C5  EUB L   1      -3.912  -0.152   1.893  1.00  0.00    +0.0553  A
ATOM     32  C8  EUB L   1      -3.134   1.005   1.831  1.00  0.00    -0.0429  A
ATOM     33  C9  EUB L   1      -2.629   1.438   0.605  1.00  0.00    -0.0370  A
ATOM     34 C10  EUB L   1      -2.896   0.706  -0.563  1.00  0.00    +0.1283  A
ATOM     35 H31  EUB L   1      -4.813  -1.761   0.803  1.00  0.00    +0.0667  H
ATOM     36 H32  EUB L   1      -2.920   1.578   2.732  1.00  0.00    +0.0631  H
ATOM     37 H33  EUB L   1      -2.036   2.349   0.575  1.00  0.00    +0.0632  H
BRANCH 29 39
ATOM     38  C1  EUB L   1      -4.689  -2.296  -1.674  1.00  0.00    +0.0788  C
ATOM     39  O2  EUB L   1      -3.952  -1.080  -1.699  1.00  0.00    -0.4937 OA
ATOM     40 H28  EUB L   1      -4.754  -2.669  -2.700  1.00  0.00    +0.0660  H
ATOM     41 H29  EUB L   1      -5.710  -2.128  -1.315  1.00  0.00    +0.0660  H
ATOM     42 H30  EUB L   1      -4.178  -3.056  -1.074  1.00  0.00    +0.0660  H
ENDBRANCH 29 39
BRANCH 31 43
ATOM     43  C6  EUB L   1      -4.434  -0.600   3.151  1.00  0.00    +0.0993  C
ATOM     44  N7  EUB L   1      -4.855  -0.967   4.168  1.00  0.00    -0.1909 NA
ENDBRANCH 31 43
ENDBRANCH 26 34
ENDBRANCH 24 26
ENDBRANCH 1 24
TORSDOF 5
