ROOT
ATOM      1 C14  408 L   1      -1.530   0.406   1.038  1.00  0.00    +0.0028  C
ATOM      2 C15  408 L   1      -2.956   0.446   1.656  1.00  0.00    -0.0464  C
ATOM      3 C16  408 L   1      -4.062   0.541   0.611  1.00  0.00    -0.0526  C
ATOM      4 C17  408 L   1      -3.939   1.809  -0.230  1.00  0.00    -0.0507  C
ATOM      5 C18  408 L   1      -2.499   2.287  -0.384  1.00  0.00    -0.0265  C
ATOM      6 C19  408 L   1      -1.496   1.134  -0.326  1.00  0.00    +0.0596  C
ATOM      7 O20  408 L   1      -0.210   1.688  -0.593  1.00  0.00    -0.3915 OA
ATOM      8 H36  408 L   1      -0.892   0.973   1.733  1.00  0.00    +0.0342  H
ATOM      9 H37  408 L   1      -3.135  -0.417   2.307  1.00  0.00    +0.0269  H
ATOM     10 H38  408 L   1      -3.025   1.327   2.309  1.00  0.00    +0.0269  H
ATOM     11 H39  408 L   1      -4.024  -0.335  -0.046  1.00  0.00    +0.0265  H
ATOM     12 H40  408 L   1      -5.043   0.520   1.098  1.00  0.00    +0.0265  H
ATOM     13 H41  408 L   1      -4.379   1.622  -1.217  1.00  0.00    +0.0266  H
ATOM     14 H42  408 L   1      -4.531   2.614   0.221  1.00  0.00    +0.0266  H
ATOM     15 H43  408 L   1      -2.262   3.010   0.408  1.00  0.00    +0.0290  H
ATOM     16 H44  408 L   1      -2.390   2.846  -1.322  1.00  0.00    +0.0290  H
ATOM     17 H45  408 L   1      -1.724   0.441  -1.142  1.00  0.00    +0.0596  H
ATOM     18 H46  408 L   1       0.159   2.041   0.235  1.00  0.00    +0.2098 HD
ENDROOT
BRANCH 1 24
ATOM     19  N8  408 L   1       0.514  -1.209   0.903  1.00  0.00    -0.2862 NA
ATOM     20  C9  408 L   1       0.875  -2.543   1.471  1.00  0.00    +0.0232  C
ATOM     21 C10  408 L   1      -0.221  -3.628   1.311  1.00  0.00    +0.0605  C
ATOM     22 O11  408 L   1      -1.066  -3.379   0.181  1.00  0.00    -0.3770 OA
ATOM     23 C12  408 L   1      -1.751  -2.115   0.274  1.00  0.00    +0.0636  C
ATOM     24 C13  408 L   1      -0.956  -1.053   1.078  1.00  0.00    +0.0395  C
ATOM     25 H29  408 L   1       1.818  -2.913   1.051  1.00  0.00    +0.0449  H
ATOM     26 H30  408 L   1       1.079  -2.421   2.542  1.00  0.00    +0.0449  H
ATOM     27 H31  408 L   1      -0.848  -3.685   2.209  1.00  0.00    +0.0572  H
ATOM     28 H32  408 L   1       0.245  -4.609   1.173  1.00  0.00    +0.0572  H
ATOM     29 H33  408 L   1      -2.720  -2.305   0.746  1.00  0.00    +0.0575  H
ATOM     30 H34  408 L   1      -1.938  -1.786  -0.752  1.00  0.00    +0.0575  H
ATOM     31 H35  408 L   1      -1.111  -1.320   2.136  1.00  0.00    +0.0489  H
BRANCH 19 32
ATOM     32  C7  408 L   1       0.961  -1.189  -0.518  1.00  0.00    +0.0777  C
ATOM     33 H27  408 L   1       0.799  -2.156  -1.011  1.00  0.00    +0.0524  H
ATOM     34 H28  408 L   1       0.399  -0.476  -1.117  1.00  0.00    +0.0524  H
BRANCH 32 38
ATOM     35  C3  408 L   1       4.118   0.423  -0.612  1.00  0.00    +0.2171  A
ATOM     36  N4  408 L   1       4.546  -0.776  -0.947  1.00  0.00    -0.1124 NA
ATOM     37  N5  408 L   1       3.434  -1.591  -0.970  1.00  0.00    -0.1110 NA
ATOM     38  C6  408 L   1       2.407  -0.830  -0.647  1.00  0.00    +0.2312  A
ATOM     39 O21  408 L   1       2.767   0.471  -0.402  1.00  0.00    -0.4233 OA
BRANCH 35 41
ATOM     40  C1  408 L   1       4.839   2.525  -1.706  1.00  0.00    -0.0568  C
ATOM     41  C2  408 L   1       4.876   1.681  -0.443  1.00  0.00    +0.0227  C
ATOM     42 H22  408 L   1       5.261   1.982  -2.559  1.00  0.00    +0.0234  H
ATOM     43 H23  408 L   1       5.417   3.443  -1.567  1.00  0.00    +0.0234  H
ATOM     44 H24  408 L   1       3.811   2.806  -1.964  1.00  0.00    +0.0234  H
ATOM     45 H25  408 L   1       5.915   1.449  -0.189  1.00  0.00    +0.0357  H
ATOM     46 H26  408 L   1       4.462   2.254   0.394  1.00  0.00    +0.0357  H
ENDBRANCH 35 41
ENDBRANCH 32 38
ENDBRANCH 19 32
ENDBRANCH 1 24
TORSDOF 4
