ROOT
ATOM      1  N4  127 L   1      -3.713   0.993   0.362  1.00  0.00    -0.2439  N
ATOM      2  N5  127 L   1      -3.823   2.162   1.044  1.00  0.00    -0.1769 NA
ATOM      3  C6  127 L   1      -2.555   2.494   1.302  1.00  0.00    +0.0588  A
ATOM      4  C7  127 L   1      -1.629   1.559   0.797  1.00  0.00    +0.0405  A
ATOM      5  C8  127 L   1      -0.235   1.397   0.770  1.00  0.00    -0.0246  A
ATOM      6  C9  127 L   1       0.283   0.264   0.129  1.00  0.00    +0.0611  A
ATOM      7 C19  127 L   1      -0.621  -0.634  -0.444  1.00  0.00    +0.0533  A
ATOM      8 N20  127 L   1      -1.977  -0.517  -0.444  1.00  0.00    -0.2338 NA
ATOM      9 C21  127 L   1      -2.412   0.590   0.187  1.00  0.00    +0.1585  A
ATOM     10 H29  127 L   1      -2.358   3.406   1.849  1.00  0.00    +0.0854  H
ATOM     11 H30  127 L   1       0.406   2.137   1.237  1.00  0.00    +0.0646  H
ATOM     12 H37  127 L   1      -0.284  -1.530  -0.958  1.00  0.00    +0.0851  H
ENDROOT
BRANCH 1 14
ATOM     13  C1  127 L   1      -4.990   0.228  -1.619  1.00  0.00    -0.0428  C
ATOM     14  C2  127 L   1      -4.921   0.317  -0.094  1.00  0.00    +0.0493  C
ATOM     15  C3  127 L   1      -5.094  -1.054   0.560  1.00  0.00    -0.0428  C
ATOM     16 H22  127 L   1      -4.863   1.217  -2.073  1.00  0.00    +0.0250  H
ATOM     17 H23  127 L   1      -4.213  -0.427  -2.026  1.00  0.00    +0.0250  H
ATOM     18 H24  127 L   1      -5.960  -0.168  -1.937  1.00  0.00    +0.0250  H
ATOM     19 H25  127 L   1      -5.760   0.944   0.235  1.00  0.00    +0.0540  H
ATOM     20 H26  127 L   1      -5.041  -0.975   1.651  1.00  0.00    +0.0250  H
ATOM     21 H27  127 L   1      -4.321  -1.760   0.239  1.00  0.00    +0.0250  H
ATOM     22 H28  127 L   1      -6.067  -1.484   0.299  1.00  0.00    +0.0250  H
ENDBRANCH 1 14
BRANCH 6 23
ATOM     23 N10  127 L   1       1.688   0.122   0.108  1.00  0.00    -0.3182  N
ATOM     24 C11  127 L   1       2.404  -0.933  -0.426  1.00  0.00    +0.2941  C
ATOM     25 O12  127 L   1       1.941  -1.948  -0.931  1.00  0.00    -0.2638 OA
ATOM     26 H31  127 L   1       2.219   0.846   0.576  1.00  0.00    +0.1691 HD
BRANCH 24 27
ATOM     27 C13  127 L   1       3.889  -0.766  -0.298  1.00  0.00    +0.2194  C
ATOM     28 C14  127 L   1       4.466   0.370  -0.726  1.00  0.00    +0.1316  C
ATOM     29 O15  127 L   1       5.811   0.649  -0.655  1.00  0.00    -0.4923 OA
ATOM     30 C16  127 L   1       6.519  -0.328   0.126  1.00  0.00    +0.1228  C
ATOM     31 C17  127 L   1       6.003  -1.734  -0.155  1.00  0.00    +0.1238  C
ATOM     32 O18  127 L   1       4.615  -1.842   0.189  1.00  0.00    -0.4810 OA
ATOM     33 H32  127 L   1       3.938   1.191  -1.195  1.00  0.00    +0.1063  H
ATOM     34 H33  127 L   1       6.395  -0.069   1.184  1.00  0.00    +0.0731  H
ATOM     35 H34  127 L   1       7.582  -0.251  -0.125  1.00  0.00    +0.0731  H
ATOM     36 H35  127 L   1       6.119  -1.995  -1.215  1.00  0.00    +0.0731  H
ATOM     37 H36  127 L   1       6.554  -2.469   0.440  1.00  0.00    +0.0731  H
ENDBRANCH 24 27
ENDBRANCH 6 23
TORSDOF 3
