ROOT
ATOM      1 C11  CHE L   1      -1.924  -0.190  -0.103  1.00  0.00    +0.0020  C
ATOM      2 C19  CHE L   1      -2.154   1.178   0.581  1.00  0.00    -0.0196  C
ATOM      3 C20  CHE L   1      -2.174   1.100   2.104  1.00  0.00    +0.0492  C
ATOM      4 O21  CHE L   1      -2.456  -0.200   2.605  1.00  0.00    -0.3738 OA
ATOM      5 C22  CHE L   1      -3.454  -0.936   1.897  1.00  0.00    +0.0648  C
ATOM      6 C23  CHE L   1      -4.826  -0.257   2.038  1.00  0.00    -0.0361  C
ATOM      7 C24  CHE L   1      -3.531  -2.304   2.594  1.00  0.00    -0.0361  C
ATOM      8 C25  CHE L   1      -3.058  -1.134   0.412  1.00  0.00    -0.0145  C
ATOM      9 H42  CHE L   1      -3.125   1.579   0.258  1.00  0.00    +0.0296  H
ATOM     10 H43  CHE L   1      -1.421   1.933   0.274  1.00  0.00    +0.0296  H
ATOM     11 H44  CHE L   1      -1.192   1.382   2.499  1.00  0.00    +0.0560  H
ATOM     12 H45  CHE L   1      -2.892   1.816   2.521  1.00  0.00    +0.0560  H
ATOM     13 H46  CHE L   1      -5.053  -0.057   3.092  1.00  0.00    +0.0257  H
ATOM     14 H47  CHE L   1      -4.861   0.709   1.525  1.00  0.00    +0.0257  H
ATOM     15 H48  CHE L   1      -5.626  -0.881   1.624  1.00  0.00    +0.0257  H
ATOM     16 H49  CHE L   1      -2.557  -2.806   2.572  1.00  0.00    +0.0257  H
ATOM     17 H50  CHE L   1      -4.271  -2.959   2.122  1.00  0.00    +0.0257  H
ATOM     18 H51  CHE L   1      -3.794  -2.189   3.652  1.00  0.00    +0.0257  H
ATOM     19 H52  CHE L   1      -2.757  -2.178   0.245  1.00  0.00    +0.0301  H
ATOM     20 H53  CHE L   1      -3.960  -1.010  -0.205  1.00  0.00    +0.0301  H
ENDROOT
BRANCH 1 21
ATOM     21 C10  CHE L   1      -0.531  -0.788   0.296  1.00  0.00    -0.0257  C
ATOM     22 H36  CHE L   1      -0.421  -1.799  -0.121  1.00  0.00    +0.0291  H
ATOM     23 H37  CHE L   1      -0.473  -0.934   1.381  1.00  0.00    +0.0291  H
BRANCH 21 24
ATOM     24  C9  CHE L   1       0.682   0.046  -0.145  1.00  0.00    +0.0163  C
ATOM     25 H34  CHE L   1       0.681   0.142  -1.235  1.00  0.00    +0.0485  H
ATOM     26 H35  CHE L   1       0.636   1.046   0.300  1.00  0.00    +0.0485  H
BRANCH 24 27
ATOM     27  N8  CHE L   1       1.906  -0.622   0.293  1.00  0.00    -0.3843  N
ATOM     28 H33  CHE L   1       1.846  -0.977   1.246  1.00  0.00    +0.1596 HD
BRANCH 27 33
ATOM     29  C3  CHE L   1       5.543   0.059   0.578  1.00  0.00    +0.1220  A
ATOM     30  C4  CHE L   1       5.732   1.025  -0.406  1.00  0.00    -0.0198  A
ATOM     31  C5  CHE L   1       4.648   1.454  -1.172  1.00  0.00    -0.0564  A
ATOM     32  C6  CHE L   1       3.371   0.930  -0.947  1.00  0.00    -0.0385  A
ATOM     33  C7  CHE L   1       3.145  -0.009   0.064  1.00  0.00    +0.0388  A
ATOM     34 C26  CHE L   1       4.258  -0.456   0.793  1.00  0.00    +0.0031  A
ATOM     35 H30  CHE L   1       6.706   1.454  -0.612  1.00  0.00    +0.0654  H
ATOM     36 H31  CHE L   1       4.796   2.192  -1.956  1.00  0.00    +0.0619  H
ATOM     37 H32  CHE L   1       2.562   1.272  -1.585  1.00  0.00    +0.0638  H
ATOM     38 H54  CHE L   1       4.132  -1.226   1.550  1.00  0.00    +0.0675  H
BRANCH 29 40
ATOM     39  C1  CHE L   1       7.841  -0.003   1.181  1.00  0.00    +0.0788  C
ATOM     40  O2  CHE L   1       6.513  -0.466   1.388  1.00  0.00    -0.4950 OA
ATOM     41 H27  CHE L   1       8.191  -0.243   0.172  1.00  0.00    +0.0660  H
ATOM     42 H28  CHE L   1       7.921   1.071   1.383  1.00  0.00    +0.0660  H
ATOM     43 H29  CHE L   1       8.491  -0.523   1.891  1.00  0.00    +0.0660  H
ENDBRANCH 29 40
ENDBRANCH 27 33
ENDBRANCH 24 27
ENDBRANCH 21 24
ENDBRANCH 1 21
BRANCH 1 44
ATOM     44 C12  CHE L   1      -2.017  -0.125  -1.649  1.00  0.00    -0.0408  A
ATOM     45 C13  CHE L   1      -2.157   1.087  -2.352  1.00  0.00    -0.0553  A
ATOM     46 C14  CHE L   1      -2.228   1.108  -3.749  1.00  0.00    -0.0262  A
ATOM     47 C15  CHE L   1      -2.158  -0.080  -4.462  1.00  0.00    +0.1234  A
ATOM     48 F16  CHE L   1      -2.226  -0.055  -5.799  1.00  0.00    -0.2055  F
ATOM     49 C17  CHE L   1      -2.017  -1.291  -3.804  1.00  0.00    -0.0262  A
ATOM     50 C18  CHE L   1      -1.947  -1.313  -2.409  1.00  0.00    -0.0553  A
ATOM     51 H38  CHE L   1      -2.213   2.043  -1.840  1.00  0.00    +0.0621  H
ATOM     52 H39  CHE L   1      -2.338   2.046  -4.284  1.00  0.00    +0.0646  H
ATOM     53 H40  CHE L   1      -1.960  -2.211  -4.376  1.00  0.00    +0.0646  H
ATOM     54 H41  CHE L   1      -1.831  -2.279  -1.921  1.00  0.00    +0.0621  H
ENDBRANCH 1 44
TORSDOF 6
