MODEL 1
REMARK VINA RESULT:    -6.731      0.000      0.000
REMARK INTER + INTRA:          -7.052
REMARK INTER:                  -7.125
REMARK INTRA:                   0.073
REMARK UNBOUND:                 0.073
ROOT
ATOM      1  C4  25D L   1       7.002  -1.659  -2.057  1.00  0.00    +0.0338  A
ATOM      2  C5  25D L   1       7.022  -0.535  -1.205  1.00  0.00    -0.0330  A
ATOM      3  C6  25D L   1       8.225   0.085  -0.855  1.00  0.00    +0.0415  A
ATOM      4 CL7  25D L   1       8.203   1.456   0.180  1.00  0.00    -0.0835 Cl
ATOM      5  C8  25D L   1       9.433  -0.401  -1.339  1.00  0.00    -0.0420  A
ATOM      6  C9  25D L   1       9.438  -1.517  -2.177  1.00  0.00    -0.0415  A
ATOM      7 C10  25D L   1       8.237  -2.143  -2.532  1.00  0.00    +0.0500  A
ATOM      8 CL11 25D L   1       8.350  -3.508  -3.581  1.00  0.00    -0.0831 Cl
ATOM      9 H18  25D L   1       6.099  -0.129  -0.791  1.00  0.00    +0.0637  H
ATOM     10 H19  25D L   1      10.372   0.077  -1.068  1.00  0.00    +0.0633  H
ATOM     11 H20  25D L   1      10.391  -1.893  -2.547  1.00  0.00    +0.0633  H
ENDROOT
BRANCH 1 13
ATOM     12  C1  25D L   1       5.533  -3.717  -1.855  1.00  0.00    -0.0030  C
ATOM     13  C2  25D L   1       5.661  -2.289  -2.374  1.00  0.00    +0.1553  C
ATOM     14  N3  25D L   1       5.323  -2.277  -3.821  1.00  0.00    -0.1890  N
ATOM     15 H12  25D L   1       4.523  -4.105  -2.030  1.00  0.00    +0.0292  H
ATOM     16 H13  25D L   1       5.719  -3.755  -0.775  1.00  0.00    +0.0292  H
ATOM     17 H14  25D L   1       6.238  -4.402  -2.334  1.00  0.00    +0.0292  H
ATOM     18 H15  25D L   1       4.868  -1.685  -1.915  1.00  0.00    +0.1051  H
ATOM     19 H16  25D L   1       5.459  -1.347  -4.236  1.00  0.00    +0.4057 HD
ATOM     20 H17  25D L   1       4.355  -2.570  -3.997  1.00  0.00    +0.4057 HD
ENDBRANCH 1 13
TORSDOF 1
ENDMDL
MODEL 2
REMARK VINA RESULT:    -6.342      2.505      3.760
REMARK INTER + INTRA:          -6.640
REMARK INTER:                  -6.523
REMARK INTRA:                  -0.117
REMARK UNBOUND:                 0.073
ROOT
ATOM      1  C4  25D L   1       8.378  -1.624  -1.582  1.00  0.00    +0.0338  A
ATOM      2  C5  25D L   1       7.064  -2.002  -1.234  1.00  0.00    -0.0330  A
ATOM      3  C6  25D L   1       6.622  -3.317  -1.403  1.00  0.00    +0.0415  A
ATOM      4 CL7  25D L   1       5.016  -3.735  -0.959  1.00  0.00    -0.0835 Cl
ATOM      5  C8  25D L   1       7.472  -4.282  -1.927  1.00  0.00    -0.0420  A
ATOM      6  C9  25D L   1       8.773  -3.929  -2.286  1.00  0.00    -0.0415  A
ATOM      7 C10  25D L   1       9.224  -2.614  -2.119  1.00  0.00    +0.0500  A
ATOM      8 CL11 25D L   1      10.852  -2.283  -2.584  1.00  0.00    -0.0831 Cl
ATOM      9 H18  25D L   1       6.359  -1.273  -0.832  1.00  0.00    +0.0637  H
ATOM     10 H19  25D L   1       7.131  -5.306  -2.064  1.00  0.00    +0.0633  H
ATOM     11 H20  25D L   1       9.431  -4.693  -2.702  1.00  0.00    +0.0633  H
ENDROOT
BRANCH 1 13
ATOM     12  C1  25D L   1       8.097   0.478  -0.191  1.00  0.00    -0.0030  C
ATOM     13  C2  25D L   1       8.778  -0.176  -1.388  1.00  0.00    +0.1553  C
ATOM     14  N3  25D L   1       8.550   0.673  -2.587  1.00  0.00    -0.1890  N
ATOM     15 H12  25D L   1       8.475   1.495  -0.036  1.00  0.00    +0.0292  H
ATOM     16 H13  25D L   1       8.294  -0.091   0.726  1.00  0.00    +0.0292  H
ATOM     17 H14  25D L   1       7.011   0.544  -0.310  1.00  0.00    +0.0292  H
ATOM     18 H15  25D L   1       9.863  -0.124  -1.235  1.00  0.00    +0.1051  H
ATOM     19 H16  25D L   1       8.933   0.242  -3.437  1.00  0.00    +0.4057 HD
ATOM     20 H17  25D L   1       8.961   1.608  -2.485  1.00  0.00    +0.4057 HD
ENDBRANCH 1 13
TORSDOF 1
ENDMDL
MODEL 3
REMARK VINA RESULT:    -6.040      5.031      6.827
REMARK INTER + INTRA:          -6.320
REMARK INTER:                  -6.184
REMARK INTRA:                  -0.136
REMARK UNBOUND:                 0.073
ROOT
ATOM      1  C4  25D L   1       3.559  -4.817   0.189  1.00  0.00    +0.0338  A
ATOM      2  C5  25D L   1       2.433  -5.552  -0.240  1.00  0.00    -0.0330  A
ATOM      3  C6  25D L   1       2.267  -5.901  -1.583  1.00  0.00    +0.0415  A
ATOM      4 CL7  25D L   1       0.884  -6.801  -2.061  1.00  0.00    -0.0835 Cl
ATOM      5  C8  25D L   1       3.212  -5.524  -2.529  1.00  0.00    -0.0420  A
ATOM      6  C9  25D L   1       4.330  -4.791  -2.129  1.00  0.00    -0.0415  A
ATOM      7 C10  25D L   1       4.502  -4.437  -0.786  1.00  0.00    +0.0500  A
ATOM      8 CL11 25D L   1       5.923  -3.539  -0.392  1.00  0.00    -0.0831 Cl
ATOM      9 H18  25D L   1       1.660  -5.856   0.466  1.00  0.00    +0.0637  H
ATOM     10 H19  25D L   1       3.086  -5.791  -3.576  1.00  0.00    +0.0633  H
ATOM     11 H20  25D L   1       5.062  -4.495  -2.880  1.00  0.00    +0.0633  H
ENDROOT
BRANCH 1 13
ATOM     12  C1  25D L   1       4.582  -5.387   2.439  1.00  0.00    -0.0030  C
ATOM     13  C2  25D L   1       3.658  -4.459   1.657  1.00  0.00    +0.1553  C
ATOM     14  N3  25D L   1       2.344  -4.404   2.349  1.00  0.00    -0.1890  N
ATOM     15 H12  25D L   1       4.691  -5.045   3.474  1.00  0.00    +0.0292  H
ATOM     16 H13  25D L   1       5.582  -5.407   1.989  1.00  0.00    +0.0292  H
ATOM     17 H14  25D L   1       4.214  -6.417   2.468  1.00  0.00    +0.0292  H
ATOM     18 H15  25D L   1       4.044  -3.436   1.748  1.00  0.00    +0.1051  H
ATOM     19 H16  25D L   1       1.662  -3.842   1.825  1.00  0.00    +0.4057 HD
ATOM     20 H17  25D L   1       2.420  -4.017   3.298  1.00  0.00    +0.4057 HD
ENDBRANCH 1 13
TORSDOF 1
ENDMDL
MODEL 4
REMARK VINA RESULT:    -6.035      2.541      3.756
REMARK INTER + INTRA:          -6.315
REMARK INTER:                  -6.197
REMARK INTRA:                  -0.119
REMARK UNBOUND:                 0.073
ROOT
ATOM      1  C4  25D L   1       5.180  -3.682  -3.155  1.00  0.00    +0.0338  A
ATOM      2  C5  25D L   1       6.243  -3.004  -3.788  1.00  0.00    -0.0330  A
ATOM      3  C6  25D L   1       7.309  -2.482  -3.050  1.00  0.00    +0.0415  A
ATOM      4 CL7  25D L   1       8.586  -1.670  -3.862  1.00  0.00    -0.0835 Cl
ATOM      5  C8  25D L   1       7.339  -2.619  -1.668  1.00  0.00    -0.0420  A
ATOM      6  C9  25D L   1       6.295  -3.279  -1.019  1.00  0.00    -0.0415  A
ATOM      7 C10  25D L   1       5.224  -3.804  -1.752  1.00  0.00    +0.0500  A
ATOM      8 CL11 25D L   1       3.988  -4.611  -0.859  1.00  0.00    -0.0831 Cl
ATOM      9 H18  25D L   1       6.253  -2.862  -4.870  1.00  0.00    +0.0637  H
ATOM     10 H19  25D L   1       8.166  -2.212  -1.089  1.00  0.00    +0.0633  H
ATOM     11 H20  25D L   1       6.326  -3.375   0.066  1.00  0.00    +0.0633  H
ENDROOT
BRANCH 1 13
ATOM     12  C1  25D L   1       4.476  -4.476  -5.459  1.00  0.00    -0.0030  C
ATOM     13  C2  25D L   1       4.050  -4.201  -4.021  1.00  0.00    +0.1553  C
ATOM     14  N3  25D L   1       2.857  -3.316  -4.039  1.00  0.00    -0.1890  N
ATOM     15 H12  25D L   1       3.655  -4.927  -6.028  1.00  0.00    +0.0292  H
ATOM     16 H13  25D L   1       5.320  -5.174  -5.487  1.00  0.00    +0.0292  H
ATOM     17 H14  25D L   1       4.783  -3.568  -5.986  1.00  0.00    +0.0292  H
ATOM     18 H15  25D L   1       3.675  -5.138  -3.590  1.00  0.00    +0.1051  H
ATOM     19 H16  25D L   1       2.569  -3.045  -3.091  1.00  0.00    +0.4057 HD
ATOM     20 H17  25D L   1       2.055  -3.754  -4.507  1.00  0.00    +0.4057 HD
ENDBRANCH 1 13
TORSDOF 1
ENDMDL
MODEL 5
REMARK VINA RESULT:    -5.985      2.256      4.377
REMARK INTER + INTRA:          -6.262
REMARK INTER:                  -6.124
REMARK INTRA:                  -0.138
REMARK UNBOUND:                 0.073
ROOT
ATOM      1  C4  25D L   1       7.846  -2.293  -2.150  1.00  0.00    +0.0338  A
ATOM      2  C5  25D L   1       7.065  -3.071  -3.031  1.00  0.00    -0.0330  A
ATOM      3  C6  25D L   1       5.780  -2.668  -3.406  1.00  0.00    +0.0415  A
ATOM      4 CL7  25D L   1       4.867  -3.642  -4.486  1.00  0.00    -0.0835 Cl
ATOM      5  C8  25D L   1       5.243  -1.487  -2.912  1.00  0.00    -0.0420  A
ATOM      6  C9  25D L   1       5.993  -0.704  -2.033  1.00  0.00    -0.0415  A
ATOM      7 C10  25D L   1       7.280  -1.102  -1.653  1.00  0.00    +0.0500  A
ATOM      8 CL11 25D L   1       8.131  -0.060  -0.571  1.00  0.00    -0.0831 Cl
ATOM      9 H18  25D L   1       7.443  -4.012  -3.432  1.00  0.00    +0.0637  H
ATOM     10 H19  25D L   1       4.242  -1.170  -3.199  1.00  0.00    +0.0633  H
ATOM     11 H20  25D L   1       5.560   0.218  -1.647  1.00  0.00    +0.0633  H
ENDROOT
BRANCH 1 13
ATOM     12  C1  25D L   1      10.331  -2.247  -2.657  1.00  0.00    -0.0030  C
ATOM     13  C2  25D L   1       9.220  -2.806  -1.774  1.00  0.00    +0.1553  C
ATOM     14  N3  25D L   1       9.322  -4.289  -1.764  1.00  0.00    -0.1890  N
ATOM     15 H12  25D L   1      11.313  -2.575  -2.300  1.00  0.00    +0.0292  H
ATOM     16 H13  25D L   1      10.323  -1.150  -2.641  1.00  0.00    +0.0292  H
ATOM     17 H14  25D L   1      10.235  -2.561  -3.700  1.00  0.00    +0.0292  H
ATOM     18 H15  25D L   1       9.433  -2.523  -0.735  1.00  0.00    +0.1051  H
ATOM     19 H16  25D L   1       8.554  -4.719  -1.235  1.00  0.00    +0.4057 HD
ATOM     20 H17  25D L   1      10.211  -4.615  -1.365  1.00  0.00    +0.4057 HD
ENDBRANCH 1 13
TORSDOF 1
ENDMDL
MODEL 6
REMARK VINA RESULT:    -5.982      2.023      2.925
REMARK INTER + INTRA:          -6.259
REMARK INTER:                  -6.331
REMARK INTRA:                   0.072
REMARK UNBOUND:                 0.073
ROOT
ATOM      1  C4  25D L   1       6.963  -2.702  -2.401  1.00  0.00    +0.0338  A
ATOM      2  C5  25D L   1       8.282  -3.201  -2.359  1.00  0.00    -0.0330  A
ATOM      3  C6  25D L   1       9.360  -2.368  -2.044  1.00  0.00    +0.0415  A
ATOM      4 CL7  25D L   1      10.949  -3.019  -1.997  1.00  0.00    -0.0835 Cl
ATOM      5  C8  25D L   1       9.151  -1.023  -1.771  1.00  0.00    -0.0420  A
ATOM      6  C9  25D L   1       7.856  -0.505  -1.814  1.00  0.00    -0.0415  A
ATOM      7 C10  25D L   1       6.772  -1.333  -2.129  1.00  0.00    +0.0500  A
ATOM      8 CL11 25D L   1       5.210  -0.600  -2.146  1.00  0.00    -0.0831 Cl
ATOM      9 H18  25D L   1       8.493  -4.247  -2.581  1.00  0.00    +0.0637  H
ATOM     10 H19  25D L   1       9.987  -0.370  -1.528  1.00  0.00    +0.0633  H
ATOM     11 H20  25D L   1       7.704   0.553  -1.603  1.00  0.00    +0.0633  H
ENDROOT
BRANCH 1 13
ATOM     12  C1  25D L   1       5.224  -3.358  -4.127  1.00  0.00    -0.0030  C
ATOM     13  C2  25D L   1       5.850  -3.661  -2.770  1.00  0.00    +0.1553  C
ATOM     14  N3  25D L   1       4.768  -3.740  -1.755  1.00  0.00    -0.1890  N
ATOM     15 H12  25D L   1       4.484  -4.121  -4.393  1.00  0.00    +0.0292  H
ATOM     16 H13  25D L   1       5.988  -3.350  -4.914  1.00  0.00    +0.0292  H
ATOM     17 H14  25D L   1       4.720  -2.387  -4.149  1.00  0.00    +0.0292  H
ATOM     18 H15  25D L   1       6.255  -4.680  -2.800  1.00  0.00    +0.1051  H
ATOM     19 H16  25D L   1       5.144  -3.876  -0.808  1.00  0.00    +0.4057 HD
ATOM     20 H17  25D L   1       4.104  -4.498  -1.951  1.00  0.00    +0.4057 HD
ENDBRANCH 1 13
TORSDOF 1
ENDMDL
MODEL 7
REMARK VINA RESULT:    -5.941      4.745      6.910
REMARK INTER + INTRA:          -6.215
REMARK INTER:                  -6.103
REMARK INTRA:                  -0.112
REMARK UNBOUND:                 0.073
ROOT
ATOM      1  C4  25D L   1       3.410  -5.136  -2.866  1.00  0.00    +0.0338  A
ATOM      2  C5  25D L   1       3.254  -5.265  -1.469  1.00  0.00    -0.0330  A
ATOM      3  C6  25D L   1       2.311  -6.142  -0.925  1.00  0.00    +0.0415  A
ATOM      4 CL7  25D L   1       2.160  -6.272   0.781  1.00  0.00    -0.0835 Cl
ATOM      5  C8  25D L   1       1.500  -6.904  -1.756  1.00  0.00    -0.0420  A
ATOM      6  C9  25D L   1       1.631  -6.788  -3.140  1.00  0.00    -0.0415  A
ATOM      7 C10  25D L   1       2.573  -5.912  -3.692  1.00  0.00    +0.0500  A
ATOM      8 CL11 25D L   1       2.664  -5.848  -5.414  1.00  0.00    -0.0831 Cl
ATOM      9 H18  25D L   1       3.861  -4.675  -0.781  1.00  0.00    +0.0637  H
ATOM     10 H19  25D L   1       0.763  -7.586  -1.337  1.00  0.00    +0.0633  H
ATOM     11 H20  25D L   1       0.985  -7.387  -3.782  1.00  0.00    +0.0633  H
ENDROOT
BRANCH 1 13
ATOM     12  C1  25D L   1       5.494  -3.790  -2.340  1.00  0.00    -0.0030  C
ATOM     13  C2  25D L   1       4.439  -4.150  -3.380  1.00  0.00    +0.1553  C
ATOM     14  N3  25D L   1       3.849  -2.895  -3.914  1.00  0.00    -0.1890  N
ATOM     15 H12  25D L   1       6.264  -3.142  -2.776  1.00  0.00    +0.0292  H
ATOM     16 H13  25D L   1       5.993  -4.691  -1.966  1.00  0.00    +0.0292  H
ATOM     17 H14  25D L   1       5.071  -3.266  -1.478  1.00  0.00    +0.0292  H
ATOM     18 H15  25D L   1       4.948  -4.589  -4.248  1.00  0.00    +0.1051  H
ATOM     19 H16  25D L   1       3.083  -3.084  -4.572  1.00  0.00    +0.4057 HD
ATOM     20 H17  25D L   1       4.545  -2.309  -4.389  1.00  0.00    +0.4057 HD
ENDBRANCH 1 13
TORSDOF 1
ENDMDL
MODEL 8
REMARK VINA RESULT:    -5.940      3.628      5.074
REMARK INTER + INTRA:          -6.214
REMARK INTER:                  -6.084
REMARK INTRA:                  -0.130
REMARK UNBOUND:                 0.073
ROOT
ATOM      1  C4  25D L   1       5.129  -3.644  -2.873  1.00  0.00    +0.0338  A
ATOM      2  C5  25D L   1       5.125  -3.728  -1.464  1.00  0.00    -0.0330  A
ATOM      3  C6  25D L   1       4.234  -4.569  -0.793  1.00  0.00    +0.0415  A
ATOM      4 CL7  25D L   1       4.269  -4.646   0.923  1.00  0.00    -0.0835 Cl
ATOM      5  C8  25D L   1       3.323  -5.339  -1.505  1.00  0.00    -0.0420  A
ATOM      6  C9  25D L   1       3.303  -5.267  -2.898  1.00  0.00    -0.0415  A
ATOM      7 C10  25D L   1       4.193  -4.427  -3.577  1.00  0.00    +0.0500  A
ATOM      8 CL11 25D L   1       4.095  -4.416  -5.300  1.00  0.00    -0.0831 Cl
ATOM      9 H18  25D L   1       5.813  -3.130  -0.865  1.00  0.00    +0.0637  H
ATOM     10 H19  25D L   1       2.626  -5.994  -0.987  1.00  0.00    +0.0633  H
ATOM     11 H20  25D L   1       2.581  -5.871  -3.447  1.00  0.00    +0.0633  H
ENDROOT
BRANCH 1 13
ATOM     12  C1  25D L   1       7.492  -3.309  -3.731  1.00  0.00    -0.0030  C
ATOM     13  C2  25D L   1       6.111  -2.694  -3.527  1.00  0.00    +0.1553  C
ATOM     14  N3  25D L   1       6.267  -1.404  -2.806  1.00  0.00    -0.1890  N
ATOM     15 H12  25D L   1       8.145  -2.622  -4.280  1.00  0.00    +0.0292  H
ATOM     16 H13  25D L   1       7.422  -4.235  -4.313  1.00  0.00    +0.0292  H
ATOM     17 H14  25D L   1       7.987  -3.551  -2.786  1.00  0.00    +0.0292  H
ATOM     18 H15  25D L   1       5.719  -2.399  -4.509  1.00  0.00    +0.1051  H
ATOM     19 H16  25D L   1       5.357  -0.981  -2.584  1.00  0.00    +0.4057 HD
ATOM     20 H17  25D L   1       6.818  -0.723  -3.341  1.00  0.00    +0.4057 HD
ENDBRANCH 1 13
TORSDOF 1
ENDMDL
MODEL 9
REMARK VINA RESULT:    -5.899      4.917      6.038
REMARK INTER + INTRA:          -6.172
REMARK INTER:                  -6.035
REMARK INTRA:                  -0.136
REMARK UNBOUND:                 0.073
ROOT
ATOM      1  C4  25D L   1       2.734  -5.493  -2.623  1.00  0.00    +0.0338  A
ATOM      2  C5  25D L   1       2.939  -5.432  -1.228  1.00  0.00    -0.0330  A
ATOM      3  C6  25D L   1       4.009  -4.715  -0.686  1.00  0.00    +0.0415  A
ATOM      4 CL7  25D L   1       4.217  -4.662   1.018  1.00  0.00    -0.0835 Cl
ATOM      5  C8  25D L   1       4.900  -4.049  -1.517  1.00  0.00    -0.0420  A
ATOM      6  C9  25D L   1       4.722  -4.101  -2.900  1.00  0.00    -0.0415  A
ATOM      7 C10  25D L   1       3.653  -4.817  -3.450  1.00  0.00    +0.0500  A
ATOM      8 CL11 25D L   1       3.513  -4.812  -5.170  1.00  0.00    -0.0831 Cl
ATOM      9 H18  25D L   1       2.271  -5.953  -0.541  1.00  0.00    +0.0637  H
ATOM     10 H19  25D L   1       5.736  -3.491  -1.099  1.00  0.00    +0.0633  H
ATOM     11 H20  25D L   1       5.431  -3.579  -3.542  1.00  0.00    +0.0633  H
ENDROOT
BRANCH 1 13
ATOM     12  C1  25D L   1       0.349  -5.454  -3.487  1.00  0.00    -0.0030  C
ATOM     13  C2  25D L   1       1.564  -6.307  -3.136  1.00  0.00    +0.1553  C
ATOM     14  N3  25D L   1       1.135  -7.387  -2.210  1.00  0.00    -0.1890  N
ATOM     15 H12  25D L   1      -0.442  -6.069  -3.931  1.00  0.00    +0.0292  H
ATOM     16 H13  25D L   1       0.616  -4.681  -4.216  1.00  0.00    +0.0292  H
ATOM     17 H14  25D L   1      -0.075  -4.950  -2.613  1.00  0.00    +0.0292  H
ATOM     18 H15  25D L   1       1.876  -6.846  -4.040  1.00  0.00    +0.1051  H
ATOM     19 H16  25D L   1       1.932  -7.952  -1.890  1.00  0.00    +0.4057 HD
ATOM     20 H17  25D L   1       0.445  -8.016  -2.638  1.00  0.00    +0.4057 HD
ENDBRANCH 1 13
TORSDOF 1
ENDMDL
MODEL 10
REMARK VINA RESULT:    -5.851      6.089      8.520
REMARK INTER + INTRA:          -6.120
REMARK INTER:                  -5.986
REMARK INTRA:                  -0.134
REMARK UNBOUND:                 0.073
ROOT
ATOM      1  C4  25D L   1       1.902  -5.251  -4.544  1.00  0.00    +0.0338  A
ATOM      2  C5  25D L   1       1.055  -4.461  -5.351  1.00  0.00    -0.0330  A
ATOM      3  C6  25D L   1      -0.335  -4.588  -5.281  1.00  0.00    +0.0415  A
ATOM      4 CL7  25D L   1      -1.328  -3.601  -6.276  1.00  0.00    -0.0835 Cl
ATOM      5  C8  25D L   1      -0.913  -5.506  -4.414  1.00  0.00    -0.0420  A
ATOM      6  C9  25D L   1      -0.096  -6.304  -3.612  1.00  0.00    -0.0415  A
ATOM      7 C10  25D L   1       1.297  -6.182  -3.676  1.00  0.00    +0.0500  A
ATOM      8 CL11 25D L   1       2.218  -7.206  -2.637  1.00  0.00    -0.0831 Cl
ATOM      9 H18  25D L   1       1.468  -3.738  -6.055  1.00  0.00    +0.0637  H
ATOM     10 H19  25D L   1      -1.995  -5.610  -4.358  1.00  0.00    +0.0633  H
ATOM     11 H20  25D L   1      -0.561  -7.024  -2.939  1.00  0.00    +0.0633  H
ENDROOT
BRANCH 1 13
ATOM     12  C1  25D L   1       4.007  -4.203  -3.594  1.00  0.00    -0.0030  C
ATOM     13  C2  25D L   1       3.398  -5.071  -4.691  1.00  0.00    +0.1553  C
ATOM     14  N3  25D L   1       3.808  -4.524  -6.011  1.00  0.00    -0.1890  N
ATOM     15 H12  25D L   1       5.098  -4.166  -3.689  1.00  0.00    +0.0292  H
ATOM     16 H13  25D L   1       3.774  -4.610  -2.603  1.00  0.00    +0.0292  H
ATOM     17 H14  25D L   1       3.638  -3.173  -3.621  1.00  0.00    +0.0292  H
ATOM     18 H15  25D L   1       3.880  -6.056  -4.655  1.00  0.00    +0.1051  H
ATOM     19 H16  25D L   1       3.368  -5.035  -6.786  1.00  0.00    +0.4057 HD
ATOM     20 H17  25D L   1       4.826  -4.549  -6.144  1.00  0.00    +0.4057 HD
ENDBRANCH 1 13
TORSDOF 1
ENDMDL
MODEL 11
REMARK VINA RESULT:    -5.677      4.502      6.187
REMARK INTER + INTRA:          -5.937
REMARK INTER:                  -6.118
REMARK INTRA:                   0.181
REMARK UNBOUND:                 0.073
ROOT
ATOM      1  C4  25D L   1       2.919  -5.406  -3.850  1.00  0.00    +0.0338  A
ATOM      2  C5  25D L   1       3.890  -4.503  -4.335  1.00  0.00    -0.0330  A
ATOM      3  C6  25D L   1       4.818  -3.910  -3.474  1.00  0.00    +0.0415  A
ATOM      4 CL7  25D L   1       5.987  -2.823  -4.108  1.00  0.00    -0.0835 Cl
ATOM      5  C8  25D L   1       4.798  -4.196  -2.115  1.00  0.00    -0.0420  A
ATOM      6  C9  25D L   1       3.842  -5.079  -1.612  1.00  0.00    -0.0415  A
ATOM      7 C10  25D L   1       2.909  -5.677  -2.468  1.00  0.00    +0.0500  A
ATOM      8 CL11 25D L   1       1.776  -6.762  -1.749  1.00  0.00    -0.0831 Cl
ATOM      9 H18  25D L   1       3.932  -4.241  -5.392  1.00  0.00    +0.0637  H
ATOM     10 H19  25D L   1       5.517  -3.734  -1.441  1.00  0.00    +0.0633  H
ATOM     11 H20  25D L   1       3.832  -5.291  -0.543  1.00  0.00    +0.0633  H
ENDROOT
BRANCH 1 13
ATOM     12  C1  25D L   1       1.836  -7.512  -4.759  1.00  0.00    -0.0030  C
ATOM     13  C2  25D L   1       1.934  -5.992  -4.840  1.00  0.00    +0.1553  C
ATOM     14  N3  25D L   1       2.205  -5.608  -6.251  1.00  0.00    -0.1890  N
ATOM     15 H12  25D L   1       1.056  -7.887  -5.430  1.00  0.00    +0.0292  H
ATOM     16 H13  25D L   1       1.579  -7.829  -3.742  1.00  0.00    +0.0292  H
ATOM     17 H14  25D L   1       2.773  -8.007  -5.030  1.00  0.00    +0.0292  H
ATOM     18 H15  25D L   1       0.939  -5.574  -4.642  1.00  0.00    +0.1051  H
ATOM     19 H16  25D L   1       2.347  -4.596  -6.349  1.00  0.00    +0.4057 HD
ATOM     20 H17  25D L   1       1.447  -5.891  -6.883  1.00  0.00    +0.4057 HD
ENDBRANCH 1 13
TORSDOF 1
ENDMDL
MODEL 12
REMARK VINA RESULT:    -5.677      3.291      5.950
REMARK INTER + INTRA:          -5.937
REMARK INTER:                  -5.798
REMARK INTRA:                  -0.138
REMARK UNBOUND:                 0.073
ROOT
ATOM      1  C4  25D L   1       5.009  -3.792  -3.055  1.00  0.00    +0.0338  A
ATOM      2  C5  25D L   1       4.360  -4.078  -4.275  1.00  0.00    -0.0330  A
ATOM      3  C6  25D L   1       3.262  -4.942  -4.324  1.00  0.00    +0.0415  A
ATOM      4 CL7  25D L   1       2.498  -5.256  -5.829  1.00  0.00    -0.0835 Cl
ATOM      5  C8  25D L   1       2.790  -5.544  -3.165  1.00  0.00    -0.0420  A
ATOM      6  C9  25D L   1       3.420  -5.282  -1.948  1.00  0.00    -0.0415  A
ATOM      7 C10  25D L   1       4.520  -4.418  -1.891  1.00  0.00    +0.0500  A
ATOM      8 CL11 25D L   1       5.223  -4.152  -0.337  1.00  0.00    -0.0831 Cl
ATOM      9 H18  25D L   1       4.707  -3.638  -5.210  1.00  0.00    +0.0637  H
ATOM     10 H19  25D L   1       1.937  -6.219  -3.199  1.00  0.00    +0.0633  H
ATOM     11 H20  25D L   1       3.045  -5.764  -1.046  1.00  0.00    +0.0633  H
ENDROOT
BRANCH 1 13
ATOM     12  C1  25D L   1       5.846  -1.415  -2.764  1.00  0.00    -0.0030  C
ATOM     13  C2  25D L   1       6.204  -2.862  -3.085  1.00  0.00    +0.1553  C
ATOM     14  N3  25D L   1       6.954  -2.893  -4.368  1.00  0.00    -0.1890  N
ATOM     15 H12  25D L   1       6.746  -0.794  -2.714  1.00  0.00    +0.0292  H
ATOM     16 H13  25D L   1       5.342  -1.347  -1.793  1.00  0.00    +0.0292  H
ATOM     17 H14  25D L   1       5.180  -0.973  -3.511  1.00  0.00    +0.0292  H
ATOM     18 H15  25D L   1       6.939  -3.205  -2.345  1.00  0.00    +0.1051  H
ATOM     19 H16  25D L   1       7.162  -3.855  -4.664  1.00  0.00    +0.4057 HD
ATOM     20 H17  25D L   1       7.837  -2.373  -4.315  1.00  0.00    +0.4057 HD
ENDBRANCH 1 13
TORSDOF 1
ENDMDL
