MODEL 1
REMARK VINA RESULT:    -5.886      0.000      0.000
REMARK INTER + INTRA:          -6.246
REMARK INTER:                  -6.230
REMARK INTRA:                  -0.015
REMARK UNBOUND:                -0.015
ROOT
ATOM      1  C3  3CL L   1       8.614  -0.312  -1.081  1.00  0.00    +0.0127  A
ATOM      2  C4  3CL L   1       9.955  -0.464  -1.465  1.00  0.00    -0.0530  A
ATOM      3  C5  3CL L   1      10.394  -1.652  -2.056  1.00  0.00    -0.0599  A
ATOM      4  C6  3CL L   1       9.499  -2.698  -2.273  1.00  0.00    -0.0434  A
ATOM      5  C7  3CL L   1       8.167  -2.554  -1.899  1.00  0.00    +0.0414  A
ATOM      6 CL8  3CL L   1       7.054  -3.836  -2.170  1.00  0.00    -0.0835 Cl
ATOM      7  C9  3CL L   1       7.720  -1.371  -1.308  1.00  0.00    -0.0347  A
ATOM      8 H14  3CL L   1      10.683   0.332  -1.305  1.00  0.00    +0.0622  H
ATOM      9 H15  3CL L   1      11.437  -1.769  -2.344  1.00  0.00    +0.0618  H
ATOM     10 H16  3CL L   1       9.847  -3.622  -2.732  1.00  0.00    +0.0632  H
ATOM     11 H17  3CL L   1       6.672  -1.295  -1.020  1.00  0.00    +0.0637  H
ENDROOT
BRANCH 1 13
ATOM     12  N1  3CL L   1       8.611   1.129   0.917  1.00  0.00    -0.1914  N
ATOM     13  C2  3CL L   1       8.137   0.976  -0.475  1.00  0.00    +0.1466  C
ATOM     14 H10  3CL L   1       9.623   0.960   0.980  1.00  0.00    +0.4054 HD
ATOM     15 H11  3CL L   1       8.422   2.072   1.276  1.00  0.00    +0.4054 HD
ATOM     16 H12  3CL L   1       8.505   1.845  -1.031  1.00  0.00    +0.1017  H
ATOM     17 H13  3CL L   1       7.043   1.022  -0.451  1.00  0.00    +0.1017  H
ENDBRANCH 1 13
TORSDOF 1
ENDMDL
MODEL 2
REMARK VINA RESULT:    -5.847      2.790      3.613
REMARK INTER + INTRA:          -6.204
REMARK INTER:                  -6.181
REMARK INTRA:                  -0.024
REMARK UNBOUND:                -0.015
ROOT
ATOM      1  C3  3CL L   1       7.656  -2.877  -2.069  1.00  0.00    +0.0127  A
ATOM      2  C4  3CL L   1       8.923  -3.348  -2.448  1.00  0.00    -0.0530  A
ATOM      3  C5  3CL L   1      10.056  -2.547  -2.282  1.00  0.00    -0.0599  A
ATOM      4  C6  3CL L   1       9.938  -1.271  -1.734  1.00  0.00    -0.0434  A
ATOM      5  C7  3CL L   1       8.686  -0.798  -1.353  1.00  0.00    +0.0414  A
ATOM      6 CL8  3CL L   1       8.531   0.772  -0.670  1.00  0.00    -0.0835 Cl
ATOM      7  C9  3CL L   1       7.548  -1.591  -1.516  1.00  0.00    -0.0347  A
ATOM      8 H14  3CL L   1       9.051  -4.339  -2.884  1.00  0.00    +0.0622  H
ATOM      9 H15  3CL L   1      11.036  -2.914  -2.584  1.00  0.00    +0.0618  H
ATOM     10 H16  3CL L   1      10.824  -0.651  -1.609  1.00  0.00    +0.0632  H
ATOM     11 H17  3CL L   1       6.583  -1.186  -1.214  1.00  0.00    +0.0637  H
ENDROOT
BRANCH 1 13
ATOM     12  N1  3CL L   1       5.194  -2.970  -2.085  1.00  0.00    -0.1914  N
ATOM     13  C2  3CL L   1       6.443  -3.750  -2.219  1.00  0.00    +0.1466  C
ATOM     14 H10  3CL L   1       5.216  -2.138  -2.688  1.00  0.00    +0.4054 HD
ATOM     15 H11  3CL L   1       4.373  -3.530  -2.344  1.00  0.00    +0.4054 HD
ATOM     16 H12  3CL L   1       6.411  -4.231  -3.201  1.00  0.00    +0.1017  H
ATOM     17 H13  3CL L   1       6.420  -4.531  -1.452  1.00  0.00    +0.1017  H
ENDBRANCH 1 13
TORSDOF 1
ENDMDL
MODEL 3
REMARK VINA RESULT:    -5.840      3.203      4.180
REMARK INTER + INTRA:          -6.197
REMARK INTER:                  -6.172
REMARK INTRA:                  -0.026
REMARK UNBOUND:                -0.015
ROOT
ATOM      1  C3  3CL L   1       6.559  -2.366  -3.166  1.00  0.00    +0.0127  A
ATOM      2  C4  3CL L   1       6.120  -1.293  -2.375  1.00  0.00    -0.0530  A
ATOM      3  C5  3CL L   1       6.995  -0.660  -1.489  1.00  0.00    -0.0599  A
ATOM      4  C6  3CL L   1       8.318  -1.086  -1.386  1.00  0.00    -0.0434  A
ATOM      5  C7  3CL L   1       8.763  -2.146  -2.169  1.00  0.00    +0.0414  A
ATOM      6 CL8  3CL L   1      10.394  -2.675  -2.054  1.00  0.00    -0.0835 Cl
ATOM      7  C9  3CL L   1       7.895  -2.786  -3.056  1.00  0.00    -0.0347  A
ATOM      8 H14  3CL L   1       5.090  -0.938  -2.426  1.00  0.00    +0.0622  H
ATOM      9 H15  3CL L   1       6.647   0.167  -0.872  1.00  0.00    +0.0618  H
ATOM     10 H16  3CL L   1       8.994  -0.589  -0.692  1.00  0.00    +0.0632  H
ATOM     11 H17  3CL L   1       8.274  -3.618  -3.648  1.00  0.00    +0.0637  H
ENDROOT
BRANCH 1 13
ATOM     12  N1  3CL L   1       4.217  -2.672  -3.867  1.00  0.00    -0.1914  N
ATOM     13  C2  3CL L   1       5.627  -3.027  -4.140  1.00  0.00    +0.1466  C
ATOM     14 H10  3CL L   1       4.108  -1.654  -3.772  1.00  0.00    +0.4054 HD
ATOM     15 H11  3CL L   1       3.598  -2.990  -4.621  1.00  0.00    +0.4054 HD
ATOM     16 H12  3CL L   1       5.836  -2.721  -5.170  1.00  0.00    +0.1017  H
ATOM     17 H13  3CL L   1       5.701  -4.117  -4.083  1.00  0.00    +0.1017  H
ENDBRANCH 1 13
TORSDOF 1
ENDMDL
MODEL 4
REMARK VINA RESULT:    -5.565      1.447      2.213
REMARK INTER + INTRA:          -5.906
REMARK INTER:                  -5.889
REMARK INTRA:                  -0.017
REMARK UNBOUND:                -0.015
ROOT
ATOM      1  C3  3CL L   1       8.024  -0.206  -1.030  1.00  0.00    +0.0127  A
ATOM      2  C4  3CL L   1       6.816  -0.888  -1.242  1.00  0.00    -0.0530  A
ATOM      3  C5  3CL L   1       6.811  -2.163  -1.813  1.00  0.00    -0.0599  A
ATOM      4  C6  3CL L   1       8.011  -2.773  -2.174  1.00  0.00    -0.0434  A
ATOM      5  C7  3CL L   1       9.214  -2.105  -1.964  1.00  0.00    +0.0414  A
ATOM      6 CL8  3CL L   1      10.699  -2.853  -2.401  1.00  0.00    -0.0835 Cl
ATOM      7  C9  3CL L   1       9.228  -0.831  -1.395  1.00  0.00    -0.0347  A
ATOM      8 H14  3CL L   1       5.859  -0.438  -0.976  1.00  0.00    +0.0622  H
ATOM      9 H15  3CL L   1       5.870  -2.684  -1.983  1.00  0.00    +0.0618  H
ATOM     10 H16  3CL L   1       8.001  -3.766  -2.621  1.00  0.00    +0.0632  H
ATOM     11 H17  3CL L   1      10.187  -0.334  -1.253  1.00  0.00    +0.0637  H
ENDROOT
BRANCH 1 13
ATOM     12  N1  3CL L   1       8.715   1.128   0.923  1.00  0.00    -0.1914  N
ATOM     13  C2  3CL L   1       8.031   1.152  -0.388  1.00  0.00    +0.1466  C
ATOM     14 H10  3CL L   1       9.633   0.671   0.849  1.00  0.00    +0.4054 HD
ATOM     15 H11  3CL L   1       8.861   2.077   1.287  1.00  0.00    +0.4054 HD
ATOM     16 H12  3CL L   1       8.556   1.887  -1.005  1.00  0.00    +0.1017  H
ATOM     17 H13  3CL L   1       7.012   1.512  -0.214  1.00  0.00    +0.1017  H
ENDBRANCH 1 13
TORSDOF 1
ENDMDL
MODEL 5
REMARK VINA RESULT:    -5.515      4.188      5.295
REMARK INTER + INTRA:          -5.853
REMARK INTER:                  -5.829
REMARK INTRA:                  -0.024
REMARK UNBOUND:                -0.015
ROOT
ATOM      1  C3  3CL L   1       5.237  -3.608  -3.309  1.00  0.00    +0.0127  A
ATOM      2  C4  3CL L   1       5.179  -3.743  -1.913  1.00  0.00    -0.0530  A
ATOM      3  C5  3CL L   1       6.224  -3.276  -1.112  1.00  0.00    -0.0599  A
ATOM      4  C6  3CL L   1       7.334  -2.667  -1.693  1.00  0.00    -0.0434  A
ATOM      5  C7  3CL L   1       7.398  -2.527  -3.075  1.00  0.00    +0.0414  A
ATOM      6 CL8  3CL L   1       8.761  -1.771  -3.801  1.00  0.00    -0.0835 Cl
ATOM      7  C9  3CL L   1       6.359  -2.991  -3.885  1.00  0.00    -0.0347  A
ATOM      8 H14  3CL L   1       4.327  -4.219  -1.426  1.00  0.00    +0.0622  H
ATOM      9 H15  3CL L   1       6.177  -3.390  -0.029  1.00  0.00    +0.0618  H
ATOM     10 H16  3CL L   1       8.146  -2.307  -1.063  1.00  0.00    +0.0632  H
ATOM     11 H17  3CL L   1       6.446  -2.872  -4.964  1.00  0.00    +0.0637  H
ENDROOT
BRANCH 1 13
ATOM     12  N1  3CL L   1       4.472  -4.098  -5.600  1.00  0.00    -0.1914  N
ATOM     13  C2  3CL L   1       4.100  -4.082  -4.168  1.00  0.00    +0.1466  C
ATOM     14 H10  3CL L   1       5.365  -4.588  -5.740  1.00  0.00    +0.4054 HD
ATOM     15 H11  3CL L   1       3.757  -4.569  -6.167  1.00  0.00    +0.4054 HD
ATOM     16 H12  3CL L   1       3.796  -5.101  -3.909  1.00  0.00    +0.1017  H
ATOM     17 H13  3CL L   1       3.228  -3.427  -4.069  1.00  0.00    +0.1017  H
ENDBRANCH 1 13
TORSDOF 1
ENDMDL
MODEL 6
REMARK VINA RESULT:    -5.214      3.835      4.613
REMARK INTER + INTRA:          -5.534
REMARK INTER:                  -5.510
REMARK INTRA:                  -0.024
REMARK UNBOUND:                -0.015
ROOT
ATOM      1  C3  3CL L   1       5.920  -3.618  -2.068  1.00  0.00    +0.0127  A
ATOM      2  C4  3CL L   1       5.652  -3.350  -3.420  1.00  0.00    -0.0530  A
ATOM      3  C5  3CL L   1       6.686  -3.010  -4.294  1.00  0.00    -0.0599  A
ATOM      4  C6  3CL L   1       7.999  -2.939  -3.833  1.00  0.00    -0.0434  A
ATOM      5  C7  3CL L   1       8.275  -3.207  -2.496  1.00  0.00    +0.0414  A
ATOM      6 CL8  3CL L   1       9.892  -3.129  -1.919  1.00  0.00    -0.0835 Cl
ATOM      7  C9  3CL L   1       7.247  -3.547  -1.614  1.00  0.00    -0.0347  A
ATOM      8 H14  3CL L   1       4.635  -3.391  -3.813  1.00  0.00    +0.0622  H
ATOM      9 H15  3CL L   1       6.472  -2.794  -5.340  1.00  0.00    +0.0618  H
ATOM     10 H16  3CL L   1       8.801  -2.671  -4.519  1.00  0.00    +0.0632  H
ATOM     11 H17  3CL L   1       7.498  -3.742  -0.572  1.00  0.00    +0.0637  H
ENDROOT
BRANCH 1 13
ATOM     12  N1  3CL L   1       3.704  -4.674  -1.858  1.00  0.00    -0.1914  N
ATOM     13  C2  3CL L   1       4.812  -4.014  -1.135  1.00  0.00    +0.1466  C
ATOM     14 H10  3CL L   1       4.059  -5.424  -2.465  1.00  0.00    +0.4054 HD
ATOM     15 H11  3CL L   1       3.024  -5.085  -1.208  1.00  0.00    +0.4054 HD
ATOM     16 H12  3CL L   1       5.158  -4.720  -0.374  1.00  0.00    +0.1017  H
ATOM     17 H13  3CL L   1       4.391  -3.140  -0.628  1.00  0.00    +0.1017  H
ENDBRANCH 1 13
TORSDOF 1
ENDMDL
MODEL 7
REMARK VINA RESULT:    -5.163      7.382      8.496
REMARK INTER + INTRA:          -5.480
REMARK INTER:                  -5.457
REMARK INTRA:                  -0.023
REMARK UNBOUND:                -0.015
ROOT
ATOM      1  C3  3CL L   1       3.216  -5.160  -3.951  1.00  0.00    +0.0127  A
ATOM      2  C4  3CL L   1       3.252  -5.475  -2.583  1.00  0.00    -0.0530  A
ATOM      3  C5  3CL L   1       2.488  -6.530  -2.078  1.00  0.00    -0.0599  A
ATOM      4  C6  3CL L   1       1.685  -7.285  -2.931  1.00  0.00    -0.0434  A
ATOM      5  C7  3CL L   1       1.645  -6.981  -4.288  1.00  0.00    +0.0414  A
ATOM      6 CL8  3CL L   1       0.662  -7.910  -5.349  1.00  0.00    -0.0835 Cl
ATOM      7  C9  3CL L   1       2.404  -5.928  -4.802  1.00  0.00    -0.0347  A
ATOM      8 H14  3CL L   1       3.866  -4.903  -1.887  1.00  0.00    +0.0622  H
ATOM      9 H15  3CL L   1       2.514  -6.766  -1.015  1.00  0.00    +0.0618  H
ATOM     10 H16  3CL L   1       1.090  -8.104  -2.531  1.00  0.00    +0.0632  H
ATOM     11 H17  3CL L   1       2.344  -5.712  -5.867  1.00  0.00    +0.0637  H
ENDROOT
BRANCH 1 13
ATOM     12  N1  3CL L   1       4.327  -4.226  -5.942  1.00  0.00    -0.1914  N
ATOM     13  C2  3CL L   1       4.060  -4.046  -4.498  1.00  0.00    +0.1466  C
ATOM     14 H10  3CL L   1       3.455  -4.412  -6.454  1.00  0.00    +0.4054 HD
ATOM     15 H11  3CL L   1       4.764  -3.391  -6.349  1.00  0.00    +0.4054 HD
ATOM     16 H12  3CL L   1       3.568  -3.074  -4.386  1.00  0.00    +0.1017  H
ATOM     17 H13  3CL L   1       5.031  -3.999  -3.994  1.00  0.00    +0.1017  H
ENDBRANCH 1 13
TORSDOF 1
ENDMDL
MODEL 8
REMARK VINA RESULT:    -5.136      6.351      7.457
REMARK INTER + INTRA:          -5.452
REMARK INTER:                  -5.437
REMARK INTRA:                  -0.015
REMARK UNBOUND:                -0.015
ROOT
ATOM      1  C3  3CL L   1       2.768  -5.481   0.572  1.00  0.00    +0.0127  A
ATOM      2  C4  3CL L   1       2.179  -5.995  -0.594  1.00  0.00    -0.0530  A
ATOM      3  C5  3CL L   1       2.731  -5.720  -1.848  1.00  0.00    -0.0599  A
ATOM      4  C6  3CL L   1       3.877  -4.934  -1.952  1.00  0.00    -0.0434  A
ATOM      5  C7  3CL L   1       4.469  -4.423  -0.801  1.00  0.00    +0.0414  A
ATOM      6 CL8  3CL L   1       5.887  -3.458  -0.919  1.00  0.00    -0.0835 Cl
ATOM      7  C9  3CL L   1       3.924  -4.692   0.456  1.00  0.00    -0.0347  A
ATOM      8 H14  3CL L   1       1.279  -6.609  -0.550  1.00  0.00    +0.0622  H
ATOM      9 H15  3CL L   1       2.266  -6.114  -2.750  1.00  0.00    +0.0618  H
ATOM     10 H16  3CL L   1       4.301  -4.721  -2.932  1.00  0.00    +0.0632  H
ATOM     11 H17  3CL L   1       4.409  -4.270   1.335  1.00  0.00    +0.0637  H
ENDROOT
BRANCH 1 13
ATOM     12  N1  3CL L   1       1.032  -4.941   2.235  1.00  0.00    -0.1914  N
ATOM     13  C2  3CL L   1       2.193  -5.803   1.921  1.00  0.00    +0.1466  C
ATOM     14 H10  3CL L   1       0.360  -4.936   1.458  1.00  0.00    +0.4054 HD
ATOM     15 H11  3CL L   1       0.544  -5.264   3.078  1.00  0.00    +0.4054 HD
ATOM     16 H12  3CL L   1       1.841  -6.838   1.973  1.00  0.00    +0.1017  H
ATOM     17 H13  3CL L   1       2.932  -5.650   2.714  1.00  0.00    +0.1017  H
ENDBRANCH 1 13
TORSDOF 1
ENDMDL
MODEL 9
REMARK VINA RESULT:    -5.062      7.370      8.339
REMARK INTER + INTRA:          -5.373
REMARK INTER:                  -5.358
REMARK INTRA:                  -0.015
REMARK UNBOUND:                -0.015
ROOT
ATOM      1  C3  3CL L   1       2.543  -5.840  -1.908  1.00  0.00    +0.0127  A
ATOM      2  C4  3CL L   1       1.715  -6.947  -2.157  1.00  0.00    -0.0530  A
ATOM      3  C5  3CL L   1       1.496  -7.389  -3.464  1.00  0.00    -0.0599  A
ATOM      4  C6  3CL L   1       2.103  -6.736  -4.536  1.00  0.00    -0.0434  A
ATOM      5  C7  3CL L   1       2.927  -5.641  -4.298  1.00  0.00    +0.0414  A
ATOM      6 CL8  3CL L   1       3.685  -4.834  -5.613  1.00  0.00    -0.0835 Cl
ATOM      7  C9  3CL L   1       3.152  -5.192  -2.995  1.00  0.00    -0.0347  A
ATOM      8 H14  3CL L   1       1.221  -7.477  -1.343  1.00  0.00    +0.0622  H
ATOM      9 H15  3CL L   1       0.847  -8.243  -3.652  1.00  0.00    +0.0618  H
ATOM     10 H16  3CL L   1       1.926  -7.085  -5.552  1.00  0.00    +0.0632  H
ATOM     11 H17  3CL L   1       3.796  -4.327  -2.846  1.00  0.00    +0.0637  H
ENDROOT
BRANCH 1 13
ATOM     12  N1  3CL L   1       1.637  -4.670   0.062  1.00  0.00    -0.1914  N
ATOM     13  C2  3CL L   1       2.803  -5.385  -0.502  1.00  0.00    +0.1466  C
ATOM     14 H10  3CL L   1       0.775  -5.214  -0.074  1.00  0.00    +0.4054 HD
ATOM     15 H11  3CL L   1       1.751  -4.500   1.067  1.00  0.00    +0.4054 HD
ATOM     16 H12  3CL L   1       3.008  -6.228   0.165  1.00  0.00    +0.1017  H
ATOM     17 H13  3CL L   1       3.654  -4.697  -0.458  1.00  0.00    +0.1017  H
ENDBRANCH 1 13
TORSDOF 1
ENDMDL
MODEL 10
REMARK VINA RESULT:    -5.061      2.474      3.603
REMARK INTER + INTRA:          -5.372
REMARK INTER:                  -5.351
REMARK INTRA:                  -0.021
REMARK UNBOUND:                -0.015
ROOT
ATOM      1  C3  3CL L   1       8.103  -2.741  -2.178  1.00  0.00    +0.0127  A
ATOM      2  C4  3CL L   1       7.857  -1.502  -1.564  1.00  0.00    -0.0530  A
ATOM      3  C5  3CL L   1       6.615  -0.877  -1.700  1.00  0.00    -0.0599  A
ATOM      4  C6  3CL L   1       5.604  -1.482  -2.445  1.00  0.00    -0.0434  A
ATOM      5  C7  3CL L   1       5.838  -2.711  -3.054  1.00  0.00    +0.0414  A
ATOM      6 CL8  3CL L   1       4.595  -3.468  -3.969  1.00  0.00    -0.0835 Cl
ATOM      7  C9  3CL L   1       7.077  -3.343  -2.924  1.00  0.00    -0.0347  A
ATOM      8 H14  3CL L   1       8.627  -0.999  -0.979  1.00  0.00    +0.0622  H
ATOM      9 H15  3CL L   1       6.432   0.087  -1.229  1.00  0.00    +0.0618  H
ATOM     10 H16  3CL L   1       4.639  -0.989  -2.549  1.00  0.00    +0.0632  H
ATOM     11 H17  3CL L   1       7.228  -4.300  -3.420  1.00  0.00    +0.0637  H
ENDROOT
BRANCH 1 13
ATOM     12  N1  3CL L   1      10.551  -2.469  -2.100  1.00  0.00    -0.1914  N
ATOM     13  C2  3CL L   1       9.427  -3.427  -2.006  1.00  0.00    +0.1466  C
ATOM     14 H10  3CL L   1      10.391  -1.657  -1.490  1.00  0.00    +0.4054 HD
ATOM     15 H11  3CL L   1      11.439  -2.904  -1.826  1.00  0.00    +0.4054 HD
ATOM     16 H12  3CL L   1       9.507  -3.911  -1.028  1.00  0.00    +0.1017  H
ATOM     17 H13  3CL L   1       9.585  -4.185  -2.779  1.00  0.00    +0.1017  H
ENDBRANCH 1 13
TORSDOF 1
ENDMDL
MODEL 11
REMARK VINA RESULT:    -5.048      6.906      7.775
REMARK INTER + INTRA:          -5.358
REMARK INTER:                  -5.341
REMARK INTRA:                  -0.017
REMARK UNBOUND:                -0.015
ROOT
ATOM      1  C3  3CL L   1       2.600  -5.428   1.482  1.00  0.00    +0.0127  A
ATOM      2  C4  3CL L   1       3.826  -4.743   1.498  1.00  0.00    -0.0530  A
ATOM      3  C5  3CL L   1       4.491  -4.450   0.305  1.00  0.00    -0.0599  A
ATOM      4  C6  3CL L   1       3.940  -4.831  -0.917  1.00  0.00    -0.0434  A
ATOM      5  C7  3CL L   1       2.724  -5.507  -0.942  1.00  0.00    +0.0414  A
ATOM      6 CL8  3CL L   1       2.032  -5.975  -2.445  1.00  0.00    -0.0835 Cl
ATOM      7  C9  3CL L   1       2.052  -5.805   0.245  1.00  0.00    -0.0347  A
ATOM      8 H14  3CL L   1       4.289  -4.435   2.436  1.00  0.00    +0.0622  H
ATOM      9 H15  3CL L   1       5.446  -3.925   0.324  1.00  0.00    +0.0618  H
ATOM     10 H16  3CL L   1       4.464  -4.601  -1.843  1.00  0.00    +0.0632  H
ATOM     11 H17  3CL L   1       1.107  -6.342   0.188  1.00  0.00    +0.0637  H
ENDROOT
BRANCH 1 13
ATOM     12  N1  3CL L   1       0.540  -5.071   2.785  1.00  0.00    -0.1914  N
ATOM     13  C2  3CL L   1       1.871  -5.715   2.762  1.00  0.00    +0.1466  C
ATOM     14 H10  3CL L   1       0.019  -5.279   1.923  1.00  0.00    +0.4054 HD
ATOM     15 H11  3CL L   1      -0.019  -5.395   3.582  1.00  0.00    +0.4054 HD
ATOM     16 H12  3CL L   1       1.705  -6.789   2.899  1.00  0.00    +0.1017  H
ATOM     17 H13  3CL L   1       2.426  -5.340   3.627  1.00  0.00    +0.1017  H
ENDBRANCH 1 13
TORSDOF 1
ENDMDL
MODEL 12
REMARK VINA RESULT:    -4.976      8.576      9.689
REMARK INTER + INTRA:          -5.282
REMARK INTER:                  -5.267
REMARK INTRA:                  -0.015
REMARK UNBOUND:                -0.015
ROOT
ATOM      1  C3  3CL L   1       2.220  -5.377  -4.664  1.00  0.00    +0.0127  A
ATOM      2  C4  3CL L   1       2.306  -6.750  -4.385  1.00  0.00    -0.0530  A
ATOM      3  C5  3CL L   1       1.167  -7.558  -4.437  1.00  0.00    -0.0599  A
ATOM      4  C6  3CL L   1      -0.068  -7.007  -4.774  1.00  0.00    -0.0434  A
ATOM      5  C7  3CL L   1      -0.162  -5.647  -5.055  1.00  0.00    +0.0414  A
ATOM      6 CL8  3CL L   1      -1.680  -4.960  -5.477  1.00  0.00    -0.0835 Cl
ATOM      7  C9  3CL L   1       0.970  -4.832  -5.004  1.00  0.00    -0.0347  A
ATOM      8 H14  3CL L   1       3.255  -7.213  -4.113  1.00  0.00    +0.0622  H
ATOM      9 H15  3CL L   1       1.238  -8.621  -4.212  1.00  0.00    +0.0618  H
ATOM     10 H16  3CL L   1      -0.952  -7.641  -4.811  1.00  0.00    +0.0632  H
ATOM     11 H17  3CL L   1       0.859  -3.771  -5.223  1.00  0.00    +0.0637  H
ENDROOT
BRANCH 1 13
ATOM     12  N1  3CL L   1       4.076  -4.423  -5.974  1.00  0.00    -0.1914  N
ATOM     13  C2  3CL L   1       3.449  -4.515  -4.638  1.00  0.00    +0.1466  C
ATOM     14 H10  3CL L   1       3.379  -4.176  -6.689  1.00  0.00    +0.4054 HD
ATOM     15 H11  3CL L   1       4.817  -3.712  -5.992  1.00  0.00    +0.4054 HD
ATOM     16 H12  3CL L   1       3.217  -3.492  -4.326  1.00  0.00    +0.1017  H
ATOM     17 H13  3CL L   1       4.202  -4.921  -3.955  1.00  0.00    +0.1017  H
ENDBRANCH 1 13
TORSDOF 1
ENDMDL
