MODEL 1
REMARK VINA RESULT:    -6.605      0.000      0.000
REMARK INTER + INTRA:          -7.059
REMARK INTER:                  -6.991
REMARK INTRA:                  -0.068
REMARK UNBOUND:                -0.068
ROOT
ATOM      1  C4  34D L   1       6.415  -2.981  -2.205  1.00  0.00    +0.0156  A
ATOM      2  C5  34D L   1       6.134  -1.642  -1.888  1.00  0.00    -0.0513  A
ATOM      3  C6  34D L   1       7.170  -0.737  -1.618  1.00  0.00    -0.0415  A
ATOM      4  C7  34D L   1       8.504  -1.149  -1.652  1.00  0.00    +0.0593  A
ATOM      5 CL8  34D L   1       9.720   0.022  -1.301  1.00  0.00    -0.0820 Cl
ATOM      6  C9  34D L   1       8.803  -2.477  -1.959  1.00  0.00    +0.0597  A
ATOM      7 CL10 34D L   1      10.420  -3.079  -2.013  1.00  0.00    -0.0820 Cl
ATOM      8 C11  34D L   1       7.766  -3.382  -2.231  1.00  0.00    -0.0330  A
ATOM      9 H18  34D L   1       5.116  -1.256  -1.852  1.00  0.00    +0.0623  H
ATOM     10 H19  34D L   1       6.929   0.299  -1.383  1.00  0.00    +0.0633  H
ATOM     11 H20  34D L   1       8.031  -4.412  -2.469  1.00  0.00    +0.0637  H
ENDROOT
BRANCH 1 13
ATOM     12  C1  34D L   1       4.500  -3.790  -3.737  1.00  0.00    -0.0031  C
ATOM     13  C2  34D L   1       5.342  -4.014  -2.482  1.00  0.00    +0.1539  C
ATOM     14  N3  34D L   1       4.413  -4.112  -1.323  1.00  0.00    -0.1890  N
ATOM     15 H12  34D L   1       5.137  -3.698  -4.623  1.00  0.00    +0.0292  H
ATOM     16 H13  34D L   1       3.821  -4.633  -3.902  1.00  0.00    +0.0292  H
ATOM     17 H14  34D L   1       3.886  -2.886  -3.664  1.00  0.00    +0.0292  H
ATOM     18 H15  34D L   1       5.815  -5.000  -2.565  1.00  0.00    +0.1051  H
ATOM     19 H16  34D L   1       3.988  -3.202  -1.104  1.00  0.00    +0.4057 HD
ATOM     20 H17  34D L   1       3.659  -4.791  -1.484  1.00  0.00    +0.4057 HD
ENDBRANCH 1 13
TORSDOF 1
ENDMDL
MODEL 2
REMARK VINA RESULT:    -6.588      1.579      2.392
REMARK INTER + INTRA:          -7.041
REMARK INTER:                  -6.975
REMARK INTRA:                  -0.066
REMARK UNBOUND:                -0.068
ROOT
ATOM      1  C4  34D L   1       6.558  -2.505  -2.941  1.00  0.00    +0.0156  A
ATOM      2  C5  34D L   1       7.755  -2.867  -3.578  1.00  0.00    -0.0513  A
ATOM      3  C6  34D L   1       8.978  -2.319  -3.169  1.00  0.00    -0.0415  A
ATOM      4  C7  34D L   1       9.032  -1.395  -2.123  1.00  0.00    +0.0593  A
ATOM      5 CL8  34D L   1      10.574  -0.761  -1.683  1.00  0.00    -0.0820 Cl
ATOM      6  C9  34D L   1       7.852  -1.018  -1.481  1.00  0.00    +0.0597  A
ATOM      7 CL10 34D L   1       7.819   0.124  -0.187  1.00  0.00    -0.0820 Cl
ATOM      8 C11  34D L   1       6.627  -1.568  -1.890  1.00  0.00    -0.0330  A
ATOM      9 H18  34D L   1       7.783  -3.587  -4.396  1.00  0.00    +0.0623  H
ATOM     10 H19  34D L   1       9.897  -2.621  -3.672  1.00  0.00    +0.0633  H
ATOM     11 H20  34D L   1       5.723  -1.255  -1.369  1.00  0.00    +0.0637  H
ENDROOT
BRANCH 1 13
ATOM     12  C1  34D L   1       4.722  -4.291  -2.618  1.00  0.00    -0.0031  C
ATOM     13  C2  34D L   1       5.201  -3.041  -3.352  1.00  0.00    +0.1539  C
ATOM     14  N3  34D L   1       5.186  -3.336  -4.810  1.00  0.00    -0.1890  N
ATOM     15 H12  34D L   1       4.724  -4.133  -1.533  1.00  0.00    +0.0292  H
ATOM     16 H13  34D L   1       3.698  -4.544  -2.913  1.00  0.00    +0.0292  H
ATOM     17 H14  34D L   1       5.349  -5.162  -2.836  1.00  0.00    +0.0292  H
ATOM     18 H15  34D L   1       4.452  -2.253  -3.202  1.00  0.00    +0.1051  H
ATOM     19 H16  34D L   1       5.927  -4.000  -5.067  1.00  0.00    +0.4057 HD
ATOM     20 H17  34D L   1       4.286  -3.721  -5.121  1.00  0.00    +0.4057 HD
ENDBRANCH 1 13
TORSDOF 1
ENDMDL
MODEL 3
REMARK VINA RESULT:    -5.991      5.001      6.941
REMARK INTER + INTRA:          -6.409
REMARK INTER:                  -6.351
REMARK INTRA:                  -0.059
REMARK UNBOUND:                -0.068
ROOT
ATOM      1  C4  34D L   1       3.866  -4.610  -3.926  1.00  0.00    +0.0156  A
ATOM      2  C5  34D L   1       3.477  -4.877  -5.248  1.00  0.00    -0.0513  A
ATOM      3  C6  34D L   1       2.536  -5.876  -5.529  1.00  0.00    -0.0415  A
ATOM      4  C7  34D L   1       1.970  -6.634  -4.501  1.00  0.00    +0.0593  A
ATOM      5 CL8  34D L   1       0.825  -7.850  -4.929  1.00  0.00    -0.0820 Cl
ATOM      6  C9  34D L   1       2.349  -6.387  -3.181  1.00  0.00    +0.0597  A
ATOM      7 CL10 34D L   1       1.712  -7.278  -1.847  1.00  0.00    -0.0820 Cl
ATOM      8 C11  34D L   1       3.290  -5.385  -2.900  1.00  0.00    -0.0330  A
ATOM      9 H18  34D L   1       3.876  -4.318  -6.095  1.00  0.00    +0.0623  H
ATOM     10 H19  34D L   1       2.242  -6.061  -6.563  1.00  0.00    +0.0633  H
ATOM     11 H20  34D L   1       3.565  -5.214  -1.859  1.00  0.00    +0.0637  H
ENDROOT
BRANCH 1 13
ATOM     12  C1  34D L   1       5.506  -3.679  -2.162  1.00  0.00    -0.0031  C
ATOM     13  C2  34D L   1       4.897  -3.561  -3.557  1.00  0.00    +0.1539  C
ATOM     14  N3  34D L   1       4.311  -2.199  -3.685  1.00  0.00    -0.1890  N
ATOM     15 H12  34D L   1       5.944  -4.671  -2.009  1.00  0.00    +0.0292  H
ATOM     16 H13  34D L   1       6.303  -2.940  -2.025  1.00  0.00    +0.0292  H
ATOM     17 H14  34D L   1       4.765  -3.508  -1.374  1.00  0.00    +0.0292  H
ATOM     18 H15  34D L   1       5.715  -3.600  -4.287  1.00  0.00    +0.1051  H
ATOM     19 H16  34D L   1       3.470  -2.096  -3.103  1.00  0.00    +0.4057 HD
ATOM     20 H17  34D L   1       4.977  -1.462  -3.423  1.00  0.00    +0.4057 HD
ENDBRANCH 1 13
TORSDOF 1
ENDMDL
MODEL 4
REMARK VINA RESULT:    -5.929      3.753      4.861
REMARK INTER + INTRA:          -6.344
REMARK INTER:                  -6.259
REMARK INTRA:                  -0.084
REMARK UNBOUND:                -0.068
ROOT
ATOM      1  C4  34D L   1       2.950  -5.291  -3.831  1.00  0.00    +0.0156  A
ATOM      2  C5  34D L   1       2.996  -5.618  -2.466  1.00  0.00    -0.0513  A
ATOM      3  C6  34D L   1       3.939  -5.024  -1.618  1.00  0.00    -0.0415  A
ATOM      4  C7  34D L   1       4.860  -4.097  -2.113  1.00  0.00    +0.0593  A
ATOM      5 CL8  34D L   1       5.993  -3.416  -1.007  1.00  0.00    -0.0820 Cl
ATOM      6  C9  34D L   1       4.835  -3.764  -3.467  1.00  0.00    +0.0597  A
ATOM      7 CL10 34D L   1       5.939  -2.638  -4.170  1.00  0.00    -0.0820 Cl
ATOM      8 C11  34D L   1       3.889  -4.358  -4.316  1.00  0.00    -0.0330  A
ATOM      9 H18  34D L   1       2.301  -6.328  -2.017  1.00  0.00    +0.0623  H
ATOM     10 H19  34D L   1       3.950  -5.286  -0.560  1.00  0.00    +0.0633  H
ATOM     11 H20  34D L   1       3.892  -4.076  -5.369  1.00  0.00    +0.0637  H
ENDROOT
BRANCH 1 13
ATOM     12  C1  34D L   1       1.764  -7.424  -4.674  1.00  0.00    -0.0031  C
ATOM     13  C2  34D L   1       1.972  -5.917  -4.805  1.00  0.00    +0.1539  C
ATOM     14  N3  34D L   1       2.391  -5.635  -6.205  1.00  0.00    -0.1890  N
ATOM     15 H12  34D L   1       1.464  -7.691  -3.655  1.00  0.00    +0.0292  H
ATOM     16 H13  34D L   1       0.974  -7.765  -5.352  1.00  0.00    +0.0292  H
ATOM     17 H14  34D L   1       2.671  -7.987  -4.921  1.00  0.00    +0.0292  H
ATOM     18 H15  34D L   1       0.996  -5.430  -4.685  1.00  0.00    +0.1051  H
ATOM     19 H16  34D L   1       3.345  -5.972  -6.386  1.00  0.00    +0.4057 HD
ATOM     20 H17  34D L   1       1.761  -6.062  -6.894  1.00  0.00    +0.4057 HD
ENDBRANCH 1 13
TORSDOF 1
ENDMDL
MODEL 5
REMARK VINA RESULT:    -5.924      3.686      4.681
REMARK INTER + INTRA:          -6.338
REMARK INTER:                  -6.267
REMARK INTRA:                  -0.070
REMARK UNBOUND:                -0.068
ROOT
ATOM      1  C4  34D L   1       7.547  -2.431  -2.744  1.00  0.00    +0.0156  A
ATOM      2  C5  34D L   1       7.238  -2.777  -1.419  1.00  0.00    -0.0513  A
ATOM      3  C6  34D L   1       6.098  -3.536  -1.125  1.00  0.00    -0.0415  A
ATOM      4  C7  34D L   1       5.239  -3.959  -2.142  1.00  0.00    +0.0593  A
ATOM      5 CL8  34D L   1       3.853  -4.883  -1.698  1.00  0.00    -0.0820 Cl
ATOM      6  C9  34D L   1       5.527  -3.620  -3.465  1.00  0.00    +0.0597  A
ATOM      7 CL10 34D L   1       4.520  -4.089  -4.786  1.00  0.00    -0.0820 Cl
ATOM      8 C11  34D L   1       6.670  -2.861  -3.760  1.00  0.00    -0.0330  A
ATOM      9 H18  34D L   1       7.869  -2.484  -0.580  1.00  0.00    +0.0623  H
ATOM     10 H19  34D L   1       5.882  -3.800  -0.089  1.00  0.00    +0.0633  H
ATOM     11 H20  34D L   1       6.869  -2.614  -4.802  1.00  0.00    +0.0637  H
ENDROOT
BRANCH 1 13
ATOM     12  C1  34D L   1      10.092  -2.039  -2.551  1.00  0.00    -0.0031  C
ATOM     13  C2  34D L   1       8.750  -1.592  -3.127  1.00  0.00    +0.1539  C
ATOM     14  N3  34D L   1       8.534  -0.174  -2.729  1.00  0.00    -0.1890  N
ATOM     15 H12  34D L   1      10.298  -3.085  -2.804  1.00  0.00    +0.0292  H
ATOM     16 H13  34D L   1      10.909  -1.433  -2.958  1.00  0.00    +0.0292  H
ATOM     17 H14  34D L   1      10.126  -1.940  -1.460  1.00  0.00    +0.0292  H
ATOM     18 H15  34D L   1       8.839  -1.582  -4.220  1.00  0.00    +0.1051  H
ATOM     19 H16  34D L   1       8.344  -0.091  -1.722  1.00  0.00    +0.4057 HD
ATOM     20 H17  34D L   1       9.340   0.421  -2.956  1.00  0.00    +0.4057 HD
ENDBRANCH 1 13
TORSDOF 1
ENDMDL
MODEL 6
REMARK VINA RESULT:    -5.904      4.750      6.204
REMARK INTER + INTRA:          -6.317
REMARK INTER:                  -6.252
REMARK INTRA:                  -0.065
REMARK UNBOUND:                -0.068
ROOT
ATOM      1  C4  34D L   1       3.270  -4.925   0.667  1.00  0.00    +0.0156  A
ATOM      2  C5  34D L   1       2.194  -5.714   0.228  1.00  0.00    -0.0513  A
ATOM      3  C6  34D L   1       2.052  -6.039  -1.128  1.00  0.00    -0.0415  A
ATOM      4  C7  34D L   1       2.972  -5.580  -2.073  1.00  0.00    +0.0593  A
ATOM      5 CL8  34D L   1       2.723  -6.017  -3.722  1.00  0.00    -0.0820 Cl
ATOM      6  C9  34D L   1       4.044  -4.790  -1.656  1.00  0.00    +0.0597  A
ATOM      7 CL10 34D L   1       5.224  -4.168  -2.752  1.00  0.00    -0.0820 Cl
ATOM      8 C11  34D L   1       4.188  -4.465  -0.299  1.00  0.00    -0.0330  A
ATOM      9 H18  34D L   1       1.446  -6.109   0.915  1.00  0.00    +0.0623  H
ATOM     10 H19  34D L   1       1.214  -6.660  -1.445  1.00  0.00    +0.0633  H
ATOM     11 H20  34D L   1       5.036  -3.848  -0.003  1.00  0.00    +0.0637  H
ENDROOT
BRANCH 1 13
ATOM     12  C1  34D L   1       4.451  -5.361   2.922  1.00  0.00    -0.0031  C
ATOM     13  C2  34D L   1       3.467  -4.517   2.114  1.00  0.00    +0.1539  C
ATOM     14  N3  34D L   1       2.163  -4.527   2.831  1.00  0.00    -0.1890  N
ATOM     15 H12  34D L   1       5.429  -5.398   2.431  1.00  0.00    +0.0292  H
ATOM     16 H13  34D L   1       4.597  -4.933   3.919  1.00  0.00    +0.0292  H
ATOM     17 H14  34D L   1       4.098  -6.389   3.056  1.00  0.00    +0.0292  H
ATOM     18 H15  34D L   1       3.812  -3.476   2.141  1.00  0.00    +0.1051  H
ATOM     19 H16  34D L   1       1.711  -5.448   2.776  1.00  0.00    +0.4057 HD
ATOM     20 H17  34D L   1       2.262  -4.274   3.822  1.00  0.00    +0.4057 HD
ENDBRANCH 1 13
TORSDOF 1
ENDMDL
MODEL 7
REMARK VINA RESULT:    -5.834      2.967      4.141
REMARK INTER + INTRA:          -6.243
REMARK INTER:                  -6.161
REMARK INTRA:                  -0.082
REMARK UNBOUND:                -0.068
ROOT
ATOM      1  C4  34D L   1       3.381  -5.049  -1.961  1.00  0.00    +0.0156  A
ATOM      2  C5  34D L   1       3.378  -4.918  -3.358  1.00  0.00    -0.0513  A
ATOM      3  C6  34D L   1       4.399  -4.217  -4.014  1.00  0.00    -0.0415  A
ATOM      4  C7  34D L   1       5.437  -3.626  -3.291  1.00  0.00    +0.0593  A
ATOM      5 CL8  34D L   1       6.651  -2.775  -4.171  1.00  0.00    -0.0820 Cl
ATOM      6  C9  34D L   1       5.454  -3.740  -1.901  1.00  0.00    +0.0597  A
ATOM      7 CL10 34D L   1       6.691  -3.035  -0.924  1.00  0.00    -0.0820 Cl
ATOM      8 C11  34D L   1       4.433  -4.443  -1.244  1.00  0.00    -0.0330  A
ATOM      9 H18  34D L   1       2.600  -5.360  -3.981  1.00  0.00    +0.0623  H
ATOM     10 H19  34D L   1       4.381  -4.136  -5.101  1.00  0.00    +0.0633  H
ATOM     11 H20  34D L   1       4.474  -4.517  -0.158  1.00  0.00    +0.0637  H
ENDROOT
BRANCH 1 13
ATOM     12  C1  34D L   1       1.195  -6.421  -2.027  1.00  0.00    -0.0031  C
ATOM     13  C2  34D L   1       2.294  -5.771  -1.190  1.00  0.00    +0.1539  C
ATOM     14  N3  34D L   1       1.644  -4.842  -0.226  1.00  0.00    -0.1890  N
ATOM     15 H12  34D L   1       1.620  -7.110  -2.764  1.00  0.00    +0.0292  H
ATOM     16 H13  34D L   1       0.514  -6.997  -1.390  1.00  0.00    +0.0292  H
ATOM     17 H14  34D L   1       0.592  -5.680  -2.562  1.00  0.00    +0.0292  H
ATOM     18 H15  34D L   1       2.759  -6.554  -0.577  1.00  0.00    +0.1051  H
ATOM     19 H16  34D L   1       1.258  -4.017  -0.703  1.00  0.00    +0.4057 HD
ATOM     20 H17  34D L   1       0.887  -5.294   0.301  1.00  0.00    +0.4057 HD
ENDBRANCH 1 13
TORSDOF 1
ENDMDL
MODEL 8
REMARK VINA RESULT:    -5.827      5.523      6.691
REMARK INTER + INTRA:          -6.235
REMARK INTER:                  -6.163
REMARK INTRA:                  -0.072
REMARK UNBOUND:                -0.068
ROOT
ATOM      1  C4  34D L   1       4.033  -5.123   2.175  1.00  0.00    +0.0156  A
ATOM      2  C5  34D L   1       2.779  -5.748   2.094  1.00  0.00    -0.0513  A
ATOM      3  C6  34D L   1       2.121  -5.876   0.864  1.00  0.00    -0.0415  A
ATOM      4  C7  34D L   1       2.696  -5.378  -0.308  1.00  0.00    +0.0593  A
ATOM      5 CL8  34D L   1       1.820  -5.568  -1.781  1.00  0.00    -0.0820 Cl
ATOM      6  C9  34D L   1       3.939  -4.748  -0.247  1.00  0.00    +0.0597  A
ATOM      7 CL10 34D L   1       4.721  -4.093  -1.639  1.00  0.00    -0.0820 Cl
ATOM      8 C11  34D L   1       4.598  -4.622   0.986  1.00  0.00    -0.0330  A
ATOM      9 H18  34D L   1       2.280  -6.163   2.970  1.00  0.00    +0.0623  H
ATOM     10 H19  34D L   1       1.152  -6.373   0.823  1.00  0.00    +0.0633  H
ATOM     11 H20  34D L   1       5.569  -4.126   1.002  1.00  0.00    +0.0637  H
ENDROOT
BRANCH 1 13
ATOM     12  C1  34D L   1       4.340  -3.753   4.343  1.00  0.00    -0.0031  C
ATOM     13  C2  34D L   1       4.785  -4.930   3.478  1.00  0.00    +0.1539  C
ATOM     14  N3  34D L   1       6.241  -4.774   3.212  1.00  0.00    -0.1890  N
ATOM     15 H12  34D L   1       3.268  -3.811   4.561  1.00  0.00    +0.0292  H
ATOM     16 H13  34D L   1       4.873  -3.754   5.300  1.00  0.00    +0.0292  H
ATOM     17 H14  34D L   1       4.537  -2.790   3.860  1.00  0.00    +0.0292  H
ATOM     18 H15  34D L   1       4.690  -5.844   4.077  1.00  0.00    +0.1051  H
ATOM     19 H16  34D L   1       6.424  -3.991   2.572  1.00  0.00    +0.4057 HD
ATOM     20 H17  34D L   1       6.780  -4.622   4.072  1.00  0.00    +0.4057 HD
ENDBRANCH 1 13
TORSDOF 1
ENDMDL
MODEL 9
REMARK VINA RESULT:    -5.822      4.289      5.499
REMARK INTER + INTRA:          -6.230
REMARK INTER:                  -6.150
REMARK INTRA:                  -0.080
REMARK UNBOUND:                -0.068
ROOT
ATOM      1  C4  34D L   1       2.490  -6.064  -3.841  1.00  0.00    +0.0156  A
ATOM      2  C5  34D L   1       2.855  -5.501  -5.074  1.00  0.00    -0.0513  A
ATOM      3  C6  34D L   1       3.846  -4.513  -5.145  1.00  0.00    -0.0415  A
ATOM      4  C7  34D L   1       4.487  -4.062  -3.989  1.00  0.00    +0.0593  A
ATOM      5 CL8  34D L   1       5.690  -2.838  -4.157  1.00  0.00    -0.0820 Cl
ATOM      6  C9  34D L   1       4.133  -4.605  -2.753  1.00  0.00    +0.0597  A
ATOM      7 CL10 34D L   1       4.862  -4.102  -1.271  1.00  0.00    -0.0820 Cl
ATOM      8 C11  34D L   1       3.142  -5.595  -2.683  1.00  0.00    -0.0330  A
ATOM      9 H18  34D L   1       2.399  -5.814  -6.013  1.00  0.00    +0.0623  H
ATOM     10 H19  34D L   1       4.120  -4.096  -6.114  1.00  0.00    +0.0633  H
ATOM     11 H20  34D L   1       2.888  -6.002  -1.704  1.00  0.00    +0.0637  H
ENDROOT
BRANCH 1 13
ATOM     12  C1  34D L   1       0.906  -7.749  -4.991  1.00  0.00    -0.0031  C
ATOM     13  C2  34D L   1       1.409  -7.117  -3.695  1.00  0.00    +0.1539  C
ATOM     14  N3  34D L   1       0.234  -6.550  -2.978  1.00  0.00    -0.1890  N
ATOM     15 H12  34D L   1       1.735  -8.174  -5.566  1.00  0.00    +0.0292  H
ATOM     16 H13  34D L   1       0.201  -8.560  -4.776  1.00  0.00    +0.0292  H
ATOM     17 H14  34D L   1       0.386  -7.025  -5.626  1.00  0.00    +0.0292  H
ATOM     18 H15  34D L   1       1.787  -7.922  -3.051  1.00  0.00    +0.1051  H
ATOM     19 H16  34D L   1      -0.135  -5.721  -3.460  1.00  0.00    +0.4057 HD
ATOM     20 H17  34D L   1      -0.527  -7.232  -2.878  1.00  0.00    +0.4057 HD
ENDBRANCH 1 13
TORSDOF 1
ENDMDL
MODEL 10
REMARK VINA RESULT:    -5.816      4.769      5.935
REMARK INTER + INTRA:          -6.224
REMARK INTER:                  -6.158
REMARK INTRA:                  -0.066
REMARK UNBOUND:                -0.068
ROOT
ATOM      1  C4  34D L   1       4.795  -3.710  -3.425  1.00  0.00    +0.0156  A
ATOM      2  C5  34D L   1       4.757  -4.230  -2.122  1.00  0.00    -0.0513  A
ATOM      3  C6  34D L   1       3.881  -5.273  -1.792  1.00  0.00    -0.0415  A
ATOM      4  C7  34D L   1       3.021  -5.813  -2.752  1.00  0.00    +0.0593  A
ATOM      5 CL8  34D L   1       1.968  -7.089  -2.266  1.00  0.00    -0.0820 Cl
ATOM      6  C9  34D L   1       3.040  -5.305  -4.051  1.00  0.00    +0.0597  A
ATOM      7 CL10 34D L   1       2.007  -5.901  -5.299  1.00  0.00    -0.0820 Cl
ATOM      8 C11  34D L   1       3.919  -4.262  -4.381  1.00  0.00    -0.0330  A
ATOM      9 H18  34D L   1       5.407  -3.858  -1.329  1.00  0.00    +0.0623  H
ATOM     10 H19  34D L   1       3.875  -5.667  -0.776  1.00  0.00    +0.0633  H
ATOM     11 H20  34D L   1       3.912  -3.887  -5.404  1.00  0.00    +0.0637  H
ENDROOT
BRANCH 1 13
ATOM     12  C1  34D L   1       7.170  -2.920  -4.062  1.00  0.00    -0.0031  C
ATOM     13  C2  34D L   1       5.701  -2.567  -3.840  1.00  0.00    +0.1539  C
ATOM     14  N3  34D L   1       5.643  -1.475  -2.830  1.00  0.00    -0.1890  N
ATOM     15 H12  34D L   1       7.271  -3.731  -4.791  1.00  0.00    +0.0292  H
ATOM     16 H13  34D L   1       7.720  -2.055  -4.449  1.00  0.00    +0.0292  H
ATOM     17 H14  34D L   1       7.663  -3.232  -3.135  1.00  0.00    +0.0292  H
ATOM     18 H15  34D L   1       5.314  -2.131  -4.769  1.00  0.00    +0.1051  H
ATOM     19 H16  34D L   1       5.898  -1.814  -1.895  1.00  0.00    +0.4057 HD
ATOM     20 H17  34D L   1       6.261  -0.690  -3.069  1.00  0.00    +0.4057 HD
ENDBRANCH 1 13
TORSDOF 1
ENDMDL
MODEL 11
REMARK VINA RESULT:    -5.716      5.215      6.656
REMARK INTER + INTRA:          -6.118
REMARK INTER:                  -6.032
REMARK INTRA:                  -0.086
REMARK UNBOUND:                -0.068
ROOT
ATOM      1  C4  34D L   1       2.860  -5.214  -0.156  1.00  0.00    +0.0156  A
ATOM      2  C5  34D L   1       4.040  -4.827  -0.811  1.00  0.00    -0.0513  A
ATOM      3  C6  34D L   1       4.118  -4.831  -2.210  1.00  0.00    -0.0415  A
ATOM      4  C7  34D L   1       3.025  -5.228  -2.984  1.00  0.00    +0.0593  A
ATOM      5 CL8  34D L   1       3.202  -5.214  -4.699  1.00  0.00    -0.0820 Cl
ATOM      6  C9  34D L   1       1.845  -5.622  -2.351  1.00  0.00    +0.0597  A
ATOM      7 CL10 34D L   1       0.448  -6.138  -3.224  1.00  0.00    -0.0820 Cl
ATOM      8 C11  34D L   1       1.767  -5.616  -0.950  1.00  0.00    -0.0330  A
ATOM      9 H18  34D L   1       4.926  -4.501  -0.265  1.00  0.00    +0.0623  H
ATOM     10 H19  34D L   1       5.041  -4.519  -2.697  1.00  0.00    +0.0633  H
ATOM     11 H20  34D L   1       0.832  -5.927  -0.485  1.00  0.00    +0.0637  H
ENDROOT
BRANCH 1 13
ATOM     12  C1  34D L   1       4.009  -5.470   2.142  1.00  0.00    -0.0031  C
ATOM     13  C2  34D L   1       2.720  -5.255   1.353  1.00  0.00    +0.1539  C
ATOM     14  N3  34D L   1       1.760  -6.321   1.750  1.00  0.00    -0.1890  N
ATOM     15 H12  34D L   1       4.759  -4.716   1.879  1.00  0.00    +0.0292  H
ATOM     16 H13  34D L   1       3.821  -5.389   3.218  1.00  0.00    +0.0292  H
ATOM     17 H14  34D L   1       4.443  -6.459   1.960  1.00  0.00    +0.0292  H
ATOM     18 H15  34D L   1       2.271  -4.313   1.690  1.00  0.00    +0.1051  H
ATOM     19 H16  34D L   1       2.050  -7.240   1.390  1.00  0.00    +0.4057 HD
ATOM     20 H17  34D L   1       1.655  -6.391   2.769  1.00  0.00    +0.4057 HD
ENDBRANCH 1 13
TORSDOF 1
ENDMDL
MODEL 12
REMARK VINA RESULT:    -5.688      3.735      5.072
REMARK INTER + INTRA:          -6.088
REMARK INTER:                  -6.024
REMARK INTRA:                  -0.065
REMARK UNBOUND:                -0.068
ROOT
ATOM      1  C4  34D L   1       3.028  -5.215  -3.883  1.00  0.00    +0.0156  A
ATOM      2  C5  34D L   1       4.023  -4.350  -4.364  1.00  0.00    -0.0513  A
ATOM      3  C6  34D L   1       4.927  -3.739  -3.485  1.00  0.00    -0.0415  A
ATOM      4  C7  34D L   1       4.853  -3.972  -2.109  1.00  0.00    +0.0593  A
ATOM      5 CL8  34D L   1       5.996  -3.177  -1.093  1.00  0.00    -0.0820 Cl
ATOM      6  C9  34D L   1       3.867  -4.824  -1.612  1.00  0.00    +0.0597  A
ATOM      7 CL10 34D L   1       3.691  -5.163   0.072  1.00  0.00    -0.0820 Cl
ATOM      8 C11  34D L   1       2.963  -5.437  -2.493  1.00  0.00    -0.0330  A
ATOM      9 H18  34D L   1       4.139  -4.132  -5.426  1.00  0.00    +0.0623  H
ATOM     10 H19  34D L   1       5.697  -3.078  -3.881  1.00  0.00    +0.0633  H
ATOM     11 H20  34D L   1       2.205  -6.099  -2.075  1.00  0.00    +0.0637  H
ENDROOT
BRANCH 1 13
ATOM     12  C1  34D L   1       1.823  -7.390  -4.580  1.00  0.00    -0.0031  C
ATOM     13  C2  34D L   1       2.005  -5.887  -4.778  1.00  0.00    +0.1539  C
ATOM     14  N3  34D L   1       2.344  -5.655  -6.209  1.00  0.00    -0.1890  N
ATOM     15 H12  34D L   1       1.582  -7.621  -3.536  1.00  0.00    +0.0292  H
ATOM     16 H13  34D L   1       1.001  -7.764  -5.199  1.00  0.00    +0.0292  H
ATOM     17 H14  34D L   1       2.721  -7.954  -4.854  1.00  0.00    +0.0292  H
ATOM     18 H15  34D L   1       1.032  -5.405  -4.623  1.00  0.00    +0.1051  H
ATOM     19 H16  34D L   1       3.290  -5.990  -6.430  1.00  0.00    +0.4057 HD
ATOM     20 H17  34D L   1       1.681  -6.114  -6.845  1.00  0.00    +0.4057 HD
ENDBRANCH 1 13
TORSDOF 1
ENDMDL
