MODEL 1
REMARK VINA RESULT:    -6.568      0.000      0.000
REMARK INTER + INTRA:          -6.775
REMARK INTER:                  -6.952
REMARK INTRA:                   0.177
REMARK UNBOUND:                 0.177
ROOT
ATOM      1  C4  26D L   1       7.986  -1.651  -1.748  1.00  0.00    +0.0507  A
ATOM      2  C5  26D L   1       8.793  -2.638  -2.356  1.00  0.00    +0.0513  A
ATOM      3 CL6  26D L   1       8.126  -4.098  -3.002  1.00  0.00    -0.0830 Cl
ATOM      4  C7  26D L   1      10.178  -2.482  -2.472  1.00  0.00    -0.0428  A
ATOM      5  C8  26D L   1      10.800  -1.342  -1.973  1.00  0.00    -0.0590  A
ATOM      6  C9  26D L   1      10.036  -0.362  -1.350  1.00  0.00    -0.0428  A
ATOM      7 C10  26D L   1       8.651  -0.515  -1.233  1.00  0.00    +0.0513  A
ATOM      8 CL11 26D L   1       7.802   0.752  -0.416  1.00  0.00    -0.0830 Cl
ATOM      9 H18  26D L   1      10.789  -3.250  -2.945  1.00  0.00    +0.0632  H
ATOM     10 H19  26D L   1      11.878  -1.224  -2.059  1.00  0.00    +0.0618  H
ATOM     11 H20  26D L   1      10.534   0.522  -0.950  1.00  0.00    +0.0632  H
ENDROOT
BRANCH 1 13
ATOM     12  C1  26D L   1       6.097  -3.142  -0.968  1.00  0.00    -0.0030  C
ATOM     13  C2  26D L   1       6.485  -1.799  -1.580  1.00  0.00    +0.1566  C
ATOM     14  N3  26D L   1       5.699  -1.616  -2.834  1.00  0.00    -0.1889  N
ATOM     15 H12  26D L   1       5.014  -3.201  -0.812  1.00  0.00    +0.0292  H
ATOM     16 H13  26D L   1       6.582  -3.282   0.005  1.00  0.00    +0.0292  H
ATOM     17 H14  26D L   1       6.387  -3.986  -1.603  1.00  0.00    +0.0292  H
ATOM     18 H15  26D L   1       6.085  -1.006  -0.943  1.00  0.00    +0.1052  H
ATOM     19 H16  26D L   1       5.878  -0.695  -3.252  1.00  0.00    +0.4057 HD
ATOM     20 H17  26D L   1       5.956  -2.325  -3.536  1.00  0.00    +0.4057 HD
ENDBRANCH 1 13
TORSDOF 1
ENDMDL
MODEL 2
REMARK VINA RESULT:    -6.482      0.073      2.760
REMARK INTER + INTRA:          -6.684
REMARK INTER:                  -6.944
REMARK INTRA:                   0.260
REMARK UNBOUND:                 0.177
ROOT
ATOM      1  C4  26D L   1       7.987  -1.685  -1.702  1.00  0.00    +0.0507  A
ATOM      2  C5  26D L   1       8.646  -0.528  -1.232  1.00  0.00    +0.0513  A
ATOM      3 CL6  26D L   1       7.793   0.768  -0.466  1.00  0.00    -0.0830 Cl
ATOM      4  C7  26D L   1      10.030  -0.372  -1.359  1.00  0.00    -0.0428  A
ATOM      5  C8  26D L   1      10.795  -1.360  -1.970  1.00  0.00    -0.0590  A
ATOM      6  C9  26D L   1      10.173  -2.502  -2.461  1.00  0.00    -0.0428  A
ATOM      7 C10  26D L   1       8.788  -2.661  -2.335  1.00  0.00    +0.0513  A
ATOM      8 CL11 26D L   1       8.115  -4.106  -3.005  1.00  0.00    -0.0830 Cl
ATOM      9 H18  26D L   1      10.527   0.526  -0.991  1.00  0.00    +0.0632  H
ATOM     10 H19  26D L   1      11.871  -1.235  -2.073  1.00  0.00    +0.0618  H
ATOM     11 H20  26D L   1      10.777  -3.265  -2.950  1.00  0.00    +0.0632  H
ENDROOT
BRANCH 1 13
ATOM     12  C1  26D L   1       6.105  -3.195  -0.940  1.00  0.00    -0.0030  C
ATOM     13  C2  26D L   1       6.484  -1.876  -1.606  1.00  0.00    +0.1566  C
ATOM     14  N3  26D L   1       5.763  -1.790  -2.909  1.00  0.00    -0.1889  N
ATOM     15 H12  26D L   1       5.018  -3.283  -0.839  1.00  0.00    +0.0292  H
ATOM     16 H13  26D L   1       6.540  -3.264   0.064  1.00  0.00    +0.0292  H
ATOM     17 H14  26D L   1       6.457  -4.063  -1.509  1.00  0.00    +0.0292  H
ATOM     18 H15  26D L   1       6.024  -1.063  -1.038  1.00  0.00    +0.1052  H
ATOM     19 H16  26D L   1       5.936  -0.888  -3.369  1.00  0.00    +0.4057 HD
ATOM     20 H17  26D L   1       6.081  -2.528  -3.555  1.00  0.00    +0.4057 HD
ENDBRANCH 1 13
TORSDOF 1
ENDMDL
MODEL 3
REMARK VINA RESULT:    -6.385      1.904      2.982
REMARK INTER + INTRA:          -6.581
REMARK INTER:                  -6.637
REMARK INTRA:                   0.056
REMARK UNBOUND:                 0.177
ROOT
ATOM      1  C4  26D L   1       8.012  -1.958  -2.144  1.00  0.00    +0.0507  A
ATOM      2  C5  26D L   1       7.149  -0.899  -1.791  1.00  0.00    +0.0513  A
ATOM      3 CL6  26D L   1       5.441  -0.976  -2.061  1.00  0.00    -0.0830 Cl
ATOM      4  C7  26D L   1       7.632   0.273  -1.198  1.00  0.00    -0.0428  A
ATOM      5  C8  26D L   1       8.992   0.425  -0.952  1.00  0.00    -0.0590  A
ATOM      6  C9  26D L   1       9.871  -0.592  -1.306  1.00  0.00    -0.0428  A
ATOM      7 C10  26D L   1       9.391  -1.765  -1.900  1.00  0.00    +0.0513  A
ATOM      8 CL11 26D L   1      10.573  -2.953  -2.326  1.00  0.00    -0.0830 Cl
ATOM      9 H18  26D L   1       6.955   1.083  -0.929  1.00  0.00    +0.0632  H
ATOM     10 H19  26D L   1       9.368   1.339  -0.495  1.00  0.00    +0.0618  H
ATOM     11 H20  26D L   1      10.937  -0.459  -1.123  1.00  0.00    +0.0632  H
ENDROOT
BRANCH 1 13
ATOM     12  C1  26D L   1       7.092  -3.000  -4.258  1.00  0.00    -0.0030  C
ATOM     13  C2  26D L   1       7.527  -3.231  -2.814  1.00  0.00    +0.1566  C
ATOM     14  N3  26D L   1       6.415  -3.924  -2.100  1.00  0.00    -0.1889  N
ATOM     15 H12  26D L   1       6.796  -3.943  -4.731  1.00  0.00    +0.0292  H
ATOM     16 H13  26D L   1       7.912  -2.575  -4.848  1.00  0.00    +0.0292  H
ATOM     17 H14  26D L   1       6.245  -2.311  -4.331  1.00  0.00    +0.0292  H
ATOM     18 H15  26D L   1       8.309  -3.995  -2.810  1.00  0.00    +0.1052  H
ATOM     19 H16  26D L   1       6.684  -4.159  -1.137  1.00  0.00    +0.4057 HD
ATOM     20 H17  26D L   1       5.581  -3.320  -2.046  1.00  0.00    +0.4057 HD
ENDBRANCH 1 13
TORSDOF 1
ENDMDL
MODEL 4
REMARK VINA RESULT:    -6.225      1.898      2.409
REMARK INTER + INTRA:          -6.412
REMARK INTER:                  -6.616
REMARK INTRA:                   0.204
REMARK UNBOUND:                 0.177
ROOT
ATOM      1  C4  26D L   1       8.132  -1.971  -2.247  1.00  0.00    +0.0507  A
ATOM      2  C5  26D L   1       9.503  -1.797  -1.961  1.00  0.00    +0.0513  A
ATOM      3 CL6  26D L   1      10.682  -3.006  -2.341  1.00  0.00    -0.0830 Cl
ATOM      4  C7  26D L   1       9.983  -0.630  -1.356  1.00  0.00    -0.0428  A
ATOM      5  C8  26D L   1       9.106   0.391  -1.008  1.00  0.00    -0.0590  A
ATOM      6  C9  26D L   1       7.747   0.242  -1.258  1.00  0.00    -0.0428  A
ATOM      7 C10  26D L   1       7.263  -0.924  -1.862  1.00  0.00    +0.0513  A
ATOM      8 CL11 26D L   1       5.553  -1.017  -2.101  1.00  0.00    -0.0830 Cl
ATOM      9 H18  26D L   1      11.045  -0.507  -1.142  1.00  0.00    +0.0632  H
ATOM     10 H19  26D L   1       9.478   1.297  -0.533  1.00  0.00    +0.0618  H
ATOM     11 H20  26D L   1       7.064   1.041  -0.969  1.00  0.00    +0.0632  H
ENDROOT
BRANCH 1 13
ATOM     12  C1  26D L   1       7.072  -3.004  -4.299  1.00  0.00    -0.0030  C
ATOM     13  C2  26D L   1       7.573  -3.234  -2.876  1.00  0.00    +0.1566  C
ATOM     14  N3  26D L   1       6.477  -3.883  -2.098  1.00  0.00    -0.1889  N
ATOM     15 H12  26D L   1       6.721  -3.941  -4.745  1.00  0.00    +0.0292  H
ATOM     16 H13  26D L   1       7.874  -2.612  -4.935  1.00  0.00    +0.0292  H
ATOM     17 H14  26D L   1       6.244  -2.288  -4.337  1.00  0.00    +0.0292  H
ATOM     18 H15  26D L   1       8.329  -4.022  -2.903  1.00  0.00    +0.1052  H
ATOM     19 H16  26D L   1       6.787  -4.117  -1.147  1.00  0.00    +0.4057 HD
ATOM     20 H17  26D L   1       5.667  -3.252  -2.008  1.00  0.00    +0.4057 HD
ENDBRANCH 1 13
TORSDOF 1
ENDMDL
MODEL 5
REMARK VINA RESULT:    -5.987      1.995      3.201
REMARK INTER + INTRA:          -6.160
REMARK INTER:                  -6.377
REMARK INTRA:                   0.217
REMARK UNBOUND:                 0.177
ROOT
ATOM      1  C4  26D L   1       8.249  -1.705  -1.948  1.00  0.00    +0.0507  A
ATOM      2  C5  26D L   1       9.070  -2.842  -2.112  1.00  0.00    +0.0513  A
ATOM      3 CL6  26D L   1      10.792  -2.761  -1.965  1.00  0.00    -0.0830 Cl
ATOM      4  C7  26D L   1       8.529  -4.100  -2.400  1.00  0.00    -0.0428  A
ATOM      5  C8  26D L   1       7.155  -4.257  -2.544  1.00  0.00    -0.0590  A
ATOM      6  C9  26D L   1       6.322  -3.153  -2.408  1.00  0.00    -0.0428  A
ATOM      7 C10  26D L   1       6.859  -1.893  -2.121  1.00  0.00    +0.0513  A
ATOM      8 CL11 26D L   1       5.735  -0.585  -2.001  1.00  0.00    -0.0830 Cl
ATOM      9 H18  26D L   1       9.174  -4.971  -2.522  1.00  0.00    +0.0632  H
ATOM     10 H19  26D L   1       6.736  -5.235  -2.773  1.00  0.00    +0.0618  H
ATOM     11 H20  26D L   1       5.247  -3.282  -2.537  1.00  0.00    +0.0632  H
ENDROOT
BRANCH 1 13
ATOM     12  C1  26D L   1       8.257   0.270  -0.366  1.00  0.00    -0.0030  C
ATOM     13  C2  26D L   1       8.802  -0.321  -1.663  1.00  0.00    +0.1566  C
ATOM     14  N3  26D L   1       8.581   0.673  -2.754  1.00  0.00    -0.1889  N
ATOM     15 H12  26D L   1       8.711   1.245  -0.161  1.00  0.00    +0.0292  H
ATOM     16 H13  26D L   1       8.478  -0.386   0.484  1.00  0.00    +0.0292  H
ATOM     17 H14  26D L   1       7.171   0.409  -0.398  1.00  0.00    +0.0292  H
ATOM     18 H15  26D L   1       9.893  -0.344  -1.596  1.00  0.00    +0.1052  H
ATOM     19 H16  26D L   1       8.989   0.347  -3.639  1.00  0.00    +0.4057 HD
ATOM     20 H17  26D L   1       7.574   0.820  -2.918  1.00  0.00    +0.4057 HD
ENDBRANCH 1 13
TORSDOF 1
ENDMDL
MODEL 6
REMARK VINA RESULT:    -5.661      9.717     11.601
REMARK INTER + INTRA:          -5.815
REMARK INTER:                  -5.909
REMARK INTRA:                   0.094
REMARK UNBOUND:                 0.177
ROOT
ATOM      1  C4  26D L   1      -1.437  -5.321  -5.753  1.00  0.00    +0.0507  A
ATOM      2  C5  26D L   1      -0.659  -5.117  -6.913  1.00  0.00    +0.0513  A
ATOM      3 CL6  26D L   1       1.045  -5.416  -6.940  1.00  0.00    -0.0830 Cl
ATOM      4  C7  26D L   1      -1.231  -4.665  -8.107  1.00  0.00    -0.0428  A
ATOM      5  C8  26D L   1      -2.592  -4.392  -8.174  1.00  0.00    -0.0590  A
ATOM      6  C9  26D L   1      -3.382  -4.563  -7.043  1.00  0.00    -0.0428  A
ATOM      7 C10  26D L   1      -2.814  -5.015  -5.847  1.00  0.00    +0.0513  A
ATOM      8 CL11 26D L   1      -3.882  -5.166  -4.495  1.00  0.00    -0.0830 Cl
ATOM      9 H18  26D L   1      -0.619  -4.513  -8.997  1.00  0.00    +0.0632  H
ATOM     10 H19  26D L   1      -3.035  -4.035  -9.102  1.00  0.00    +0.0618  H
ATOM     11 H20  26D L   1      -4.446  -4.333  -7.100  1.00  0.00    +0.0632  H
ENDROOT
BRANCH 1 13
ATOM     12  C1  26D L   1       0.269  -4.868  -3.941  1.00  0.00    -0.0030  C
ATOM     13  C2  26D L   1      -0.847  -5.784  -4.433  1.00  0.00    +0.1566  C
ATOM     14  N3  26D L   1      -0.329  -7.183  -4.441  1.00  0.00    -0.1889  N
ATOM     15 H12  26D L   1       0.641  -5.196  -2.964  1.00  0.00    +0.0292  H
ATOM     16 H13  26D L   1      -0.092  -3.839  -3.830  1.00  0.00    +0.0292  H
ATOM     17 H14  26D L   1       1.120  -4.844  -4.629  1.00  0.00    +0.0292  H
ATOM     18 H15  26D L   1      -1.617  -5.832  -3.658  1.00  0.00    +0.1052  H
ATOM     19 H16  26D L   1      -1.065  -7.848  -4.706  1.00  0.00    +0.4057 HD
ATOM     20 H17  26D L   1       0.437  -7.287  -5.123  1.00  0.00    +0.4057 HD
ENDBRANCH 1 13
TORSDOF 1
ENDMDL
MODEL 7
REMARK VINA RESULT:    -5.622      3.278      5.350
REMARK INTER + INTRA:          -5.774
REMARK INTER:                  -5.849
REMARK INTRA:                   0.075
REMARK UNBOUND:                 0.177
ROOT
ATOM      1  C4  26D L   1       5.263  -3.802  -1.810  1.00  0.00    +0.0507  A
ATOM      2  C5  26D L   1       4.969  -3.837  -3.190  1.00  0.00    +0.0513  A
ATOM      3 CL6  26D L   1       5.932  -2.996  -4.356  1.00  0.00    -0.0830 Cl
ATOM      4  C7  26D L   1       3.880  -4.561  -3.688  1.00  0.00    -0.0428  A
ATOM      5  C8  26D L   1       3.047  -5.261  -2.823  1.00  0.00    -0.0590  A
ATOM      6  C9  26D L   1       3.298  -5.229  -1.456  1.00  0.00    -0.0428  A
ATOM      7 C10  26D L   1       4.385  -4.506  -0.954  1.00  0.00    +0.0513  A
ATOM      8 CL11 26D L   1       4.588  -4.512   0.764  1.00  0.00    -0.0830 Cl
ATOM      9 H18  26D L   1       3.665  -4.582  -4.757  1.00  0.00    +0.0632  H
ATOM     10 H19  26D L   1       2.197  -5.820  -3.210  1.00  0.00    +0.0618  H
ATOM     11 H20  26D L   1       2.631  -5.769  -0.782  1.00  0.00    +0.0632  H
ENDROOT
BRANCH 1 13
ATOM     12  C1  26D L   1       6.324  -1.519  -1.562  1.00  0.00    -0.0030  C
ATOM     13  C2  26D L   1       6.417  -3.005  -1.231  1.00  0.00    +0.1566  C
ATOM     14  N3  26D L   1       7.770  -3.486  -1.638  1.00  0.00    -0.1889  N
ATOM     15 H12  26D L   1       7.141  -0.962  -1.090  1.00  0.00    +0.0292  H
ATOM     16 H13  26D L   1       5.380  -1.097  -1.198  1.00  0.00    +0.0292  H
ATOM     17 H14  26D L   1       6.373  -1.330  -2.640  1.00  0.00    +0.0292  H
ATOM     18 H15  26D L   1       6.457  -3.111  -0.144  1.00  0.00    +0.1052  H
ATOM     19 H16  26D L   1       7.906  -4.471  -1.377  1.00  0.00    +0.4057 HD
ATOM     20 H17  26D L   1       7.891  -3.422  -2.659  1.00  0.00    +0.4057 HD
ENDBRANCH 1 13
TORSDOF 1
ENDMDL
MODEL 8
REMARK VINA RESULT:    -5.601      3.165      5.607
REMARK INTER + INTRA:          -5.751
REMARK INTER:                  -5.801
REMARK INTRA:                   0.049
REMARK UNBOUND:                 0.177
ROOT
ATOM      1  C4  26D L   1       5.156  -3.688  -2.898  1.00  0.00    +0.0507  A
ATOM      2  C5  26D L   1       5.231  -3.795  -1.493  1.00  0.00    +0.0513  A
ATOM      3 CL6  26D L   1       6.424  -2.947  -0.569  1.00  0.00    -0.0830 Cl
ATOM      4  C7  26D L   1       4.337  -4.593  -0.771  1.00  0.00    -0.0428  A
ATOM      5  C8  26D L   1       3.351  -5.317  -1.432  1.00  0.00    -0.0590  A
ATOM      6  C9  26D L   1       3.264  -5.248  -2.817  1.00  0.00    -0.0428  A
ATOM      7 C10  26D L   1       4.156  -4.452  -3.543  1.00  0.00    +0.0513  A
ATOM      8 CL11 26D L   1       3.977  -4.462  -5.262  1.00  0.00    -0.0830 Cl
ATOM      9 H18  26D L   1       4.404  -4.666   0.315  1.00  0.00    +0.0632  H
ATOM     10 H19  26D L   1       2.659  -5.941  -0.870  1.00  0.00    +0.0618  H
ATOM     11 H20  26D L   1       2.497  -5.830  -3.329  1.00  0.00    +0.0632  H
ENDROOT
BRANCH 1 13
ATOM     12  C1  26D L   1       7.532  -3.449  -3.736  1.00  0.00    -0.0030  C
ATOM     13  C2  26D L   1       6.126  -2.855  -3.716  1.00  0.00    +0.1566  C
ATOM     14  N3  26D L   1       6.232  -1.429  -3.291  1.00  0.00    -0.1889  N
ATOM     15 H12  26D L   1       8.197  -2.856  -4.374  1.00  0.00    +0.0292  H
ATOM     16 H13  26D L   1       7.517  -4.471  -4.131  1.00  0.00    +0.0292  H
ATOM     17 H14  26D L   1       7.979  -3.490  -2.738  1.00  0.00    +0.0292  H
ATOM     18 H15  26D L   1       5.781  -2.759  -4.749  1.00  0.00    +0.1052  H
ATOM     19 H16  26D L   1       5.316  -0.965  -3.322  1.00  0.00    +0.4057 HD
ATOM     20 H17  26D L   1       6.576  -1.359  -2.322  1.00  0.00    +0.4057 HD
ENDBRANCH 1 13
TORSDOF 1
ENDMDL
MODEL 9
REMARK VINA RESULT:    -5.598      9.756     11.740
REMARK INTER + INTRA:          -5.748
REMARK INTER:                  -6.007
REMARK INTRA:                   0.260
REMARK UNBOUND:                 0.177
ROOT
ATOM      1  C4  26D L   1      -1.516  -5.251  -5.699  1.00  0.00    +0.0507  A
ATOM      2  C5  26D L   1      -2.904  -5.031  -5.830  1.00  0.00    +0.0513  A
ATOM      3 CL6  26D L   1      -3.997  -5.241  -4.505  1.00  0.00    -0.0830 Cl
ATOM      4  C7  26D L   1      -3.469  -4.625  -7.044  1.00  0.00    -0.0428  A
ATOM      5  C8  26D L   1      -2.667  -4.439  -8.165  1.00  0.00    -0.0590  A
ATOM      6  C9  26D L   1      -1.299  -4.667  -8.072  1.00  0.00    -0.0428  A
ATOM      7 C10  26D L   1      -0.730  -5.073  -6.860  1.00  0.00    +0.0513  A
ATOM      8 CL11 26D L   1       0.976  -5.356  -6.865  1.00  0.00    -0.0830 Cl
ATOM      9 H18  26D L   1      -4.543  -4.456  -7.132  1.00  0.00    +0.0632  H
ATOM     10 H19  26D L   1      -3.107  -4.128  -9.110  1.00  0.00    +0.0618  H
ATOM     11 H20  26D L   1      -0.678  -4.533  -8.959  1.00  0.00    +0.0632  H
ENDROOT
BRANCH 1 13
ATOM     12  C1  26D L   1       0.279  -4.817  -3.969  1.00  0.00    -0.0030  C
ATOM     13  C2  26D L   1      -0.872  -5.718  -4.406  1.00  0.00    +0.1566  C
ATOM     14  N3  26D L   1      -0.376  -7.125  -4.433  1.00  0.00    -0.1889  N
ATOM     15 H12  26D L   1       0.691  -5.149  -3.010  1.00  0.00    +0.0292  H
ATOM     16 H13  26D L   1      -0.061  -3.783  -3.846  1.00  0.00    +0.0292  H
ATOM     17 H14  26D L   1       1.098  -4.808  -4.696  1.00  0.00    +0.0292  H
ATOM     18 H15  26D L   1      -1.606  -5.752  -3.597  1.00  0.00    +0.1052  H
ATOM     19 H16  26D L   1      -1.133  -7.780  -4.661  1.00  0.00    +0.4057 HD
ATOM     20 H17  26D L   1       0.356  -7.243  -5.149  1.00  0.00    +0.4057 HD
ENDBRANCH 1 13
TORSDOF 1
ENDMDL
MODEL 10
REMARK VINA RESULT:    -5.550      4.488      5.677
REMARK INTER + INTRA:          -5.697
REMARK INTER:                  -5.746
REMARK INTRA:                   0.049
REMARK UNBOUND:                 0.177
ROOT
ATOM      1  C4  26D L   1       3.602  -4.776  -2.745  1.00  0.00    +0.0507  A
ATOM      2  C5  26D L   1       3.979  -4.445  -4.065  1.00  0.00    +0.0513  A
ATOM      3 CL6  26D L   1       3.042  -4.932  -5.436  1.00  0.00    -0.0830 Cl
ATOM      4  C7  26D L   1       5.132  -3.699  -4.332  1.00  0.00    -0.0428  A
ATOM      5  C8  26D L   1       5.949  -3.272  -3.291  1.00  0.00    -0.0590  A
ATOM      6  C9  26D L   1       5.616  -3.599  -1.982  1.00  0.00    -0.0428  A
ATOM      7 C10  26D L   1       4.464  -4.345  -1.710  1.00  0.00    +0.0513  A
ATOM      8 CL11 26D L   1       4.161  -4.719  -0.050  1.00  0.00    -0.0830 Cl
ATOM      9 H18  26D L   1       5.410  -3.449  -5.356  1.00  0.00    +0.0632  H
ATOM     10 H19  26D L   1       6.848  -2.697  -3.500  1.00  0.00    +0.0618  H
ATOM     11 H20  26D L   1       6.270  -3.273  -1.172  1.00  0.00    +0.0632  H
ENDROOT
BRANCH 1 13
ATOM     12  C1  26D L   1       2.495  -7.044  -2.917  1.00  0.00    -0.0030  C
ATOM     13  C2  26D L   1       2.375  -5.606  -2.419  1.00  0.00    +0.1566  C
ATOM     14  N3  26D L   1       1.091  -5.044  -2.932  1.00  0.00    -0.1889  N
ATOM     15 H12  26D L   1       1.618  -7.632  -2.624  1.00  0.00    +0.0292  H
ATOM     16 H13  26D L   1       3.380  -7.531  -2.491  1.00  0.00    +0.0292  H
ATOM     17 H14  26D L   1       2.583  -7.100  -4.007  1.00  0.00    +0.0292  H
ATOM     18 H15  26D L   1       2.197  -5.632  -1.341  1.00  0.00    +0.1052  H
ATOM     19 H16  26D L   1       0.933  -4.096  -2.571  1.00  0.00    +0.4057 HD
ATOM     20 H17  26D L   1       1.102  -4.982  -3.960  1.00  0.00    +0.4057 HD
ENDBRANCH 1 13
TORSDOF 1
ENDMDL
MODEL 11
REMARK VINA RESULT:    -5.520      3.249      5.458
REMARK INTER + INTRA:          -5.665
REMARK INTER:                  -5.882
REMARK INTRA:                   0.217
REMARK UNBOUND:                 0.177
ROOT
ATOM      1  C4  26D L   1       5.262  -3.734  -1.788  1.00  0.00    +0.0507  A
ATOM      2  C5  26D L   1       4.417  -4.487  -0.944  1.00  0.00    +0.0513  A
ATOM      3 CL6  26D L   1       4.627  -4.521   0.773  1.00  0.00    -0.0830 Cl
ATOM      4  C7  26D L   1       3.358  -5.244  -1.456  1.00  0.00    -0.0428  A
ATOM      5  C8  26D L   1       3.120  -5.282  -2.826  1.00  0.00    -0.0590  A
ATOM      6  C9  26D L   1       3.947  -4.568  -3.685  1.00  0.00    -0.0428  A
ATOM      7 C10  26D L   1       5.007  -3.809  -3.176  1.00  0.00    +0.0513  A
ATOM      8 CL11 26D L   1       5.989  -2.983  -4.335  1.00  0.00    -0.0830 Cl
ATOM      9 H18  26D L   1       2.711  -5.820  -0.794  1.00  0.00    +0.0632  H
ATOM     10 H19  26D L   1       2.299  -5.875  -3.224  1.00  0.00    +0.0618  H
ATOM     11 H20  26D L   1       3.762  -4.614  -4.758  1.00  0.00    +0.0632  H
ENDROOT
BRANCH 1 13
ATOM     12  C1  26D L   1       6.331  -1.446  -1.635  1.00  0.00    -0.0030  C
ATOM     13  C2  26D L   1       6.437  -2.924  -1.271  1.00  0.00    +0.1566  C
ATOM     14  N3  26D L   1       7.774  -3.416  -1.714  1.00  0.00    -0.1889  N
ATOM     15 H12  26D L   1       7.165  -0.878  -1.207  1.00  0.00    +0.0292  H
ATOM     16 H13  26D L   1       5.401  -1.015  -1.248  1.00  0.00    +0.0292  H
ATOM     17 H14  26D L   1       6.341  -1.284  -2.718  1.00  0.00    +0.0292  H
ATOM     18 H15  26D L   1       6.515  -3.003  -0.183  1.00  0.00    +0.1052  H
ATOM     19 H16  26D L   1       7.919  -4.394  -1.434  1.00  0.00    +0.4057 HD
ATOM     20 H17  26D L   1       7.858  -3.377  -2.740  1.00  0.00    +0.4057 HD
ENDBRANCH 1 13
TORSDOF 1
ENDMDL
MODEL 12
REMARK VINA RESULT:    -5.444      4.528      6.033
REMARK INTER + INTRA:          -5.585
REMARK INTER:                  -5.784
REMARK INTRA:                   0.199
REMARK UNBOUND:                 0.177
ROOT
ATOM      1  C4  26D L   1       3.573  -4.861  -2.690  1.00  0.00    +0.0507  A
ATOM      2  C5  26D L   1       4.382  -4.430  -1.617  1.00  0.00    +0.0513  A
ATOM      3 CL6  26D L   1       4.016  -4.827   0.027  1.00  0.00    -0.0830 Cl
ATOM      4  C7  26D L   1       5.530  -3.659  -1.829  1.00  0.00    -0.0428  A
ATOM      5  C8  26D L   1       5.897  -3.286  -3.118  1.00  0.00    -0.0590  A
ATOM      6  C9  26D L   1       5.109  -3.678  -4.194  1.00  0.00    -0.0428  A
ATOM      7 C10  26D L   1       3.961  -4.448  -3.986  1.00  0.00    +0.0513  A
ATOM      8 CL11 26D L   1       3.040  -4.856  -5.391  1.00  0.00    -0.0830 Cl
ATOM      9 H18  26D L   1       6.148  -3.333  -0.992  1.00  0.00    +0.0632  H
ATOM     10 H19  26D L   1       6.787  -2.682  -3.282  1.00  0.00    +0.0618  H
ATOM     11 H20  26D L   1       5.396  -3.369  -5.200  1.00  0.00    +0.0632  H
ENDROOT
BRANCH 1 13
ATOM     12  C1  26D L   1       2.399  -7.058  -3.131  1.00  0.00    -0.0030  C
ATOM     13  C2  26D L   1       2.306  -5.674  -2.495  1.00  0.00    +0.1566  C
ATOM     14  N3  26D L   1       1.063  -5.017  -2.995  1.00  0.00    -0.1889  N
ATOM     15 H12  26D L   1       1.492  -7.640  -2.931  1.00  0.00    +0.0292  H
ATOM     16 H13  26D L   1       3.249  -7.617  -2.724  1.00  0.00    +0.0292  H
ATOM     17 H14  26D L   1       2.529  -7.008  -4.217  1.00  0.00    +0.0292  H
ATOM     18 H15  26D L   1       2.085  -5.800  -1.432  1.00  0.00    +0.1052  H
ATOM     19 H16  26D L   1       0.922  -4.104  -2.546  1.00  0.00    +0.4057 HD
ATOM     20 H17  26D L   1       1.117  -4.853  -4.011  1.00  0.00    +0.4057 HD
ENDBRANCH 1 13
TORSDOF 1
ENDMDL
