MODEL 1
REMARK VINA RESULT:    -6.230      0.000      0.000
REMARK INTER + INTRA:          -6.735
REMARK INTER:                  -6.594
REMARK INTRA:                  -0.141
REMARK UNBOUND:                -0.141
ROOT
ATOM      1  C4  24D L   1       8.106  -1.914  -2.433  1.00  0.00    +0.0325  A
ATOM      2  C5  24D L   1       6.923  -1.299  -1.973  1.00  0.00    -0.0500  A
ATOM      3  C6  24D L   1       6.976  -0.212  -1.094  1.00  0.00    -0.0428  A
ATOM      4  C7  24D L   1       8.204   0.287  -0.670  1.00  0.00    +0.0424  A
ATOM      5 CL8  24D L   1       8.257   1.622   0.408  1.00  0.00    -0.0835 Cl
ATOM      6  C9  24D L   1       9.386  -0.289  -1.121  1.00  0.00    -0.0246  A
ATOM      7 C10  24D L   1       9.337  -1.375  -1.999  1.00  0.00    +0.0513  A
ATOM      8 CL11 24D L   1      10.847  -2.018  -2.541  1.00  0.00    -0.0830 Cl
ATOM      9 H18  24D L   1       5.937  -1.636  -2.281  1.00  0.00    +0.0623  H
ATOM     10 H19  24D L   1       6.053   0.250  -0.744  1.00  0.00    +0.0632  H
ATOM     11 H20  24D L   1      10.342   0.114  -0.793  1.00  0.00    +0.0647  H
ENDROOT
BRANCH 1 13
ATOM     12  C1  24D L   1       6.733  -3.153  -4.143  1.00  0.00    -0.0030  C
ATOM     13  C2  24D L   1       8.063  -3.080  -3.400  1.00  0.00    +0.1552  C
ATOM     14  N3  24D L   1       8.293  -4.402  -2.743  1.00  0.00    -0.1890  N
ATOM     15 H12  24D L   1       6.546  -2.234  -4.709  1.00  0.00    +0.0292  H
ATOM     16 H13  24D L   1       6.726  -3.987  -4.853  1.00  0.00    +0.0292  H
ATOM     17 H14  24D L   1       5.891  -3.291  -3.454  1.00  0.00    +0.0292  H
ATOM     18 H15  24D L   1       8.887  -3.015  -4.116  1.00  0.00    +0.1051  H
ATOM     19 H16  24D L   1       7.460  -4.737  -2.247  1.00  0.00    +0.4057 HD
ATOM     20 H17  24D L   1       8.550  -5.118  -3.436  1.00  0.00    +0.4057 HD
ENDBRANCH 1 13
TORSDOF 1
ENDMDL
MODEL 2
REMARK VINA RESULT:    -6.217      2.174      3.569
REMARK INTER + INTRA:          -6.721
REMARK INTER:                  -6.568
REMARK INTRA:                  -0.153
REMARK UNBOUND:                -0.141
ROOT
ATOM      1  C4  24D L   1       6.483  -2.835  -3.260  1.00  0.00    +0.0325  A
ATOM      2  C5  24D L   1       7.571  -3.683  -3.551  1.00  0.00    -0.0500  A
ATOM      3  C6  24D L   1       8.869  -3.345  -3.154  1.00  0.00    -0.0428  A
ATOM      4  C7  24D L   1       9.101  -2.166  -2.452  1.00  0.00    +0.0424  A
ATOM      5 CL8  24D L   1      10.699  -1.761  -1.969  1.00  0.00    -0.0835 Cl
ATOM      6  C9  24D L   1       8.045  -1.320  -2.136  1.00  0.00    -0.0246  A
ATOM      7 C10  24D L   1       6.747  -1.654  -2.532  1.00  0.00    +0.0513  A
ATOM      8 CL11 24D L   1       5.481  -0.569  -2.076  1.00  0.00    -0.0830 Cl
ATOM      9 H18  24D L   1       7.447  -4.622  -4.084  1.00  0.00    +0.0623  H
ATOM     10 H19  24D L   1       9.700  -4.008  -3.390  1.00  0.00    +0.0632  H
ATOM     11 H20  24D L   1       8.234  -0.405  -1.578  1.00  0.00    +0.0647  H
ENDROOT
BRANCH 1 13
ATOM     12  C1  24D L   1       4.512  -4.344  -2.827  1.00  0.00    -0.0030  C
ATOM     13  C2  24D L   1       5.068  -3.199  -3.668  1.00  0.00    +0.1552  C
ATOM     14  N3  24D L   1       4.948  -3.586  -5.105  1.00  0.00    -0.1890  N
ATOM     15 H12  24D L   1       4.504  -4.085  -1.763  1.00  0.00    +0.0292  H
ATOM     16 H13  24D L   1       3.483  -4.580  -3.119  1.00  0.00    +0.0292  H
ATOM     17 H14  24D L   1       5.111  -5.256  -2.939  1.00  0.00    +0.0292  H
ATOM     18 H15  24D L   1       4.412  -2.328  -3.592  1.00  0.00    +0.1051  H
ATOM     19 H16  24D L   1       5.281  -4.542  -5.277  1.00  0.00    +0.4057 HD
ATOM     20 H17  24D L   1       3.969  -3.539  -5.419  1.00  0.00    +0.4057 HD
ENDBRANCH 1 13
TORSDOF 1
ENDMDL
MODEL 3
REMARK VINA RESULT:    -6.189      2.594      4.083
REMARK INTER + INTRA:          -6.691
REMARK INTER:                  -6.672
REMARK INTRA:                  -0.019
REMARK UNBOUND:                -0.141
ROOT
ATOM      1  C4  24D L   1       7.792  -1.353  -1.776  1.00  0.00    +0.0325  A
ATOM      2  C5  24D L   1       6.506  -0.855  -2.070  1.00  0.00    -0.0500  A
ATOM      3  C6  24D L   1       5.633  -1.568  -2.898  1.00  0.00    -0.0428  A
ATOM      4  C7  24D L   1       6.022  -2.791  -3.437  1.00  0.00    +0.0424  A
ATOM      5 CL8  24D L   1       4.942  -3.659  -4.453  1.00  0.00    -0.0835 Cl
ATOM      6  C9  24D L   1       7.277  -3.314  -3.150  1.00  0.00    -0.0246  A
ATOM      7 C10  24D L   1       8.151  -2.605  -2.323  1.00  0.00    +0.0513  A
ATOM      8 CL11 24D L   1       9.683  -3.332  -1.987  1.00  0.00    -0.0830 Cl
ATOM      9 H18  24D L   1       6.143   0.086  -1.667  1.00  0.00    +0.0623  H
ATOM     10 H19  24D L   1       4.644  -1.169  -3.120  1.00  0.00    +0.0632  H
ATOM     11 H20  24D L   1       7.570  -4.276  -3.567  1.00  0.00    +0.0647  H
ENDROOT
BRANCH 1 13
ATOM     12  C1  24D L   1       8.078   0.628  -0.246  1.00  0.00    -0.0030  C
ATOM     13  C2  24D L   1       8.740  -0.599  -0.865  1.00  0.00    +0.1552  C
ATOM     14  N3  24D L   1       9.988  -0.148  -1.551  1.00  0.00    -0.1890  N
ATOM     15 H12  24D L   1       7.194   0.347   0.338  1.00  0.00    +0.0292  H
ATOM     16 H13  24D L   1       8.768   1.148   0.426  1.00  0.00    +0.0292  H
ATOM     17 H14  24D L   1       7.752   1.341  -1.012  1.00  0.00    +0.0292  H
ATOM     18 H15  24D L   1       9.117  -1.257  -0.076  1.00  0.00    +0.1051  H
ATOM     19 H16  24D L   1       9.830   0.683  -2.133  1.00  0.00    +0.4057 HD
ATOM     20 H17  24D L   1      10.720   0.087  -0.868  1.00  0.00    +0.4057 HD
ENDBRANCH 1 13
TORSDOF 1
ENDMDL
MODEL 4
REMARK VINA RESULT:    -6.056      3.695      4.777
REMARK INTER + INTRA:          -6.551
REMARK INTER:                  -6.398
REMARK INTRA:                  -0.153
REMARK UNBOUND:                -0.141
ROOT
ATOM      1  C4  24D L   1       4.739  -3.866  -3.529  1.00  0.00    +0.0325  A
ATOM      2  C5  24D L   1       5.682  -3.178  -4.318  1.00  0.00    -0.0500  A
ATOM      3  C6  24D L   1       6.828  -2.620  -3.742  1.00  0.00    -0.0428  A
ATOM      4  C7  24D L   1       7.058  -2.750  -2.375  1.00  0.00    +0.0424  A
ATOM      5 CL8  24D L   1       8.469  -2.062  -1.678  1.00  0.00    -0.0835 Cl
ATOM      6  C9  24D L   1       6.154  -3.439  -1.576  1.00  0.00    -0.0246  A
ATOM      7 C10  24D L   1       5.008  -3.996  -2.148  1.00  0.00    +0.0513  A
ATOM      8 CL11 24D L   1       3.944  -4.864  -1.097  1.00  0.00    -0.0830 Cl
ATOM      9 H18  24D L   1       5.563  -3.058  -5.391  1.00  0.00    +0.0623  H
ATOM     10 H19  24D L   1       7.547  -2.087  -4.364  1.00  0.00    +0.0632  H
ATOM     11 H20  24D L   1       6.346  -3.544  -0.510  1.00  0.00    +0.0647  H
ENDROOT
BRANCH 1 13
ATOM     12  C1  24D L   1       3.732  -4.891  -5.598  1.00  0.00    -0.0030  C
ATOM     13  C2  24D L   1       3.502  -4.491  -4.144  1.00  0.00    +0.1552  C
ATOM     14  N3  24D L   1       2.304  -3.600  -4.099  1.00  0.00    -0.1890  N
ATOM     15 H12  24D L   1       4.555  -5.609  -5.684  1.00  0.00    +0.0292  H
ATOM     16 H13  24D L   1       2.837  -5.361  -6.021  1.00  0.00    +0.0292  H
ATOM     17 H14  24D L   1       3.984  -4.025  -6.221  1.00  0.00    +0.0292  H
ATOM     18 H15  24D L   1       3.183  -5.361  -3.564  1.00  0.00    +0.1051  H
ATOM     19 H16  24D L   1       2.338  -2.871  -4.820  1.00  0.00    +0.4057 HD
ATOM     20 H17  24D L   1       1.439  -4.138  -4.243  1.00  0.00    +0.4057 HD
ENDBRANCH 1 13
TORSDOF 1
ENDMDL
MODEL 5
REMARK VINA RESULT:    -6.007      6.454      7.648
REMARK INTER + INTRA:          -6.499
REMARK INTER:                  -6.339
REMARK INTRA:                  -0.160
REMARK UNBOUND:                -0.141
ROOT
ATOM      1  C4  24D L   1       3.303  -5.039   0.287  1.00  0.00    +0.0325  A
ATOM      2  C5  24D L   1       2.224  -5.931   0.126  1.00  0.00    -0.0500  A
ATOM      3  C6  24D L   1       1.897  -6.440  -1.135  1.00  0.00    -0.0428  A
ATOM      4  C7  24D L   1       2.646  -6.078  -2.252  1.00  0.00    +0.0424  A
ATOM      5 CL8  24D L   1       2.236  -6.710  -3.796  1.00  0.00    -0.0835 Cl
ATOM      6  C9  24D L   1       3.727  -5.215  -2.119  1.00  0.00    -0.0246  A
ATOM      7 C10  24D L   1       4.055  -4.704  -0.861  1.00  0.00    +0.0513  A
ATOM      8 CL11 24D L   1       5.430  -3.660  -0.769  1.00  0.00    -0.0830 Cl
ATOM      9 H18  24D L   1       1.613  -6.259   0.962  1.00  0.00    +0.0623  H
ATOM     10 H19  24D L   1       1.057  -7.125  -1.246  1.00  0.00    +0.0632  H
ATOM     11 H20  24D L   1       4.314  -4.946  -2.995  1.00  0.00    +0.0647  H
ENDROOT
BRANCH 1 13
ATOM     12  C1  24D L   1       4.602  -5.446   2.407  1.00  0.00    -0.0030  C
ATOM     13  C2  24D L   1       3.680  -4.494   1.651  1.00  0.00    +0.1552  C
ATOM     14  N3  24D L   1       2.500  -4.213   2.522  1.00  0.00    -0.1890  N
ATOM     15 H12  24D L   1       5.525  -5.630   1.846  1.00  0.00    +0.0292  H
ATOM     16 H13  24D L   1       4.883  -5.029   3.380  1.00  0.00    +0.0292  H
ATOM     17 H14  24D L   1       4.125  -6.418   2.582  1.00  0.00    +0.0292  H
ATOM     18 H15  24D L   1       4.154  -3.514   1.555  1.00  0.00    +0.1051  H
ATOM     19 H16  24D L   1       2.109  -5.069   2.932  1.00  0.00    +0.4057 HD
ATOM     20 H17  24D L   1       2.755  -3.587   3.298  1.00  0.00    +0.4057 HD
ENDBRANCH 1 13
TORSDOF 1
ENDMDL
MODEL 6
REMARK VINA RESULT:    -5.994      1.970      2.212
REMARK INTER + INTRA:          -6.485
REMARK INTER:                  -6.332
REMARK INTRA:                  -0.153
REMARK UNBOUND:                -0.141
ROOT
ATOM      1  C4  24D L   1       6.412  -2.734  -2.359  1.00  0.00    +0.0325  A
ATOM      2  C5  24D L   1       5.858  -1.495  -1.978  1.00  0.00    -0.0500  A
ATOM      3  C6  24D L   1       6.660  -0.492  -1.425  1.00  0.00    -0.0428  A
ATOM      4  C7  24D L   1       8.025  -0.701  -1.254  1.00  0.00    +0.0424  A
ATOM      5 CL8  24D L   1       9.000   0.538  -0.573  1.00  0.00    -0.0835 Cl
ATOM      6  C9  24D L   1       8.601  -1.907  -1.636  1.00  0.00    -0.0246  A
ATOM      7 C10  24D L   1       7.803  -2.911  -2.189  1.00  0.00    +0.0513  A
ATOM      8 CL11 24D L   1       8.594  -4.371  -2.669  1.00  0.00    -0.0830 Cl
ATOM      9 H18  24D L   1       4.802  -1.270  -2.102  1.00  0.00    +0.0623  H
ATOM     10 H19  24D L   1       6.217   0.460  -1.131  1.00  0.00    +0.0632  H
ATOM     11 H20  24D L   1       9.671  -2.059  -1.509  1.00  0.00    +0.0647  H
ENDROOT
BRANCH 1 13
ATOM     12  C1  24D L   1       5.136  -3.474  -4.401  1.00  0.00    -0.0030  C
ATOM     13  C2  24D L   1       5.557  -3.823  -2.978  1.00  0.00    +0.1552  C
ATOM     14  N3  24D L   1       4.321  -4.121  -2.195  1.00  0.00    -0.1890  N
ATOM     15 H12  24D L   1       6.009  -3.319  -5.045  1.00  0.00    +0.0292  H
ATOM     16 H13  24D L   1       4.539  -4.280  -4.842  1.00  0.00    +0.0292  H
ATOM     17 H14  24D L   1       4.538  -2.556  -4.433  1.00  0.00    +0.0292  H
ATOM     18 H15  24D L   1       6.090  -4.779  -2.970  1.00  0.00    +0.1051  H
ATOM     19 H16  24D L   1       3.591  -3.415  -2.343  1.00  0.00    +0.4057 HD
ATOM     20 H17  24D L   1       3.927  -5.034  -2.461  1.00  0.00    +0.4057 HD
ENDBRANCH 1 13
TORSDOF 1
ENDMDL
MODEL 7
REMARK VINA RESULT:    -5.772      1.598      2.138
REMARK INTER + INTRA:          -6.251
REMARK INTER:                  -6.596
REMARK INTRA:                   0.345
REMARK UNBOUND:                -0.141
ROOT
ATOM      1  C4  24D L   1       8.644  -1.979  -2.172  1.00  0.00    +0.0325  A
ATOM      2  C5  24D L   1       9.750  -1.133  -1.952  1.00  0.00    -0.0500  A
ATOM      3  C6  24D L   1       9.639  -0.006  -1.131  1.00  0.00    -0.0428  A
ATOM      4  C7  24D L   1       8.429   0.289  -0.508  1.00  0.00    +0.0424  A
ATOM      5 CL8  24D L   1       8.304   1.675   0.499  1.00  0.00    -0.0835 Cl
ATOM      6  C9  24D L   1       7.327  -0.537  -0.693  1.00  0.00    -0.0246  A
ATOM      7 C10  24D L   1       7.435  -1.663  -1.513  1.00  0.00    +0.0513  A
ATOM      8 CL11 24D L   1       6.032  -2.660  -1.672  1.00  0.00    -0.0830 Cl
ATOM      9 H18  24D L   1      10.722  -1.321  -2.400  1.00  0.00    +0.0623  H
ATOM     10 H19  24D L   1      10.501   0.641  -0.973  1.00  0.00    +0.0632  H
ATOM     11 H20  24D L   1       6.389  -0.305  -0.194  1.00  0.00    +0.0647  H
ENDROOT
BRANCH 1 13
ATOM     12  C1  24D L   1       7.677  -3.246  -4.123  1.00  0.00    -0.0030  C
ATOM     13  C2  24D L   1       8.757  -3.213  -3.045  1.00  0.00    +0.1552  C
ATOM     14  N3  24D L   1       8.674  -4.491  -2.276  1.00  0.00    -0.1890  N
ATOM     15 H12  24D L   1       7.739  -2.364  -4.770  1.00  0.00    +0.0292  H
ATOM     16 H13  24D L   1       7.786  -4.132  -4.759  1.00  0.00    +0.0292  H
ATOM     17 H14  24D L   1       6.671  -3.265  -3.689  1.00  0.00    +0.0292  H
ATOM     18 H15  24D L   1       9.746  -3.267  -3.507  1.00  0.00    +0.1051  H
ATOM     19 H16  24D L   1       7.709  -4.721  -2.013  1.00  0.00    +0.4057 HD
ATOM     20 H17  24D L   1       9.040  -5.278  -2.829  1.00  0.00    +0.4057 HD
ENDBRANCH 1 13
TORSDOF 1
ENDMDL
MODEL 8
REMARK VINA RESULT:    -5.690     10.384     12.178
REMARK INTER + INTRA:          -6.163
REMARK INTER:                  -6.010
REMARK INTRA:                  -0.153
REMARK UNBOUND:                -0.141
ROOT
ATOM      1  C4  24D L   1      -1.394  -5.010  -5.737  1.00  0.00    +0.0325  A
ATOM      2  C5  24D L   1      -0.514  -4.748  -6.807  1.00  0.00    -0.0500  A
ATOM      3  C6  24D L   1      -1.004  -4.469  -8.087  1.00  0.00    -0.0428  A
ATOM      4  C7  24D L   1      -2.377  -4.433  -8.317  1.00  0.00    +0.0424  A
ATOM      5 CL8  24D L   1      -2.968  -4.087  -9.893  1.00  0.00    -0.0835 Cl
ATOM      6  C9  24D L   1      -3.267  -4.669  -7.277  1.00  0.00    -0.0246  A
ATOM      7 C10  24D L   1      -2.780  -4.949  -5.998  1.00  0.00    +0.0513  A
ATOM      8 CL11 24D L   1      -3.948  -5.202  -4.749  1.00  0.00    -0.0830 Cl
ATOM      9 H18  24D L   1       0.566  -4.749  -6.683  1.00  0.00    +0.0623  H
ATOM     10 H19  24D L   1      -0.312  -4.273  -8.905  1.00  0.00    +0.0632  H
ATOM     11 H20  24D L   1      -4.339  -4.629  -7.464  1.00  0.00    +0.0647  H
ENDROOT
BRANCH 1 13
ATOM     12  C1  24D L   1       0.458  -4.603  -4.078  1.00  0.00    -0.0030  C
ATOM     13  C2  24D L   1      -0.875  -5.296  -4.341  1.00  0.00    +0.1552  C
ATOM     14  N3  24D L   1      -0.696  -6.752  -4.064  1.00  0.00    -0.1890  N
ATOM     15 H12  24D L   1       0.367  -3.517  -4.192  1.00  0.00    +0.0292  H
ATOM     16 H13  24D L   1       0.808  -4.801  -3.059  1.00  0.00    +0.0292  H
ATOM     17 H14  24D L   1       1.235  -4.942  -4.773  1.00  0.00    +0.0292  H
ATOM     18 H15  24D L   1      -1.609  -4.991  -3.590  1.00  0.00    +0.1051  H
ATOM     19 H16  24D L   1       0.157  -7.126  -4.496  1.00  0.00    +0.4057 HD
ATOM     20 H17  24D L   1      -0.634  -6.930  -3.052  1.00  0.00    +0.4057 HD
ENDBRANCH 1 13
TORSDOF 1
ENDMDL
MODEL 9
REMARK VINA RESULT:    -5.680      5.428      6.439
REMARK INTER + INTRA:          -6.153
REMARK INTER:                  -6.011
REMARK INTRA:                  -0.142
REMARK UNBOUND:                -0.141
ROOT
ATOM      1  C4  24D L   1       2.923  -5.477  -2.596  1.00  0.00    +0.0325  A
ATOM      2  C5  24D L   1       3.189  -5.342  -1.219  1.00  0.00    -0.0500  A
ATOM      3  C6  24D L   1       4.252  -4.553  -0.768  1.00  0.00    -0.0428  A
ATOM      4  C7  24D L   1       5.057  -3.876  -1.680  1.00  0.00    +0.0424  A
ATOM      5 CL8  24D L   1       6.359  -2.909  -1.115  1.00  0.00    -0.0835 Cl
ATOM      6  C9  24D L   1       4.807  -3.977  -3.043  1.00  0.00    -0.0246  A
ATOM      7 C10  24D L   1       3.747  -4.765  -3.496  1.00  0.00    +0.0513  A
ATOM      8 CL11 24D L   1       3.478  -4.818  -5.204  1.00  0.00    -0.0830 Cl
ATOM      9 H18  24D L   1       2.586  -5.835  -0.461  1.00  0.00    +0.0623  H
ATOM     10 H19  24D L   1       4.448  -4.461   0.300  1.00  0.00    +0.0632  H
ATOM     11 H20  24D L   1       5.435  -3.437  -3.749  1.00  0.00    +0.0647  H
ENDROOT
BRANCH 1 13
ATOM     12  C1  24D L   1       0.516  -5.470  -3.337  1.00  0.00    -0.0030  C
ATOM     13  C2  24D L   1       1.763  -6.315  -3.098  1.00  0.00    +0.1552  C
ATOM     14  N3  24D L   1       1.392  -7.426  -2.171  1.00  0.00    -0.1890  N
ATOM     15 H12  24D L   1       0.709  -4.681  -4.072  1.00  0.00    +0.0292  H
ATOM     16 H13  24D L   1      -0.306  -6.086  -3.720  1.00  0.00    +0.0292  H
ATOM     17 H14  24D L   1       0.172  -4.985  -2.417  1.00  0.00    +0.0292  H
ATOM     18 H15  24D L   1       2.039  -6.841  -4.015  1.00  0.00    +0.1051  H
ATOM     19 H16  24D L   1       0.850  -7.093  -1.366  1.00  0.00    +0.4057 HD
ATOM     20 H17  24D L   1       0.824  -8.135  -2.654  1.00  0.00    +0.4057 HD
ENDBRANCH 1 13
TORSDOF 1
ENDMDL
MODEL 10
REMARK VINA RESULT:    -5.641      6.375      7.991
REMARK INTER + INTRA:          -6.112
REMARK INTER:                  -5.960
REMARK INTRA:                  -0.152
REMARK UNBOUND:                -0.141
ROOT
ATOM      1  C4  24D L   1       2.008  -6.268  -4.211  1.00  0.00    +0.0325  A
ATOM      2  C5  24D L   1       2.497  -5.766  -5.434  1.00  0.00    -0.0500  A
ATOM      3  C6  24D L   1       3.530  -4.823  -5.460  1.00  0.00    -0.0428  A
ATOM      4  C7  24D L   1       4.100  -4.376  -4.271  1.00  0.00    +0.0424  A
ATOM      5 CL8  24D L   1       5.368  -3.219  -4.315  1.00  0.00    -0.0835 Cl
ATOM      6  C9  24D L   1       3.650  -4.867  -3.052  1.00  0.00    -0.0246  A
ATOM      7 C10  24D L   1       2.617  -5.808  -3.022  1.00  0.00    +0.0513  A
ATOM      8 CL11 24D L   1       2.131  -6.396  -1.471  1.00  0.00    -0.0830 Cl
ATOM      9 H18  24D L   1       2.101  -6.088  -6.393  1.00  0.00    +0.0623  H
ATOM     10 H19  24D L   1       3.895  -4.441  -6.413  1.00  0.00    +0.0632  H
ATOM     11 H20  24D L   1       4.108  -4.520  -2.127  1.00  0.00    +0.0647  H
ENDROOT
BRANCH 1 13
ATOM     12  C1  24D L   1       0.832  -8.112  -5.461  1.00  0.00    -0.0030  C
ATOM     13  C2  24D L   1       0.902  -7.303  -4.169  1.00  0.00    +0.1552  C
ATOM     14  N3  24D L   1      -0.449  -6.716  -3.924  1.00  0.00    -0.1890  N
ATOM     15 H12  24D L   1       1.778  -8.630  -5.654  1.00  0.00    +0.0292  H
ATOM     16 H13  24D L   1       0.043  -8.870  -5.407  1.00  0.00    +0.0292  H
ATOM     17 H14  24D L   1       0.626  -7.473  -6.328  1.00  0.00    +0.0292  H
ATOM     18 H15  24D L   1       1.037  -7.975  -3.317  1.00  0.00    +0.1051  H
ATOM     19 H16  24D L   1      -0.840  -6.281  -4.768  1.00  0.00    +0.4057 HD
ATOM     20 H17  24D L   1      -1.114  -7.438  -3.612  1.00  0.00    +0.4057 HD
ENDBRANCH 1 13
TORSDOF 1
ENDMDL
MODEL 11
REMARK VINA RESULT:    -5.538      6.691      7.906
REMARK INTER + INTRA:          -6.002
REMARK INTER:                  -5.855
REMARK INTRA:                  -0.147
REMARK UNBOUND:                -0.141
ROOT
ATOM      1  C4  24D L   1       1.645  -6.172  -3.575  1.00  0.00    +0.0325  A
ATOM      2  C5  24D L   1       1.305  -6.358  -2.220  1.00  0.00    -0.0500  A
ATOM      3  C6  24D L   1       2.137  -5.882  -1.200  1.00  0.00    -0.0428  A
ATOM      4  C7  24D L   1       3.311  -5.203  -1.515  1.00  0.00    +0.0424  A
ATOM      5 CL8  24D L   1       4.324  -4.622  -0.255  1.00  0.00    -0.0835 Cl
ATOM      6  C9  24D L   1       3.662  -4.990  -2.842  1.00  0.00    -0.0246  A
ATOM      7 C10  24D L   1       2.834  -5.465  -3.862  1.00  0.00    +0.0513  A
ATOM      8 CL11 24D L   1       3.320  -5.136  -5.489  1.00  0.00    -0.0830 Cl
ATOM      9 H18  24D L   1       0.395  -6.868  -1.915  1.00  0.00    +0.0623  H
ATOM     10 H19  24D L   1       1.863  -6.037  -0.157  1.00  0.00    +0.0632  H
ATOM     11 H20  24D L   1       4.576  -4.450  -3.079  1.00  0.00    +0.0647  H
ENDROOT
BRANCH 1 13
ATOM     12  C1  24D L   1      -0.677  -6.129  -4.551  1.00  0.00    -0.0030  C
ATOM     13  C2  24D L   1       0.744  -6.667  -4.689  1.00  0.00    +0.1552  C
ATOM     14  N3  24D L   1       0.663  -8.156  -4.767  1.00  0.00    -0.1890  N
ATOM     15 H12  24D L   1      -0.687  -5.034  -4.565  1.00  0.00    +0.0292  H
ATOM     16 H13  24D L   1      -1.309  -6.477  -5.375  1.00  0.00    +0.0292  H
ATOM     17 H14  24D L   1      -1.141  -6.449  -3.611  1.00  0.00    +0.0292  H
ATOM     18 H15  24D L   1       1.154  -6.392  -5.665  1.00  0.00    +0.1051  H
ATOM     19 H16  24D L   1       0.047  -8.548  -4.046  1.00  0.00    +0.4057 HD
ATOM     20 H17  24D L   1       0.301  -8.459  -5.682  1.00  0.00    +0.4057 HD
ENDBRANCH 1 13
TORSDOF 1
ENDMDL
MODEL 12
REMARK VINA RESULT:    -5.500      4.830      5.935
REMARK INTER + INTRA:          -5.963
REMARK INTER:                  -5.812
REMARK INTRA:                  -0.150
REMARK UNBOUND:                -0.141
ROOT
ATOM      1  C4  24D L   1       5.129  -3.700  -2.818  1.00  0.00    +0.0325  A
ATOM      2  C5  24D L   1       5.145  -3.792  -1.411  1.00  0.00    -0.0500  A
ATOM      3  C6  24D L   1       4.211  -4.583  -0.734  1.00  0.00    -0.0428  A
ATOM      4  C7  24D L   1       3.256  -5.303  -1.446  1.00  0.00    +0.0424  A
ATOM      5 CL8  24D L   1       2.115  -6.272  -0.605  1.00  0.00    -0.0835 Cl
ATOM      6  C9  24D L   1       3.228  -5.245  -2.835  1.00  0.00    -0.0246  A
ATOM      7 C10  24D L   1       4.160  -4.456  -3.514  1.00  0.00    +0.0513  A
ATOM      8 CL11 24D L   1       4.083  -4.457  -5.241  1.00  0.00    -0.0830 Cl
ATOM      9 H18  24D L   1       5.875  -3.264  -0.804  1.00  0.00    +0.0623  H
ATOM     10 H19  24D L   1       4.233  -4.641   0.354  1.00  0.00    +0.0632  H
ATOM     11 H20  24D L   1       2.485  -5.820  -3.384  1.00  0.00    +0.0647  H
ENDROOT
BRANCH 1 13
ATOM     12  C1  24D L   1       7.555  -3.437  -3.444  1.00  0.00    -0.0030  C
ATOM     13  C2  24D L   1       6.147  -2.861  -3.565  1.00  0.00    +0.1552  C
ATOM     14  N3  24D L   1       6.194  -1.441  -3.107  1.00  0.00    -0.1890  N
ATOM     15 H12  24D L   1       7.599  -4.458  -3.839  1.00  0.00    +0.0292  H
ATOM     16 H13  24D L   1       8.275  -2.833  -4.007  1.00  0.00    +0.0292  H
ATOM     17 H14  24D L   1       7.889  -3.474  -2.401  1.00  0.00    +0.0292  H
ATOM     18 H15  24D L   1       5.870  -2.771  -4.619  1.00  0.00    +0.1051  H
ATOM     19 H16  24D L   1       6.704  -1.336  -2.223  1.00  0.00    +0.4057 HD
ATOM     20 H17  24D L   1       6.658  -0.844  -3.805  1.00  0.00    +0.4057 HD
ENDBRANCH 1 13
TORSDOF 1
ENDMDL
