MODEL 1
REMARK VINA RESULT:    -6.117      0.000      0.000
REMARK INTER + INTRA:          -6.546
REMARK INTER:                  -6.475
REMARK INTRA:                  -0.072
REMARK UNBOUND:                -0.072
ROOT
ATOM      1  C4  AMB L   1       7.423  -2.604  -3.148  1.00  0.00    +0.0142  A
ATOM      2  C5  AMB L   1       8.496  -1.761  -3.486  1.00  0.00    -0.0528  A
ATOM      3  C6  AMB L   1       9.781  -2.014  -3.002  1.00  0.00    -0.0613  A
ATOM      4  C7  AMB L   1      10.011  -3.105  -2.170  1.00  0.00    -0.0617  A
ATOM      5  C8  AMB L   1       8.959  -3.949  -1.824  1.00  0.00    -0.0613  A
ATOM      6  C9  AMB L   1       7.672  -3.701  -2.305  1.00  0.00    -0.0528  A
ATOM      7 H16  AMB L   1       8.360  -0.902  -4.143  1.00  0.00    +0.0622  H
ATOM      8 H17  AMB L   1      10.610  -1.364  -3.278  1.00  0.00    +0.0618  H
ATOM      9 H18  AMB L   1      11.015  -3.306  -1.800  1.00  0.00    +0.0618  H
ATOM     10 H19  AMB L   1       9.149  -4.808  -1.182  1.00  0.00    +0.0618  H
ATOM     11 H20  AMB L   1       6.886  -4.395  -2.012  1.00  0.00    +0.0622  H
ENDROOT
BRANCH 1 13
ATOM     12  C1  AMB L   1       5.325  -3.387  -4.398  1.00  0.00    -0.0031  C
ATOM     13  C2  AMB L   1       6.036  -2.269  -3.643  1.00  0.00    +0.1539  C
ATOM     14  N3  AMB L   1       5.172  -1.868  -2.498  1.00  0.00    -0.1890  N
ATOM     15 H10  AMB L   1       5.933  -3.735  -5.241  1.00  0.00    +0.0292  H
ATOM     16 H11  AMB L   1       5.110  -4.251  -3.761  1.00  0.00    +0.0292  H
ATOM     17 H12  AMB L   1       4.369  -3.033  -4.800  1.00  0.00    +0.0292  H
ATOM     18 H13  AMB L   1       6.077  -1.391  -4.297  1.00  0.00    +0.1051  H
ATOM     19 H14  AMB L   1       5.127  -2.626  -1.806  1.00  0.00    +0.4057 HD
ATOM     20 H15  AMB L   1       5.595  -1.064  -2.016  1.00  0.00    +0.4057 HD
ENDBRANCH 1 13
TORSDOF 1
ENDMDL
MODEL 2
REMARK VINA RESULT:    -6.064      1.545      2.156
REMARK INTER + INTRA:          -6.491
REMARK INTER:                  -6.416
REMARK INTRA:                  -0.074
REMARK UNBOUND:                -0.072
ROOT
ATOM      1  C4  AMB L   1       8.072  -2.652  -2.475  1.00  0.00    +0.0142  A
ATOM      2  C5  AMB L   1       9.304  -3.328  -2.521  1.00  0.00    -0.0528  A
ATOM      3  C6  AMB L   1      10.490  -2.670  -2.191  1.00  0.00    -0.0613  A
ATOM      4  C7  AMB L   1      10.464  -1.330  -1.817  1.00  0.00    -0.0617  A
ATOM      5  C8  AMB L   1       9.253  -0.645  -1.768  1.00  0.00    -0.0613  A
ATOM      6  C9  AMB L   1       8.063  -1.298  -2.097  1.00  0.00    -0.0528  A
ATOM      7 H16  AMB L   1       9.367  -4.380  -2.799  1.00  0.00    +0.0622  H
ATOM      8 H17  AMB L   1      11.439  -3.203  -2.216  1.00  0.00    +0.0618  H
ATOM      9 H18  AMB L   1      11.389  -0.820  -1.551  1.00  0.00    +0.0618  H
ATOM     10 H19  AMB L   1       9.240   0.400  -1.463  1.00  0.00    +0.0618  H
ATOM     11 H20  AMB L   1       7.142  -0.721  -2.035  1.00  0.00    +0.0622  H
ENDROOT
BRANCH 1 13
ATOM     12  C1  AMB L   1       5.541  -2.942  -2.179  1.00  0.00    -0.0031  C
ATOM     13  C2  AMB L   1       6.815  -3.378  -2.894  1.00  0.00    +0.1539  C
ATOM     14  N3  AMB L   1       6.599  -3.212  -4.358  1.00  0.00    -0.1890  N
ATOM     15 H10  AMB L   1       5.658  -3.023  -1.092  1.00  0.00    +0.0292  H
ATOM     16 H11  AMB L   1       5.265  -1.907  -2.409  1.00  0.00    +0.0292  H
ATOM     17 H12  AMB L   1       4.698  -3.577  -2.472  1.00  0.00    +0.0292  H
ATOM     18 H13  AMB L   1       6.940  -4.455  -2.738  1.00  0.00    +0.1051  H
ATOM     19 H14  AMB L   1       6.527  -2.216  -4.594  1.00  0.00    +0.4057 HD
ATOM     20 H15  AMB L   1       7.417  -3.570  -4.868  1.00  0.00    +0.4057 HD
ENDBRANCH 1 13
TORSDOF 1
ENDMDL
MODEL 3
REMARK VINA RESULT:    -6.050      1.517      1.865
REMARK INTER + INTRA:          -6.475
REMARK INTER:                  -6.392
REMARK INTRA:                  -0.083
REMARK UNBOUND:                -0.072
ROOT
ATOM      1  C4  AMB L   1       8.065  -2.645  -2.576  1.00  0.00    +0.0142  A
ATOM      2  C5  AMB L   1       8.044  -1.286  -2.215  1.00  0.00    -0.0528  A
ATOM      3  C6  AMB L   1       9.217  -0.633  -1.834  1.00  0.00    -0.0613  A
ATOM      4  C7  AMB L   1      10.423  -1.325  -1.804  1.00  0.00    -0.0617  A
ATOM      5  C8  AMB L   1      10.461  -2.671  -2.158  1.00  0.00    -0.0613  A
ATOM      6  C9  AMB L   1       9.291  -3.331  -2.539  1.00  0.00    -0.0528  A
ATOM      7 H16  AMB L   1       7.121  -0.706  -2.235  1.00  0.00    +0.0622  H
ATOM      8 H17  AMB L   1       9.195   0.423  -1.567  1.00  0.00    +0.0618  H
ATOM      9 H18  AMB L   1      11.339  -0.811  -1.515  1.00  0.00    +0.0618  H
ATOM     10 H19  AMB L   1      11.412  -3.202  -2.142  1.00  0.00    +0.0618  H
ATOM     11 H20  AMB L   1       9.376  -4.380  -2.815  1.00  0.00    +0.0622  H
ENDROOT
BRANCH 1 13
ATOM     12  C1  AMB L   1       5.532  -2.810  -2.205  1.00  0.00    -0.0031  C
ATOM     13  C2  AMB L   1       6.768  -3.336  -2.928  1.00  0.00    +0.1539  C
ATOM     14  N3  AMB L   1       6.521  -3.236  -4.392  1.00  0.00    -0.1890  N
ATOM     15 H10  AMB L   1       5.674  -2.842  -1.119  1.00  0.00    +0.0292  H
ATOM     16 H11  AMB L   1       5.294  -1.778  -2.483  1.00  0.00    +0.0292  H
ATOM     17 H12  AMB L   1       4.656  -3.422  -2.446  1.00  0.00    +0.0292  H
ATOM     18 H13  AMB L   1       6.851  -4.409  -2.719  1.00  0.00    +0.1051  H
ATOM     19 H14  AMB L   1       6.485  -2.250  -4.678  1.00  0.00    +0.4057 HD
ATOM     20 H15  AMB L   1       7.310  -3.654  -4.902  1.00  0.00    +0.4057 HD
ENDBRANCH 1 13
TORSDOF 1
ENDMDL
MODEL 4
REMARK VINA RESULT:    -5.932      2.748      3.832
REMARK INTER + INTRA:          -6.350
REMARK INTER:                  -6.263
REMARK INTRA:                  -0.087
REMARK UNBOUND:                -0.072
ROOT
ATOM      1  C4  AMB L   1       8.527  -1.479  -1.631  1.00  0.00    +0.0142  A
ATOM      2  C5  AMB L   1       7.178  -1.769  -1.363  1.00  0.00    -0.0528  A
ATOM      3  C6  AMB L   1       6.652  -3.031  -1.644  1.00  0.00    -0.0613  A
ATOM      4  C7  AMB L   1       7.461  -4.017  -2.199  1.00  0.00    -0.0617  A
ATOM      5  C8  AMB L   1       8.799  -3.745  -2.472  1.00  0.00    -0.0613  A
ATOM      6  C9  AMB L   1       9.331  -2.485  -2.194  1.00  0.00    -0.0528  A
ATOM      7 H16  AMB L   1       6.513  -1.028  -0.920  1.00  0.00    +0.0622  H
ATOM      8 H17  AMB L   1       5.609  -3.253  -1.423  1.00  0.00    +0.0618  H
ATOM      9 H18  AMB L   1       7.052  -5.004  -2.410  1.00  0.00    +0.0618  H
ATOM     10 H19  AMB L   1       9.429  -4.526  -2.896  1.00  0.00    +0.0618  H
ATOM     11 H20  AMB L   1      10.385  -2.326  -2.417  1.00  0.00    +0.0622  H
ENDROOT
BRANCH 1 13
ATOM     12  C1  AMB L   1       8.470   0.607  -0.139  1.00  0.00    -0.0031  C
ATOM     13  C2  AMB L   1       9.049  -0.085  -1.369  1.00  0.00    +0.1539  C
ATOM     14  N3  AMB L   1      10.530  -0.118  -1.222  1.00  0.00    -0.1890  N
ATOM     15 H10  AMB L   1       7.376   0.637  -0.189  1.00  0.00    +0.0292  H
ATOM     16 H11  AMB L   1       8.750   0.106   0.793  1.00  0.00    +0.0292  H
ATOM     17 H12  AMB L   1       8.829   1.640  -0.075  1.00  0.00    +0.0292  H
ATOM     18 H13  AMB L   1       8.857   0.553  -2.239  1.00  0.00    +0.1051  H
ATOM     19 H14  AMB L   1      10.795  -0.745  -0.453  1.00  0.00    +0.4057 HD
ATOM     20 H15  AMB L   1      10.950  -0.513  -2.073  1.00  0.00    +0.4057 HD
ENDBRANCH 1 13
TORSDOF 1
ENDMDL
MODEL 5
REMARK VINA RESULT:    -5.506      1.881      2.771
REMARK INTER + INTRA:          -5.900
REMARK INTER:                  -5.819
REMARK INTRA:                  -0.080
REMARK UNBOUND:                -0.072
ROOT
ATOM      1  C4  AMB L   1       5.734  -2.986  -2.602  1.00  0.00    +0.0142  A
ATOM      2  C5  AMB L   1       6.953  -3.524  -2.152  1.00  0.00    -0.0528  A
ATOM      3  C6  AMB L   1       7.909  -2.709  -1.544  1.00  0.00    -0.0613  A
ATOM      4  C7  AMB L   1       7.666  -1.349  -1.382  1.00  0.00    -0.0617  A
ATOM      5  C8  AMB L   1       6.465  -0.800  -1.824  1.00  0.00    -0.0613  A
ATOM      6  C9  AMB L   1       5.504  -1.610  -2.433  1.00  0.00    -0.0528  A
ATOM      7 H16  AMB L   1       7.178  -4.586  -2.251  1.00  0.00    +0.0622  H
ATOM      8 H17  AMB L   1       8.845  -3.134  -1.186  1.00  0.00    +0.0618  H
ATOM      9 H18  AMB L   1       8.409  -0.716  -0.900  1.00  0.00    +0.0618  H
ATOM     10 H19  AMB L   1       6.277   0.263  -1.683  1.00  0.00    +0.0618  H
ATOM     11 H20  AMB L   1       4.579  -1.135  -2.753  1.00  0.00    +0.0622  H
ENDROOT
BRANCH 1 13
ATOM     12  C1  AMB L   1       4.067  -4.928  -2.425  1.00  0.00    -0.0031  C
ATOM     13  C2  AMB L   1       4.746  -3.886  -3.308  1.00  0.00    +0.1539  C
ATOM     14  N3  AMB L   1       3.682  -3.065  -3.949  1.00  0.00    -0.1890  N
ATOM     15 H10  AMB L   1       4.811  -5.546  -1.910  1.00  0.00    +0.0292  H
ATOM     16 H11  AMB L   1       3.423  -4.475  -1.664  1.00  0.00    +0.0292  H
ATOM     17 H12  AMB L   1       3.440  -5.594  -3.028  1.00  0.00    +0.0292  H
ATOM     18 H13  AMB L   1       5.244  -4.411  -4.131  1.00  0.00    +0.1051  H
ATOM     19 H14  AMB L   1       3.201  -2.496  -3.243  1.00  0.00    +0.4057 HD
ATOM     20 H15  AMB L   1       4.111  -2.403  -4.608  1.00  0.00    +0.4057 HD
ENDBRANCH 1 13
TORSDOF 1
ENDMDL
MODEL 6
REMARK VINA RESULT:    -5.366      1.880      3.811
REMARK INTER + INTRA:          -5.752
REMARK INTER:                  -5.680
REMARK INTRA:                  -0.072
REMARK UNBOUND:                -0.072
ROOT
ATOM      1  C4  AMB L   1       7.881  -2.588  -2.257  1.00  0.00    +0.0142  A
ATOM      2  C5  AMB L   1       6.874  -2.902  -1.327  1.00  0.00    -0.0528  A
ATOM      3  C6  AMB L   1       5.629  -3.367  -1.756  1.00  0.00    -0.0613  A
ATOM      4  C7  AMB L   1       5.371  -3.519  -3.114  1.00  0.00    -0.0617  A
ATOM      5  C8  AMB L   1       6.357  -3.210  -4.048  1.00  0.00    -0.0613  A
ATOM      6  C9  AMB L   1       7.604  -2.745  -3.626  1.00  0.00    -0.0528  A
ATOM      7 H16  AMB L   1       7.039  -2.807  -0.254  1.00  0.00    +0.0622  H
ATOM      8 H17  AMB L   1       4.858  -3.620  -1.030  1.00  0.00    +0.0618  H
ATOM      9 H18  AMB L   1       4.402  -3.889  -3.447  1.00  0.00    +0.0618  H
ATOM     10 H19  AMB L   1       6.150  -3.343  -5.109  1.00  0.00    +0.0618  H
ATOM     11 H20  AMB L   1       8.342  -2.526  -4.394  1.00  0.00    +0.0622  H
ENDROOT
BRANCH 1 13
ATOM     12  C1  AMB L   1      10.442  -2.662  -2.376  1.00  0.00    -0.0031  C
ATOM     13  C2  AMB L   1       9.196  -2.033  -1.762  1.00  0.00    +0.1539  C
ATOM     14  N3  AMB L   1       9.253  -0.566  -2.011  1.00  0.00    -0.1890  N
ATOM     15 H10  AMB L   1      10.436  -3.750  -2.238  1.00  0.00    +0.0292  H
ATOM     16 H11  AMB L   1      10.527  -2.460  -3.449  1.00  0.00    +0.0292  H
ATOM     17 H12  AMB L   1      11.347  -2.270  -1.898  1.00  0.00    +0.0292  H
ATOM     18 H13  AMB L   1       9.260  -2.146  -0.674  1.00  0.00    +0.1051  H
ATOM     19 H14  AMB L   1       9.143  -0.373  -3.014  1.00  0.00    +0.4057 HD
ATOM     20 H15  AMB L   1       8.461  -0.108  -1.542  1.00  0.00    +0.4057 HD
ENDBRANCH 1 13
TORSDOF 1
ENDMDL
MODEL 7
REMARK VINA RESULT:    -5.352      2.861      3.716
REMARK INTER + INTRA:          -5.736
REMARK INTER:                  -5.661
REMARK INTRA:                  -0.075
REMARK UNBOUND:                -0.072
ROOT
ATOM      1  C4  AMB L   1       4.764  -3.597  -3.480  1.00  0.00    +0.0142  A
ATOM      2  C5  AMB L   1       5.142  -4.141  -2.239  1.00  0.00    -0.0528  A
ATOM      3  C6  AMB L   1       5.879  -3.386  -1.326  1.00  0.00    -0.0613  A
ATOM      4  C7  AMB L   1       6.254  -2.083  -1.639  1.00  0.00    -0.0617  A
ATOM      5  C8  AMB L   1       5.890  -1.530  -2.864  1.00  0.00    -0.0613  A
ATOM      6  C9  AMB L   1       5.152  -2.281  -3.782  1.00  0.00    -0.0528  A
ATOM      7 H16  AMB L   1       4.860  -5.154  -1.952  1.00  0.00    +0.0622  H
ATOM      8 H17  AMB L   1       6.157  -3.808  -0.362  1.00  0.00    +0.0618  H
ATOM      9 H18  AMB L   1       6.822  -1.492  -0.922  1.00  0.00    +0.0618  H
ATOM     10 H19  AMB L   1       6.177  -0.506  -3.097  1.00  0.00    +0.0618  H
ATOM     11 H20  AMB L   1       4.885  -1.800  -4.721  1.00  0.00    +0.0622  H
ENDROOT
BRANCH 1 13
ATOM     12  C1  AMB L   1       2.496  -4.409  -4.361  1.00  0.00    -0.0031  C
ATOM     13  C2  AMB L   1       4.017  -4.462  -4.468  1.00  0.00    +0.1539  C
ATOM     14  N3  AMB L   1       4.391  -4.083  -5.858  1.00  0.00    -0.1890  N
ATOM     15 H10  AMB L   1       2.169  -4.660  -3.345  1.00  0.00    +0.0292  H
ATOM     16 H11  AMB L   1       2.094  -3.422  -4.609  1.00  0.00    +0.0292  H
ATOM     17 H12  AMB L   1       2.037  -5.130  -5.046  1.00  0.00    +0.0292  H
ATOM     18 H13  AMB L   1       4.329  -5.507  -4.358  1.00  0.00    +0.1051  H
ATOM     19 H14  AMB L   1       4.179  -3.092  -6.024  1.00  0.00    +0.4057 HD
ATOM     20 H15  AMB L   1       5.408  -4.183  -5.979  1.00  0.00    +0.4057 HD
ENDBRANCH 1 13
TORSDOF 1
ENDMDL
MODEL 8
REMARK VINA RESULT:    -5.350      5.891      6.947
REMARK INTER + INTRA:          -5.734
REMARK INTER:                  -5.644
REMARK INTRA:                  -0.090
REMARK UNBOUND:                -0.072
ROOT
ATOM      1  C4  AMB L   1       2.660  -5.577   0.074  1.00  0.00    +0.0142  A
ATOM      2  C5  AMB L   1       2.166  -6.418   1.087  1.00  0.00    -0.0528  A
ATOM      3  C6  AMB L   1       2.780  -6.460   2.340  1.00  0.00    -0.0613  A
ATOM      4  C7  AMB L   1       3.895  -5.669   2.597  1.00  0.00    -0.0617  A
ATOM      5  C8  AMB L   1       4.397  -4.832   1.605  1.00  0.00    -0.0613  A
ATOM      6  C9  AMB L   1       3.788  -4.786   0.349  1.00  0.00    -0.0528  A
ATOM      7 H16  AMB L   1       1.289  -7.046   0.929  1.00  0.00    +0.0622  H
ATOM      8 H17  AMB L   1       2.385  -7.105   3.123  1.00  0.00    +0.0618  H
ATOM      9 H18  AMB L   1       4.368  -5.696   3.578  1.00  0.00    +0.0618  H
ATOM     10 H19  AMB L   1       5.264  -4.207   1.818  1.00  0.00    +0.0618  H
ATOM     11 H20  AMB L   1       4.213  -4.108  -0.389  1.00  0.00    +0.0622  H
ENDROOT
BRANCH 1 13
ATOM     12  C1  AMB L   1       2.968  -5.651  -2.472  1.00  0.00    -0.0031  C
ATOM     13  C2  AMB L   1       2.007  -5.599  -1.288  1.00  0.00    +0.1539  C
ATOM     14  N3  AMB L   1       1.089  -6.767  -1.391  1.00  0.00    -0.1890  N
ATOM     15 H10  AMB L   1       3.682  -4.821  -2.429  1.00  0.00    +0.0292  H
ATOM     16 H11  AMB L   1       3.540  -6.584  -2.504  1.00  0.00    +0.0292  H
ATOM     17 H12  AMB L   1       2.419  -5.571  -3.417  1.00  0.00    +0.0292  H
ATOM     18 H13  AMB L   1       1.368  -4.716  -1.408  1.00  0.00    +0.1051  H
ATOM     19 H14  AMB L   1       1.608  -7.639  -1.234  1.00  0.00    +0.4057 HD
ATOM     20 H15  AMB L   1       0.382  -6.714  -0.646  1.00  0.00    +0.4057 HD
ENDBRANCH 1 13
TORSDOF 1
ENDMDL
MODEL 9
REMARK VINA RESULT:    -5.349      2.074      3.979
REMARK INTER + INTRA:          -5.733
REMARK INTER:                  -5.650
REMARK INTRA:                  -0.083
REMARK UNBOUND:                -0.072
ROOT
ATOM      1  C4  AMB L   1       7.980  -1.860  -2.890  1.00  0.00    +0.0142  A
ATOM      2  C5  AMB L   1       7.556  -2.850  -3.794  1.00  0.00    -0.0528  A
ATOM      3  C6  AMB L   1       6.199  -3.034  -4.064  1.00  0.00    -0.0613  A
ATOM      4  C7  AMB L   1       5.248  -2.238  -3.433  1.00  0.00    -0.0617  A
ATOM      5  C8  AMB L   1       5.651  -1.255  -2.533  1.00  0.00    -0.0613  A
ATOM      6  C9  AMB L   1       7.007  -1.066  -2.259  1.00  0.00    -0.0528  A
ATOM      7 H16  AMB L   1       8.270  -3.487  -4.317  1.00  0.00    +0.0622  H
ATOM      8 H17  AMB L   1       5.879  -3.794  -4.775  1.00  0.00    +0.0618  H
ATOM      9 H18  AMB L   1       4.190  -2.377  -3.651  1.00  0.00    +0.0618  H
ATOM     10 H19  AMB L   1       4.900  -0.629  -2.052  1.00  0.00    +0.0618  H
ATOM     11 H20  AMB L   1       7.270  -0.279  -1.555  1.00  0.00    +0.0622  H
ENDROOT
BRANCH 1 13
ATOM     12  C1  AMB L   1       9.817  -0.585  -1.633  1.00  0.00    -0.0031  C
ATOM     13  C2  AMB L   1       9.452  -1.726  -2.577  1.00  0.00    +0.1539  C
ATOM     14  N3  AMB L   1       9.961  -2.993  -1.983  1.00  0.00    -0.1890  N
ATOM     15 H10  AMB L   1       9.443   0.371  -2.016  1.00  0.00    +0.0292  H
ATOM     16 H11  AMB L   1       9.408  -0.727  -0.628  1.00  0.00    +0.0292  H
ATOM     17 H12  AMB L   1      10.905  -0.502  -1.533  1.00  0.00    +0.0292  H
ATOM     18 H13  AMB L   1      10.018  -1.592  -3.506  1.00  0.00    +0.1051  H
ATOM     19 H14  AMB L   1       9.437  -3.219  -1.129  1.00  0.00    +0.4057 HD
ATOM     20 H15  AMB L   1       9.793  -3.769  -2.637  1.00  0.00    +0.4057 HD
ENDBRANCH 1 13
TORSDOF 1
ENDMDL
MODEL 10
REMARK VINA RESULT:    -5.243      3.492      5.993
REMARK INTER + INTRA:          -5.621
REMARK INTER:                  -5.531
REMARK INTRA:                  -0.090
REMARK UNBOUND:                -0.072
ROOT
ATOM      1  C4  AMB L   1       3.504  -4.850  -3.762  1.00  0.00    +0.0142  A
ATOM      2  C5  AMB L   1       2.956  -5.287  -4.981  1.00  0.00    -0.0528  A
ATOM      3  C6  AMB L   1       2.175  -6.443  -5.038  1.00  0.00    -0.0613  A
ATOM      4  C7  AMB L   1       1.934  -7.179  -3.882  1.00  0.00    -0.0617  A
ATOM      5  C8  AMB L   1       2.469  -6.761  -2.667  1.00  0.00    -0.0613  A
ATOM      6  C9  AMB L   1       3.252  -5.606  -2.604  1.00  0.00    -0.0528  A
ATOM      7 H16  AMB L   1       3.113  -4.734  -5.907  1.00  0.00    +0.0622  H
ATOM      8 H17  AMB L   1       1.744  -6.768  -5.983  1.00  0.00    +0.0618  H
ATOM      9 H18  AMB L   1       1.317  -8.075  -3.927  1.00  0.00    +0.0618  H
ATOM     10 H19  AMB L   1       2.266  -7.337  -1.765  1.00  0.00    +0.0618  H
ATOM     11 H20  AMB L   1       3.640  -5.318  -1.629  1.00  0.00    +0.0622  H
ENDROOT
BRANCH 1 13
ATOM     12  C1  AMB L   1       5.483  -3.628  -2.680  1.00  0.00    -0.0031  C
ATOM     13  C2  AMB L   1       4.392  -3.628  -3.746  1.00  0.00    +0.1539  C
ATOM     14  N3  AMB L   1       5.047  -3.462  -5.073  1.00  0.00    -0.1890  N
ATOM     15 H10  AMB L   1       5.051  -3.772  -1.683  1.00  0.00    +0.0292  H
ATOM     16 H11  AMB L   1       6.224  -4.418  -2.841  1.00  0.00    +0.0292  H
ATOM     17 H12  AMB L   1       6.018  -2.673  -2.678  1.00  0.00    +0.0292  H
ATOM     18 H13  AMB L   1       3.782  -2.728  -3.608  1.00  0.00    +0.1051  H
ATOM     19 H14  AMB L   1       5.599  -4.297  -5.302  1.00  0.00    +0.4057 HD
ATOM     20 H15  AMB L   1       4.328  -3.383  -5.803  1.00  0.00    +0.4057 HD
ENDBRANCH 1 13
TORSDOF 1
ENDMDL
MODEL 11
REMARK VINA RESULT:    -5.065      4.664      7.564
REMARK INTER + INTRA:          -5.433
REMARK INTER:                  -5.352
REMARK INTRA:                  -0.081
REMARK UNBOUND:                -0.072
ROOT
ATOM      1  C4  AMB L   1       2.025  -5.081  -4.558  1.00  0.00    +0.0142  A
ATOM      2  C5  AMB L   1       2.142  -6.476  -4.691  1.00  0.00    -0.0528  A
ATOM      3  C6  AMB L   1       1.014  -7.294  -4.624  1.00  0.00    -0.0613  A
ATOM      4  C7  AMB L   1      -0.243  -6.735  -4.419  1.00  0.00    -0.0617  A
ATOM      5  C8  AMB L   1      -0.376  -5.355  -4.284  1.00  0.00    -0.0613  A
ATOM      6  C9  AMB L   1       0.749  -4.531  -4.350  1.00  0.00    -0.0528  A
ATOM      7 H16  AMB L   1       3.107  -6.952  -4.863  1.00  0.00    +0.0622  H
ATOM      8 H17  AMB L   1       1.110  -8.373  -4.740  1.00  0.00    +0.0618  H
ATOM      9 H18  AMB L   1      -1.124  -7.374  -4.375  1.00  0.00    +0.0618  H
ATOM     10 H19  AMB L   1      -1.365  -4.924  -4.135  1.00  0.00    +0.0618  H
ATOM     11 H20  AMB L   1       0.590  -3.459  -4.247  1.00  0.00    +0.0622  H
ENDROOT
BRANCH 1 13
ATOM     12  C1  AMB L   1       4.216  -4.426  -3.395  1.00  0.00    -0.0031  C
ATOM     13  C2  AMB L   1       3.274  -4.229  -4.578  1.00  0.00    +0.1539  C
ATOM     14  N3  AMB L   1       4.044  -4.489  -5.825  1.00  0.00    -0.1890  N
ATOM     15 H10  AMB L   1       3.688  -4.268  -2.447  1.00  0.00    +0.0292  H
ATOM     16 H11  AMB L   1       4.653  -5.429  -3.371  1.00  0.00    +0.0292  H
ATOM     17 H12  AMB L   1       5.043  -3.709  -3.439  1.00  0.00    +0.0292  H
ATOM     18 H13  AMB L   1       2.999  -3.169  -4.621  1.00  0.00    +0.1051  H
ATOM     19 H14  AMB L   1       4.293  -5.483  -5.887  1.00  0.00    +0.4057 HD
ATOM     20 H15  AMB L   1       3.451  -4.290  -6.642  1.00  0.00    +0.4057 HD
ENDBRANCH 1 13
TORSDOF 1
ENDMDL
MODEL 12
REMARK VINA RESULT:    -5.048      4.269      5.962
REMARK INTER + INTRA:          -5.415
REMARK INTER:                  -5.328
REMARK INTRA:                  -0.087
REMARK UNBOUND:                -0.072
ROOT
ATOM      1  C4  AMB L   1       2.404  -5.458  -3.256  1.00  0.00    +0.0142  A
ATOM      2  C5  AMB L   1       3.095  -5.519  -2.033  1.00  0.00    -0.0528  A
ATOM      3  C6  AMB L   1       4.288  -4.818  -1.854  1.00  0.00    -0.0613  A
ATOM      4  C7  AMB L   1       4.810  -4.051  -2.891  1.00  0.00    -0.0617  A
ATOM      5  C8  AMB L   1       4.138  -3.981  -4.109  1.00  0.00    -0.0613  A
ATOM      6  C9  AMB L   1       2.944  -4.681  -4.295  1.00  0.00    -0.0528  A
ATOM      7 H16  AMB L   1       2.715  -6.100  -1.193  1.00  0.00    +0.0622  H
ATOM      8 H17  AMB L   1       4.812  -4.860  -0.900  1.00  0.00    +0.0618  H
ATOM      9 H18  AMB L   1       5.736  -3.497  -2.747  1.00  0.00    +0.0618  H
ATOM     10 H19  AMB L   1       4.547  -3.369  -4.912  1.00  0.00    +0.0618  H
ATOM     11 H20  AMB L   1       2.454  -4.585  -5.262  1.00  0.00    +0.0622  H
ENDROOT
BRANCH 1 13
ATOM     12  C1  AMB L   1       1.279  -7.483  -4.358  1.00  0.00    -0.0031  C
ATOM     13  C2  AMB L   1       1.146  -6.276  -3.435  1.00  0.00    +0.1539  C
ATOM     14  N3  AMB L   1       0.663  -6.759  -2.113  1.00  0.00    -0.1890  N
ATOM     15 H10  AMB L   1       1.654  -7.181  -5.342  1.00  0.00    +0.0292  H
ATOM     16 H11  AMB L   1       1.959  -8.242  -3.957  1.00  0.00    +0.0292  H
ATOM     17 H12  AMB L   1       0.305  -7.964  -4.505  1.00  0.00    +0.0292  H
ATOM     18 H13  AMB L   1       0.342  -5.639  -3.823  1.00  0.00    +0.1051  H
ATOM     19 H14  AMB L   1       1.390  -7.324  -1.656  1.00  0.00    +0.4057 HD
ATOM     20 H15  AMB L   1       0.494  -5.955  -1.495  1.00  0.00    +0.4057 HD
ENDBRANCH 1 13
TORSDOF 1
ENDMDL
