MODEL 1
REMARK VINA RESULT:    -5.873      0.000      0.000
REMARK INTER + INTRA:          -6.232
REMARK INTER:                  -6.216
REMARK INTRA:                  -0.016
REMARK UNBOUND:                -0.016
ROOT
ATOM      1  C3  BA  L   1       7.981  -1.529  -1.659  1.00  0.00    +0.0114  A
ATOM      2  C4  BA  L   1       9.209  -0.861  -1.783  1.00  0.00    -0.0531  A
ATOM      3  C5  BA  L   1      10.381  -1.578  -2.028  1.00  0.00    -0.0613  A
ATOM      4  C6  BA  L   1      10.337  -2.964  -2.157  1.00  0.00    -0.0617  A
ATOM      5  C7  BA  L   1       9.125  -3.638  -2.037  1.00  0.00    -0.0613  A
ATOM      6  C8  BA  L   1       7.950  -2.928  -1.791  1.00  0.00    -0.0531  A
ATOM      7 H13  BA  L   1       9.282   0.221  -1.674  1.00  0.00    +0.0622  H
ATOM      8 H14  BA  L   1      11.335  -1.059  -2.110  1.00  0.00    +0.0618  H
ATOM      9 H15  BA  L   1      11.254  -3.522  -2.341  1.00  0.00    +0.0618  H
ATOM     10 H16  BA  L   1       9.102  -4.723  -2.126  1.00  0.00    +0.0618  H
ATOM     11 H17  BA  L   1       7.022  -3.489  -1.689  1.00  0.00    +0.0622  H
ENDROOT
BRANCH 1 13
ATOM     12  N1  BA  L   1       5.700  -1.128  -2.470  1.00  0.00    -0.1914  N
ATOM     13  C2  BA  L   1       6.712  -0.757  -1.455  1.00  0.00    +0.1466  C
ATOM     14  H9  BA  L   1       6.071  -0.951  -3.412  1.00  0.00    +0.4054 HD
ATOM     15 H10  BA  L   1       5.510  -2.137  -2.418  1.00  0.00    +0.4054 HD
ATOM     16 H11  BA  L   1       6.270  -0.957  -0.474  1.00  0.00    +0.1017  H
ATOM     17 H12  BA  L   1       6.876   0.321  -1.545  1.00  0.00    +0.1017  H
ENDBRANCH 1 13
TORSDOF 1
ENDMDL
MODEL 2
REMARK VINA RESULT:    -5.740      0.480      1.773
REMARK INTER + INTRA:          -6.091
REMARK INTER:                  -6.072
REMARK INTRA:                  -0.019
REMARK UNBOUND:                -0.016
ROOT
ATOM      1  C3  BA  L   1       7.655  -1.694  -2.005  1.00  0.00    +0.0114  A
ATOM      2  C4  BA  L   1       7.696  -3.096  -1.963  1.00  0.00    -0.0531  A
ATOM      3  C5  BA  L   1       8.920  -3.767  -1.989  1.00  0.00    -0.0613  A
ATOM      4  C6  BA  L   1      10.110  -3.045  -2.051  1.00  0.00    -0.0617  A
ATOM      5  C7  BA  L   1      10.082  -1.654  -2.094  1.00  0.00    -0.0613  A
ATOM      6  C8  BA  L   1       8.862  -0.977  -2.069  1.00  0.00    -0.0531  A
ATOM      7 H13  BA  L   1       6.784  -3.692  -1.927  1.00  0.00    +0.0622  H
ATOM      8 H14  BA  L   1       8.950  -4.855  -1.969  1.00  0.00    +0.0618  H
ATOM      9 H15  BA  L   1      11.063  -3.571  -2.079  1.00  0.00    +0.0618  H
ATOM     10 H16  BA  L   1      11.017  -1.099  -2.156  1.00  0.00    +0.0618  H
ATOM     11 H17  BA  L   1       8.877   0.111  -2.117  1.00  0.00    +0.0622  H
ENDROOT
BRANCH 1 13
ATOM     12  N1  BA  L   1       5.254  -1.780  -2.504  1.00  0.00    -0.1914  N
ATOM     13  C2  BA  L   1       6.345  -0.969  -1.918  1.00  0.00    +0.1466  C
ATOM     14  H9  BA  L   1       5.471  -1.997  -3.485  1.00  0.00    +0.4054 HD
ATOM     15 H10  BA  L   1       5.190  -2.682  -2.016  1.00  0.00    +0.4054 HD
ATOM     16 H11  BA  L   1       6.066  -0.760  -0.880  1.00  0.00    +0.1017  H
ATOM     17 H12  BA  L   1       6.370  -0.021  -2.465  1.00  0.00    +0.1017  H
ENDBRANCH 1 13
TORSDOF 1
ENDMDL
MODEL 3
REMARK VINA RESULT:    -5.667      1.520      1.909
REMARK INTER + INTRA:          -6.015
REMARK INTER:                  -6.002
REMARK INTRA:                  -0.012
REMARK UNBOUND:                -0.016
ROOT
ATOM      1  C3  BA  L   1       8.748  -1.071  -1.652  1.00  0.00    +0.0114  A
ATOM      2  C4  BA  L   1      10.000  -1.587  -2.023  1.00  0.00    -0.0531  A
ATOM      3  C5  BA  L   1      10.169  -2.960  -2.211  1.00  0.00    -0.0613  A
ATOM      4  C6  BA  L   1       9.093  -3.826  -2.035  1.00  0.00    -0.0617  A
ATOM      5  C7  BA  L   1       7.847  -3.327  -1.667  1.00  0.00    -0.0613  A
ATOM      6  C8  BA  L   1       7.671  -1.956  -1.477  1.00  0.00    -0.0531  A
ATOM      7 H13  BA  L   1      10.867  -0.940  -2.156  1.00  0.00    +0.0622  H
ATOM      8 H14  BA  L   1      11.143  -3.361  -2.486  1.00  0.00    +0.0618  H
ATOM      9 H15  BA  L   1       9.230  -4.898  -2.175  1.00  0.00    +0.0618  H
ATOM     10 H16  BA  L   1       7.014  -4.013  -1.519  1.00  0.00    +0.0618  H
ATOM     11 H17  BA  L   1       6.686  -1.601  -1.176  1.00  0.00    +0.0622  H
ENDROOT
BRANCH 1 13
ATOM     12  N1  BA  L   1       8.165   0.754  -0.119  1.00  0.00    -0.1914  N
ATOM     13  C2  BA  L   1       8.549   0.408  -1.507  1.00  0.00    +0.1466  C
ATOM     14  H9  BA  L   1       7.304   0.256   0.138  1.00  0.00    +0.4054 HD
ATOM     15 H10  BA  L   1       8.891   0.432   0.533  1.00  0.00    +0.4054 HD
ATOM     16 H11  BA  L   1       9.464   0.963  -1.734  1.00  0.00    +0.1017  H
ATOM     17 H12  BA  L   1       7.752   0.774  -2.161  1.00  0.00    +0.1017  H
ENDBRANCH 1 13
TORSDOF 1
ENDMDL
MODEL 4
REMARK VINA RESULT:    -5.652      0.858      1.344
REMARK INTER + INTRA:          -5.998
REMARK INTER:                  -5.982
REMARK INTRA:                  -0.016
REMARK UNBOUND:                -0.016
ROOT
ATOM      1  C3  BA  L   1       7.537  -2.540  -1.682  1.00  0.00    +0.0114  A
ATOM      2  C4  BA  L   1       7.916  -1.199  -1.518  1.00  0.00    -0.0531  A
ATOM      3  C5  BA  L   1       9.244  -0.812  -1.706  1.00  0.00    -0.0613  A
ATOM      4  C6  BA  L   1      10.202  -1.758  -2.064  1.00  0.00    -0.0617  A
ATOM      5  C7  BA  L   1       9.839  -3.091  -2.230  1.00  0.00    -0.0613  A
ATOM      6  C8  BA  L   1       8.513  -3.485  -2.043  1.00  0.00    -0.0531  A
ATOM      7 H13  BA  L   1       7.195  -0.435  -1.225  1.00  0.00    +0.0622  H
ATOM      8 H14  BA  L   1       9.539   0.226  -1.565  1.00  0.00    +0.0618  H
ATOM      9 H15  BA  L   1      11.238  -1.455  -2.203  1.00  0.00    +0.0618  H
ATOM     10 H16  BA  L   1      10.597  -3.826  -2.497  1.00  0.00    +0.0618  H
ATOM     11 H17  BA  L   1       8.267  -4.539  -2.168  1.00  0.00    +0.0622  H
ENDROOT
BRANCH 1 13
ATOM     12  N1  BA  L   1       5.229  -2.113  -2.394  1.00  0.00    -0.1914  N
ATOM     13  C2  BA  L   1       6.102  -2.948  -1.539  1.00  0.00    +0.1466  C
ATOM     14  H9  BA  L   1       5.339  -1.123  -2.143  1.00  0.00    +0.4054 HD
ATOM     15 H10  BA  L   1       5.521  -2.196  -3.376  1.00  0.00    +0.4054 HD
ATOM     16 H11  BA  L   1       5.945  -3.988  -1.840  1.00  0.00    +0.1017  H
ATOM     17 H12  BA  L   1       5.749  -2.831  -0.509  1.00  0.00    +0.1017  H
ENDBRANCH 1 13
TORSDOF 1
ENDMDL
MODEL 5
REMARK VINA RESULT:    -5.649      1.510      2.333
REMARK INTER + INTRA:          -5.995
REMARK INTER:                  -5.980
REMARK INTRA:                  -0.014
REMARK UNBOUND:                -0.016
ROOT
ATOM      1  C3  BA  L   1       8.690  -1.060  -1.655  1.00  0.00    +0.0114  A
ATOM      2  C4  BA  L   1       7.620  -1.954  -1.497  1.00  0.00    -0.0531  A
ATOM      3  C5  BA  L   1       7.809  -3.322  -1.696  1.00  0.00    -0.0613  A
ATOM      4  C6  BA  L   1       9.065  -3.810  -2.047  1.00  0.00    -0.0617  A
ATOM      5  C7  BA  L   1      10.134  -2.933  -2.207  1.00  0.00    -0.0613  A
ATOM      6  C8  BA  L   1       9.953  -1.564  -2.011  1.00  0.00    -0.0531  A
ATOM      7 H13  BA  L   1       6.621  -1.606  -1.236  1.00  0.00    +0.0622  H
ATOM      8 H14  BA  L   1       6.975  -4.014  -1.586  1.00  0.00    +0.0618  H
ATOM      9 H15  BA  L   1       9.208  -4.877  -2.210  1.00  0.00    +0.0618  H
ATOM     10 H16  BA  L   1      11.110  -3.322  -2.495  1.00  0.00    +0.0618  H
ATOM     11 H17  BA  L   1      10.808  -0.906  -2.158  1.00  0.00    +0.0622  H
ENDROOT
BRANCH 1 13
ATOM     12  N1  BA  L   1       8.072   0.630   0.012  1.00  0.00    -0.1914  N
ATOM     13  C2  BA  L   1       8.505   0.403  -1.385  1.00  0.00    +0.1466  C
ATOM     14  H9  BA  L   1       7.195   0.126   0.191  1.00  0.00    +0.4054 HD
ATOM     15 H10  BA  L   1       8.768   0.239   0.660  1.00  0.00    +0.4054 HD
ATOM     16 H11  BA  L   1       9.435   0.962  -1.527  1.00  0.00    +0.1017  H
ATOM     17 H12  BA  L   1       7.738   0.840  -2.033  1.00  0.00    +0.1017  H
ENDBRANCH 1 13
TORSDOF 1
ENDMDL
MODEL 6
REMARK VINA RESULT:    -5.609      1.632      2.353
REMARK INTER + INTRA:          -5.952
REMARK INTER:                  -5.937
REMARK INTRA:                  -0.015
REMARK UNBOUND:                -0.016
ROOT
ATOM      1  C3  BA  L   1       7.488  -2.781  -3.318  1.00  0.00    +0.0114  A
ATOM      2  C4  BA  L   1       7.774  -3.801  -2.397  1.00  0.00    -0.0531  A
ATOM      3  C5  BA  L   1       9.047  -3.910  -1.837  1.00  0.00    -0.0613  A
ATOM      4  C6  BA  L   1      10.043  -3.000  -2.185  1.00  0.00    -0.0617  A
ATOM      5  C7  BA  L   1       9.772  -1.984  -3.098  1.00  0.00    -0.0613  A
ATOM      6  C8  BA  L   1       8.501  -1.871  -3.663  1.00  0.00    -0.0531  A
ATOM      7 H13  BA  L   1       7.023  -4.538  -2.112  1.00  0.00    +0.0622  H
ATOM      8 H14  BA  L   1       9.271  -4.709  -1.132  1.00  0.00    +0.0618  H
ATOM      9 H15  BA  L   1      11.038  -3.092  -1.752  1.00  0.00    +0.0618  H
ATOM     10 H16  BA  L   1      10.561  -1.286  -3.374  1.00  0.00    +0.0618  H
ATOM     11 H17  BA  L   1       8.329  -1.072  -4.383  1.00  0.00    +0.0622  H
ENDROOT
BRANCH 1 13
ATOM     12  N1  BA  L   1       5.108  -2.512  -2.789  1.00  0.00    -0.1914  N
ATOM     13  C2  BA  L   1       6.106  -2.627  -3.877  1.00  0.00    +0.1466  C
ATOM     14  H9  BA  L   1       5.152  -3.343  -2.187  1.00  0.00    +0.4054 HD
ATOM     15 H10  BA  L   1       5.337  -1.708  -2.191  1.00  0.00    +0.4054 HD
ATOM     16 H11  BA  L   1       6.016  -1.725  -4.491  1.00  0.00    +0.1017  H
ATOM     17 H12  BA  L   1       5.818  -3.488  -4.487  1.00  0.00    +0.1017  H
ENDBRANCH 1 13
TORSDOF 1
ENDMDL
MODEL 7
REMARK VINA RESULT:    -5.365      6.617      7.447
REMARK INTER + INTRA:          -5.695
REMARK INTER:                  -5.673
REMARK INTRA:                  -0.022
REMARK UNBOUND:                -0.016
ROOT
ATOM      1  C3  BA  L   1       3.451  -4.865   2.444  1.00  0.00    +0.0114  A
ATOM      2  C4  BA  L   1       4.710  -5.273   1.977  1.00  0.00    -0.0531  A
ATOM      3  C5  BA  L   1       5.863  -4.977   2.706  1.00  0.00    -0.0613  A
ATOM      4  C6  BA  L   1       5.768  -4.278   3.907  1.00  0.00    -0.0617  A
ATOM      5  C7  BA  L   1       4.525  -3.868   4.381  1.00  0.00    -0.0613  A
ATOM      6  C8  BA  L   1       3.369  -4.160   3.656  1.00  0.00    -0.0531  A
ATOM      7 H13  BA  L   1       4.822  -5.810   1.035  1.00  0.00    +0.0622  H
ATOM      8 H14  BA  L   1       6.840  -5.283   2.337  1.00  0.00    +0.0618  H
ATOM      9 H15  BA  L   1       6.670  -4.042   4.471  1.00  0.00    +0.0618  H
ATOM     10 H16  BA  L   1       4.462  -3.310   5.314  1.00  0.00    +0.0618  H
ATOM     11 H17  BA  L   1       2.414  -3.812   4.050  1.00  0.00    +0.0622  H
ENDROOT
BRANCH 1 13
ATOM     12  N1  BA  L   1       1.008  -5.069   2.547  1.00  0.00    -0.1914  N
ATOM     13  C2  BA  L   1       2.206  -5.232   1.693  1.00  0.00    +0.1466  C
ATOM     14  H9  BA  L   1       1.097  -5.654   3.387  1.00  0.00    +0.4054 HD
ATOM     15 H10  BA  L   1       0.946  -4.098   2.877  1.00  0.00    +0.4054 HD
ATOM     16 H11  BA  L   1       2.062  -4.597   0.814  1.00  0.00    +0.1017  H
ATOM     17 H12  BA  L   1       2.226  -6.276   1.364  1.00  0.00    +0.1017  H
ENDBRANCH 1 13
TORSDOF 1
ENDMDL
MODEL 8
REMARK VINA RESULT:    -5.176      2.531      3.096
REMARK INTER + INTRA:          -5.495
REMARK INTER:                  -5.473
REMARK INTRA:                  -0.021
REMARK UNBOUND:                -0.016
ROOT
ATOM      1  C3  BA  L   1       6.005  -3.255  -3.290  1.00  0.00    +0.0114  A
ATOM      2  C4  BA  L   1       7.178  -3.203  -4.060  1.00  0.00    -0.0531  A
ATOM      3  C5  BA  L   1       8.429  -3.220  -3.443  1.00  0.00    -0.0613  A
ATOM      4  C6  BA  L   1       8.521  -3.293  -2.055  1.00  0.00    -0.0617  A
ATOM      5  C7  BA  L   1       7.366  -3.344  -1.280  1.00  0.00    -0.0613  A
ATOM      6  C8  BA  L   1       6.111  -3.328  -1.891  1.00  0.00    -0.0531  A
ATOM      7 H13  BA  L   1       7.142  -3.132  -5.148  1.00  0.00    +0.0622  H
ATOM      8 H14  BA  L   1       9.337  -3.166  -4.040  1.00  0.00    +0.0618  H
ATOM      9 H15  BA  L   1       9.499  -3.297  -1.575  1.00  0.00    +0.0618  H
ATOM     10 H16  BA  L   1       7.447  -3.388  -0.195  1.00  0.00    +0.0618  H
ATOM     11 H17  BA  L   1       5.229  -3.356  -1.253  1.00  0.00    +0.0622  H
ENDROOT
BRANCH 1 13
ATOM     12  N1  BA  L   1       4.776  -3.789  -5.345  1.00  0.00    -0.1914  N
ATOM     13  C2  BA  L   1       4.661  -3.297  -3.953  1.00  0.00    +0.1466  C
ATOM     14  H9  BA  L   1       5.411  -3.181  -5.877  1.00  0.00    +0.4054 HD
ATOM     15 H10  BA  L   1       5.200  -4.725  -5.350  1.00  0.00    +0.4054 HD
ATOM     16 H11  BA  L   1       3.974  -3.971  -3.432  1.00  0.00    +0.1017  H
ATOM     17 H12  BA  L   1       4.202  -2.305  -4.000  1.00  0.00    +0.1017  H
ENDBRANCH 1 13
TORSDOF 1
ENDMDL
MODEL 9
REMARK VINA RESULT:    -5.051      2.085      2.739
REMARK INTER + INTRA:          -5.362
REMARK INTER:                  -5.339
REMARK INTRA:                  -0.023
REMARK UNBOUND:                -0.016
ROOT
ATOM      1  C3  BA  L   1       6.456  -3.001  -3.393  1.00  0.00    +0.0114  A
ATOM      2  C4  BA  L   1       6.266  -2.275  -2.207  1.00  0.00    -0.0531  A
ATOM      3  C5  BA  L   1       7.353  -1.953  -1.395  1.00  0.00    -0.0613  A
ATOM      4  C6  BA  L   1       8.638  -2.347  -1.760  1.00  0.00    -0.0617  A
ATOM      5  C7  BA  L   1       8.841  -3.068  -2.934  1.00  0.00    -0.0613  A
ATOM      6  C8  BA  L   1       7.757  -3.394  -3.751  1.00  0.00    -0.0531  A
ATOM      7 H13  BA  L   1       5.273  -1.963  -1.884  1.00  0.00    +0.0622  H
ATOM      8 H14  BA  L   1       7.203  -1.402  -0.468  1.00  0.00    +0.0618  H
ATOM      9 H15  BA  L   1       9.485  -2.101  -1.120  1.00  0.00    +0.0618  H
ATOM     10 H16  BA  L   1       9.847  -3.383  -3.205  1.00  0.00    +0.0618  H
ATOM     11 H17  BA  L   1       7.950  -3.970  -4.655  1.00  0.00    +0.0622  H
ENDROOT
BRANCH 1 13
ATOM     12  N1  BA  L   1       4.073  -2.611  -3.827  1.00  0.00    -0.1914  N
ATOM     13  C2  BA  L   1       5.298  -3.298  -4.297  1.00  0.00    +0.1466  C
ATOM     14  H9  BA  L   1       3.855  -2.908  -2.868  1.00  0.00    +0.4054 HD
ATOM     15 H10  BA  L   1       4.237  -1.598  -3.787  1.00  0.00    +0.4054 HD
ATOM     16 H11  BA  L   1       5.484  -2.955  -5.320  1.00  0.00    +0.1017  H
ATOM     17 H12  BA  L   1       5.073  -4.369  -4.329  1.00  0.00    +0.1017  H
ENDBRANCH 1 13
TORSDOF 1
ENDMDL
MODEL 10
REMARK VINA RESULT:    -4.837      6.564      7.499
REMARK INTER + INTRA:          -5.136
REMARK INTER:                  -5.115
REMARK INTRA:                  -0.021
REMARK UNBOUND:                -0.016
ROOT
ATOM      1  C3  BA  L   1       2.580  -5.576   0.181  1.00  0.00    +0.0114  A
ATOM      2  C4  BA  L   1       3.703  -4.759   0.384  1.00  0.00    -0.0531  A
ATOM      3  C5  BA  L   1       4.427  -4.839   1.574  1.00  0.00    -0.0613  A
ATOM      4  C6  BA  L   1       4.042  -5.736   2.567  1.00  0.00    -0.0617  A
ATOM      5  C7  BA  L   1       2.930  -6.552   2.377  1.00  0.00    -0.0613  A
ATOM      6  C8  BA  L   1       2.200  -6.477   1.190  1.00  0.00    -0.0531  A
ATOM      7 H13  BA  L   1       4.025  -4.037  -0.366  1.00  0.00    +0.0622  H
ATOM      8 H14  BA  L   1       5.290  -4.196   1.736  1.00  0.00    +0.0618  H
ATOM      9 H15  BA  L   1       4.604  -5.791   3.498  1.00  0.00    +0.0618  H
ATOM     10 H16  BA  L   1       2.628  -7.241   3.165  1.00  0.00    +0.0618  H
ATOM     11 H17  BA  L   1       1.328  -7.121   1.082  1.00  0.00    +0.0622  H
ENDROOT
BRANCH 1 13
ATOM     12  N1  BA  L   1       1.136  -6.817  -1.367  1.00  0.00    -0.1914  N
ATOM     13  C2  BA  L   1       1.835  -5.535  -1.120  1.00  0.00    +0.1466  C
ATOM     14  H9  BA  L   1       1.816  -7.587  -1.376  1.00  0.00    +0.4054 HD
ATOM     15 H10  BA  L   1       0.486  -7.013  -0.596  1.00  0.00    +0.4054 HD
ATOM     16 H11  BA  L   1       1.073  -4.749  -1.125  1.00  0.00    +0.1017  H
ATOM     17 H12  BA  L   1       2.507  -5.368  -1.966  1.00  0.00    +0.1017  H
ENDBRANCH 1 13
TORSDOF 1
ENDMDL
MODEL 11
REMARK VINA RESULT:    -4.745      7.537      8.730
REMARK INTER + INTRA:          -5.038
REMARK INTER:                  -5.027
REMARK INTRA:                  -0.011
REMARK UNBOUND:                -0.016
ROOT
ATOM      1  C3  BA  L   1       2.146  -5.242  -4.500  1.00  0.00    +0.0114  A
ATOM      2  C4  BA  L   1       0.948  -4.540  -4.297  1.00  0.00    -0.0531  A
ATOM      3  C5  BA  L   1      -0.263  -5.227  -4.195  1.00  0.00    -0.0613  A
ATOM      4  C6  BA  L   1      -0.288  -6.616  -4.289  1.00  0.00    -0.0617  A
ATOM      5  C7  BA  L   1       0.894  -7.323  -4.490  1.00  0.00    -0.0613  A
ATOM      6  C8  BA  L   1       2.109  -6.643  -4.594  1.00  0.00    -0.0531  A
ATOM      7 H13  BA  L   1       0.928  -3.452  -4.232  1.00  0.00    +0.0622  H
ATOM      8 H14  BA  L   1      -1.194  -4.680  -4.051  1.00  0.00    +0.0618  H
ATOM      9 H15  BA  L   1      -1.234  -7.149  -4.217  1.00  0.00    +0.0618  H
ATOM     10 H16  BA  L   1       0.864  -8.409  -4.576  1.00  0.00    +0.0618  H
ATOM     11 H17  BA  L   1       3.012  -7.228  -4.765  1.00  0.00    +0.0622  H
ENDROOT
BRANCH 1 13
ATOM     12  N1  BA  L   1       3.985  -4.478  -5.933  1.00  0.00    -0.1914  N
ATOM     13  C2  BA  L   1       3.455  -4.512  -4.551  1.00  0.00    +0.1466  C
ATOM     14  H9  BA  L   1       4.104  -5.436  -6.284  1.00  0.00    +0.4054 HD
ATOM     15 H10  BA  L   1       3.306  -4.023  -6.555  1.00  0.00    +0.4054 HD
ATOM     16 H11  BA  L   1       3.352  -3.474  -4.222  1.00  0.00    +0.1017  H
ATOM     17 H12  BA  L   1       4.213  -4.997  -3.929  1.00  0.00    +0.1017  H
ENDBRANCH 1 13
TORSDOF 1
ENDMDL
MODEL 12
REMARK VINA RESULT:    -4.676      2.108      3.230
REMARK INTER + INTRA:          -4.965
REMARK INTER:                  -4.943
REMARK INTRA:                  -0.023
REMARK UNBOUND:                -0.016
ROOT
ATOM      1  C3  BA  L   1       8.075  -1.006  -2.411  1.00  0.00    +0.0114  A
ATOM      2  C4  BA  L   1       6.744  -0.819  -2.005  1.00  0.00    -0.0531  A
ATOM      3  C5  BA  L   1       5.716  -1.554  -2.596  1.00  0.00    -0.0613  A
ATOM      4  C6  BA  L   1       6.007  -2.485  -3.591  1.00  0.00    -0.0617  A
ATOM      5  C7  BA  L   1       7.322  -2.680  -4.002  1.00  0.00    -0.0613  A
ATOM      6  C8  BA  L   1       8.355  -1.947  -3.416  1.00  0.00    -0.0531  A
ATOM      7 H13  BA  L   1       6.479  -0.090  -1.239  1.00  0.00    +0.0622  H
ATOM      8 H14  BA  L   1       4.683  -1.399  -2.290  1.00  0.00    +0.0618  H
ATOM      9 H15  BA  L   1       5.202  -3.052  -4.056  1.00  0.00    +0.0618  H
ATOM     10 H16  BA  L   1       7.539  -3.400  -4.790  1.00  0.00    +0.0618  H
ATOM     11 H17  BA  L   1       9.371  -2.116  -3.771  1.00  0.00    +0.0622  H
ENDROOT
BRANCH 1 13
ATOM     12  N1  BA  L   1       8.678   0.517  -0.584  1.00  0.00    -0.1914  N
ATOM     13  C2  BA  L   1       9.187  -0.260  -1.737  1.00  0.00    +0.1466  C
ATOM     14  H9  BA  L   1       7.955   1.175  -0.901  1.00  0.00    +0.4054 HD
ATOM     15 H10  BA  L   1       8.221  -0.114   0.086  1.00  0.00    +0.4054 HD
ATOM     16 H11  BA  L   1       9.954  -0.939  -1.351  1.00  0.00    +0.1017  H
ATOM     17 H12  BA  L   1       9.667   0.451  -2.416  1.00  0.00    +0.1017  H
ENDBRANCH 1 13
TORSDOF 1
ENDMDL
