MODEL 1
REMARK VINA RESULT:    -6.310      0.000      0.000
REMARK INTER + INTRA:          -6.810
REMARK INTER:                  -6.679
REMARK INTRA:                  -0.131
REMARK UNBOUND:                -0.131
ROOT
ATOM      1  C4  24D L   1       8.093  -1.914  -2.578  1.00  0.00    +0.0325  A
ATOM      2  C5  24D L   1       6.894  -1.301  -2.159  1.00  0.00    -0.0500  A
ATOM      3  C6  24D L   1       6.907  -0.230  -1.262  1.00  0.00    -0.0428  A
ATOM      4  C7  24D L   1       8.117   0.251  -0.771  1.00  0.00    +0.0424  A
ATOM      5 CL8  24D L   1       8.128   1.566   0.334  1.00  0.00    -0.0835 Cl
ATOM      6  C9  24D L   1       9.315  -0.329  -1.171  1.00  0.00    -0.0246  A
ATOM      7 C10  24D L   1       9.305  -1.402  -2.070  1.00  0.00    +0.0513  A
ATOM      8 CL11 24D L   1      10.838  -2.067  -2.505  1.00  0.00    -0.0830 Cl
ATOM      9 H18  24D L   1       5.925  -1.636  -2.531  1.00  0.00    +0.0623  H
ATOM     10 H19  24D L   1       5.970   0.232  -0.952  1.00  0.00    +0.0632  H
ATOM     11 H20  24D L   1      10.256   0.058  -0.784  1.00  0.00    +0.0647  H
ENDROOT
BRANCH 1 13
ATOM     12  C1  24D L   1       8.245  -4.422  -2.931  1.00  0.00    -0.0030  C
ATOM     13  C2  24D L   1       8.001  -3.058  -3.568  1.00  0.00    +0.1552  C
ATOM     14  N3  24D L   1       6.715  -3.104  -4.311  1.00  0.00    -0.1890  N
ATOM     15 H12  24D L   1       7.481  -4.683  -2.192  1.00  0.00    +0.0292  H
ATOM     16 H13  24D L   1       8.252  -5.211  -3.691  1.00  0.00    +0.0292  H
ATOM     17 H14  24D L   1       9.215  -4.444  -2.421  1.00  0.00    +0.0292  H
ATOM     18 H15  24D L   1       8.752  -2.908  -4.353  1.00  0.00    +0.1051  H
ATOM     19 H16  24D L   1       6.468  -2.186  -4.701  1.00  0.00    +0.4057 HD
ATOM     20 H17  24D L   1       6.732  -3.787  -5.078  1.00  0.00    +0.4057 HD
ENDBRANCH 1 13
TORSDOF 1
ENDMDL
MODEL 2
REMARK VINA RESULT:    -6.308      1.959      2.117
REMARK INTER + INTRA:          -6.808
REMARK INTER:                  -6.650
REMARK INTRA:                  -0.158
REMARK UNBOUND:                -0.131
ROOT
ATOM      1  C4  24D L   1       6.401  -2.452  -2.581  1.00  0.00    +0.0325  A
ATOM      2  C5  24D L   1       5.884  -1.265  -2.021  1.00  0.00    -0.0500  A
ATOM      3  C6  24D L   1       6.718  -0.355  -1.365  1.00  0.00    -0.0428  A
ATOM      4  C7  24D L   1       8.082  -0.612  -1.261  1.00  0.00    +0.0424  A
ATOM      5 CL8  24D L   1       9.102   0.508  -0.452  1.00  0.00    -0.0835 Cl
ATOM      6  C9  24D L   1       8.620  -1.770  -1.810  1.00  0.00    -0.0246  A
ATOM      7 C10  24D L   1       7.788  -2.682  -2.468  1.00  0.00    +0.0513  A
ATOM      8 CL11 24D L   1       8.539  -4.098  -3.111  1.00  0.00    -0.0830 Cl
ATOM      9 H18  24D L   1       4.825  -1.017  -2.093  1.00  0.00    +0.0623  H
ATOM     10 H19  24D L   1       6.300   0.558  -0.940  1.00  0.00    +0.0632  H
ATOM     11 H20  24D L   1       9.689  -1.958  -1.726  1.00  0.00    +0.0647  H
ENDROOT
BRANCH 1 13
ATOM     12  C1  24D L   1       4.863  -4.460  -2.384  1.00  0.00    -0.0030  C
ATOM     13  C2  24D L   1       5.440  -3.381  -3.295  1.00  0.00    +0.1552  C
ATOM     14  N3  24D L   1       4.316  -2.678  -3.968  1.00  0.00    -0.1890  N
ATOM     15 H12  24D L   1       4.245  -4.046  -1.581  1.00  0.00    +0.0292  H
ATOM     16 H13  24D L   1       4.240  -5.158  -2.953  1.00  0.00    +0.0292  H
ATOM     17 H14  24D L   1       5.666  -5.039  -1.914  1.00  0.00    +0.0292  H
ATOM     18 H15  24D L   1       5.969  -3.875  -4.117  1.00  0.00    +0.1051  H
ATOM     19 H16  24D L   1       4.648  -1.892  -4.540  1.00  0.00    +0.4057 HD
ATOM     20 H17  24D L   1       3.767  -3.305  -4.566  1.00  0.00    +0.4057 HD
ENDBRANCH 1 13
TORSDOF 1
ENDMDL
MODEL 3
REMARK VINA RESULT:    -6.263      1.992      2.933
REMARK INTER + INTRA:          -6.761
REMARK INTER:                  -6.824
REMARK INTRA:                   0.064
REMARK UNBOUND:                -0.131
ROOT
ATOM      1  C4  24D L   1       7.304  -2.761  -2.972  1.00  0.00    +0.0325  A
ATOM      2  C5  24D L   1       8.623  -3.259  -3.017  1.00  0.00    -0.0500  A
ATOM      3  C6  24D L   1       9.694  -2.508  -2.525  1.00  0.00    -0.0428  A
ATOM      4  C7  24D L   1       9.467  -1.250  -1.975  1.00  0.00    +0.0424  A
ATOM      5 CL8  24D L   1      10.787  -0.329  -1.374  1.00  0.00    -0.0835 Cl
ATOM      6  C9  24D L   1       8.177  -0.736  -1.912  1.00  0.00    -0.0246  A
ATOM      7 C10  24D L   1       7.103  -1.486  -2.403  1.00  0.00    +0.0513  A
ATOM      8 CL11 24D L   1       5.536  -0.767  -2.292  1.00  0.00    -0.0830 Cl
ATOM      9 H18  24D L   1       8.844  -4.246  -3.424  1.00  0.00    +0.0623  H
ATOM     10 H19  24D L   1      10.706  -2.911  -2.566  1.00  0.00    +0.0632  H
ATOM     11 H20  24D L   1       8.011   0.247  -1.476  1.00  0.00    +0.0647  H
ENDROOT
BRANCH 1 13
ATOM     12  C1  24D L   1       5.179  -4.039  -2.438  1.00  0.00    -0.0030  C
ATOM     13  C2  24D L   1       6.192  -3.640  -3.507  1.00  0.00    +0.1552  C
ATOM     14  N3  24D L   1       5.460  -3.046  -4.657  1.00  0.00    -0.1890  N
ATOM     15 H12  24D L   1       4.634  -3.180  -2.035  1.00  0.00    +0.0292  H
ATOM     16 H13  24D L   1       4.441  -4.739  -2.844  1.00  0.00    +0.0292  H
ATOM     17 H14  24D L   1       5.678  -4.534  -1.598  1.00  0.00    +0.0292  H
ATOM     18 H15  24D L   1       6.631  -4.555  -3.921  1.00  0.00    +0.1051  H
ATOM     19 H16  24D L   1       6.104  -2.694  -5.376  1.00  0.00    +0.4057 HD
ATOM     20 H17  24D L   1       4.817  -3.715  -5.096  1.00  0.00    +0.4057 HD
ENDBRANCH 1 13
TORSDOF 1
ENDMDL
MODEL 4
REMARK VINA RESULT:    -6.107      1.638      2.143
REMARK INTER + INTRA:          -6.595
REMARK INTER:                  -6.666
REMARK INTRA:                   0.071
REMARK UNBOUND:                -0.131
ROOT
ATOM      1  C4  24D L   1       8.471  -1.962  -2.264  1.00  0.00    +0.0325  A
ATOM      2  C5  24D L   1       9.583  -1.103  -2.141  1.00  0.00    -0.0500  A
ATOM      3  C6  24D L   1       9.570  -0.030  -1.246  1.00  0.00    -0.0428  A
ATOM      4  C7  24D L   1       8.448   0.201  -0.455  1.00  0.00    +0.0424  A
ATOM      5 CL8  24D L   1       8.435   1.522   0.642  1.00  0.00    -0.0835 Cl
ATOM      6  C9  24D L   1       7.340  -0.633  -0.550  1.00  0.00    -0.0246  A
ATOM      7 C10  24D L   1       7.352  -1.709  -1.445  1.00  0.00    +0.0513  A
ATOM      8 CL11 24D L   1       5.930  -2.687  -1.504  1.00  0.00    -0.0830 Cl
ATOM      9 H18  24D L   1      10.488  -1.258  -2.730  1.00  0.00    +0.0623  H
ATOM     10 H19  24D L   1      10.440   0.621  -1.163  1.00  0.00    +0.0632  H
ATOM     11 H20  24D L   1       6.470  -0.445   0.077  1.00  0.00    +0.0647  H
ENDROOT
BRANCH 1 13
ATOM     12  C1  24D L   1       8.689  -4.473  -2.556  1.00  0.00    -0.0030  C
ATOM     13  C2  24D L   1       8.567  -3.116  -3.242  1.00  0.00    +0.1552  C
ATOM     14  N3  24D L   1       7.441  -3.174  -4.211  1.00  0.00    -0.1890  N
ATOM     15 H12  24D L   1       7.801  -4.728  -1.969  1.00  0.00    +0.0292  H
ATOM     16 H13  24D L   1       8.838  -5.270  -3.292  1.00  0.00    +0.0292  H
ATOM     17 H14  24D L   1       9.546  -4.487  -1.874  1.00  0.00    +0.0292  H
ATOM     18 H15  24D L   1       9.450  -2.973  -3.875  1.00  0.00    +0.1051  H
ATOM     19 H16  24D L   1       7.271  -2.261  -4.650  1.00  0.00    +0.4057 HD
ATOM     20 H17  24D L   1       7.602  -3.865  -4.953  1.00  0.00    +0.4057 HD
ENDBRANCH 1 13
TORSDOF 1
ENDMDL
MODEL 5
REMARK VINA RESULT:    -6.060      2.901      4.073
REMARK INTER + INTRA:          -6.545
REMARK INTER:                  -6.564
REMARK INTRA:                   0.019
REMARK UNBOUND:                -0.131
ROOT
ATOM      1  C4  24D L   1       7.650  -1.387  -1.689  1.00  0.00    +0.0325  A
ATOM      2  C5  24D L   1       6.381  -0.847  -1.985  1.00  0.00    -0.0500  A
ATOM      3  C6  24D L   1       5.440  -1.577  -2.717  1.00  0.00    -0.0428  A
ATOM      4  C7  24D L   1       5.748  -2.859  -3.162  1.00  0.00    +0.0424  A
ATOM      5 CL8  24D L   1       4.589  -3.751  -4.063  1.00  0.00    -0.0835 Cl
ATOM      6  C9  24D L   1       6.988  -3.419  -2.880  1.00  0.00    -0.0246  A
ATOM      7 C10  24D L   1       7.932  -2.691  -2.147  1.00  0.00    +0.0513  A
ATOM      8 CL11 24D L   1       9.450  -3.460  -1.850  1.00  0.00    -0.0830 Cl
ATOM      9 H18  24D L   1       6.092   0.147  -1.642  1.00  0.00    +0.0623  H
ATOM     10 H19  24D L   1       4.464  -1.144  -2.933  1.00  0.00    +0.0632  H
ATOM     11 H20  24D L   1       7.216  -4.425  -3.229  1.00  0.00    +0.0647  H
ENDROOT
BRANCH 1 13
ATOM     12  C1  24D L   1       9.911  -0.238  -1.611  1.00  0.00    -0.0030  C
ATOM     13  C2  24D L   1       8.611  -0.545  -0.875  1.00  0.00    +0.1552  C
ATOM     14  N3  24D L   1       8.025   0.734  -0.393  1.00  0.00    -0.1890  N
ATOM     15 H12  24D L   1       9.753   0.375  -2.504  1.00  0.00    +0.0292  H
ATOM     16 H13  24D L   1      10.609   0.300  -0.961  1.00  0.00    +0.0292  H
ATOM     17 H14  24D L   1      10.402  -1.163  -1.932  1.00  0.00    +0.0292  H
ATOM     18 H15  24D L   1       8.859  -1.082   0.048  1.00  0.00    +0.1051  H
ATOM     19 H16  24D L   1       7.109   0.589   0.050  1.00  0.00    +0.4057 HD
ATOM     20 H17  24D L   1       8.636   1.214   0.278  1.00  0.00    +0.4057 HD
ENDBRANCH 1 13
TORSDOF 1
ENDMDL
MODEL 6
REMARK VINA RESULT:    -6.021      4.086      4.674
REMARK INTER + INTRA:          -6.504
REMARK INTER:                  -6.397
REMARK INTRA:                  -0.107
REMARK UNBOUND:                -0.131
ROOT
ATOM      1  C4  24D L   1       4.599  -3.823  -3.602  1.00  0.00    +0.0325  A
ATOM      2  C5  24D L   1       5.393  -2.780  -4.123  1.00  0.00    -0.0500  A
ATOM      3  C6  24D L   1       6.241  -2.038  -3.296  1.00  0.00    -0.0428  A
ATOM      4  C7  24D L   1       6.315  -2.327  -1.937  1.00  0.00    +0.0424  A
ATOM      5 CL8  24D L   1       7.356  -1.411  -0.924  1.00  0.00    -0.0835 Cl
ATOM      6  C9  24D L   1       5.549  -3.354  -1.397  1.00  0.00    -0.0246  A
ATOM      7 C10  24D L   1       4.700  -4.099  -2.222  1.00  0.00    +0.0513  A
ATOM      8 CL11 24D L   1       3.779  -5.350  -1.466  1.00  0.00    -0.0830 Cl
ATOM      9 H18  24D L   1       5.378  -2.531  -5.184  1.00  0.00    +0.0623  H
ATOM     10 H19  24D L   1       6.848  -1.237  -3.718  1.00  0.00    +0.0632  H
ATOM     11 H20  24D L   1       5.619  -3.575  -0.333  1.00  0.00    +0.0647  H
ENDROOT
BRANCH 1 13
ATOM     12  C1  24D L   1       2.233  -4.298  -4.387  1.00  0.00    -0.0030  C
ATOM     13  C2  24D L   1       3.719  -4.597  -4.562  1.00  0.00    +0.1552  C
ATOM     14  N3  24D L   1       4.077  -4.402  -5.992  1.00  0.00    -0.1890  N
ATOM     15 H12  24D L   1       1.985  -3.257  -4.618  1.00  0.00    +0.0292  H
ATOM     16 H13  24D L   1       1.628  -4.935  -5.039  1.00  0.00    +0.0292  H
ATOM     17 H14  24D L   1       1.920  -4.487  -3.354  1.00  0.00    +0.0292  H
ATOM     18 H15  24D L   1       3.873  -5.670  -4.398  1.00  0.00    +0.1051  H
ATOM     19 H16  24D L   1       5.085  -4.522  -6.151  1.00  0.00    +0.4057 HD
ATOM     20 H17  24D L   1       3.572  -5.046  -6.611  1.00  0.00    +0.4057 HD
ENDBRANCH 1 13
TORSDOF 1
ENDMDL
MODEL 7
REMARK VINA RESULT:    -5.892      6.784      7.559
REMARK INTER + INTRA:          -6.368
REMARK INTER:                  -6.231
REMARK INTRA:                  -0.137
REMARK UNBOUND:                -0.131
ROOT
ATOM      1  C4  24D L   1       2.863  -5.600   0.243  1.00  0.00    +0.0325  A
ATOM      2  C5  24D L   1       3.914  -4.719   0.572  1.00  0.00    -0.0500  A
ATOM      3  C6  24D L   1       4.710  -4.144  -0.423  1.00  0.00    -0.0428  A
ATOM      4  C7  24D L   1       4.467  -4.434  -1.762  1.00  0.00    +0.0424  A
ATOM      5 CL8  24D L   1       5.449  -3.727  -2.981  1.00  0.00    -0.0835 Cl
ATOM      6  C9  24D L   1       3.434  -5.294  -2.116  1.00  0.00    -0.0246  A
ATOM      7 C10  24D L   1       2.635  -5.871  -1.122  1.00  0.00    +0.0513  A
ATOM      8 CL11 24D L   1       1.380  -6.933  -1.652  1.00  0.00    -0.0830 Cl
ATOM      9 H18  24D L   1       4.128  -4.452   1.607  1.00  0.00    +0.0623  H
ATOM     10 H19  24D L   1       5.516  -3.464  -0.149  1.00  0.00    +0.0632  H
ATOM     11 H20  24D L   1       3.250  -5.510  -3.167  1.00  0.00    +0.0647  H
ENDROOT
BRANCH 1 13
ATOM     12  C1  24D L   1       2.864  -6.891   2.428  1.00  0.00    -0.0030  C
ATOM     13  C2  24D L   1       2.030  -6.170   1.374  1.00  0.00    +0.1552  C
ATOM     14  N3  24D L   1       1.175  -5.161   2.054  1.00  0.00    -0.1890  N
ATOM     15 H12  24D L   1       3.552  -6.219   2.951  1.00  0.00    +0.0292  H
ATOM     16 H13  24D L   1       2.221  -7.357   3.181  1.00  0.00    +0.0292  H
ATOM     17 H14  24D L   1       3.466  -7.683   1.969  1.00  0.00    +0.0292  H
ATOM     18 H15  24D L   1       1.311  -6.885   0.959  1.00  0.00    +0.1051  H
ATOM     19 H16  24D L   1       0.643  -4.597   1.379  1.00  0.00    +0.4057 HD
ATOM     20 H17  24D L   1       0.512  -5.591   2.709  1.00  0.00    +0.4057 HD
ENDBRANCH 1 13
TORSDOF 1
ENDMDL
MODEL 8
REMARK VINA RESULT:    -5.820      4.885      5.784
REMARK INTER + INTRA:          -6.291
REMARK INTER:                  -6.196
REMARK INTRA:                  -0.095
REMARK UNBOUND:                -0.131
ROOT
ATOM      1  C4  24D L   1       4.418  -4.483  -0.918  1.00  0.00    +0.0325  A
ATOM      2  C5  24D L   1       5.518  -3.689  -0.528  1.00  0.00    -0.0500  A
ATOM      3  C6  24D L   1       6.375  -3.128  -1.479  1.00  0.00    -0.0428  A
ATOM      4  C7  24D L   1       6.147  -3.345  -2.834  1.00  0.00    +0.0424  A
ATOM      5 CL8  24D L   1       7.204  -2.655  -3.999  1.00  0.00    -0.0835 Cl
ATOM      6  C9  24D L   1       5.067  -4.116  -3.248  1.00  0.00    -0.0246  A
ATOM      7 C10  24D L   1       4.207  -4.679  -2.298  1.00  0.00    +0.0513  A
ATOM      8 CL11 24D L   1       2.898  -5.631  -2.901  1.00  0.00    -0.0830 Cl
ATOM      9 H18  24D L   1       5.724  -3.481   0.522  1.00  0.00    +0.0623  H
ATOM     10 H19  24D L   1       7.217  -2.516  -1.158  1.00  0.00    +0.0632  H
ATOM     11 H20  24D L   1       4.896  -4.275  -4.311  1.00  0.00    +0.0647  H
ENDROOT
BRANCH 1 13
ATOM     12  C1  24D L   1       4.112  -4.893   1.567  1.00  0.00    -0.0030  C
ATOM     13  C2  24D L   1       3.522  -5.041   0.168  1.00  0.00    +0.1552  C
ATOM     14  N3  24D L   1       2.151  -4.466   0.167  1.00  0.00    -0.1890  N
ATOM     15 H12  24D L   1       4.226  -3.846   1.865  1.00  0.00    +0.0292  H
ATOM     16 H13  24D L   1       3.475  -5.381   2.312  1.00  0.00    +0.0292  H
ATOM     17 H14  24D L   1       5.102  -5.359   1.621  1.00  0.00    +0.0292  H
ATOM     18 H15  24D L   1       3.358  -6.108  -0.022  1.00  0.00    +0.1051  H
ATOM     19 H16  24D L   1       1.735  -4.477  -0.772  1.00  0.00    +0.4057 HD
ATOM     20 H17  24D L   1       1.520  -4.963   0.807  1.00  0.00    +0.4057 HD
ENDBRANCH 1 13
TORSDOF 1
ENDMDL
MODEL 9
REMARK VINA RESULT:    -5.777      6.897      7.934
REMARK INTER + INTRA:          -6.245
REMARK INTER:                  -6.092
REMARK INTRA:                  -0.153
REMARK UNBOUND:                -0.131
ROOT
ATOM      1  C4  24D L   1       1.988  -6.236  -4.243  1.00  0.00    +0.0325  A
ATOM      2  C5  24D L   1       2.462  -5.745  -5.478  1.00  0.00    -0.0500  A
ATOM      3  C6  24D L   1       3.506  -4.818  -5.532  1.00  0.00    -0.0428  A
ATOM      4  C7  24D L   1       4.099  -4.368  -4.356  1.00  0.00    +0.0424  A
ATOM      5 CL8  24D L   1       5.380  -3.227  -4.427  1.00  0.00    -0.0835 Cl
ATOM      6  C9  24D L   1       3.657  -4.840  -3.125  1.00  0.00    -0.0246  A
ATOM      7 C10  24D L   1       2.612  -5.769  -3.068  1.00  0.00    +0.0513  A
ATOM      8 CL11 24D L   1       2.122  -6.293  -1.497  1.00  0.00    -0.0830 Cl
ATOM      9 H18  24D L   1       2.037  -6.082  -6.423  1.00  0.00    +0.0623  H
ATOM     10 H19  24D L   1       3.860  -4.452  -6.495  1.00  0.00    +0.0632  H
ATOM     11 H20  24D L   1       4.132  -4.485  -2.211  1.00  0.00    +0.0647  H
ENDROOT
BRANCH 1 13
ATOM     12  C1  24D L   1      -0.517  -6.618  -4.358  1.00  0.00    -0.0030  C
ATOM     13  C2  24D L   1       0.866  -7.254  -4.264  1.00  0.00    +0.1552  C
ATOM     14  N3  24D L   1       0.998  -8.267  -5.344  1.00  0.00    -0.1890  N
ATOM     15 H12  24D L   1      -0.667  -6.077  -5.297  1.00  0.00    +0.0292  H
ATOM     16 H13  24D L   1      -1.301  -7.380  -4.287  1.00  0.00    +0.0292  H
ATOM     17 H14  24D L   1      -0.672  -5.906  -3.540  1.00  0.00    +0.0292  H
ATOM     18 H15  24D L   1       0.908  -7.847  -3.343  1.00  0.00    +0.1051  H
ATOM     19 H16  24D L   1       1.940  -8.676  -5.368  1.00  0.00    +0.4057 HD
ATOM     20 H17  24D L   1       0.317  -9.030  -5.247  1.00  0.00    +0.4057 HD
ENDBRANCH 1 13
TORSDOF 1
ENDMDL
MODEL 10
REMARK VINA RESULT:    -5.761      5.649      6.434
REMARK INTER + INTRA:          -6.229
REMARK INTER:                  -6.070
REMARK INTRA:                  -0.159
REMARK UNBOUND:                -0.131
ROOT
ATOM      1  C4  24D L   1       3.134  -4.980  -3.831  1.00  0.00    +0.0325  A
ATOM      2  C5  24D L   1       4.059  -4.030  -4.311  1.00  0.00    -0.0500  A
ATOM      3  C6  24D L   1       5.060  -3.515  -3.482  1.00  0.00    -0.0428  A
ATOM      4  C7  24D L   1       5.156  -3.942  -2.161  1.00  0.00    +0.0424  A
ATOM      5 CL8  24D L   1       6.385  -3.304  -1.145  1.00  0.00    -0.0835 Cl
ATOM      6  C9  24D L   1       4.262  -4.882  -1.662  1.00  0.00    -0.0246  A
ATOM      7 C10  24D L   1       3.260  -5.400  -2.491  1.00  0.00    +0.0513  A
ATOM      8 CL11 24D L   1       2.188  -6.556  -1.785  1.00  0.00    -0.0830 Cl
ATOM      9 H18  24D L   1       4.030  -3.680  -5.344  1.00  0.00    +0.0623  H
ATOM     10 H19  24D L   1       5.767  -2.784  -3.873  1.00  0.00    +0.0632  H
ATOM     11 H20  24D L   1       4.350  -5.212  -0.629  1.00  0.00    +0.0647  H
ENDROOT
BRANCH 1 13
ATOM     12  C1  24D L   1       0.760  -4.766  -4.702  1.00  0.00    -0.0030  C
ATOM     13  C2  24D L   1       2.090  -5.508  -4.794  1.00  0.00    +0.1552  C
ATOM     14  N3  24D L   1       2.533  -5.514  -6.213  1.00  0.00    -0.1890  N
ATOM     15 H12  24D L   1       0.846  -3.714  -4.993  1.00  0.00    +0.0292  H
ATOM     16 H13  24D L   1       0.010  -5.229  -5.351  1.00  0.00    +0.0292  H
ATOM     17 H14  24D L   1       0.373  -4.791  -3.677  1.00  0.00    +0.0292  H
ATOM     18 H15  24D L   1       1.907  -6.566  -4.573  1.00  0.00    +0.1051  H
ATOM     19 H16  24D L   1       3.461  -5.941  -6.319  1.00  0.00    +0.4057 HD
ATOM     20 H17  24D L   1       1.875  -6.012  -6.824  1.00  0.00    +0.4057 HD
ENDBRANCH 1 13
TORSDOF 1
ENDMDL
MODEL 11
REMARK VINA RESULT:    -5.722      7.511      8.449
REMARK INTER + INTRA:          -6.187
REMARK INTER:                  -6.039
REMARK INTRA:                  -0.148
REMARK UNBOUND:                -0.131
ROOT
ATOM      1  C4  24D L   1       3.466  -4.816   2.337  1.00  0.00    +0.0325  A
ATOM      2  C5  24D L   1       4.396  -4.558   1.308  1.00  0.00    -0.0500  A
ATOM      3  C6  24D L   1       4.074  -4.799  -0.031  1.00  0.00    -0.0428  A
ATOM      4  C7  24D L   1       2.818  -5.296  -0.366  1.00  0.00    +0.0424  A
ATOM      5 CL8  24D L   1       2.428  -5.593  -2.012  1.00  0.00    -0.0835 Cl
ATOM      6  C9  24D L   1       1.879  -5.553   0.627  1.00  0.00    -0.0246  A
ATOM      7 C10  24D L   1       2.199  -5.312   1.968  1.00  0.00    +0.0513  A
ATOM      8 CL11 24D L   1       0.976  -5.669   3.135  1.00  0.00    -0.0830 Cl
ATOM      9 H18  24D L   1       5.385  -4.154   1.524  1.00  0.00    +0.0623  H
ATOM     10 H19  24D L   1       4.805  -4.591  -0.812  1.00  0.00    +0.0632  H
ATOM     11 H20  24D L   1       0.898  -5.938   0.353  1.00  0.00    +0.0647  H
ENDROOT
BRANCH 1 13
ATOM     12  C1  24D L   1       5.391  -4.513   3.961  1.00  0.00    -0.0030  C
ATOM     13  C2  24D L   1       3.879  -4.512   3.763  1.00  0.00    +0.1552  C
ATOM     14  N3  24D L   1       3.332  -3.231   4.284  1.00  0.00    -0.1890  N
ATOM     15 H12  24D L   1       5.890  -3.721   3.393  1.00  0.00    +0.0292  H
ATOM     16 H13  24D L   1       5.645  -4.372   5.017  1.00  0.00    +0.0292  H
ATOM     17 H14  24D L   1       5.823  -5.468   3.641  1.00  0.00    +0.0292  H
ATOM     18 H15  24D L   1       3.446  -5.270   4.426  1.00  0.00    +0.1051  H
ATOM     19 H16  24D L   1       2.323  -3.150   4.109  1.00  0.00    +0.4057 HD
ATOM     20 H17  24D L   1       3.496  -3.119   5.291  1.00  0.00    +0.4057 HD
ENDBRANCH 1 13
TORSDOF 1
ENDMDL
MODEL 12
REMARK VINA RESULT:    -5.659      5.322      6.252
REMARK INTER + INTRA:          -6.121
REMARK INTER:                  -5.962
REMARK INTRA:                  -0.159
REMARK UNBOUND:                -0.131
ROOT
ATOM      1  C4  24D L   1       3.394  -4.930  -2.800  1.00  0.00    +0.0325  A
ATOM      2  C5  24D L   1       4.340  -4.572  -1.817  1.00  0.00    -0.0500  A
ATOM      3  C6  24D L   1       5.500  -3.868  -2.156  1.00  0.00    -0.0428  A
ATOM      4  C7  24D L   1       5.732  -3.507  -3.479  1.00  0.00    +0.0424  A
ATOM      5 CL8  24D L   1       7.160  -2.645  -3.892  1.00  0.00    -0.0835 Cl
ATOM      6  C9  24D L   1       4.814  -3.842  -4.468  1.00  0.00    -0.0246  A
ATOM      7 C10  24D L   1       3.652  -4.545  -4.132  1.00  0.00    +0.0513  A
ATOM      8 CL11 24D L   1       2.572  -4.926  -5.425  1.00  0.00    -0.0830 Cl
ATOM      9 H18  24D L   1       4.190  -4.820  -0.766  1.00  0.00    +0.0623  H
ATOM     10 H19  24D L   1       6.218  -3.598  -1.382  1.00  0.00    +0.0632  H
ATOM     11 H20  24D L   1       5.004  -3.550  -5.500  1.00  0.00    +0.0647  H
ENDROOT
BRANCH 1 13
ATOM     12  C1  24D L   1       2.282  -7.189  -2.484  1.00  0.00    -0.0030  C
ATOM     13  C2  24D L   1       2.151  -5.675  -2.355  1.00  0.00    +0.1552  C
ATOM     14  N3  24D L   1       1.725  -5.352  -0.968  1.00  0.00    -0.1890  N
ATOM     15 H12  24D L   1       3.056  -7.601  -1.829  1.00  0.00    +0.0292  H
ATOM     16 H13  24D L   1       1.339  -7.684  -2.232  1.00  0.00    +0.0292  H
ATOM     17 H14  24D L   1       2.540  -7.469  -3.512  1.00  0.00    +0.0292  H
ATOM     18 H15  24D L   1       1.305  -5.351  -2.971  1.00  0.00    +0.1051  H
ATOM     19 H16  24D L   1       1.690  -4.337  -0.808  1.00  0.00    +0.4057 HD
ATOM     20 H17  24D L   1       0.804  -5.746  -0.742  1.00  0.00    +0.4057 HD
ENDBRANCH 1 13
TORSDOF 1
ENDMDL
