MODEL 1
REMARK VINA RESULT:    -6.842      0.000      0.000
REMARK INTER + INTRA:          -7.314
REMARK INTER:                  -7.242
REMARK INTRA:                  -0.072
REMARK UNBOUND:                -0.072
ROOT
ATOM      1  C4  34D L   1       6.308  -2.850  -2.661  1.00  0.00    +0.0156  A
ATOM      2  C5  34D L   1       5.996  -1.559  -2.198  1.00  0.00    -0.0513  A
ATOM      3  C6  34D L   1       6.998  -0.705  -1.721  1.00  0.00    -0.0415  A
ATOM      4  C7  34D L   1       8.330  -1.123  -1.688  1.00  0.00    +0.0593  A
ATOM      5 CL8  34D L   1       9.508  -0.021  -1.081  1.00  0.00    -0.0820 Cl
ATOM      6  C9  34D L   1       8.656  -2.405  -2.135  1.00  0.00    +0.0597  A
ATOM      7 CL10 34D L   1      10.273  -3.010  -2.117  1.00  0.00    -0.0820 Cl
ATOM      8 C11  34D L   1       7.651  -3.261  -2.614  1.00  0.00    -0.0330  A
ATOM      9 H18  34D L   1       4.971  -1.188  -2.204  1.00  0.00    +0.0623  H
ATOM     10 H19  34D L   1       6.733   0.293  -1.373  1.00  0.00    +0.0633  H
ATOM     11 H20  34D L   1       7.953  -4.250  -2.955  1.00  0.00    +0.0637  H
ENDROOT
BRANCH 1 13
ATOM     12  C1  34D L   1       4.522  -4.605  -2.064  1.00  0.00    -0.0031  C
ATOM     13  C2  34D L   1       5.189  -3.751  -3.140  1.00  0.00    +0.1539  C
ATOM     14  N3  34D L   1       4.131  -2.949  -3.812  1.00  0.00    -0.1890  N
ATOM     15 H12  34D L   1       3.969  -4.000  -1.338  1.00  0.00    +0.0292  H
ATOM     16 H13  34D L   1       3.809  -5.306  -2.514  1.00  0.00    +0.0292  H
ATOM     17 H14  34D L   1       5.266  -5.195  -1.516  1.00  0.00    +0.0292  H
ATOM     18 H15  34D L   1       5.577  -4.427  -3.912  1.00  0.00    +0.1051  H
ATOM     19 H16  34D L   1       3.767  -2.212  -3.195  1.00  0.00    +0.4057 HD
ATOM     20 H17  34D L   1       3.341  -3.528  -4.124  1.00  0.00    +0.4057 HD
ENDBRANCH 1 13
TORSDOF 1
ENDMDL
MODEL 2
REMARK VINA RESULT:    -6.674      0.987      2.077
REMARK INTER + INTRA:          -7.136
REMARK INTER:                  -7.076
REMARK INTRA:                  -0.060
REMARK UNBOUND:                -0.072
ROOT
ATOM      1  C4  34D L   1       6.678  -2.868  -2.726  1.00  0.00    +0.0156  A
ATOM      2  C5  34D L   1       7.916  -3.344  -3.194  1.00  0.00    -0.0513  A
ATOM      3  C6  34D L   1       9.113  -2.716  -2.829  1.00  0.00    -0.0415  A
ATOM      4  C7  34D L   1       9.100  -1.596  -1.996  1.00  0.00    +0.0593  A
ATOM      5 CL8  34D L   1      10.611  -0.871  -1.593  1.00  0.00    -0.0820 Cl
ATOM      6  C9  34D L   1       7.880  -1.104  -1.529  1.00  0.00    +0.0597  A
ATOM      7 CL10 34D L   1       7.768   0.283  -0.507  1.00  0.00    -0.0820 Cl
ATOM      8 C11  34D L   1       6.679  -1.734  -1.895  1.00  0.00    -0.0330  A
ATOM      9 H18  34D L   1       7.976  -4.216  -3.847  1.00  0.00    +0.0623  H
ATOM     10 H19  34D L   1      10.060  -3.108  -3.199  1.00  0.00    +0.0633  H
ATOM     11 H20  34D L   1       5.752  -1.318  -1.504  1.00  0.00    +0.0637  H
ENDROOT
BRANCH 1 13
ATOM     12  C1  34D L   1       4.720  -4.422  -2.114  1.00  0.00    -0.0031  C
ATOM     13  C2  34D L   1       5.406  -3.560  -3.171  1.00  0.00    +0.1539  C
ATOM     14  N3  34D L   1       4.419  -2.561  -3.662  1.00  0.00    -0.1890  N
ATOM     15 H12  34D L   1       4.321  -3.825  -1.286  1.00  0.00    +0.0292  H
ATOM     16 H13  34D L   1       3.879  -4.973  -2.551  1.00  0.00    +0.0292  H
ATOM     17 H14  34D L   1       5.417  -5.158  -1.696  1.00  0.00    +0.0292  H
ATOM     18 H15  34D L   1       5.628  -4.200  -4.033  1.00  0.00    +0.1051  H
ATOM     19 H16  34D L   1       4.217  -1.848  -2.950  1.00  0.00    +0.4057 HD
ATOM     20 H17  34D L   1       3.532  -2.996  -3.945  1.00  0.00    +0.4057 HD
ENDBRANCH 1 13
TORSDOF 1
ENDMDL
MODEL 3
REMARK VINA RESULT:    -6.192      3.422      4.640
REMARK INTER + INTRA:          -6.626
REMARK INTER:                  -6.552
REMARK INTRA:                  -0.074
REMARK UNBOUND:                -0.072
ROOT
ATOM      1  C4  34D L   1       7.498  -2.479  -2.273  1.00  0.00    +0.0156  A
ATOM      2  C5  34D L   1       7.190  -2.523  -3.644  1.00  0.00    -0.0513  A
ATOM      3  C6  34D L   1       6.010  -3.125  -4.097  1.00  0.00    -0.0415  A
ATOM      4  C7  34D L   1       5.117  -3.703  -3.194  1.00  0.00    +0.0593  A
ATOM      5 CL8  34D L   1       3.688  -4.433  -3.825  1.00  0.00    -0.0820 Cl
ATOM      6  C9  34D L   1       5.411  -3.678  -1.829  1.00  0.00    +0.0597  A
ATOM      7 CL10 34D L   1       4.372  -4.381  -0.643  1.00  0.00    -0.0820 Cl
ATOM      8 C11  34D L   1       6.594  -3.073  -1.374  1.00  0.00    -0.0330  A
ATOM      9 H18  34D L   1       7.856  -2.084  -4.387  1.00  0.00    +0.0623  H
ATOM     10 H19  34D L   1       5.790  -3.140  -5.165  1.00  0.00    +0.0633  H
ATOM     11 H20  34D L   1       6.780  -3.074  -0.301  1.00  0.00    +0.0637  H
ENDROOT
BRANCH 1 13
ATOM     12  C1  34D L   1      10.068  -2.602  -2.212  1.00  0.00    -0.0031  C
ATOM     13  C2  34D L   1       8.799  -1.844  -1.829  1.00  0.00    +0.1539  C
ATOM     14  N3  34D L   1       8.909  -0.461  -2.367  1.00  0.00    -0.1890  N
ATOM     15 H12  34D L   1      10.232  -2.615  -3.295  1.00  0.00    +0.0292  H
ATOM     16 H13  34D L   1      10.949  -2.137  -1.755  1.00  0.00    +0.0292  H
ATOM     17 H14  34D L   1      10.023  -3.641  -1.864  1.00  0.00    +0.0292  H
ATOM     18 H15  34D L   1       8.792  -1.733  -0.737  1.00  0.00    +0.1051  H
ATOM     19 H16  34D L   1       8.826  -0.447  -3.391  1.00  0.00    +0.4057 HD
ATOM     20 H17  34D L   1       9.796  -0.012  -2.108  1.00  0.00    +0.4057 HD
ENDBRANCH 1 13
TORSDOF 1
ENDMDL
MODEL 4
REMARK VINA RESULT:    -6.008      4.883      6.498
REMARK INTER + INTRA:          -6.432
REMARK INTER:                  -6.377
REMARK INTRA:                  -0.054
REMARK UNBOUND:                -0.072
ROOT
ATOM      1  C4  34D L   1       3.332  -5.188   1.247  1.00  0.00    +0.0156  A
ATOM      2  C5  34D L   1       2.239  -5.958   0.814  1.00  0.00    -0.0513  A
ATOM      3  C6  34D L   1       2.012  -6.182  -0.549  1.00  0.00    -0.0415  A
ATOM      4  C7  34D L   1       2.866  -5.636  -1.509  1.00  0.00    +0.0593  A
ATOM      5 CL8  34D L   1       2.521  -5.947  -3.169  1.00  0.00    -0.0820 Cl
ATOM      6  C9  34D L   1       3.952  -4.860  -1.098  1.00  0.00    +0.0597  A
ATOM      7 CL10 34D L   1       5.050  -4.134  -2.214  1.00  0.00    -0.0820 Cl
ATOM      8 C11  34D L   1       4.180  -4.637   0.270  1.00  0.00    -0.0330  A
ATOM      9 H18  34D L   1       1.545  -6.406   1.526  1.00  0.00    +0.0623  H
ATOM     10 H19  34D L   1       1.161  -6.789  -0.861  1.00  0.00    +0.0633  H
ATOM     11 H20  34D L   1       5.040  -4.029   0.545  1.00  0.00    +0.0637  H
ENDROOT
BRANCH 1 13
ATOM     12  C1  34D L   1       4.971  -4.818   3.198  1.00  0.00    -0.0031  C
ATOM     13  C2  34D L   1       3.522  -4.947   2.731  1.00  0.00    +0.1539  C
ATOM     14  N3  34D L   1       2.791  -3.722   3.153  1.00  0.00    -0.1890  N
ATOM     15 H12  34D L   1       5.454  -3.917   2.804  1.00  0.00    +0.0292  H
ATOM     16 H13  34D L   1       5.020  -4.762   4.292  1.00  0.00    +0.0292  H
ATOM     17 H14  34D L   1       5.562  -5.685   2.883  1.00  0.00    +0.0292  H
ATOM     18 H15  34D L   1       3.062  -5.771   3.291  1.00  0.00    +0.1051  H
ATOM     19 H16  34D L   1       3.084  -2.901   2.609  1.00  0.00    +0.4057 HD
ATOM     20 H17  34D L   1       2.924  -3.514   4.151  1.00  0.00    +0.4057 HD
ENDBRANCH 1 13
TORSDOF 1
ENDMDL
MODEL 5
REMARK VINA RESULT:    -6.004      4.940      6.731
REMARK INTER + INTRA:          -6.427
REMARK INTER:                  -6.362
REMARK INTRA:                  -0.065
REMARK UNBOUND:                -0.072
ROOT
ATOM      1  C4  34D L   1       3.841  -4.503  -3.874  1.00  0.00    +0.0156  A
ATOM      2  C5  34D L   1       3.495  -4.783  -5.208  1.00  0.00    -0.0513  A
ATOM      3  C6  34D L   1       2.620  -5.830  -5.519  1.00  0.00    -0.0415  A
ATOM      4  C7  34D L   1       2.078  -6.626  -4.508  1.00  0.00    +0.0593  A
ATOM      5 CL8  34D L   1       1.014  -7.902  -4.965  1.00  0.00    -0.0820 Cl
ATOM      6  C9  34D L   1       2.418  -6.368  -3.178  1.00  0.00    +0.0597  A
ATOM      7 CL10 34D L   1       1.808  -7.308  -1.865  1.00  0.00    -0.0820 Cl
ATOM      8 C11  34D L   1       3.296  -5.317  -2.866  1.00  0.00    -0.0330  A
ATOM      9 H18  34D L   1       3.893  -4.189  -6.032  1.00  0.00    +0.0623  H
ATOM     10 H19  34D L   1       2.361  -6.024  -6.560  1.00  0.00    +0.0633  H
ATOM     11 H20  34D L   1       3.530  -5.151  -1.816  1.00  0.00    +0.0637  H
ENDROOT
BRANCH 1 13
ATOM     12  C1  34D L   1       5.518  -3.446  -2.232  1.00  0.00    -0.0031  C
ATOM     13  C2  34D L   1       4.815  -3.379  -3.586  1.00  0.00    +0.1539  C
ATOM     14  N3  34D L   1       5.860  -3.316  -4.644  1.00  0.00    -0.1890  N
ATOM     15 H12  34D L   1       6.200  -4.300  -2.160  1.00  0.00    +0.0292  H
ATOM     16 H13  34D L   1       6.111  -2.540  -2.059  1.00  0.00    +0.0292  H
ATOM     17 H14  34D L   1       4.789  -3.525  -1.417  1.00  0.00    +0.0292  H
ATOM     18 H15  34D L   1       4.284  -2.421  -3.641  1.00  0.00    +0.1051  H
ATOM     19 H16  34D L   1       6.354  -4.212  -4.740  1.00  0.00    +0.4057 HD
ATOM     20 H17  34D L   1       6.555  -2.581  -4.462  1.00  0.00    +0.4057 HD
ENDBRANCH 1 13
TORSDOF 1
ENDMDL
MODEL 6
REMARK VINA RESULT:    -5.890      3.616      4.984
REMARK INTER + INTRA:          -6.307
REMARK INTER:                  -6.228
REMARK INTRA:                  -0.079
REMARK UNBOUND:                -0.072
ROOT
ATOM      1  C4  34D L   1       2.730  -5.504  -2.530  1.00  0.00    +0.0156  A
ATOM      2  C5  34D L   1       3.650  -4.850  -3.369  1.00  0.00    -0.0513  A
ATOM      3  C6  34D L   1       4.740  -4.152  -2.835  1.00  0.00    -0.0415  A
ATOM      4  C7  34D L   1       4.930  -4.085  -1.453  1.00  0.00    +0.0593  A
ATOM      5 CL8  34D L   1       6.289  -3.201  -0.866  1.00  0.00    -0.0820 Cl
ATOM      6  C9  34D L   1       4.021  -4.720  -0.605  1.00  0.00    +0.0597  A
ATOM      7 CL10 34D L   1       4.170  -4.677   1.114  1.00  0.00    -0.0820 Cl
ATOM      8 C11  34D L   1       2.928  -5.421  -1.141  1.00  0.00    -0.0330  A
ATOM      9 H18  34D L   1       3.543  -4.875  -4.454  1.00  0.00    +0.0623  H
ATOM     10 H19  34D L   1       5.443  -3.659  -3.505  1.00  0.00    +0.0633  H
ATOM     11 H20  34D L   1       2.247  -5.904  -0.442  1.00  0.00    +0.0637  H
ENDROOT
BRANCH 1 13
ATOM     12  C1  34D L   1       1.897  -7.336  -4.135  1.00  0.00    -0.0031  C
ATOM     13  C2  34D L   1       1.549  -6.222  -3.150  1.00  0.00    +0.1539  C
ATOM     14  N3  34D L   1       0.680  -6.799  -2.090  1.00  0.00    -0.1890  N
ATOM     15 H12  34D L   1       2.388  -8.184  -3.644  1.00  0.00    +0.0292  H
ATOM     16 H13  34D L   1       0.992  -7.720  -4.619  1.00  0.00    +0.0292  H
ATOM     17 H14  34D L   1       2.564  -6.968  -4.923  1.00  0.00    +0.0292  H
ATOM     18 H15  34D L   1       0.921  -5.493  -3.678  1.00  0.00    +0.1051  H
ATOM     19 H16  34D L   1       1.207  -7.429  -1.471  1.00  0.00    +0.4057 HD
ATOM     20 H17  34D L   1      -0.116  -7.319  -2.479  1.00  0.00    +0.4057 HD
ENDBRANCH 1 13
TORSDOF 1
ENDMDL
MODEL 7
REMARK VINA RESULT:    -5.878      3.469      4.592
REMARK INTER + INTRA:          -6.293
REMARK INTER:                  -6.215
REMARK INTRA:                  -0.079
REMARK UNBOUND:                -0.072
ROOT
ATOM      1  C4  34D L   1       7.465  -1.860  -2.187  1.00  0.00    +0.0156  A
ATOM      2  C5  34D L   1       7.071  -2.427  -0.962  1.00  0.00    -0.0513  A
ATOM      3  C6  34D L   1       6.049  -3.383  -0.907  1.00  0.00    -0.0415  A
ATOM      4  C7  34D L   1       5.393  -3.787  -2.071  1.00  0.00    +0.0593  A
ATOM      5 CL8  34D L   1       4.139  -4.961  -1.927  1.00  0.00    -0.0820 Cl
ATOM      6  C9  34D L   1       5.764  -3.227  -3.296  1.00  0.00    +0.0597  A
ATOM      7 CL10 34D L   1       4.999  -3.656  -4.783  1.00  0.00    -0.0820 Cl
ATOM      8 C11  34D L   1       6.790  -2.269  -3.351  1.00  0.00    -0.0330  A
ATOM      9 H18  34D L   1       7.554  -2.144  -0.027  1.00  0.00    +0.0623  H
ATOM     10 H19  34D L   1       5.766  -3.813   0.053  1.00  0.00    +0.0633  H
ATOM     11 H20  34D L   1       7.048  -1.863  -4.327  1.00  0.00    +0.0637  H
ENDROOT
BRANCH 1 13
ATOM     12  C1  34D L   1       8.429   0.280  -1.133  1.00  0.00    -0.0031  C
ATOM     13  C2  34D L   1       8.555  -0.808  -2.196  1.00  0.00    +0.1539  C
ATOM     14  N3  34D L   1       9.890  -1.447  -2.047  1.00  0.00    -0.1890  N
ATOM     15 H12  34D L   1       8.565  -0.113  -0.119  1.00  0.00    +0.0292  H
ATOM     16 H13  34D L   1       9.188   1.058  -1.284  1.00  0.00    +0.0292  H
ATOM     17 H14  34D L   1       7.446   0.763  -1.180  1.00  0.00    +0.0292  H
ATOM     18 H15  34D L   1       8.573  -0.318  -3.177  1.00  0.00    +0.1051  H
ATOM     19 H16  34D L   1       9.942  -2.019  -1.194  1.00  0.00    +0.4057 HD
ATOM     20 H17  34D L   1      10.651  -0.756  -2.019  1.00  0.00    +0.4057 HD
ENDBRANCH 1 13
TORSDOF 1
ENDMDL
MODEL 8
REMARK VINA RESULT:    -5.874      5.082      6.581
REMARK INTER + INTRA:          -6.290
REMARK INTER:                  -6.204
REMARK INTRA:                  -0.086
REMARK UNBOUND:                -0.072
ROOT
ATOM      1  C4  34D L   1       3.316  -5.197   0.937  1.00  0.00    +0.0156  A
ATOM      2  C5  34D L   1       4.373  -4.527   0.294  1.00  0.00    -0.0513  A
ATOM      3  C6  34D L   1       4.436  -4.459  -1.103  1.00  0.00    -0.0415  A
ATOM      4  C7  34D L   1       3.452  -5.063  -1.888  1.00  0.00    +0.0593  A
ATOM      5 CL8  34D L   1       3.599  -4.944  -3.602  1.00  0.00    -0.0820 Cl
ATOM      6  C9  34D L   1       2.401  -5.740  -1.267  1.00  0.00    +0.0597  A
ATOM      7 CL10 34D L   1       1.149  -6.528  -2.157  1.00  0.00    -0.0820 Cl
ATOM      8 C11  34D L   1       2.337  -5.808   0.135  1.00  0.00    -0.0330  A
ATOM      9 H18  34D L   1       5.164  -4.040   0.864  1.00  0.00    +0.0623  H
ATOM     10 H19  34D L   1       5.261  -3.928  -1.579  1.00  0.00    +0.0633  H
ATOM     11 H20  34D L   1       1.498  -6.344   0.575  1.00  0.00    +0.0637  H
ENDROOT
BRANCH 1 13
ATOM     12  C1  34D L   1       4.603  -4.865   3.141  1.00  0.00    -0.0031  C
ATOM     13  C2  34D L   1       3.303  -5.272   2.450  1.00  0.00    +0.1539  C
ATOM     14  N3  34D L   1       2.207  -4.430   3.000  1.00  0.00    -0.1890  N
ATOM     15 H12  34D L   1       4.825  -3.800   3.015  1.00  0.00    +0.0292  H
ATOM     16 H13  34D L   1       4.544  -5.059   4.219  1.00  0.00    +0.0292  H
ATOM     17 H14  34D L   1       5.451  -5.437   2.748  1.00  0.00    +0.0292  H
ATOM     18 H15  34D L   1       3.067  -6.298   2.757  1.00  0.00    +0.1051  H
ATOM     19 H16  34D L   1       2.284  -3.456   2.683  1.00  0.00    +0.4057 HD
ATOM     20 H17  34D L   1       2.189  -4.436   4.027  1.00  0.00    +0.4057 HD
ENDBRANCH 1 13
TORSDOF 1
ENDMDL
MODEL 9
REMARK VINA RESULT:    -5.843      4.005      5.244
REMARK INTER + INTRA:          -6.257
REMARK INTER:                  -6.171
REMARK INTRA:                  -0.086
REMARK UNBOUND:                -0.072
ROOT
ATOM      1  C4  34D L   1       5.494  -2.993  -2.841  1.00  0.00    +0.0156  A
ATOM      2  C5  34D L   1       5.236  -3.681  -1.643  1.00  0.00    -0.0513  A
ATOM      3  C6  34D L   1       4.339  -4.755  -1.608  1.00  0.00    -0.0415  A
ATOM      4  C7  34D L   1       3.673  -5.160  -2.767  1.00  0.00    +0.0593  A
ATOM      5 CL8  34D L   1       2.577  -6.485  -2.648  1.00  0.00    -0.0820 Cl
ATOM      6  C9  34D L   1       3.909  -4.482  -3.965  1.00  0.00    +0.0597  A
ATOM      7 CL10 34D L   1       3.121  -4.904  -5.441  1.00  0.00    -0.0820 Cl
ATOM      8 C11  34D L   1       4.810  -3.405  -3.999  1.00  0.00    -0.0330  A
ATOM      9 H18  34D L   1       5.732  -3.402  -0.713  1.00  0.00    +0.0623  H
ATOM     10 H19  34D L   1       4.161  -5.278  -0.669  1.00  0.00    +0.0633  H
ATOM     11 H20  34D L   1       4.966  -2.909  -4.955  1.00  0.00    +0.0637  H
ENDROOT
BRANCH 1 13
ATOM     12  C1  34D L   1       6.856  -1.316  -1.442  1.00  0.00    -0.0031  C
ATOM     13  C2  34D L   1       6.450  -1.818  -2.826  1.00  0.00    +0.1539  C
ATOM     14  N3  34D L   1       7.689  -2.150  -3.578  1.00  0.00    -0.1890  N
ATOM     15 H12  34D L   1       7.461  -2.049  -0.897  1.00  0.00    +0.0292  H
ATOM     16 H13  34D L   1       7.451  -0.399  -1.524  1.00  0.00    +0.0292  H
ATOM     17 H14  34D L   1       5.974  -1.086  -0.835  1.00  0.00    +0.0292  H
ATOM     18 H15  34D L   1       5.995  -0.978  -3.367  1.00  0.00    +0.1051  H
ATOM     19 H16  34D L   1       8.142  -2.994  -3.205  1.00  0.00    +0.4057 HD
ATOM     20 H17  34D L   1       8.373  -1.383  -3.562  1.00  0.00    +0.4057 HD
ENDBRANCH 1 13
TORSDOF 1
ENDMDL
MODEL 10
REMARK VINA RESULT:    -5.836      4.751      6.018
REMARK INTER + INTRA:          -6.250
REMARK INTER:                  -6.177
REMARK INTRA:                  -0.073
REMARK UNBOUND:                -0.072
ROOT
ATOM      1  C4  34D L   1       2.041  -6.319  -4.242  1.00  0.00    +0.0156  A
ATOM      2  C5  34D L   1       2.471  -5.759  -5.458  1.00  0.00    -0.0513  A
ATOM      3  C6  34D L   1       3.511  -4.822  -5.490  1.00  0.00    -0.0415  A
ATOM      4  C7  34D L   1       4.137  -4.416  -4.310  1.00  0.00    +0.0593  A
ATOM      5 CL8  34D L   1       5.403  -3.253  -4.424  1.00  0.00    -0.0820 Cl
ATOM      6  C9  34D L   1       3.715  -4.954  -3.092  1.00  0.00    +0.0597  A
ATOM      7 CL10 34D L   1       4.421  -4.500  -1.583  1.00  0.00    -0.0820 Cl
ATOM      8 C11  34D L   1       2.673  -5.895  -3.060  1.00  0.00    -0.0330  A
ATOM      9 H18  34D L   1       2.014  -6.045  -6.405  1.00  0.00    +0.0623  H
ATOM     10 H19  34D L   1       3.832  -4.407  -6.445  1.00  0.00    +0.0633  H
ATOM     11 H20  34D L   1       2.381  -6.290  -2.088  1.00  0.00    +0.0637  H
ENDROOT
BRANCH 1 13
ATOM     12  C1  34D L   1      -0.504  -6.696  -4.332  1.00  0.00    -0.0031  C
ATOM     13  C2  34D L   1       0.893  -7.307  -4.251  1.00  0.00    +0.1539  C
ATOM     14  N3  34D L   1       1.043  -8.264  -5.380  1.00  0.00    -0.1890  N
ATOM     15 H12  34D L   1      -0.684  -6.200  -5.292  1.00  0.00    +0.0292  H
ATOM     16 H13  34D L   1      -1.272  -7.469  -4.216  1.00  0.00    +0.0292  H
ATOM     17 H14  34D L   1      -0.655  -5.957  -3.536  1.00  0.00    +0.0292  H
ATOM     18 H15  34D L   1       0.938  -7.919  -3.341  1.00  0.00    +0.1051  H
ATOM     19 H16  34D L   1       1.112  -7.775  -6.282  1.00  0.00    +0.4057 HD
ATOM     20 H17  34D L   1       0.264  -8.931  -5.432  1.00  0.00    +0.4057 HD
ENDBRANCH 1 13
TORSDOF 1
ENDMDL
MODEL 11
REMARK VINA RESULT:    -5.829      2.147      2.462
REMARK INTER + INTRA:          -6.242
REMARK INTER:                  -6.171
REMARK INTRA:                  -0.071
REMARK UNBOUND:                -0.072
ROOT
ATOM      1  C4  34D L   1       7.897  -1.668  -2.723  1.00  0.00    +0.0156  A
ATOM      2  C5  34D L   1       6.803  -1.110  -2.039  1.00  0.00    -0.0513  A
ATOM      3  C6  34D L   1       6.996  -0.172  -1.018  1.00  0.00    -0.0415  A
ATOM      4  C7  34D L   1       8.284   0.223  -0.652  1.00  0.00    +0.0593  A
ATOM      5 CL8  34D L   1       8.445   1.376   0.619  1.00  0.00    -0.0820 Cl
ATOM      6  C9  34D L   1       9.383  -0.329  -1.313  1.00  0.00    +0.0597  A
ATOM      7 CL10 34D L   1      11.010   0.089  -0.917  1.00  0.00    -0.0820 Cl
ATOM      8 C11  34D L   1       9.189  -1.269  -2.339  1.00  0.00    -0.0330  A
ATOM      9 H18  34D L   1       5.778  -1.387  -2.291  1.00  0.00    +0.0623  H
ATOM     10 H19  34D L   1       6.131   0.252  -0.507  1.00  0.00    +0.0633  H
ATOM     11 H20  34D L   1      10.075  -1.669  -2.829  1.00  0.00    +0.0637  H
ENDROOT
BRANCH 1 13
ATOM     12  C1  34D L   1       8.304  -4.061  -3.581  1.00  0.00    -0.0031  C
ATOM     13  C2  34D L   1       7.643  -2.702  -3.802  1.00  0.00    +0.1539  C
ATOM     14  N3  34D L   1       6.182  -2.922  -3.972  1.00  0.00    -0.1890  N
ATOM     15 H12  34D L   1       7.884  -4.591  -2.719  1.00  0.00    +0.0292  H
ATOM     16 H13  34D L   1       8.166  -4.704  -4.458  1.00  0.00    +0.0292  H
ATOM     17 H14  34D L   1       9.382  -3.950  -3.418  1.00  0.00    +0.0292  H
ATOM     18 H15  34D L   1       7.995  -2.310  -4.764  1.00  0.00    +0.1051  H
ATOM     19 H16  34D L   1       5.736  -3.199  -3.089  1.00  0.00    +0.4057 HD
ATOM     20 H17  34D L   1       5.976  -3.641  -4.678  1.00  0.00    +0.4057 HD
ENDBRANCH 1 13
TORSDOF 1
ENDMDL
MODEL 12
REMARK VINA RESULT:    -5.781      3.607      4.770
REMARK INTER + INTRA:          -6.191
REMARK INTER:                  -6.120
REMARK INTRA:                  -0.071
REMARK UNBOUND:                -0.072
ROOT
ATOM      1  C4  34D L   1       2.641  -5.466  -2.820  1.00  0.00    +0.0156  A
ATOM      2  C5  34D L   1       2.931  -5.465  -1.444  1.00  0.00    -0.0513  A
ATOM      3  C6  34D L   1       4.043  -4.777  -0.944  1.00  0.00    -0.0415  A
ATOM      4  C7  34D L   1       4.894  -4.082  -1.806  1.00  0.00    +0.0593  A
ATOM      5 CL8  34D L   1       6.248  -3.264  -1.121  1.00  0.00    -0.0820 Cl
ATOM      6  C9  34D L   1       4.626  -4.080  -3.177  1.00  0.00    +0.0597  A
ATOM      7 CL10 34D L   1       5.630  -3.261  -4.317  1.00  0.00    -0.0820 Cl
ATOM      8 C11  34D L   1       3.510  -4.770  -3.678  1.00  0.00    -0.0330  A
ATOM      9 H18  34D L   1       2.296  -5.993  -0.732  1.00  0.00    +0.0623  H
ATOM     10 H19  34D L   1       4.244  -4.785   0.127  1.00  0.00    +0.0633  H
ATOM     11 H20  34D L   1       3.339  -4.738  -4.753  1.00  0.00    +0.0637  H
ENDROOT
BRANCH 1 13
ATOM     12  C1  34D L   1       1.763  -7.427  -4.236  1.00  0.00    -0.0031  C
ATOM     13  C2  34D L   1       1.444  -6.248  -3.320  1.00  0.00    +0.1539  C
ATOM     14  N3  34D L   1       0.645  -6.759  -2.174  1.00  0.00    -0.1890  N
ATOM     15 H12  34D L   1       2.297  -8.228  -3.712  1.00  0.00    +0.0292  H
ATOM     16 H13  34D L   1       0.842  -7.862  -4.642  1.00  0.00    +0.0292  H
ATOM     17 H14  34D L   1       2.380  -7.108  -5.085  1.00  0.00    +0.0292  H
ATOM     18 H15  34D L   1       0.775  -5.571  -3.865  1.00  0.00    +0.1051  H
ATOM     19 H16  34D L   1       1.217  -7.332  -1.540  1.00  0.00    +0.4057 HD
ATOM     20 H17  34D L   1      -0.160  -7.320  -2.479  1.00  0.00    +0.4057 HD
ENDBRANCH 1 13
TORSDOF 1
ENDMDL
