MODEL 1
REMARK VINA RESULT:    -6.530      0.000      0.000
REMARK INTER + INTRA:          -6.836
REMARK INTER:                  -6.912
REMARK INTRA:                   0.076
REMARK UNBOUND:                 0.076
ROOT
ATOM      1  C4  26D L   1       8.007  -1.693  -1.623  1.00  0.00    +0.0507  A
ATOM      2  C5  26D L   1       8.663  -0.524  -1.175  1.00  0.00    +0.0513  A
ATOM      3 CL6  26D L   1       7.807   0.770  -0.407  1.00  0.00    -0.0830 Cl
ATOM      4  C7  26D L   1      10.042  -0.349  -1.337  1.00  0.00    -0.0428  A
ATOM      5  C8  26D L   1      10.804  -1.329  -1.959  1.00  0.00    -0.0590  A
ATOM      6  C9  26D L   1      10.186  -2.483  -2.428  1.00  0.00    -0.0428  A
ATOM      7 C10  26D L   1       8.806  -2.662  -2.269  1.00  0.00    +0.0513  A
ATOM      8 CL11 26D L   1       8.153  -4.130  -2.907  1.00  0.00    -0.0830 Cl
ATOM      9 H18  26D L   1      10.532   0.559  -0.983  1.00  0.00    +0.0632  H
ATOM     10 H19  26D L   1      11.876  -1.190  -2.088  1.00  0.00    +0.0618  H
ATOM     11 H20  26D L   1      10.791  -3.239  -2.927  1.00  0.00    +0.0632  H
ENDROOT
BRANCH 1 13
ATOM     12  C1  26D L   1       5.743  -1.585  -2.748  1.00  0.00    -0.0030  C
ATOM     13  C2  26D L   1       6.508  -1.841  -1.452  1.00  0.00    +0.1566  C
ATOM     14  N3  26D L   1       6.083  -3.162  -0.910  1.00  0.00    -0.1889  N
ATOM     15 H12  26D L   1       4.662  -1.632  -2.579  1.00  0.00    +0.0292  H
ATOM     16 H13  26D L   1       5.988  -2.312  -3.529  1.00  0.00    +0.0292  H
ATOM     17 H14  26D L   1       5.972  -0.588  -3.144  1.00  0.00    +0.0292  H
ATOM     18 H15  26D L   1       6.132  -1.149  -0.694  1.00  0.00    +0.1052  H
ATOM     19 H16  26D L   1       6.584  -3.393  -0.043  1.00  0.00    +0.4057 HD
ATOM     20 H17  26D L   1       5.075  -3.189  -0.711  1.00  0.00    +0.4057 HD
ENDBRANCH 1 13
TORSDOF 1
ENDMDL
MODEL 2
REMARK VINA RESULT:    -6.405      0.062      2.762
REMARK INTER + INTRA:          -6.704
REMARK INTER:                  -6.943
REMARK INTRA:                   0.239
REMARK UNBOUND:                 0.076
ROOT
ATOM      1  C4  26D L   1       7.983  -1.623  -1.661  1.00  0.00    +0.0507  A
ATOM      2  C5  26D L   1       8.783  -2.611  -2.278  1.00  0.00    +0.0513  A
ATOM      3 CL6  26D L   1       8.117  -4.095  -2.869  1.00  0.00    -0.0830 Cl
ATOM      4  C7  26D L   1      10.163  -2.442  -2.437  1.00  0.00    -0.0428  A
ATOM      5  C8  26D L   1      10.786  -1.289  -1.976  1.00  0.00    -0.0590  A
ATOM      6  C9  26D L   1      10.028  -0.306  -1.347  1.00  0.00    -0.0428  A
ATOM      7 C10  26D L   1       8.647  -0.472  -1.186  1.00  0.00    +0.0513  A
ATOM      8 CL11 26D L   1       7.819   0.812  -0.376  1.00  0.00    -0.0830 Cl
ATOM      9 H18  26D L   1      10.766  -3.213  -2.917  1.00  0.00    +0.0632  H
ATOM     10 H19  26D L   1      11.859  -1.159  -2.096  1.00  0.00    +0.0618  H
ATOM     11 H20  26D L   1      10.528   0.588  -0.977  1.00  0.00    +0.0632  H
ENDROOT
BRANCH 1 13
ATOM     12  C1  26D L   1       5.718  -1.674  -2.789  1.00  0.00    -0.0030  C
ATOM     13  C2  26D L   1       6.493  -1.849  -1.486  1.00  0.00    +0.1566  C
ATOM     14  N3  26D L   1       6.141  -3.175  -0.904  1.00  0.00    -0.1889  N
ATOM     15 H12  26D L   1       4.640  -1.776  -2.619  1.00  0.00    +0.0292  H
ATOM     16 H13  26D L   1       6.004  -2.409  -3.548  1.00  0.00    +0.0292  H
ATOM     17 H14  26D L   1       5.892  -0.678  -3.214  1.00  0.00    +0.0292  H
ATOM     18 H15  26D L   1       6.078  -1.157  -0.749  1.00  0.00    +0.1052  H
ATOM     19 H16  26D L   1       6.653  -3.352  -0.031  1.00  0.00    +0.4057 HD
ATOM     20 H17  26D L   1       5.136  -3.251  -0.704  1.00  0.00    +0.4057 HD
ENDBRANCH 1 13
TORSDOF 1
ENDMDL
MODEL 3
REMARK VINA RESULT:    -6.354      2.041      3.018
REMARK INTER + INTRA:          -6.650
REMARK INTER:                  -6.745
REMARK INTRA:                   0.095
REMARK UNBOUND:                 0.076
ROOT
ATOM      1  C4  26D L   1       8.071  -1.917  -2.326  1.00  0.00    +0.0507  A
ATOM      2  C5  26D L   1       9.436  -1.761  -1.993  1.00  0.00    +0.0513  A
ATOM      3 CL6  26D L   1      10.618  -2.966  -2.379  1.00  0.00    -0.0830 Cl
ATOM      4  C7  26D L   1       9.903  -0.623  -1.326  1.00  0.00    -0.0428  A
ATOM      5  C8  26D L   1       9.021   0.386  -0.962  1.00  0.00    -0.0590  A
ATOM      6  C9  26D L   1       7.669   0.254  -1.258  1.00  0.00    -0.0428  A
ATOM      7 C10  26D L   1       7.198  -0.883  -1.926  1.00  0.00    +0.0513  A
ATOM      8 CL11 26D L   1       5.495  -0.937  -2.223  1.00  0.00    -0.0830 Cl
ATOM      9 H18  26D L   1      10.960  -0.518  -1.079  1.00  0.00    +0.0632  H
ATOM     10 H19  26D L   1       9.384   1.269  -0.439  1.00  0.00    +0.0618  H
ATOM     11 H20  26D L   1       6.983   1.046  -0.956  1.00  0.00    +0.0632  H
ENDROOT
BRANCH 1 13
ATOM     12  C1  26D L   1       6.502  -3.901  -2.252  1.00  0.00    -0.0030  C
ATOM     13  C2  26D L   1       7.596  -3.173  -3.030  1.00  0.00    +0.1566  C
ATOM     14  N3  26D L   1       7.112  -2.947  -4.421  1.00  0.00    -0.1889  N
ATOM     15 H12  26D L   1       6.227  -4.837  -2.751  1.00  0.00    +0.0292  H
ATOM     16 H13  26D L   1       5.592  -3.300  -2.150  1.00  0.00    +0.0292  H
ATOM     17 H14  26D L   1       6.845  -4.152  -1.242  1.00  0.00    +0.0292  H
ATOM     18 H15  26D L   1       8.423  -3.870  -3.184  1.00  0.00    +0.1052  H
ATOM     19 H16  26D L   1       7.807  -2.441  -4.985  1.00  0.00    +0.4057 HD
ATOM     20 H17  26D L   1       6.897  -3.830  -4.901  1.00  0.00    +0.4057 HD
ENDBRANCH 1 13
TORSDOF 1
ENDMDL
MODEL 4
REMARK VINA RESULT:    -6.228      2.032      2.452
REMARK INTER + INTRA:          -6.516
REMARK INTER:                  -6.773
REMARK INTRA:                   0.257
REMARK UNBOUND:                 0.076
ROOT
ATOM      1  C4  26D L   1       8.039  -1.994  -2.269  1.00  0.00    +0.0507  A
ATOM      2  C5  26D L   1       7.168  -0.936  -1.925  1.00  0.00    +0.0513  A
ATOM      3 CL6  26D L   1       5.469  -1.003  -2.252  1.00  0.00    -0.0830 Cl
ATOM      4  C7  26D L   1       7.636   0.228  -1.305  1.00  0.00    -0.0428  A
ATOM      5  C8  26D L   1       8.988   0.375  -1.022  1.00  0.00    -0.0590  A
ATOM      6  C9  26D L   1       9.874  -0.640  -1.365  1.00  0.00    -0.0428  A
ATOM      7 C10  26D L   1       9.409  -1.807  -1.985  1.00  0.00    +0.0513  A
ATOM      8 CL11 26D L   1      10.610  -2.988  -2.377  1.00  0.00    -0.0830 Cl
ATOM      9 H18  26D L   1       6.949   1.034  -1.045  1.00  0.00    +0.0632  H
ATOM     10 H19  26D L   1       9.353   1.282  -0.544  1.00  0.00    +0.0618  H
ATOM     11 H20  26D L   1      10.935  -0.509  -1.151  1.00  0.00    +0.0632  H
ENDROOT
BRANCH 1 13
ATOM     12  C1  26D L   1       6.372  -3.896  -2.174  1.00  0.00    -0.0030  C
ATOM     13  C2  26D L   1       7.501  -3.233  -2.960  1.00  0.00    +0.1566  C
ATOM     14  N3  26D L   1       7.027  -2.997  -4.353  1.00  0.00    -0.1889  N
ATOM     15 H12  26D L   1       6.050  -4.822  -2.661  1.00  0.00    +0.0292  H
ATOM     16 H13  26D L   1       5.494  -3.250  -2.077  1.00  0.00    +0.0292  H
ATOM     17 H14  26D L   1       6.704  -4.153  -1.161  1.00  0.00    +0.0292  H
ATOM     18 H15  26D L   1       8.292  -3.972  -3.107  1.00  0.00    +0.1052  H
ATOM     19 H16  26D L   1       7.745  -2.533  -4.922  1.00  0.00    +0.4057 HD
ATOM     20 H17  26D L   1       6.767  -3.874  -4.823  1.00  0.00    +0.4057 HD
ENDBRANCH 1 13
TORSDOF 1
ENDMDL
MODEL 5
REMARK VINA RESULT:    -5.968      2.451      3.370
REMARK INTER + INTRA:          -6.241
REMARK INTER:                  -6.278
REMARK INTRA:                   0.036
REMARK UNBOUND:                 0.076
ROOT
ATOM      1  C4  26D L   1       8.092  -1.486  -2.066  1.00  0.00    +0.0507  A
ATOM      2  C5  26D L   1       7.042  -2.393  -2.335  1.00  0.00    +0.0513  A
ATOM      3 CL6  26D L   1       5.390  -1.884  -2.429  1.00  0.00    -0.0830 Cl
ATOM      4  C7  26D L   1       7.284  -3.757  -2.534  1.00  0.00    -0.0428  A
ATOM      5  C8  26D L   1       8.579  -4.257  -2.459  1.00  0.00    -0.0590  A
ATOM      6  C9  26D L   1       9.631  -3.392  -2.177  1.00  0.00    -0.0428  A
ATOM      7 C10  26D L   1       9.393  -2.027  -1.978  1.00  0.00    +0.0513  A
ATOM      8 CL11 26D L   1      10.780  -1.059  -1.619  1.00  0.00    -0.0830 Cl
ATOM      9 H18  26D L   1       6.463  -4.443  -2.743  1.00  0.00    +0.0632  H
ATOM     10 H19  26D L   1       8.767  -5.318  -2.609  1.00  0.00    +0.0618  H
ATOM     11 H20  26D L   1      10.641  -3.797  -2.107  1.00  0.00    +0.0632  H
ENDROOT
BRANCH 1 13
ATOM     12  C1  26D L   1       8.033   0.407  -0.388  1.00  0.00    -0.0030  C
ATOM     13  C2  26D L   1       7.790  -0.018  -1.834  1.00  0.00    +0.1566  C
ATOM     14  N3  26D L   1       8.543   0.908  -2.728  1.00  0.00    -0.1889  N
ATOM     15 H12  26D L   1       7.744   1.453  -0.236  1.00  0.00    +0.0292  H
ATOM     16 H13  26D L   1       9.082   0.308  -0.093  1.00  0.00    +0.0292  H
ATOM     17 H14  26D L   1       7.439  -0.204   0.301  1.00  0.00    +0.0292  H
ATOM     18 H15  26D L   1       6.752   0.212  -2.086  1.00  0.00    +0.1052  H
ATOM     19 H16  26D L   1       8.428   0.653  -3.717  1.00  0.00    +0.4057 HD
ATOM     20 H17  26D L   1       8.238   1.883  -2.614  1.00  0.00    +0.4057 HD
ENDBRANCH 1 13
TORSDOF 1
ENDMDL
MODEL 6
REMARK VINA RESULT:    -5.952      2.442      3.217
REMARK INTER + INTRA:          -6.224
REMARK INTER:                  -6.427
REMARK INTRA:                   0.203
REMARK UNBOUND:                 0.076
ROOT
ATOM      1  C4  26D L   1       8.028  -1.500  -2.022  1.00  0.00    +0.0507  A
ATOM      2  C5  26D L   1       9.336  -2.032  -1.975  1.00  0.00    +0.0513  A
ATOM      3 CL6  26D L   1      10.717  -1.043  -1.642  1.00  0.00    -0.0830 Cl
ATOM      4  C7  26D L   1       9.584  -3.390  -2.204  1.00  0.00    -0.0428  A
ATOM      5  C8  26D L   1       8.537  -4.254  -2.498  1.00  0.00    -0.0590  A
ATOM      6  C9  26D L   1       7.239  -3.757  -2.570  1.00  0.00    -0.0428  A
ATOM      7 C10  26D L   1       6.987  -2.399  -2.341  1.00  0.00    +0.0513  A
ATOM      8 CL11 26D L   1       5.337  -1.901  -2.474  1.00  0.00    -0.0830 Cl
ATOM      9 H18  26D L   1      10.600  -3.784  -2.162  1.00  0.00    +0.0632  H
ATOM     10 H19  26D L   1       8.730  -5.309  -2.680  1.00  0.00    +0.0618  H
ATOM     11 H20  26D L   1       6.426  -4.440  -2.814  1.00  0.00    +0.0632  H
ENDROOT
BRANCH 1 13
ATOM     12  C1  26D L   1       8.103   0.403  -0.355  1.00  0.00    -0.0030  C
ATOM     13  C2  26D L   1       7.798  -0.019  -1.791  1.00  0.00    +0.1566  C
ATOM     14  N3  26D L   1       8.561   0.869  -2.713  1.00  0.00    -0.1889  N
ATOM     15 H12  26D L   1       7.864   1.461  -0.201  1.00  0.00    +0.0292  H
ATOM     16 H13  26D L   1       9.156   0.260  -0.093  1.00  0.00    +0.0292  H
ATOM     17 H14  26D L   1       7.505  -0.179   0.356  1.00  0.00    +0.0292  H
ATOM     18 H15  26D L   1       6.763   0.254  -2.012  1.00  0.00    +0.1052  H
ATOM     19 H16  26D L   1       8.405   0.615  -3.696  1.00  0.00    +0.4057 HD
ATOM     20 H17  26D L   1       8.302   1.857  -2.596  1.00  0.00    +0.4057 HD
ENDBRANCH 1 13
TORSDOF 1
ENDMDL
MODEL 7
REMARK VINA RESULT:    -5.617      3.280      5.329
REMARK INTER + INTRA:          -5.870
REMARK INTER:                  -5.915
REMARK INTRA:                   0.046
REMARK UNBOUND:                 0.076
ROOT
ATOM      1  C4  26D L   1       5.265  -3.743  -1.789  1.00  0.00    +0.0507  A
ATOM      2  C5  26D L   1       4.432  -4.485  -0.921  1.00  0.00    +0.0513  A
ATOM      3 CL6  26D L   1       4.679  -4.505   0.792  1.00  0.00    -0.0830 Cl
ATOM      4  C7  26D L   1       3.365  -5.250  -1.404  1.00  0.00    -0.0428  A
ATOM      5  C8  26D L   1       3.104  -5.306  -2.768  1.00  0.00    -0.0590  A
ATOM      6  C9  26D L   1       3.917  -4.602  -3.650  1.00  0.00    -0.0428  A
ATOM      7 C10  26D L   1       4.986  -3.835  -3.170  1.00  0.00    +0.0513  A
ATOM      8 CL11 26D L   1       5.932  -3.019  -4.366  1.00  0.00    -0.0830 Cl
ATOM      9 H18  26D L   1       2.731  -5.815  -0.720  1.00  0.00    +0.0632  H
ATOM     10 H19  26D L   1       2.277  -5.904  -3.144  1.00  0.00    +0.0618  H
ATOM     11 H20  26D L   1       3.712  -4.663  -4.719  1.00  0.00    +0.0632  H
ENDROOT
BRANCH 1 13
ATOM     12  C1  26D L   1       7.778  -3.458  -1.718  1.00  0.00    -0.0030  C
ATOM     13  C2  26D L   1       6.426  -2.941  -1.233  1.00  0.00    +0.1566  C
ATOM     14  N3  26D L   1       6.352  -1.481  -1.519  1.00  0.00    -0.1889  N
ATOM     15 H12  26D L   1       8.599  -2.904  -1.249  1.00  0.00    +0.0292  H
ATOM     16 H13  26D L   1       7.896  -3.368  -2.802  1.00  0.00    +0.0292  H
ATOM     17 H14  26D L   1       7.904  -4.516  -1.461  1.00  0.00    +0.0292  H
ATOM     18 H15  26D L   1       6.427  -2.963  -0.141  1.00  0.00    +0.1052  H
ATOM     19 H16  26D L   1       5.450  -1.084  -1.228  1.00  0.00    +0.4057 HD
ATOM     20 H17  26D L   1       7.097  -0.958  -1.041  1.00  0.00    +0.4057 HD
ENDBRANCH 1 13
TORSDOF 1
ENDMDL
MODEL 8
REMARK VINA RESULT:    -5.608      5.706      6.982
REMARK INTER + INTRA:          -5.860
REMARK INTER:                  -6.114
REMARK INTRA:                   0.254
REMARK UNBOUND:                 0.076
ROOT
ATOM      1  C4  26D L   1       2.897  -5.646   0.318  1.00  0.00    +0.0507  A
ATOM      2  C5  26D L   1       3.998  -4.834   0.671  1.00  0.00    +0.0513  A
ATOM      3 CL6  26D L   1       4.402  -4.503   2.321  1.00  0.00    -0.0830 Cl
ATOM      4  C7  26D L   1       4.817  -4.246  -0.300  1.00  0.00    -0.0428  A
ATOM      5  C8  26D L   1       4.555  -4.443  -1.650  1.00  0.00    -0.0590  A
ATOM      6  C9  26D L   1       3.468  -5.223  -2.030  1.00  0.00    -0.0428  A
ATOM      7 C10  26D L   1       2.646  -5.812  -1.062  1.00  0.00    +0.0513  A
ATOM      8 CL11 26D L   1       1.318  -6.745  -1.659  1.00  0.00    -0.0830 Cl
ATOM      9 H18  26D L   1       5.664  -3.623  -0.010  1.00  0.00    +0.0632  H
ATOM     10 H19  26D L   1       5.189  -3.983  -2.405  1.00  0.00    +0.0618  H
ATOM     11 H20  26D L   1       3.263  -5.360  -3.092  1.00  0.00    +0.0632  H
ENDROOT
BRANCH 1 13
ATOM     12  C1  26D L   1       2.808  -7.097   2.389  1.00  0.00    -0.0030  C
ATOM     13  C2  26D L   1       2.017  -6.250   1.396  1.00  0.00    +0.1566  C
ATOM     14  N3  26D L   1       1.219  -5.251   2.161  1.00  0.00    -0.1889  N
ATOM     15 H12  26D L   1       2.139  -7.573   3.115  1.00  0.00    +0.0292  H
ATOM     16 H13  26D L   1       3.540  -6.508   2.951  1.00  0.00    +0.0292  H
ATOM     17 H14  26D L   1       3.355  -7.894   1.872  1.00  0.00    +0.0292  H
ATOM     18 H15  26D L   1       1.239  -6.879   0.957  1.00  0.00    +0.1052  H
ATOM     19 H16  26D L   1       0.679  -4.639   1.536  1.00  0.00    +0.4057 HD
ATOM     20 H17  26D L   1       0.561  -5.702   2.809  1.00  0.00    +0.4057 HD
ENDBRANCH 1 13
TORSDOF 1
ENDMDL
MODEL 9
REMARK VINA RESULT:    -5.558      6.528      7.887
REMARK INTER + INTRA:          -5.808
REMARK INTER:                  -5.851
REMARK INTRA:                   0.043
REMARK UNBOUND:                 0.076
ROOT
ATOM      1  C4  26D L   1       1.853  -5.968  -3.565  1.00  0.00    +0.0507  A
ATOM      2  C5  26D L   1       2.501  -5.836  -2.315  1.00  0.00    +0.0513  A
ATOM      3 CL6  26D L   1       1.870  -6.559  -0.875  1.00  0.00    -0.0830 Cl
ATOM      4  C7  26D L   1       3.686  -5.106  -2.177  1.00  0.00    -0.0428  A
ATOM      5  C8  26D L   1       4.254  -4.477  -3.278  1.00  0.00    -0.0590  A
ATOM      6  C9  26D L   1       3.631  -4.572  -4.518  1.00  0.00    -0.0428  A
ATOM      7 C10  26D L   1       2.445  -5.302  -4.660  1.00  0.00    +0.0513  A
ATOM      8 CL11 26D L   1       1.759  -5.332  -6.247  1.00  0.00    -0.0830 Cl
ATOM      9 H18  26D L   1       4.174  -5.016  -1.206  1.00  0.00    +0.0632  H
ATOM     10 H19  26D L   1       5.173  -3.905  -3.169  1.00  0.00    +0.0618  H
ATOM     11 H20  26D L   1       4.077  -4.063  -5.372  1.00  0.00    +0.0632  H
ENDROOT
BRANCH 1 13
ATOM     12  C1  26D L   1      -0.624  -5.867  -4.070  1.00  0.00    -0.0030  C
ATOM     13  C2  26D L   1       0.558  -6.749  -3.675  1.00  0.00    +0.1566  C
ATOM     14  N3  26D L   1       0.619  -7.902  -4.617  1.00  0.00    -0.1889  N
ATOM     15 H12  26D L   1      -1.556  -6.444  -4.076  1.00  0.00    +0.0292  H
ATOM     16 H13  26D L   1      -0.502  -5.425  -5.064  1.00  0.00    +0.0292  H
ATOM     17 H14  26D L   1      -0.750  -5.044  -3.357  1.00  0.00    +0.0292  H
ATOM     18 H15  26D L   1       0.316  -7.237  -2.728  1.00  0.00    +0.1052  H
ATOM     19 H16  26D L   1       1.412  -8.520  -4.406  1.00  0.00    +0.4057 HD
ATOM     20 H17  26D L   1      -0.240  -8.466  -4.587  1.00  0.00    +0.4057 HD
ENDBRANCH 1 13
TORSDOF 1
ENDMDL
MODEL 10
REMARK VINA RESULT:    -5.512      3.274      5.453
REMARK INTER + INTRA:          -5.758
REMARK INTER:                  -5.960
REMARK INTRA:                   0.202
REMARK UNBOUND:                 0.076
ROOT
ATOM      1  C4  26D L   1       5.278  -3.751  -1.798  1.00  0.00    +0.0507  A
ATOM      2  C5  26D L   1       4.993  -3.788  -3.182  1.00  0.00    +0.0513  A
ATOM      3 CL6  26D L   1       5.927  -2.897  -4.335  1.00  0.00    -0.0830 Cl
ATOM      4  C7  26D L   1       3.931  -4.544  -3.692  1.00  0.00    -0.0428  A
ATOM      5  C8  26D L   1       3.118  -5.276  -2.836  1.00  0.00    -0.0590  A
ATOM      6  C9  26D L   1       3.361  -5.245  -1.467  1.00  0.00    -0.0428  A
ATOM      7 C10  26D L   1       4.422  -4.490  -0.953  1.00  0.00    +0.0513  A
ATOM      8 CL11 26D L   1       4.612  -4.520   0.766  1.00  0.00    -0.0830 Cl
ATOM      9 H18  26D L   1       3.727  -4.563  -4.763  1.00  0.00    +0.0632  H
ATOM     10 H19  26D L   1       2.290  -5.861  -3.232  1.00  0.00    +0.0618  H
ATOM     11 H20  26D L   1       2.709  -5.812  -0.803  1.00  0.00    +0.0632  H
ENDROOT
BRANCH 1 13
ATOM     12  C1  26D L   1       7.786  -3.420  -1.730  1.00  0.00    -0.0030  C
ATOM     13  C2  26D L   1       6.422  -2.903  -1.277  1.00  0.00    +0.1566  C
ATOM     14  N3  26D L   1       6.325  -1.460  -1.636  1.00  0.00    -0.1889  N
ATOM     15 H12  26D L   1       8.594  -2.829  -1.285  1.00  0.00    +0.0292  H
ATOM     16 H13  26D L   1       7.908  -3.381  -2.817  1.00  0.00    +0.0292  H
ATOM     17 H14  26D L   1       7.928  -4.462  -1.420  1.00  0.00    +0.0292  H
ATOM     18 H15  26D L   1       6.417  -2.870  -0.185  1.00  0.00    +0.1052  H
ATOM     19 H16  26D L   1       5.414  -1.065  -1.369  1.00  0.00    +0.4057 HD
ATOM     20 H17  26D L   1       7.058  -0.901  -1.181  1.00  0.00    +0.4057 HD
ENDBRANCH 1 13
TORSDOF 1
ENDMDL
MODEL 11
REMARK VINA RESULT:    -5.395      4.492      6.047
REMARK INTER + INTRA:          -5.635
REMARK INTER:                  -5.799
REMARK INTRA:                   0.164
REMARK UNBOUND:                 0.076
ROOT
ATOM      1  C4  26D L   1       3.527  -4.795  -2.755  1.00  0.00    +0.0507  A
ATOM      2  C5  26D L   1       3.951  -4.416  -4.049  1.00  0.00    +0.0513  A
ATOM      3 CL6  26D L   1       3.057  -4.842  -5.469  1.00  0.00    -0.0830 Cl
ATOM      4  C7  26D L   1       5.124  -3.680  -4.251  1.00  0.00    -0.0428  A
ATOM      5  C8  26D L   1       5.913  -3.310  -3.169  1.00  0.00    -0.0590  A
ATOM      6  C9  26D L   1       5.533  -3.684  -1.884  1.00  0.00    -0.0428  A
ATOM      7 C10  26D L   1       4.360  -4.420  -1.679  1.00  0.00    +0.0513  A
ATOM      8 CL11 26D L   1       4.004  -4.838  -0.039  1.00  0.00    -0.0830 Cl
ATOM      9 H18  26D L   1       5.435  -3.394  -5.256  1.00  0.00    +0.0632  H
ATOM     10 H19  26D L   1       6.828  -2.741  -3.326  1.00  0.00    +0.0618  H
ATOM     11 H20  26D L   1       6.167  -3.401  -1.044  1.00  0.00    +0.0632  H
ENDROOT
BRANCH 1 13
ATOM     12  C1  26D L   1       2.540  -7.111  -2.495  1.00  0.00    -0.0030  C
ATOM     13  C2  26D L   1       2.262  -5.611  -2.575  1.00  0.00    +0.1566  C
ATOM     14  N3  26D L   1       1.447  -5.221  -1.390  1.00  0.00    -0.1889  N
ATOM     15 H12  26D L   1       1.605  -7.678  -2.432  1.00  0.00    +0.0292  H
ATOM     16 H13  26D L   1       3.147  -7.377  -1.624  1.00  0.00    +0.0292  H
ATOM     17 H14  26D L   1       3.077  -7.454  -3.387  1.00  0.00    +0.0292  H
ATOM     18 H15  26D L   1       1.566  -5.439  -3.400  1.00  0.00    +0.1052  H
ATOM     19 H16  26D L   1       1.247  -4.213  -1.385  1.00  0.00    +0.4057 HD
ATOM     20 H17  26D L   1       0.551  -5.723  -1.359  1.00  0.00    +0.4057 HD
ENDBRANCH 1 13
TORSDOF 1
ENDMDL
MODEL 12
REMARK VINA RESULT:    -5.381      6.660      8.162
REMARK INTER + INTRA:          -5.620
REMARK INTER:                  -5.825
REMARK INTRA:                   0.205
REMARK UNBOUND:                 0.076
ROOT
ATOM      1  C4  26D L   1       1.697  -5.978  -3.665  1.00  0.00    +0.0507  A
ATOM      2  C5  26D L   1       2.253  -5.337  -4.796  1.00  0.00    +0.0513  A
ATOM      3 CL6  26D L   1       1.509  -5.422  -6.356  1.00  0.00    -0.0830 Cl
ATOM      4  C7  26D L   1       3.442  -4.605  -4.713  1.00  0.00    -0.0428  A
ATOM      5  C8  26D L   1       4.117  -4.500  -3.503  1.00  0.00    -0.0590  A
ATOM      6  C9  26D L   1       3.605  -5.135  -2.376  1.00  0.00    -0.0428  A
ATOM      7 C10  26D L   1       2.415  -5.868  -2.455  1.00  0.00    +0.0513  A
ATOM      8 CL11 26D L   1       1.891  -6.623  -0.991  1.00  0.00    -0.0830 Cl
ATOM      9 H18  26D L   1       3.856  -4.115  -5.594  1.00  0.00    +0.0632  H
ATOM     10 H19  26D L   1       5.044  -3.934  -3.439  1.00  0.00    +0.0618  H
ATOM     11 H20  26D L   1       4.150  -5.057  -1.435  1.00  0.00    +0.0632  H
ENDROOT
BRANCH 1 13
ATOM     12  C1  26D L   1      -0.780  -5.917  -4.183  1.00  0.00    -0.0030  C
ATOM     13  C2  26D L   1       0.417  -6.782  -3.796  1.00  0.00    +0.1566  C
ATOM     14  N3  26D L   1       0.506  -7.918  -4.757  1.00  0.00    -0.1889  N
ATOM     15 H12  26D L   1      -1.700  -6.511  -4.204  1.00  0.00    +0.0292  H
ATOM     16 H13  26D L   1      -0.661  -5.456  -5.169  1.00  0.00    +0.0292  H
ATOM     17 H14  26D L   1      -0.925  -5.108  -3.458  1.00  0.00    +0.0292  H
ATOM     18 H15  26D L   1       0.179  -7.290  -2.859  1.00  0.00    +0.1052  H
ATOM     19 H16  26D L   1       1.310  -8.524  -4.552  1.00  0.00    +0.4057 HD
ATOM     20 H17  26D L   1      -0.342  -8.499  -4.742  1.00  0.00    +0.4057 HD
ENDBRANCH 1 13
TORSDOF 1
ENDMDL
