MODEL 1
REMARK VINA RESULT:    -5.814      0.000      0.000
REMARK INTER + INTRA:          -6.208
REMARK INTER:                  -6.154
REMARK INTRA:                  -0.054
REMARK UNBOUND:                -0.054
ROOT
ATOM      1  C4  25D L   1       8.321  -2.043  -2.346  1.00  0.00    +0.0338  A
ATOM      2  C5  25D L   1       8.641  -1.169  -1.286  1.00  0.00    -0.0330  A
ATOM      3  C6  25D L   1       7.740  -0.187  -0.862  1.00  0.00    +0.0415  A
ATOM      4 CL7  25D L   1       8.168   0.851   0.437  1.00  0.00    -0.0835 Cl
ATOM      5  C8  25D L   1       6.508  -0.048  -1.487  1.00  0.00    -0.0420  A
ATOM      6  C9  25D L   1       6.173  -0.896  -2.543  1.00  0.00    -0.0415  A
ATOM      7 C10  25D L   1       7.069  -1.882  -2.972  1.00  0.00    +0.0500  A
ATOM      8 CL11 25D L   1       6.557  -2.887  -4.279  1.00  0.00    -0.0831 Cl
ATOM      9 H18  25D L   1       9.603  -1.233  -0.777  1.00  0.00    +0.0637  H
ATOM     10 H19  25D L   1       5.805   0.716  -1.162  1.00  0.00    +0.0633  H
ATOM     11 H20  25D L   1       5.205  -0.776  -3.029  1.00  0.00    +0.0633  H
ENDROOT
BRANCH 1 13
ATOM     12  C1  25D L   1       8.930  -4.502  -2.467  1.00  0.00    -0.0030  C
ATOM     13  C2  25D L   1       9.356  -3.068  -2.761  1.00  0.00    +0.1553  C
ATOM     14  N3  25D L   1      10.697  -2.839  -2.163  1.00  0.00    -0.1890  N
ATOM     15 H12  25D L   1       9.666  -5.214  -2.857  1.00  0.00    +0.0292  H
ATOM     16 H13  25D L   1       7.968  -4.726  -2.945  1.00  0.00    +0.0292  H
ATOM     17 H14  25D L   1       8.818  -4.695  -1.397  1.00  0.00    +0.0292  H
ATOM     18 H15  25D L   1       9.533  -2.977  -3.841  1.00  0.00    +0.1051  H
ATOM     19 H16  25D L   1      11.002  -1.864  -2.276  1.00  0.00    +0.4057 HD
ATOM     20 H17  25D L   1      11.414  -3.450  -2.570  1.00  0.00    +0.4057 HD
ENDBRANCH 1 13
TORSDOF 1
ENDMDL
MODEL 2
REMARK VINA RESULT:    -5.612      2.107      3.816
REMARK INTER + INTRA:          -5.994
REMARK INTER:                  -6.075
REMARK INTRA:                   0.081
REMARK UNBOUND:                -0.054
ROOT
ATOM      1  C4  25D L   1       8.483  -1.559  -2.004  1.00  0.00    +0.0338  A
ATOM      2  C5  25D L   1       7.183  -1.330  -2.504  1.00  0.00    -0.0330  A
ATOM      3  C6  25D L   1       6.601  -2.201  -3.430  1.00  0.00    +0.0415  A
ATOM      4 CL7  25D L   1       5.014  -1.887  -4.007  1.00  0.00    -0.0835 Cl
ATOM      5  C8  25D L   1       7.299  -3.313  -3.883  1.00  0.00    -0.0420  A
ATOM      6  C9  25D L   1       8.588  -3.556  -3.409  1.00  0.00    -0.0415  A
ATOM      7 C10  25D L   1       9.178  -2.688  -2.481  1.00  0.00    +0.0500  A
ATOM      8 CL11 25D L   1      10.772  -3.082  -1.949  1.00  0.00    -0.0831 Cl
ATOM      9 H18  25D L   1       6.606  -0.462  -2.186  1.00  0.00    +0.0637  H
ATOM     10 H19  25D L   1       6.851  -3.992  -4.606  1.00  0.00    +0.0633  H
ATOM     11 H20  25D L   1       9.129  -4.428  -3.775  1.00  0.00    +0.0633  H
ENDROOT
BRANCH 1 13
ATOM     12  C1  25D L   1       8.112   0.604  -0.734  1.00  0.00    -0.0030  C
ATOM     13  C2  25D L   1       9.053  -0.561  -1.019  1.00  0.00    +0.1553  C
ATOM     14  N3  25D L   1      10.377  -0.015  -1.419  1.00  0.00    -0.1890  N
ATOM     15 H12  25D L   1       8.525   1.257   0.043  1.00  0.00    +0.0292  H
ATOM     16 H13  25D L   1       7.141   0.240  -0.378  1.00  0.00    +0.0292  H
ATOM     17 H14  25D L   1       7.927   1.220  -1.619  1.00  0.00    +0.0292  H
ATOM     18 H15  25D L   1       9.259  -1.074  -0.071  1.00  0.00    +0.1051  H
ATOM     19 H16  25D L   1      11.030  -0.761  -1.688  1.00  0.00    +0.4057 HD
ATOM     20 H17  25D L   1      10.810   0.541  -0.673  1.00  0.00    +0.4057 HD
ENDBRANCH 1 13
TORSDOF 1
ENDMDL
MODEL 3
REMARK VINA RESULT:    -5.522      2.071      2.327
REMARK INTER + INTRA:          -5.899
REMARK INTER:                  -5.793
REMARK INTRA:                  -0.105
REMARK UNBOUND:                -0.054
ROOT
ATOM      1  C4  25D L   1       7.910  -1.803  -2.331  1.00  0.00    +0.0338  A
ATOM      2  C5  25D L   1       9.259  -1.526  -2.024  1.00  0.00    -0.0330  A
ATOM      3  C6  25D L   1       9.622  -0.353  -1.356  1.00  0.00    +0.0415  A
ATOM      4 CL7  25D L   1      11.276  -0.060  -0.995  1.00  0.00    -0.0835 Cl
ATOM      5  C8  25D L   1       8.655   0.571  -0.984  1.00  0.00    -0.0420  A
ATOM      6  C9  25D L   1       7.315   0.323  -1.284  1.00  0.00    -0.0415  A
ATOM      7 C10  25D L   1       6.944  -0.849  -1.953  1.00  0.00    +0.0500  A
ATOM      8 CL11 25D L   1       5.261  -1.068  -2.268  1.00  0.00    -0.0831 Cl
ATOM      9 H18  25D L   1      10.052  -2.218  -2.310  1.00  0.00    +0.0637  H
ATOM     10 H19  25D L   1       8.933   1.486  -0.466  1.00  0.00    +0.0633  H
ATOM     11 H20  25D L   1       6.565   1.058  -0.992  1.00  0.00    +0.0633  H
ENDROOT
BRANCH 1 13
ATOM     12  C1  25D L   1       8.725  -4.107  -3.006  1.00  0.00    -0.0030  C
ATOM     13  C2  25D L   1       7.597  -3.084  -3.075  1.00  0.00    +0.1553  C
ATOM     14  N3  25D L   1       7.233  -2.874  -4.501  1.00  0.00    -0.1890  N
ATOM     15 H12  25D L   1       8.427  -5.048  -3.483  1.00  0.00    +0.0292  H
ATOM     16 H13  25D L   1       8.981  -4.332  -1.964  1.00  0.00    +0.0292  H
ATOM     17 H14  25D L   1       9.637  -3.760  -3.501  1.00  0.00    +0.0292  H
ATOM     18 H15  25D L   1       6.697  -3.537  -2.640  1.00  0.00    +0.1051  H
ATOM     19 H16  25D L   1       6.520  -2.141  -4.607  1.00  0.00    +0.4057 HD
ATOM     20 H17  25D L   1       6.883  -3.732  -4.944  1.00  0.00    +0.4057 HD
ENDBRANCH 1 13
TORSDOF 1
ENDMDL
MODEL 4
REMARK VINA RESULT:    -5.275      2.114      2.745
REMARK INTER + INTRA:          -5.637
REMARK INTER:                  -5.872
REMARK INTRA:                   0.234
REMARK UNBOUND:                -0.054
ROOT
ATOM      1  C4  25D L   1       8.514  -1.688  -1.917  1.00  0.00    +0.0338  A
ATOM      2  C5  25D L   1       7.823  -0.747  -1.124  1.00  0.00    -0.0330  A
ATOM      3  C6  25D L   1       8.501   0.289  -0.476  1.00  0.00    +0.0415  A
ATOM      4 CL7  25D L   1       7.620   1.416   0.473  1.00  0.00    -0.0835 Cl
ATOM      5  C8  25D L   1       9.880   0.409  -0.597  1.00  0.00    -0.0420  A
ATOM      6  C9  25D L   1      10.585  -0.514  -1.370  1.00  0.00    -0.0415  A
ATOM      7 C10  25D L   1       9.912  -1.555  -2.021  1.00  0.00    +0.0500  A
ATOM      8 CL11 25D L   1      10.873  -2.638  -2.960  1.00  0.00    -0.0831 Cl
ATOM      9 H18  25D L   1       6.742  -0.813  -0.990  1.00  0.00    +0.0637  H
ATOM     10 H19  25D L   1      10.412   1.212  -0.093  1.00  0.00    +0.0633  H
ATOM     11 H20  25D L   1      11.667  -0.414  -1.454  1.00  0.00    +0.0633  H
ENDROOT
BRANCH 1 13
ATOM     12  C1  25D L   1       8.330  -4.176  -2.378  1.00  0.00    -0.0030  C
ATOM     13  C2  25D L   1       7.712  -2.795  -2.570  1.00  0.00    +0.1553  C
ATOM     14  N3  25D L   1       7.469  -2.580  -4.021  1.00  0.00    -0.1890  N
ATOM     15 H12  25D L   1       7.679  -4.954  -2.792  1.00  0.00    +0.0292  H
ATOM     16 H13  25D L   1       8.469  -4.393  -1.313  1.00  0.00    +0.0292  H
ATOM     17 H14  25D L   1       9.306  -4.269  -2.863  1.00  0.00    +0.0292  H
ATOM     18 H15  25D L   1       6.704  -2.807  -2.136  1.00  0.00    +0.1051  H
ATOM     19 H16  25D L   1       7.114  -1.635  -4.211  1.00  0.00    +0.4057 HD
ATOM     20 H17  25D L   1       6.804  -3.260  -4.409  1.00  0.00    +0.4057 HD
ENDBRANCH 1 13
TORSDOF 1
ENDMDL
MODEL 5
REMARK VINA RESULT:    -5.272      1.090      3.432
REMARK INTER + INTRA:          -5.634
REMARK INTER:                  -5.800
REMARK INTRA:                   0.166
REMARK UNBOUND:                -0.054
ROOT
ATOM      1  C4  25D L   1       8.442  -1.456  -1.987  1.00  0.00    +0.0338  A
ATOM      2  C5  25D L   1       7.924  -2.243  -3.038  1.00  0.00    -0.0330  A
ATOM      3  C6  25D L   1       6.587  -2.135  -3.430  1.00  0.00    +0.0415  A
ATOM      4 CL7  25D L   1       6.001  -3.107  -4.719  1.00  0.00    -0.0835 Cl
ATOM      5  C8  25D L   1       5.735  -1.249  -2.784  1.00  0.00    -0.0420  A
ATOM      6  C9  25D L   1       6.223  -0.466  -1.737  1.00  0.00    -0.0415  A
ATOM      7 C10  25D L   1       7.561  -0.568  -1.338  1.00  0.00    +0.0500  A
ATOM      8 CL11 25D L   1       8.069   0.450  -0.041  1.00  0.00    -0.0831 Cl
ATOM      9 H18  25D L   1       8.555  -2.961  -3.562  1.00  0.00    +0.0637  H
ATOM     10 H19  25D L   1       4.693  -1.163  -3.084  1.00  0.00    +0.0633  H
ATOM     11 H20  25D L   1       5.544   0.223  -1.233  1.00  0.00    +0.0633  H
ENDROOT
BRANCH 1 13
ATOM     12  C1  25D L   1      10.676  -0.335  -1.557  1.00  0.00    -0.0030  C
ATOM     13  C2  25D L   1       9.896  -1.644  -1.605  1.00  0.00    +0.1553  C
ATOM     14  N3  25D L   1      10.625  -2.600  -2.480  1.00  0.00    -0.1890  N
ATOM     15 H12  25D L   1      11.697  -0.504  -1.197  1.00  0.00    +0.0292  H
ATOM     16 H13  25D L   1      10.198   0.376  -0.873  1.00  0.00    +0.0292  H
ATOM     17 H14  25D L   1      10.746   0.148  -2.536  1.00  0.00    +0.0292  H
ATOM     18 H15  25D L   1       9.945  -2.109  -0.612  1.00  0.00    +0.1051  H
ATOM     19 H16  25D L   1      10.105  -3.478  -2.600  1.00  0.00    +0.4057 HD
ATOM     20 H17  25D L   1      11.559  -2.824  -2.118  1.00  0.00    +0.4057 HD
ENDBRANCH 1 13
TORSDOF 1
ENDMDL
MODEL 6
REMARK VINA RESULT:    -5.093     10.921     13.080
REMARK INTER + INTRA:          -5.445
REMARK INTER:                  -5.326
REMARK INTRA:                  -0.119
REMARK UNBOUND:                -0.054
ROOT
ATOM      1  C4  25D L   1      12.772 -11.545  -7.479  1.00  0.00    +0.0338  A
ATOM      2  C5  25D L   1      12.817 -11.974  -6.135  1.00  0.00    -0.0330  A
ATOM      3  C6  25D L   1      13.652 -13.022  -5.739  1.00  0.00    +0.0415  A
ATOM      4 CL7  25D L   1      13.681 -13.507  -4.091  1.00  0.00    -0.0835 Cl
ATOM      5  C8  25D L   1      14.455 -13.670  -6.669  1.00  0.00    -0.0420  A
ATOM      6  C9  25D L   1      14.422 -13.269  -8.004  1.00  0.00    -0.0415  A
ATOM      7 C10  25D L   1      13.588 -12.219  -8.409  1.00  0.00    +0.0500  A
ATOM      8 CL11 25D L   1      13.627 -11.792 -10.080  1.00  0.00    -0.0831 Cl
ATOM      9 H18  25D L   1      12.193 -11.502  -5.376  1.00  0.00    +0.0637  H
ATOM     10 H19  25D L   1      15.105 -14.488  -6.365  1.00  0.00    +0.0633  H
ATOM     11 H20  25D L   1      15.052 -13.788  -8.727  1.00  0.00    +0.0633  H
ENDROOT
BRANCH 1 13
ATOM     12  C1  25D L   1      11.514  -9.503  -6.655  1.00  0.00    -0.0030  C
ATOM     13  C2  25D L   1      11.827 -10.416  -7.835  1.00  0.00    +0.1553  C
ATOM     14  N3  25D L   1      10.547 -10.875  -8.434  1.00  0.00    -0.1890  N
ATOM     15 H12  25D L   1      10.897  -8.655  -6.973  1.00  0.00    +0.0292  H
ATOM     16 H13  25D L   1      12.436  -9.097  -6.223  1.00  0.00    +0.0292  H
ATOM     17 H14  25D L   1      10.977 -10.021  -5.855  1.00  0.00    +0.0292  H
ATOM     18 H15  25D L   1      12.283  -9.808  -8.627  1.00  0.00    +0.1051  H
ATOM     19 H16  25D L   1      10.702 -11.549  -9.194  1.00  0.00    +0.4057 HD
ATOM     20 H17  25D L   1       9.988 -10.096  -8.802  1.00  0.00    +0.4057 HD
ENDBRANCH 1 13
TORSDOF 1
ENDMDL
MODEL 7
REMARK VINA RESULT:    -4.972     10.422     12.078
REMARK INTER + INTRA:          -5.316
REMARK INTER:                  -5.178
REMARK INTRA:                  -0.138
REMARK UNBOUND:                -0.054
ROOT
ATOM      1  C4  25D L   1      13.212 -10.495  -9.231  1.00  0.00    +0.0338  A
ATOM      2  C5  25D L   1      13.320  -9.497  -8.240  1.00  0.00    -0.0330  A
ATOM      3  C6  25D L   1      12.256  -9.216  -7.378  1.00  0.00    +0.0415  A
ATOM      4 CL7  25D L   1      12.434  -7.997  -6.181  1.00  0.00    -0.0835 Cl
ATOM      5  C8  25D L   1      11.062  -9.917  -7.485  1.00  0.00    -0.0420  A
ATOM      6  C9  25D L   1      10.929 -10.904  -8.462  1.00  0.00    -0.0415  A
ATOM      7 C10  25D L   1      11.990 -11.190  -9.330  1.00  0.00    +0.0500  A
ATOM      8 CL11 25D L   1      11.730 -12.434 -10.497  1.00  0.00    -0.0831 Cl
ATOM      9 H18  25D L   1      14.235  -8.913  -8.130  1.00  0.00    +0.0637  H
ATOM     10 H19  25D L   1      10.230  -9.701  -6.818  1.00  0.00    +0.0633  H
ATOM     11 H20  25D L   1       9.986 -11.444  -8.541  1.00  0.00    +0.0633  H
ENDROOT
BRANCH 1 13
ATOM     12  C1  25D L   1      15.277 -11.893  -9.695  1.00  0.00    -0.0030  C
ATOM     13  C2  25D L   1      14.400 -10.728 -10.141  1.00  0.00    +0.1553  C
ATOM     14  N3  25D L   1      15.260  -9.528 -10.320  1.00  0.00    -0.1890  N
ATOM     15 H12  25D L   1      16.074 -12.080 -10.423  1.00  0.00    +0.0292  H
ATOM     16 H13  25D L   1      14.685 -12.812  -9.610  1.00  0.00    +0.0292  H
ATOM     17 H14  25D L   1      15.750 -11.715  -8.725  1.00  0.00    +0.0292  H
ATOM     18 H15  25D L   1      14.036 -10.941 -11.154  1.00  0.00    +0.1051  H
ATOM     19 H16  25D L   1      14.706  -8.696 -10.556  1.00  0.00    +0.4057 HD
ATOM     20 H17  25D L   1      15.968  -9.663 -11.050  1.00  0.00    +0.4057 HD
ENDBRANCH 1 13
TORSDOF 1
ENDMDL
MODEL 8
REMARK VINA RESULT:    -4.959     10.259     11.989
REMARK INTER + INTRA:          -5.303
REMARK INTER:                  -5.201
REMARK INTRA:                  -0.102
REMARK UNBOUND:                -0.054
ROOT
ATOM      1  C4  25D L   1      13.399  -9.449  -8.342  1.00  0.00    +0.0338  A
ATOM      2  C5  25D L   1      13.155 -10.460  -9.296  1.00  0.00    -0.0330  A
ATOM      3  C6  25D L   1      11.937 -11.145  -9.327  1.00  0.00    +0.0415  A
ATOM      4 CL7  25D L   1      11.679 -12.364 -10.509  1.00  0.00    -0.0835 Cl
ATOM      5  C8  25D L   1      10.939 -10.846  -8.408  1.00  0.00    -0.0420  A
ATOM      6  C9  25D L   1      11.161  -9.855  -7.451  1.00  0.00    -0.0415  A
ATOM      7 C10  25D L   1      12.378  -9.165  -7.413  1.00  0.00    +0.0500  A
ATOM      8 CL11 25D L   1      12.550  -7.952  -6.198  1.00  0.00    -0.0831 Cl
ATOM      9 H18  25D L   1      13.916 -10.737 -10.026  1.00  0.00    +0.0637  H
ATOM     10 H19  25D L   1       9.990 -11.378  -8.427  1.00  0.00    +0.0633  H
ATOM     11 H20  25D L   1      10.373  -9.632  -6.731  1.00  0.00    +0.0633  H
ENDROOT
BRANCH 1 13
ATOM     12  C1  25D L   1      15.507  -8.967  -9.667  1.00  0.00    -0.0030  C
ATOM     13  C2  25D L   1      14.751  -8.766  -8.358  1.00  0.00    +0.1553  C
ATOM     14  N3  25D L   1      15.636  -9.165  -7.233  1.00  0.00    -0.1890  N
ATOM     15 H12  25D L   1      16.438  -8.390  -9.670  1.00  0.00    +0.0292  H
ATOM     16 H13  25D L   1      14.905  -8.627 -10.518  1.00  0.00    +0.0292  H
ATOM     17 H14  25D L   1      15.766 -10.014  -9.846  1.00  0.00    +0.0292  H
ATOM     18 H15  25D L   1      14.606  -7.689  -8.208  1.00  0.00    +0.1051  H
ATOM     19 H16  25D L   1      15.149  -9.112  -6.329  1.00  0.00    +0.4057 HD
ATOM     20 H17  25D L   1      16.481  -8.585  -7.178  1.00  0.00    +0.4057 HD
ENDBRANCH 1 13
TORSDOF 1
ENDMDL
MODEL 9
REMARK VINA RESULT:    -4.901     10.510     12.038
REMARK INTER + INTRA:          -5.242
REMARK INTER:                  -5.128
REMARK INTRA:                  -0.114
REMARK UNBOUND:                -0.054
ROOT
ATOM      1  C4  25D L   1      12.852 -10.255  -7.048  1.00  0.00    +0.0338  A
ATOM      2  C5  25D L   1      13.113 -11.642  -7.038  1.00  0.00    -0.0330  A
ATOM      3  C6  25D L   1      14.114 -12.183  -6.227  1.00  0.00    +0.0415  A
ATOM      4 CL7  25D L   1      14.394 -13.877  -6.241  1.00  0.00    -0.0835 Cl
ATOM      5  C8  25D L   1      14.880 -11.358  -5.413  1.00  0.00    -0.0420  A
ATOM      6  C9  25D L   1      14.645  -9.983  -5.412  1.00  0.00    -0.0415  A
ATOM      7 C10  25D L   1      13.644  -9.434  -6.222  1.00  0.00    +0.0500  A
ATOM      8 CL11 25D L   1      13.425  -7.724  -6.141  1.00  0.00    -0.0831 Cl
ATOM      9 H18  25D L   1      12.545 -12.324  -7.672  1.00  0.00    +0.0637  H
ATOM     10 H19  25D L   1      15.662 -11.774  -4.782  1.00  0.00    +0.0633  H
ATOM     11 H20  25D L   1      15.256  -9.345  -4.774  1.00  0.00    +0.0633  H
ENDROOT
BRANCH 1 13
ATOM     12  C1  25D L   1      10.767 -10.821  -8.378  1.00  0.00    -0.0030  C
ATOM     13  C2  25D L   1      11.764  -9.742  -7.969  1.00  0.00    +0.1553  C
ATOM     14  N3  25D L   1      12.283  -9.084  -9.197  1.00  0.00    -0.1890  N
ATOM     15 H12  25D L   1       9.953 -10.392  -8.973  1.00  0.00    +0.0292  H
ATOM     16 H13  25D L   1      10.319 -11.289  -7.494  1.00  0.00    +0.0292  H
ATOM     17 H14  25D L   1      11.229 -11.615  -8.972  1.00  0.00    +0.0292  H
ATOM     18 H15  25D L   1      11.213  -8.943  -7.457  1.00  0.00    +0.1051  H
ATOM     19 H16  25D L   1      13.010  -8.392  -8.979  1.00  0.00    +0.4057 HD
ATOM     20 H17  25D L   1      11.541  -8.615  -9.730  1.00  0.00    +0.4057 HD
ENDBRANCH 1 13
TORSDOF 1
ENDMDL
MODEL 10
REMARK VINA RESULT:    -4.897     11.449     13.125
REMARK INTER + INTRA:          -5.237
REMARK INTER:                  -5.120
REMARK INTRA:                  -0.117
REMARK UNBOUND:                -0.054
ROOT
ATOM      1  C4  25D L   1      13.020 -11.605  -7.538  1.00  0.00    +0.0338  A
ATOM      2  C5  25D L   1      13.552 -12.378  -8.592  1.00  0.00    -0.0330  A
ATOM      3  C6  25D L   1      13.007 -12.320  -9.877  1.00  0.00    +0.0415  A
ATOM      4 CL7  25D L   1      13.690 -13.272 -11.132  1.00  0.00    -0.0835 Cl
ATOM      5  C8  25D L   1      11.919 -11.498 -10.142  1.00  0.00    -0.0420  A
ATOM      6  C9  25D L   1      11.371 -10.731  -9.114  1.00  0.00    -0.0415  A
ATOM      7 C10  25D L   1      11.912 -10.784  -7.824  1.00  0.00    +0.0500  A
ATOM      8 CL11 25D L   1      11.169  -9.789  -6.624  1.00  0.00    -0.0831 Cl
ATOM      9 H18  25D L   1      14.397 -13.047  -8.425  1.00  0.00    +0.0637  H
ATOM     10 H19  25D L   1      11.489 -11.452 -11.140  1.00  0.00    +0.0633  H
ATOM     11 H20  25D L   1      10.513 -10.094  -9.331  1.00  0.00    +0.0633  H
ENDROOT
BRANCH 1 13
ATOM     12  C1  25D L   1      15.150 -12.017  -6.224  1.00  0.00    -0.0030  C
ATOM     13  C2  25D L   1      13.652 -11.738  -6.168  1.00  0.00    +0.1553  C
ATOM     14  N3  25D L   1      13.009 -12.767  -5.310  1.00  0.00    -0.1890  N
ATOM     15 H12  25D L   1      15.583 -12.022  -5.218  1.00  0.00    +0.0292  H
ATOM     16 H13  25D L   1      15.667 -11.242  -6.802  1.00  0.00    +0.0292  H
ATOM     17 H14  25D L   1      15.380 -12.980  -6.688  1.00  0.00    +0.0292  H
ATOM     18 H15  25D L   1      13.499 -10.803  -5.614  1.00  0.00    +0.1051  H
ATOM     19 H16  25D L   1      11.987 -12.663  -5.293  1.00  0.00    +0.4057 HD
ATOM     20 H17  25D L   1      13.353 -12.737  -4.343  1.00  0.00    +0.4057 HD
ENDBRANCH 1 13
TORSDOF 1
ENDMDL
MODEL 11
REMARK VINA RESULT:    -4.698     11.289     13.894
REMARK INTER + INTRA:          -5.027
REMARK INTER:                  -4.891
REMARK INTRA:                  -0.135
REMARK UNBOUND:                -0.054
ROOT
ATOM      1  C4  25D L   1      13.006 -11.277  -8.597  1.00  0.00    +0.0338  A
ATOM      2  C5  25D L   1      13.209 -11.736  -9.917  1.00  0.00    -0.0330  A
ATOM      3  C6  25D L   1      13.939 -12.900 -10.173  1.00  0.00    +0.0415  A
ATOM      4 CL7  25D L   1      14.155 -13.425 -11.794  1.00  0.00    -0.0835 Cl
ATOM      5  C8  25D L   1      14.487 -13.629  -9.127  1.00  0.00    -0.0420  A
ATOM      6  C9  25D L   1      14.306 -13.192  -7.814  1.00  0.00    -0.0415  A
ATOM      7 C10  25D L   1      13.577 -12.026  -7.550  1.00  0.00    +0.0500  A
ATOM      8 CL11 25D L   1      13.402 -11.575  -5.893  1.00  0.00    -0.0831 Cl
ATOM      9 H18  25D L   1      12.808 -11.185 -10.768  1.00  0.00    +0.0637  H
ATOM     10 H19  25D L   1      15.058 -14.535  -9.321  1.00  0.00    +0.0633  H
ATOM     11 H20  25D L   1      14.746 -13.769  -7.001  1.00  0.00    +0.0633  H
ENDROOT
BRANCH 1 13
ATOM     12  C1  25D L   1      10.767 -10.239  -8.012  1.00  0.00    -0.0030  C
ATOM     13  C2  25D L   1      12.222  -9.996  -8.401  1.00  0.00    +0.1553  C
ATOM     14  N3  25D L   1      12.255  -9.089  -9.577  1.00  0.00    -0.1890  N
ATOM     15 H12  25D L   1      10.259  -9.292  -7.799  1.00  0.00    +0.0292  H
ATOM     16 H13  25D L   1      10.705 -10.859  -7.110  1.00  0.00    +0.0292  H
ATOM     17 H14  25D L   1      10.202 -10.747  -8.799  1.00  0.00    +0.0292  H
ATOM     18 H15  25D L   1      12.696  -9.409  -7.604  1.00  0.00    +0.1051  H
ATOM     19 H16  25D L   1      13.212  -8.947  -9.921  1.00  0.00    +0.4057 HD
ATOM     20 H17  25D L   1      11.845  -8.170  -9.371  1.00  0.00    +0.4057 HD
ENDBRANCH 1 13
TORSDOF 1
ENDMDL
MODEL 12
REMARK VINA RESULT:    -4.620     10.256     11.870
REMARK INTER + INTRA:          -4.944
REMARK INTER:                  -4.806
REMARK INTRA:                  -0.139
REMARK UNBOUND:                -0.054
ROOT
ATOM      1  C4  25D L   1      12.795 -10.926  -7.548  1.00  0.00    +0.0338  A
ATOM      2  C5  25D L   1      12.661  -9.564  -7.204  1.00  0.00    -0.0330  A
ATOM      3  C6  25D L   1      13.551  -8.952  -6.317  1.00  0.00    +0.0415  A
ATOM      4 CL7  25D L   1      13.354  -7.290  -5.932  1.00  0.00    -0.0835 Cl
ATOM      5  C8  25D L   1      14.588  -9.680  -5.749  1.00  0.00    -0.0420  A
ATOM      6  C9  25D L   1      14.736 -11.030  -6.067  1.00  0.00    -0.0415  A
ATOM      7 C10  25D L   1      13.849 -11.650  -6.955  1.00  0.00    +0.0500  A
ATOM      8 CL11 25D L   1      14.123 -13.320  -7.292  1.00  0.00    -0.0831 Cl
ATOM      9 H18  25D L   1      11.853  -8.960  -7.617  1.00  0.00    +0.0637  H
ATOM     10 H19  25D L   1      15.281  -9.208  -5.056  1.00  0.00    +0.0633  H
ATOM     11 H20  25D L   1      15.550 -11.593  -5.611  1.00  0.00    +0.0633  H
ENDROOT
BRANCH 1 13
ATOM     12  C1  25D L   1      12.259 -11.547  -9.948  1.00  0.00    -0.0030  C
ATOM     13  C2  25D L   1      11.780 -11.524  -8.500  1.00  0.00    +0.1553  C
ATOM     14  N3  25D L   1      10.451 -10.863  -8.449  1.00  0.00    -0.1890  N
ATOM     15 H12  25D L   1      11.534 -12.061 -10.589  1.00  0.00    +0.0292  H
ATOM     16 H13  25D L   1      13.212 -12.081 -10.033  1.00  0.00    +0.0292  H
ATOM     17 H14  25D L   1      12.407 -10.543 -10.356  1.00  0.00    +0.0292  H
ATOM     18 H15  25D L   1      11.570 -12.557  -8.193  1.00  0.00    +0.1051  H
ATOM     19 H16  25D L   1      10.113 -10.761  -7.484  1.00  0.00    +0.4057 HD
ATOM     20 H17  25D L   1       9.741 -11.373  -8.988  1.00  0.00    +0.4057 HD
ENDBRANCH 1 13
TORSDOF 1
ENDMDL
