MODEL 1
REMARK VINA RESULT:    -5.795      0.000      0.000
REMARK INTER + INTRA:          -6.154
REMARK INTER:                  -6.133
REMARK INTRA:                  -0.021
REMARK UNBOUND:                -0.021
ROOT
ATOM      1  C3  3CL L   1       8.648  -0.153  -1.385  1.00  0.00    +0.0127  A
ATOM      2  C4  3CL L   1      10.007  -0.504  -1.344  1.00  0.00    -0.0530  A
ATOM      3  C5  3CL L   1      10.492  -1.558  -2.122  1.00  0.00    -0.0599  A
ATOM      4  C6  3CL L   1       9.629  -2.271  -2.952  1.00  0.00    -0.0434  A
ATOM      5  C7  3CL L   1       8.281  -1.928  -3.002  1.00  0.00    +0.0414  A
ATOM      6 CL8  3CL L   1       7.210  -2.797  -4.028  1.00  0.00    -0.0835 Cl
ATOM      7  C9  3CL L   1       7.788  -0.876  -2.227  1.00  0.00    -0.0347  A
ATOM      8 H14  3CL L   1      10.709   0.029  -0.701  1.00  0.00    +0.0622  H
ATOM      9 H15  3CL L   1      11.546  -1.831  -2.080  1.00  0.00    +0.0618  H
ATOM     10 H16  3CL L   1      10.012  -3.093  -3.555  1.00  0.00    +0.0632  H
ATOM     11 H17  3CL L   1       6.726  -0.640  -2.284  1.00  0.00    +0.0637  H
ENDROOT
BRANCH 1 13
ATOM     12  N1  3CL L   1       8.678   0.979   0.803  1.00  0.00    -0.1914  N
ATOM     13  C2  3CL L   1       8.134   0.999  -0.572  1.00  0.00    +0.1466  C
ATOM     14 H10  3CL L   1       9.700   0.869   0.790  1.00  0.00    +0.4054 HD
ATOM     15 H11  3CL L   1       8.457   1.845   1.307  1.00  0.00    +0.4054 HD
ATOM     16 H12  3CL L   1       8.419   1.961  -1.010  1.00  0.00    +0.1017  H
ATOM     17 H13  3CL L   1       7.043   0.969  -0.487  1.00  0.00    +0.1017  H
ENDBRANCH 1 13
TORSDOF 1
ENDMDL
MODEL 2
REMARK VINA RESULT:    -5.773      3.103      3.767
REMARK INTER + INTRA:          -6.131
REMARK INTER:                  -6.104
REMARK INTRA:                  -0.026
REMARK UNBOUND:                -0.021
ROOT
ATOM      1  C3  3CL L   1       7.743  -1.561  -2.853  1.00  0.00    +0.0127  A
ATOM      2  C4  3CL L   1       9.047  -2.039  -3.060  1.00  0.00    -0.0530  A
ATOM      3  C5  3CL L   1      10.114  -1.534  -2.313  1.00  0.00    -0.0599  A
ATOM      4  C6  3CL L   1       9.892  -0.552  -1.349  1.00  0.00    -0.0434  A
ATOM      5  C7  3CL L   1       8.603  -0.076  -1.135  1.00  0.00    +0.0414  A
ATOM      6 CL8  3CL L   1       8.318   1.131   0.056  1.00  0.00    -0.0835 Cl
ATOM      7  C9  3CL L   1       7.530  -0.573  -1.877  1.00  0.00    -0.0347  A
ATOM      8 H14  3CL L   1       9.257  -2.802  -3.809  1.00  0.00    +0.0622  H
ATOM      9 H15  3CL L   1      11.125  -1.902  -2.482  1.00  0.00    +0.0618  H
ATOM     10 H16  3CL L   1      10.729  -0.161  -0.771  1.00  0.00    +0.0632  H
ATOM     11 H17  3CL L   1       6.535  -0.172  -1.689  1.00  0.00    +0.0637  H
ENDROOT
BRANCH 1 13
ATOM     12  N1  3CL L   1       7.011  -3.280  -4.459  1.00  0.00    -0.1914  N
ATOM     13  C2  3CL L   1       6.592  -2.126  -3.634  1.00  0.00    +0.1466  C
ATOM     14 H10  3CL L   1       7.538  -3.960  -3.897  1.00  0.00    +0.4054 HD
ATOM     15 H11  3CL L   1       6.202  -3.763  -4.867  1.00  0.00    +0.4054 HD
ATOM     16 H12  3CL L   1       5.793  -2.482  -2.976  1.00  0.00    +0.1017  H
ATOM     17 H13  3CL L   1       6.170  -1.379  -4.314  1.00  0.00    +0.1017  H
ENDBRANCH 1 13
TORSDOF 1
ENDMDL
MODEL 3
REMARK VINA RESULT:    -5.558      2.732      3.455
REMARK INTER + INTRA:          -5.904
REMARK INTER:                  -5.885
REMARK INTRA:                  -0.019
REMARK UNBOUND:                -0.021
ROOT
ATOM      1  C3  3CL L   1       7.683  -2.200  -3.050  1.00  0.00    +0.0127  A
ATOM      2  C4  3CL L   1       8.130  -3.531  -3.046  1.00  0.00    -0.0530  A
ATOM      3  C5  3CL L   1       9.390  -3.854  -2.537  1.00  0.00    -0.0599  A
ATOM      4  C6  3CL L   1      10.216  -2.856  -2.022  1.00  0.00    -0.0434  A
ATOM      5  C7  3CL L   1       9.779  -1.535  -2.019  1.00  0.00    +0.0414  A
ATOM      6 CL8  3CL L   1      10.787  -0.298  -1.379  1.00  0.00    -0.0835 Cl
ATOM      7  C9  3CL L   1       8.522  -1.202  -2.527  1.00  0.00    -0.0347  A
ATOM      8 H14  3CL L   1       7.513  -4.335  -3.446  1.00  0.00    +0.0622  H
ATOM      9 H15  3CL L   1       9.736  -4.887  -2.543  1.00  0.00    +0.0618  H
ATOM     10 H16  3CL L   1      11.197  -3.115  -1.628  1.00  0.00    +0.0632  H
ATOM     11 H17  3CL L   1       8.216  -0.157  -2.516  1.00  0.00    +0.0637  H
ENDROOT
BRANCH 1 13
ATOM     12  N1  3CL L   1       5.586  -0.976  -2.633  1.00  0.00    -0.1914  N
ATOM     13  C2  3CL L   1       6.318  -1.856  -3.570  1.00  0.00    +0.1466  C
ATOM     14 H10  3CL L   1       6.167  -0.175  -2.355  1.00  0.00    +0.4054 HD
ATOM     15 H11  3CL L   1       4.724  -0.614  -3.055  1.00  0.00    +0.4054 HD
ATOM     16 H12  3CL L   1       6.371  -1.325  -4.525  1.00  0.00    +0.1017  H
ATOM     17 H13  3CL L   1       5.709  -2.755  -3.709  1.00  0.00    +0.1017  H
ENDBRANCH 1 13
TORSDOF 1
ENDMDL
MODEL 4
REMARK VINA RESULT:    -5.549      3.140      4.256
REMARK INTER + INTRA:          -5.895
REMARK INTER:                  -5.869
REMARK INTRA:                  -0.026
REMARK UNBOUND:                -0.021
ROOT
ATOM      1  C3  3CL L   1       7.773  -2.165  -3.023  1.00  0.00    +0.0127  A
ATOM      2  C4  3CL L   1       6.674  -1.464  -2.503  1.00  0.00    -0.0530  A
ATOM      3  C5  3CL L   1       6.863  -0.421  -1.593  1.00  0.00    -0.0599  A
ATOM      4  C6  3CL L   1       8.150  -0.063  -1.196  1.00  0.00    -0.0434  A
ATOM      5  C7  3CL L   1       9.246  -0.750  -1.709  1.00  0.00    +0.0414  A
ATOM      6 CL8  3CL L   1      10.837  -0.312  -1.230  1.00  0.00    -0.0835 Cl
ATOM      7  C9  3CL L   1       9.066  -1.795  -2.617  1.00  0.00    -0.0347  A
ATOM      8 H14  3CL L   1       5.653  -1.721  -2.788  1.00  0.00    +0.0622  H
ATOM      9 H15  3CL L   1       6.007   0.115  -1.187  1.00  0.00    +0.0618  H
ATOM     10 H16  3CL L   1       8.292   0.750  -0.485  1.00  0.00    +0.0632  H
ATOM     11 H17  3CL L   1       9.945  -2.317  -2.993  1.00  0.00    +0.0637  H
ENDROOT
BRANCH 1 13
ATOM     12  N1  3CL L   1       6.232  -3.190  -4.649  1.00  0.00    -0.1914  N
ATOM     13  C2  3CL L   1       7.570  -3.266  -4.023  1.00  0.00    +0.1466  C
ATOM     14 H10  3CL L   1       6.043  -2.240  -4.993  1.00  0.00    +0.4054 HD
ATOM     15 H11  3CL L   1       6.152  -3.838  -5.441  1.00  0.00    +0.4054 HD
ATOM     16 H12  3CL L   1       8.302  -3.213  -4.835  1.00  0.00    +0.1017  H
ATOM     17 H13  3CL L   1       7.650  -4.250  -3.551  1.00  0.00    +0.1017  H
ENDBRANCH 1 13
TORSDOF 1
ENDMDL
MODEL 5
REMARK VINA RESULT:    -5.458      2.069      2.169
REMARK INTER + INTRA:          -5.798
REMARK INTER:                  -5.777
REMARK INTRA:                  -0.022
REMARK UNBOUND:                -0.021
ROOT
ATOM      1  C3  3CL L   1       8.057  -1.012  -1.582  1.00  0.00    +0.0127  A
ATOM      2  C4  3CL L   1       9.324  -0.407  -1.610  1.00  0.00    -0.0530  A
ATOM      3  C5  3CL L   1      10.466  -1.166  -1.879  1.00  0.00    -0.0599  A
ATOM      4  C6  3CL L   1      10.357  -2.533  -2.126  1.00  0.00    -0.0434  A
ATOM      5  C7  3CL L   1       9.106  -3.140  -2.102  1.00  0.00    +0.0414  A
ATOM      6 CL8  3CL L   1       8.961  -4.825  -2.412  1.00  0.00    -0.0835 Cl
ATOM      7  C9  3CL L   1       7.958  -2.390  -1.834  1.00  0.00    -0.0347  A
ATOM      8 H14  3CL L   1       9.445   0.659  -1.417  1.00  0.00    +0.0622  H
ATOM      9 H15  3CL L   1      11.447  -0.693  -1.892  1.00  0.00    +0.0618  H
ATOM     10 H16  3CL L   1      11.252  -3.119  -2.332  1.00  0.00    +0.0632  H
ATOM     11 H17  3CL L   1       6.996  -2.899  -1.816  1.00  0.00    +0.0637  H
ENDROOT
BRANCH 1 13
ATOM     12  N1  3CL L   1       5.669  -0.690  -2.098  1.00  0.00    -0.1914  N
ATOM     13  C2  3CL L   1       6.827  -0.192  -1.323  1.00  0.00    +0.1466  C
ATOM     14 H10  3CL L   1       5.557  -1.705  -1.975  1.00  0.00    +0.4054 HD
ATOM     15 H11  3CL L   1       4.798  -0.235  -1.804  1.00  0.00    +0.4054 HD
ATOM     16 H12  3CL L   1       6.537  -0.220  -0.268  1.00  0.00    +0.1017  H
ATOM     17 H13  3CL L   1       6.980   0.854  -1.610  1.00  0.00    +0.1017  H
ENDBRANCH 1 13
TORSDOF 1
ENDMDL
MODEL 6
REMARK VINA RESULT:    -5.453      1.503      2.254
REMARK INTER + INTRA:          -5.793
REMARK INTER:                  -5.771
REMARK INTRA:                  -0.022
REMARK UNBOUND:                -0.021
ROOT
ATOM      1  C3  3CL L   1       8.042  -0.018  -1.146  1.00  0.00    +0.0127  A
ATOM      2  C4  3CL L   1       6.884  -0.414  -1.833  1.00  0.00    -0.0530  A
ATOM      3  C5  3CL L   1       6.903  -1.533  -2.670  1.00  0.00    -0.0599  A
ATOM      4  C6  3CL L   1       8.074  -2.272  -2.825  1.00  0.00    -0.0434  A
ATOM      5  C7  3CL L   1       9.226  -1.889  -2.145  1.00  0.00    +0.0414  A
ATOM      6 CL8  3CL L   1      10.674  -2.798  -2.325  1.00  0.00    -0.0835 Cl
ATOM      7  C9  3CL L   1       9.217  -0.771  -1.308  1.00  0.00    -0.0347  A
ATOM      8 H14  3CL L   1       5.952   0.144  -1.739  1.00  0.00    +0.0622  H
ATOM      9 H15  3CL L   1       6.004  -1.831  -3.207  1.00  0.00    +0.0618  H
ATOM     10 H16  3CL L   1       8.083  -3.142  -3.480  1.00  0.00    +0.0632  H
ATOM     11 H17  3CL L   1      10.138  -0.495  -0.797  1.00  0.00    +0.0637  H
ENDROOT
BRANCH 1 13
ATOM     12  N1  3CL L   1       8.921   0.978   0.930  1.00  0.00    -0.1914  N
ATOM     13  C2  3CL L   1       8.014   1.166  -0.224  1.00  0.00    +0.1466  C
ATOM     14 H10  3CL L   1       9.855   0.685   0.616  1.00  0.00    +0.4054 HD
ATOM     15 H11  3CL L   1       9.023   1.844   1.471  1.00  0.00    +0.4054 HD
ATOM     16 H12  3CL L   1       8.334   2.081  -0.732  1.00  0.00    +0.1017  H
ATOM     17 H13  3CL L   1       7.010   1.330   0.180  1.00  0.00    +0.1017  H
ENDBRANCH 1 13
TORSDOF 1
ENDMDL
MODEL 7
REMARK VINA RESULT:    -4.853      2.113      3.102
REMARK INTER + INTRA:          -5.158
REMARK INTER:                  -5.143
REMARK INTRA:                  -0.015
REMARK UNBOUND:                -0.021
ROOT
ATOM      1  C3  3CL L   1       8.934  -1.488  -2.366  1.00  0.00    +0.0127  A
ATOM      2  C4  3CL L   1       8.454  -0.639  -1.357  1.00  0.00    -0.0530  A
ATOM      3  C5  3CL L   1       7.092  -0.340  -1.270  1.00  0.00    -0.0599  A
ATOM      4  C6  3CL L   1       6.194  -0.888  -2.184  1.00  0.00    -0.0434  A
ATOM      5  C7  3CL L   1       6.661  -1.734  -3.186  1.00  0.00    +0.0414  A
ATOM      6 CL8  3CL L   1       5.561  -2.420  -4.314  1.00  0.00    -0.0835 Cl
ATOM      7  C9  3CL L   1       8.021  -2.037  -3.281  1.00  0.00    -0.0347  A
ATOM      8 H14  3CL L   1       9.129  -0.189  -0.628  1.00  0.00    +0.0622  H
ATOM      9 H15  3CL L   1       6.725   0.326  -0.490  1.00  0.00    +0.0618  H
ATOM     10 H16  3CL L   1       5.134  -0.649  -2.113  1.00  0.00    +0.0632  H
ATOM     11 H17  3CL L   1       8.353  -2.696  -4.082  1.00  0.00    +0.0637  H
ENDROOT
BRANCH 1 13
ATOM     12  N1  3CL L   1      10.660  -3.183  -1.894  1.00  0.00    -0.1914  N
ATOM     13  C2  3CL L   1      10.393  -1.834  -2.440  1.00  0.00    +0.1466  C
ATOM     14 H10  3CL L   1      10.021  -3.876  -2.304  1.00  0.00    +0.4054 HD
ATOM     15 H11  3CL L   1      11.622  -3.482  -2.089  1.00  0.00    +0.4054 HD
ATOM     16 H12  3CL L   1      10.756  -1.834  -3.473  1.00  0.00    +0.1017  H
ATOM     17 H13  3CL L   1      10.998  -1.127  -1.863  1.00  0.00    +0.1017  H
ENDBRANCH 1 13
TORSDOF 1
ENDMDL
MODEL 8
REMARK VINA RESULT:    -4.778      3.124      4.240
REMARK INTER + INTRA:          -5.078
REMARK INTER:                  -5.056
REMARK INTRA:                  -0.022
REMARK UNBOUND:                -0.021
ROOT
ATOM      1  C3  3CL L   1       8.507  -1.755  -2.345  1.00  0.00    +0.0127  A
ATOM      2  C4  3CL L   1       7.167  -1.718  -2.761  1.00  0.00    -0.0530  A
ATOM      3  C5  3CL L   1       6.266  -0.826  -2.174  1.00  0.00    -0.0599  A
ATOM      4  C6  3CL L   1       6.693   0.041  -1.170  1.00  0.00    -0.0434  A
ATOM      5  C7  3CL L   1       8.020   0.013  -0.753  1.00  0.00    +0.0414  A
ATOM      6 CL8  3CL L   1       8.557   1.084   0.480  1.00  0.00    -0.0835 Cl
ATOM      7  C9  3CL L   1       8.927  -0.875  -1.333  1.00  0.00    -0.0347  A
ATOM      8 H14  3CL L   1       6.799  -2.386  -3.540  1.00  0.00    +0.0622  H
ATOM      9 H15  3CL L   1       5.226  -0.806  -2.495  1.00  0.00    +0.0618  H
ATOM     10 H16  3CL L   1       5.985   0.733  -0.715  1.00  0.00    +0.0632  H
ATOM     11 H17  3CL L   1       9.957  -0.876  -0.977  1.00  0.00    +0.0637  H
ENDROOT
BRANCH 1 13
ATOM     12  N1  3CL L   1       8.857  -3.998  -3.303  1.00  0.00    -0.1914  N
ATOM     13  C2  3CL L   1       9.482  -2.692  -2.997  1.00  0.00    +0.1466  C
ATOM     14 H10  3CL L   1       7.967  -3.869  -3.801  1.00  0.00    +0.4054 HD
ATOM     15 H11  3CL L   1       9.469  -4.578  -3.888  1.00  0.00    +0.4054 HD
ATOM     16 H12  3CL L   1       9.855  -2.291  -3.944  1.00  0.00    +0.1017  H
ATOM     17 H13  3CL L   1      10.339  -2.890  -2.345  1.00  0.00    +0.1017  H
ENDBRANCH 1 13
TORSDOF 1
ENDMDL
MODEL 9
REMARK VINA RESULT:    -4.654     10.443     11.811
REMARK INTER + INTRA:          -4.946
REMARK INTER:                  -4.930
REMARK INTRA:                  -0.017
REMARK UNBOUND:                -0.021
ROOT
ATOM      1  C3  3CL L   1      13.189 -11.140  -6.305  1.00  0.00    +0.0127  A
ATOM      2  C4  3CL L   1      11.853 -10.933  -6.687  1.00  0.00    -0.0530  A
ATOM      3  C5  3CL L   1      11.341  -9.639  -6.803  1.00  0.00    -0.0599  A
ATOM      4  C6  3CL L   1      12.155  -8.537  -6.545  1.00  0.00    -0.0434  A
ATOM      5  C7  3CL L   1      13.480  -8.733  -6.170  1.00  0.00    +0.0414  A
ATOM      6 CL8  3CL L   1      14.493  -7.380  -5.856  1.00  0.00    -0.0835 Cl
ATOM      7  C9  3CL L   1      14.001 -10.023  -6.050  1.00  0.00    -0.0347  A
ATOM      8 H14  3CL L   1      11.188 -11.773  -6.891  1.00  0.00    +0.0622  H
ATOM      9 H15  3CL L   1      10.302  -9.484  -7.092  1.00  0.00    +0.0618  H
ATOM     10 H16  3CL L   1      11.749  -7.531  -6.636  1.00  0.00    +0.0632  H
ATOM     11 H17  3CL L   1      15.040 -10.139  -5.746  1.00  0.00    +0.0637  H
ENDROOT
BRANCH 1 13
ATOM     12  N1  3CL L   1      13.097 -13.303  -5.129  1.00  0.00    -0.1914  N
ATOM     13  C2  3CL L   1      13.747 -12.530  -6.210  1.00  0.00    +0.1466  C
ATOM     14 H10  3CL L   1      12.074 -13.243  -5.201  1.00  0.00    +0.4054 HD
ATOM     15 H11  3CL L   1      13.362 -14.295  -5.167  1.00  0.00    +0.4054 HD
ATOM     16 H12  3CL L   1      13.593 -13.092  -7.137  1.00  0.00    +0.1017  H
ATOM     17 H13  3CL L   1      14.820 -12.512  -5.993  1.00  0.00    +0.1017  H
ENDBRANCH 1 13
TORSDOF 1
ENDMDL
MODEL 10
REMARK VINA RESULT:    -4.479     10.845     11.697
REMARK INTER + INTRA:          -4.762
REMARK INTER:                  -4.739
REMARK INTRA:                  -0.023
REMARK UNBOUND:                -0.021
ROOT
ATOM      1  C3  3CL L   1      13.048  -9.008  -8.258  1.00  0.00    +0.0127  A
ATOM      2  C4  3CL L   1      12.232  -9.143  -7.123  1.00  0.00    -0.0530  A
ATOM      3  C5  3CL L   1      11.261 -10.145  -7.063  1.00  0.00    -0.0599  A
ATOM      4  C6  3CL L   1      11.096 -11.027  -8.129  1.00  0.00    -0.0434  A
ATOM      5  C7  3CL L   1      11.903 -10.903  -9.256  1.00  0.00    +0.0414  A
ATOM      6 CL8  3CL L   1      11.711 -11.990 -10.574  1.00  0.00    -0.0835 Cl
ATOM      7  C9  3CL L   1      12.875  -9.904  -9.327  1.00  0.00    -0.0347  A
ATOM      8 H14  3CL L   1      12.330  -8.467  -6.273  1.00  0.00    +0.0622  H
ATOM      9 H15  3CL L   1      10.625 -10.241  -6.183  1.00  0.00    +0.0618  H
ATOM     10 H16  3CL L   1      10.336 -11.805  -8.077  1.00  0.00    +0.0632  H
ATOM     11 H17  3CL L   1      13.483  -9.830 -10.227  1.00  0.00    +0.0637  H
ENDROOT
BRANCH 1 13
ATOM     12  N1  3CL L   1      13.686  -6.718  -7.611  1.00  0.00    -0.1914  N
ATOM     13  C2  3CL L   1      14.112  -7.950  -8.310  1.00  0.00    +0.1466  C
ATOM     14 H10  3CL L   1      13.326  -6.936  -6.673  1.00  0.00    +0.4054 HD
ATOM     15 H11  3CL L   1      14.465  -6.058  -7.508  1.00  0.00    +0.4054 HD
ATOM     16 H12  3CL L   1      15.036  -8.284  -7.829  1.00  0.00    +0.1017  H
ATOM     17 H13  3CL L   1      14.343  -7.671  -9.343  1.00  0.00    +0.1017  H
ENDBRANCH 1 13
TORSDOF 1
ENDMDL
MODEL 11
REMARK VINA RESULT:    -4.451     11.685     12.691
REMARK INTER + INTRA:          -4.732
REMARK INTER:                  -4.717
REMARK INTRA:                  -0.015
REMARK UNBOUND:                -0.021
ROOT
ATOM      1  C3  3CL L   1      12.705 -11.393  -6.852  1.00  0.00    +0.0127  A
ATOM      2  C4  3CL L   1      11.799 -10.367  -6.541  1.00  0.00    -0.0530  A
ATOM      3  C5  3CL L   1      10.912  -9.886  -7.507  1.00  0.00    -0.0599  A
ATOM      4  C6  3CL L   1      10.915 -10.426  -8.792  1.00  0.00    -0.0434  A
ATOM      5  C7  3CL L   1      11.808 -11.445  -9.109  1.00  0.00    +0.0414  A
ATOM      6 CL8  3CL L   1      11.815 -12.122 -10.689  1.00  0.00    -0.0835 Cl
ATOM      7  C9  3CL L   1      12.699 -11.932  -8.150  1.00  0.00    -0.0347  A
ATOM      8 H14  3CL L   1      11.772  -9.919  -5.547  1.00  0.00    +0.0622  H
ATOM      9 H15  3CL L   1      10.216  -9.085  -7.263  1.00  0.00    +0.0618  H
ATOM     10 H16  3CL L   1      10.223 -10.045  -9.542  1.00  0.00    +0.0632  H
ATOM     11 H17  3CL L   1      13.389 -12.725  -8.434  1.00  0.00    +0.0637  H
ENDROOT
BRANCH 1 13
ATOM     12  N1  3CL L   1      13.018 -13.039  -5.046  1.00  0.00    -0.1914  N
ATOM     13  C2  3CL L   1      13.636 -11.931  -5.805  1.00  0.00    +0.1466  C
ATOM     14 H10  3CL L   1      12.618 -13.740  -5.683  1.00  0.00    +0.4054 HD
ATOM     15 H11  3CL L   1      13.704 -13.510  -4.444  1.00  0.00    +0.4054 HD
ATOM     16 H12  3CL L   1      14.556 -12.326  -6.248  1.00  0.00    +0.1017  H
ATOM     17 H13  3CL L   1      13.908 -11.156  -5.081  1.00  0.00    +0.1017  H
ENDBRANCH 1 13
TORSDOF 1
ENDMDL
MODEL 12
REMARK VINA RESULT:    -4.370     10.725     11.947
REMARK INTER + INTRA:          -4.646
REMARK INTER:                  -4.632
REMARK INTRA:                  -0.015
REMARK UNBOUND:                -0.021
ROOT
ATOM      1  C3  3CL L   1      11.974  -9.988  -8.712  1.00  0.00    +0.0127  A
ATOM      2  C4  3CL L   1      11.262 -10.021  -7.502  1.00  0.00    -0.0530  A
ATOM      3  C5  3CL L   1      11.608  -9.168  -6.452  1.00  0.00    -0.0599  A
ATOM      4  C6  3CL L   1      12.663  -8.269  -6.597  1.00  0.00    -0.0434  A
ATOM      5  C7  3CL L   1      13.372  -8.227  -7.793  1.00  0.00    +0.0414  A
ATOM      6 CL8  3CL L   1      14.671  -7.117  -7.984  1.00  0.00    -0.0835 Cl
ATOM      7  C9  3CL L   1      13.035  -9.077  -8.849  1.00  0.00    -0.0347  A
ATOM      8 H14  3CL L   1      10.435 -10.716  -7.353  1.00  0.00    +0.0622  H
ATOM      9 H15  3CL L   1      11.057  -9.204  -5.513  1.00  0.00    +0.0618  H
ATOM     10 H16  3CL L   1      12.929  -7.609  -5.773  1.00  0.00    +0.0632  H
ATOM     11 H17  3CL L   1      13.616  -9.022  -9.768  1.00  0.00    +0.0637  H
ENDROOT
BRANCH 1 13
ATOM     12  N1  3CL L   1      12.525 -12.014 -10.001  1.00  0.00    -0.1914  N
ATOM     13  C2  3CL L   1      11.583 -10.883  -9.851  1.00  0.00    +0.1466  C
ATOM     14 H10  3CL L   1      12.675 -12.486  -9.100  1.00  0.00    +0.4054 HD
ATOM     15 H11  3CL L   1      12.173 -12.709 -10.670  1.00  0.00    +0.4054 HD
ATOM     16 H12  3CL L   1      10.590 -11.317  -9.701  1.00  0.00    +0.1017  H
ATOM     17 H13  3CL L   1      11.581 -10.339 -10.801  1.00  0.00    +0.1017  H
ENDBRANCH 1 13
TORSDOF 1
ENDMDL
