MODEL 1
REMARK VINA RESULT:    -6.446      0.000      0.000
REMARK INTER + INTRA:          -6.943
REMARK INTER:                  -6.822
REMARK INTRA:                  -0.121
REMARK UNBOUND:                -0.121
ROOT
ATOM      1  C4  24D L   1       8.068  -1.870  -2.559  1.00  0.00    +0.0325  A
ATOM      2  C5  24D L   1       6.887  -1.211  -2.160  1.00  0.00    -0.0500  A
ATOM      3  C6  24D L   1       6.932  -0.143  -1.259  1.00  0.00    -0.0428  A
ATOM      4  C7  24D L   1       8.152   0.293  -0.750  1.00  0.00    +0.0424  A
ATOM      5 CL8  24D L   1       8.195   1.607   0.356  1.00  0.00    -0.0835 Cl
ATOM      6  C9  24D L   1       9.333  -0.326  -1.140  1.00  0.00    -0.0246  A
ATOM      7 C10  24D L   1       9.292  -1.393  -2.040  1.00  0.00    +0.0513  A
ATOM      8 CL11 24D L   1      10.804  -2.094  -2.502  1.00  0.00    -0.0830 Cl
ATOM      9 H18  24D L   1       5.908  -1.499  -2.535  1.00  0.00    +0.0623  H
ATOM     10 H19  24D L   1       6.010   0.353  -0.956  1.00  0.00    +0.0632  H
ATOM     11 H20  24D L   1      10.284   0.028  -0.746  1.00  0.00    +0.0647  H
ENDROOT
BRANCH 1 13
ATOM     12  C1  24D L   1       6.711  -3.075  -4.307  1.00  0.00    -0.0030  C
ATOM     13  C2  24D L   1       8.035  -3.016  -3.550  1.00  0.00    +0.1552  C
ATOM     14  N3  24D L   1       8.260  -4.351  -2.919  1.00  0.00    -0.1890  N
ATOM     15 H12  24D L   1       6.529  -2.145  -4.856  1.00  0.00    +0.0292  H
ATOM     16 H13  24D L   1       6.712  -3.894  -5.034  1.00  0.00    +0.0292  H
ATOM     17 H14  24D L   1       5.864  -3.227  -3.628  1.00  0.00    +0.0292  H
ATOM     18 H15  24D L   1       8.865  -2.936  -4.257  1.00  0.00    +0.1051  H
ATOM     19 H16  24D L   1       7.422  -4.696  -2.437  1.00  0.00    +0.4057 HD
ATOM     20 H17  24D L   1       8.523  -5.053  -3.624  1.00  0.00    +0.4057 HD
ENDBRANCH 1 13
TORSDOF 1
ENDMDL
MODEL 2
REMARK VINA RESULT:    -5.716      2.451      3.989
REMARK INTER + INTRA:          -6.171
REMARK INTER:                  -6.254
REMARK INTRA:                   0.082
REMARK UNBOUND:                -0.121
ROOT
ATOM      1  C4  24D L   1       8.288  -1.135  -1.821  1.00  0.00    +0.0325  A
ATOM      2  C5  24D L   1       6.984  -0.666  -2.078  1.00  0.00    -0.0500  A
ATOM      3  C6  24D L   1       6.156  -1.318  -2.998  1.00  0.00    -0.0428  A
ATOM      4  C7  24D L   1       6.609  -2.453  -3.666  1.00  0.00    +0.0424  A
ATOM      5 CL8  24D L   1       5.584  -3.246  -4.793  1.00  0.00    -0.0835 Cl
ATOM      6  C9  24D L   1       7.884  -2.947  -3.418  1.00  0.00    -0.0246  A
ATOM      7 C10  24D L   1       8.713  -2.298  -2.500  1.00  0.00    +0.0513  A
ATOM      8 CL11 24D L   1      10.274  -2.988  -2.222  1.00  0.00    -0.0830 Cl
ATOM      9 H18  24D L   1       6.571   0.205  -1.577  1.00  0.00    +0.0623  H
ATOM     10 H19  24D L   1       5.152  -0.942  -3.190  1.00  0.00    +0.0632  H
ATOM     11 H20  24D L   1       8.227  -3.841  -3.937  1.00  0.00    +0.0647  H
ENDROOT
BRANCH 1 13
ATOM     12  C1  24D L   1       8.519   0.776  -0.196  1.00  0.00    -0.0030  C
ATOM     13  C2  24D L   1       9.188  -0.448  -0.813  1.00  0.00    +0.1552  C
ATOM     14  N3  24D L   1      10.496  -0.014  -1.387  1.00  0.00    -0.1890  N
ATOM     15 H12  24D L   1       7.586   0.504   0.310  1.00  0.00    +0.0292  H
ATOM     16 H13  24D L   1       9.173   1.248   0.546  1.00  0.00    +0.0292  H
ATOM     17 H14  24D L   1       8.273   1.529  -0.955  1.00  0.00    +0.0292  H
ATOM     18 H15  24D L   1       9.485  -1.147  -0.025  1.00  0.00    +0.1051  H
ATOM     19 H16  24D L   1      10.408   0.843  -1.945  1.00  0.00    +0.4057 HD
ATOM     20 H17  24D L   1      11.183   0.171  -0.643  1.00  0.00    +0.4057 HD
ENDBRANCH 1 13
TORSDOF 1
ENDMDL
MODEL 3
REMARK VINA RESULT:    -5.282      1.860      2.494
REMARK INTER + INTRA:          -5.712
REMARK INTER:                  -5.560
REMARK INTRA:                  -0.152
REMARK UNBOUND:                -0.121
ROOT
ATOM      1  C4  24D L   1       7.962  -1.792  -2.335  1.00  0.00    +0.0325  A
ATOM      2  C5  24D L   1       9.222  -1.515  -1.767  1.00  0.00    -0.0500  A
ATOM      3  C6  24D L   1       9.394  -0.431  -0.899  1.00  0.00    -0.0428  A
ATOM      4  C7  24D L   1       8.314   0.384  -0.575  1.00  0.00    +0.0424  A
ATOM      5 CL8  24D L   1       8.536   1.712   0.492  1.00  0.00    -0.0835 Cl
ATOM      6  C9  24D L   1       7.056   0.123  -1.106  1.00  0.00    -0.0246  A
ATOM      7 C10  24D L   1       6.881  -0.958  -1.973  1.00  0.00    +0.0513  A
ATOM      8 CL11 24D L   1       5.283  -1.239  -2.569  1.00  0.00    -0.0830 Cl
ATOM      9 H18  24D L   1      10.098  -2.124  -1.973  1.00  0.00    +0.0623  H
ATOM     10 H19  24D L   1      10.375  -0.226  -0.472  1.00  0.00    +0.0632  H
ATOM     11 H20  24D L   1       6.214   0.759  -0.838  1.00  0.00    +0.0647  H
ENDROOT
BRANCH 1 13
ATOM     12  C1  24D L   1       8.794  -4.069  -3.021  1.00  0.00    -0.0030  C
ATOM     13  C2  24D L   1       7.758  -2.975  -3.261  1.00  0.00    +0.1552  C
ATOM     14  N3  24D L   1       7.808  -2.608  -4.708  1.00  0.00    -0.1890  N
ATOM     15 H12  24D L   1       8.751  -4.434  -1.989  1.00  0.00    +0.0292  H
ATOM     16 H13  24D L   1       8.619  -4.925  -3.683  1.00  0.00    +0.0292  H
ATOM     17 H14  24D L   1       9.813  -3.708  -3.200  1.00  0.00    +0.0292  H
ATOM     18 H15  24D L   1       6.751  -3.383  -3.145  1.00  0.00    +0.1051  H
ATOM     19 H16  24D L   1       8.770  -2.469  -5.039  1.00  0.00    +0.4057 HD
ATOM     20 H17  24D L   1       7.384  -3.343  -5.290  1.00  0.00    +0.4057 HD
ENDBRANCH 1 13
TORSDOF 1
ENDMDL
MODEL 4
REMARK VINA RESULT:    -5.038      9.648     10.957
REMARK INTER + INTRA:          -5.453
REMARK INTER:                  -5.294
REMARK INTRA:                  -0.159
REMARK UNBOUND:                -0.121
ROOT
ATOM      1  C4  24D L   1      12.962  -9.600  -7.609  1.00  0.00    +0.0325  A
ATOM      2  C5  24D L   1      12.737  -8.622  -6.619  1.00  0.00    -0.0500  A
ATOM      3  C6  24D L   1      13.436  -7.410  -6.636  1.00  0.00    -0.0428  A
ATOM      4  C7  24D L   1      14.360  -7.150  -7.644  1.00  0.00    +0.0424  A
ATOM      5 CL8  24D L   1      15.213  -5.659  -7.655  1.00  0.00    -0.0835 Cl
ATOM      6  C9  24D L   1      14.590  -8.089  -8.642  1.00  0.00    -0.0246  A
ATOM      7 C10  24D L   1      13.893  -9.300  -8.628  1.00  0.00    +0.0513  A
ATOM      8 CL11 24D L   1      14.209 -10.405  -9.919  1.00  0.00    -0.0830 Cl
ATOM      9 H18  24D L   1      12.018  -8.764  -5.816  1.00  0.00    +0.0623  H
ATOM     10 H19  24D L   1      13.255  -6.666  -5.862  1.00  0.00    +0.0632  H
ATOM     11 H20  24D L   1      15.306  -7.873  -9.432  1.00  0.00    +0.0647  H
ENDROOT
BRANCH 1 13
ATOM     12  C1  24D L   1      10.813 -10.755  -8.235  1.00  0.00    -0.0030  C
ATOM     13  C2  24D L   1      12.197 -10.909  -7.613  1.00  0.00    +0.1552  C
ATOM     14  N3  24D L   1      12.024 -11.496  -6.251  1.00  0.00    -0.1890  N
ATOM     15 H12  24D L   1      10.882 -10.398  -9.268  1.00  0.00    +0.0292  H
ATOM     16 H13  24D L   1      10.282 -11.713  -8.251  1.00  0.00    +0.0292  H
ATOM     17 H14  24D L   1      10.197 -10.038  -7.680  1.00  0.00    +0.0292  H
ATOM     18 H15  24D L   1      12.761 -11.680  -8.144  1.00  0.00    +0.1051  H
ATOM     19 H16  24D L   1      11.284 -11.025  -5.718  1.00  0.00    +0.4057 HD
ATOM     20 H17  24D L   1      11.776 -12.493  -6.308  1.00  0.00    +0.4057 HD
ENDBRANCH 1 13
TORSDOF 1
ENDMDL
MODEL 5
REMARK VINA RESULT:    -4.867     11.361     13.477
REMARK INTER + INTRA:          -5.272
REMARK INTER:                  -5.126
REMARK INTRA:                  -0.146
REMARK UNBOUND:                -0.121
ROOT
ATOM      1  C4  24D L   1      12.740 -11.561  -7.467  1.00  0.00    +0.0325  A
ATOM      2  C5  24D L   1      12.883 -11.994  -6.133  1.00  0.00    -0.0500  A
ATOM      3  C6  24D L   1      13.742 -13.049  -5.810  1.00  0.00    -0.0428  A
ATOM      4  C7  24D L   1      14.481 -13.680  -6.807  1.00  0.00    +0.0424  A
ATOM      5 CL8  24D L   1      15.535 -14.974  -6.399  1.00  0.00    -0.0835 Cl
ATOM      6  C9  24D L   1      14.374 -13.263  -8.128  1.00  0.00    -0.0246  A
ATOM      7 C10  24D L   1      13.515 -12.210  -8.454  1.00  0.00    +0.0513  A
ATOM      8 CL11 24D L   1      13.457 -11.726 -10.113  1.00  0.00    -0.0830 Cl
ATOM      9 H18  24D L   1      12.342 -11.530  -5.312  1.00  0.00    +0.0623  H
ATOM     10 H19  24D L   1      13.839 -13.376  -4.775  1.00  0.00    +0.0632  H
ATOM     11 H20  24D L   1      14.963 -13.754  -8.899  1.00  0.00    +0.0647  H
ENDROOT
BRANCH 1 13
ATOM     12  C1  24D L   1      11.550  -9.505  -6.629  1.00  0.00    -0.0030  C
ATOM     13  C2  24D L   1      11.826 -10.407  -7.828  1.00  0.00    +0.1552  C
ATOM     14  N3  24D L   1      10.510 -10.845  -8.383  1.00  0.00    -0.1890  N
ATOM     15 H12  24D L   1      12.480  -9.090  -6.226  1.00  0.00    +0.0292  H
ATOM     16 H13  24D L   1      10.907  -8.664  -6.911  1.00  0.00    +0.0292  H
ATOM     17 H14  24D L   1      11.054 -10.051  -5.818  1.00  0.00    +0.0292  H
ATOM     18 H15  24D L   1      12.254  -9.820  -8.646  1.00  0.00    +0.1051  H
ATOM     19 H16  24D L   1       9.870 -11.169  -7.649  1.00  0.00    +0.4057 HD
ATOM     20 H17  24D L   1      10.045 -10.075  -8.881  1.00  0.00    +0.4057 HD
ENDBRANCH 1 13
TORSDOF 1
ENDMDL
MODEL 6
REMARK VINA RESULT:    -4.744     11.708     13.967
REMARK INTER + INTRA:          -5.142
REMARK INTER:                  -4.995
REMARK INTRA:                  -0.147
REMARK UNBOUND:                -0.121
ROOT
ATOM      1  C4  24D L   1      12.776 -11.266  -8.667  1.00  0.00    +0.0325  A
ATOM      2  C5  24D L   1      12.302 -11.657  -9.937  1.00  0.00    -0.0500  A
ATOM      3  C6  24D L   1      12.833 -12.777 -10.586  1.00  0.00    -0.0428  A
ATOM      4  C7  24D L   1      13.832 -13.531  -9.977  1.00  0.00    +0.0424  A
ATOM      5 CL8  24D L   1      14.475 -14.905 -10.783  1.00  0.00    -0.0835 Cl
ATOM      6  C9  24D L   1      14.305 -13.179  -8.718  1.00  0.00    -0.0246  A
ATOM      7 C10  24D L   1      13.778 -12.061  -8.068  1.00  0.00    +0.0513  A
ATOM      8 CL11 24D L   1      14.394 -11.703  -6.492  1.00  0.00    -0.0830 Cl
ATOM      9 H18  24D L   1      11.515 -11.115 -10.454  1.00  0.00    +0.0623  H
ATOM     10 H19  24D L   1      12.460 -13.064 -11.568  1.00  0.00    +0.0632  H
ATOM     11 H20  24D L   1      15.079 -13.780  -8.245  1.00  0.00    +0.0647  H
ENDROOT
BRANCH 1 13
ATOM     12  C1  24D L   1      10.671 -10.090  -7.937  1.00  0.00    -0.0030  C
ATOM     13  C2  24D L   1      12.197 -10.066  -7.945  1.00  0.00    +0.1552  C
ATOM     14  N3  24D L   1      12.630  -8.760  -8.526  1.00  0.00    -0.1890  N
ATOM     15 H12  24D L   1      10.293 -10.996  -7.450  1.00  0.00    +0.0292  H
ATOM     16 H13  24D L   1      10.269  -9.228  -7.393  1.00  0.00    +0.0292  H
ATOM     17 H14  24D L   1      10.261 -10.068  -8.953  1.00  0.00    +0.0292  H
ATOM     18 H15  24D L   1      12.574 -10.017  -6.920  1.00  0.00    +0.1051  H
ATOM     19 H16  24D L   1      12.121  -8.532  -9.387  1.00  0.00    +0.4057 HD
ATOM     20 H17  24D L   1      12.473  -7.990  -7.861  1.00  0.00    +0.4057 HD
ENDBRANCH 1 13
TORSDOF 1
ENDMDL
MODEL 7
REMARK VINA RESULT:    -4.688     10.061     11.822
REMARK INTER + INTRA:          -5.083
REMARK INTER:                  -5.085
REMARK INTRA:                   0.002
REMARK UNBOUND:                -0.121
ROOT
ATOM      1  C4  24D L   1      13.353  -9.646  -6.357  1.00  0.00    +0.0325  A
ATOM      2  C5  24D L   1      14.482  -9.979  -5.582  1.00  0.00    -0.0500  A
ATOM      3  C6  24D L   1      14.715 -11.300  -5.186  1.00  0.00    -0.0428  A
ATOM      4  C7  24D L   1      13.835 -12.310  -5.565  1.00  0.00    +0.0424  A
ATOM      5 CL8  24D L   1      14.131 -13.929  -5.073  1.00  0.00    -0.0835 Cl
ATOM      6  C9  24D L   1      12.723 -12.013  -6.343  1.00  0.00    -0.0246  A
ATOM      7 C10  24D L   1      12.487 -10.694  -6.740  1.00  0.00    +0.0513  A
ATOM      8 CL11 24D L   1      11.101 -10.406  -7.733  1.00  0.00    -0.0830 Cl
ATOM      9 H18  24D L   1      15.210  -9.236  -5.269  1.00  0.00    +0.0623  H
ATOM     10 H19  24D L   1      15.590 -11.542  -4.583  1.00  0.00    +0.0632  H
ATOM     11 H20  24D L   1      12.046 -12.810  -6.644  1.00  0.00    +0.0647  H
ENDROOT
BRANCH 1 13
ATOM     12  C1  24D L   1      14.236  -7.287  -6.406  1.00  0.00    -0.0030  C
ATOM     13  C2  24D L   1      13.099  -8.221  -6.809  1.00  0.00    +0.1552  C
ATOM     14  N3  24D L   1      11.827  -7.649  -6.276  1.00  0.00    -0.1890  N
ATOM     15 H12  24D L   1      15.188  -7.616  -6.835  1.00  0.00    +0.0292  H
ATOM     16 H13  24D L   1      14.048  -6.267  -6.759  1.00  0.00    +0.0292  H
ATOM     17 H14  24D L   1      14.362  -7.249  -5.318  1.00  0.00    +0.0292  H
ATOM     18 H15  24D L   1      12.952  -8.183  -7.892  1.00  0.00    +0.1051  H
ATOM     19 H16  24D L   1      11.914  -7.360  -5.295  1.00  0.00    +0.4057 HD
ATOM     20 H17  24D L   1      11.538  -6.823  -6.818  1.00  0.00    +0.4057 HD
ENDBRANCH 1 13
TORSDOF 1
ENDMDL
MODEL 8
REMARK VINA RESULT:    -4.643     10.085     12.068
REMARK INTER + INTRA:          -5.035
REMARK INTER:                  -4.883
REMARK INTRA:                  -0.153
REMARK UNBOUND:                -0.121
ROOT
ATOM      1  C4  24D L   1      13.298  -8.952  -7.899  1.00  0.00    +0.0325  A
ATOM      2  C5  24D L   1      14.041  -9.350  -9.030  1.00  0.00    -0.0500  A
ATOM      3  C6  24D L   1      13.597 -10.394  -9.847  1.00  0.00    -0.0428  A
ATOM      4  C7  24D L   1      12.404 -11.050  -9.559  1.00  0.00    +0.0424  A
ATOM      5 CL8  24D L   1      11.868 -12.332 -10.570  1.00  0.00    -0.0835 Cl
ATOM      6  C9  24D L   1      11.643 -10.668  -8.461  1.00  0.00    -0.0246  A
ATOM      7 C10  24D L   1      12.083  -9.625  -7.642  1.00  0.00    +0.0513  A
ATOM      8 CL11 24D L   1      11.069  -9.184  -6.313  1.00  0.00    -0.0830 Cl
ATOM      9 H18  24D L   1      14.972  -8.865  -9.311  1.00  0.00    +0.0623  H
ATOM     10 H19  24D L   1      14.184 -10.694 -10.715  1.00  0.00    +0.0632  H
ATOM     11 H20  24D L   1      10.706 -11.179  -8.249  1.00  0.00    +0.0647  H
ENDROOT
BRANCH 1 13
ATOM     12  C1  24D L   1      14.488  -6.733  -7.814  1.00  0.00    -0.0030  C
ATOM     13  C2  24D L   1      13.758  -7.809  -7.016  1.00  0.00    +0.1552  C
ATOM     14  N3  24D L   1      14.658  -8.244  -5.906  1.00  0.00    -0.1890  N
ATOM     15 H12  24D L   1      13.845  -6.320  -8.599  1.00  0.00    +0.0292  H
ATOM     16 H13  24D L   1      14.794  -5.904  -7.166  1.00  0.00    +0.0292  H
ATOM     17 H14  24D L   1      15.387  -7.129  -8.301  1.00  0.00    +0.0292  H
ATOM     18 H15  24D L   1      12.909  -7.368  -6.486  1.00  0.00    +0.1051  H
ATOM     19 H16  24D L   1      15.614  -8.424  -6.232  1.00  0.00    +0.4057 HD
ATOM     20 H17  24D L   1      14.711  -7.525  -5.171  1.00  0.00    +0.4057 HD
ENDBRANCH 1 13
TORSDOF 1
ENDMDL
MODEL 9
REMARK VINA RESULT:    -4.568      2.402      3.952
REMARK INTER + INTRA:          -4.957
REMARK INTER:                  -5.198
REMARK INTRA:                   0.242
REMARK UNBOUND:                -0.121
ROOT
ATOM      1  C4  24D L   1       8.563  -1.926  -2.350  1.00  0.00    +0.0325  A
ATOM      2  C5  24D L   1       8.357  -2.783  -3.450  1.00  0.00    -0.0500  A
ATOM      3  C6  24D L   1       7.102  -2.878  -4.059  1.00  0.00    -0.0428  A
ATOM      4  C7  24D L   1       6.037  -2.114  -3.591  1.00  0.00    +0.0424  A
ATOM      5 CL8  24D L   1       4.499  -2.239  -4.347  1.00  0.00    -0.0835 Cl
ATOM      6  C9  24D L   1       6.215  -1.248  -2.519  1.00  0.00    -0.0246  A
ATOM      7 C10  24D L   1       7.468  -1.150  -1.908  1.00  0.00    +0.0513  A
ATOM      8 CL11 24D L   1       7.622  -0.029  -0.601  1.00  0.00    -0.0830 Cl
ATOM      9 H18  24D L   1       9.154  -3.392  -3.867  1.00  0.00    +0.0623  H
ATOM     10 H19  24D L   1       6.956  -3.549  -4.905  1.00  0.00    +0.0632  H
ATOM     11 H20  24D L   1       5.380  -0.646  -2.166  1.00  0.00    +0.0647  H
ENDROOT
BRANCH 1 13
ATOM     12  C1  24D L   1      10.424  -0.358  -1.698  1.00  0.00    -0.0030  C
ATOM     13  C2  24D L   1       9.923  -1.799  -1.692  1.00  0.00    +0.1552  C
ATOM     14  N3  24D L   1      10.971  -2.649  -2.332  1.00  0.00    -0.1890  N
ATOM     15 H12  24D L   1       9.727   0.304  -1.171  1.00  0.00    +0.0292  H
ATOM     16 H13  24D L   1      11.396  -0.279  -1.200  1.00  0.00    +0.0292  H
ATOM     17 H14  24D L   1      10.535   0.028  -2.718  1.00  0.00    +0.0292  H
ATOM     18 H15  24D L   1       9.890  -2.178  -0.667  1.00  0.00    +0.1051  H
ATOM     19 H16  24D L   1      11.317  -2.242  -3.208  1.00  0.00    +0.4057 HD
ATOM     20 H17  24D L   1      11.779  -2.771  -1.707  1.00  0.00    +0.4057 HD
ENDBRANCH 1 13
TORSDOF 1
ENDMDL
MODEL 10
REMARK VINA RESULT:    -4.561     12.327     13.655
REMARK INTER + INTRA:          -4.948
REMARK INTER:                  -4.795
REMARK INTRA:                  -0.154
REMARK UNBOUND:                -0.121
ROOT
ATOM      1  C4  24D L   1      13.400 -12.040  -8.040  1.00  0.00    +0.0325  A
ATOM      2  C5  24D L   1      14.262 -13.154  -8.092  1.00  0.00    -0.0500  A
ATOM      3  C6  24D L   1      14.545 -13.896  -6.940  1.00  0.00    -0.0428  A
ATOM      4  C7  24D L   1      13.965 -13.547  -5.724  1.00  0.00    +0.0424  A
ATOM      5 CL8  24D L   1      14.319 -14.466  -4.316  1.00  0.00    -0.0835 Cl
ATOM      6  C9  24D L   1      13.097 -12.465  -5.647  1.00  0.00    -0.0246  A
ATOM      7 C10  24D L   1      12.813 -11.722  -6.796  1.00  0.00    +0.0513  A
ATOM      8 CL11 24D L   1      11.702 -10.408  -6.629  1.00  0.00    -0.0830 Cl
ATOM      9 H18  24D L   1      14.732 -13.481  -9.016  1.00  0.00    +0.0623  H
ATOM     10 H19  24D L   1      15.217 -14.752  -6.995  1.00  0.00    +0.0632  H
ATOM     11 H20  24D L   1      12.640 -12.206  -4.694  1.00  0.00    +0.0647  H
ENDROOT
BRANCH 1 13
ATOM     12  C1  24D L   1      12.139 -12.003 -10.221  1.00  0.00    -0.0030  C
ATOM     13  C2  24D L   1      13.071 -11.239  -9.285  1.00  0.00    +0.1552  C
ATOM     14  N3  24D L   1      14.278 -10.840 -10.068  1.00  0.00    -0.1890  N
ATOM     15 H12  24D L   1      11.198 -12.257  -9.720  1.00  0.00    +0.0292  H
ATOM     16 H13  24D L   1      11.892 -11.403 -11.103  1.00  0.00    +0.0292  H
ATOM     17 H14  24D L   1      12.590 -12.940 -10.566  1.00  0.00    +0.0292  H
ATOM     18 H15  24D L   1      12.623 -10.279  -9.015  1.00  0.00    +0.1051  H
ATOM     19 H16  24D L   1      14.652 -11.617 -10.624  1.00  0.00    +0.4057 HD
ATOM     20 H17  24D L   1      14.058 -10.072 -10.717  1.00  0.00    +0.4057 HD
ENDBRANCH 1 13
TORSDOF 1
ENDMDL
MODEL 11
REMARK VINA RESULT:    -4.472     10.349     11.251
REMARK INTER + INTRA:          -4.855
REMARK INTER:                  -4.707
REMARK INTRA:                  -0.148
REMARK UNBOUND:                -0.121
ROOT
ATOM      1  C4  24D L   1      12.738 -10.199  -7.756  1.00  0.00    +0.0325  A
ATOM      2  C5  24D L   1      12.994  -8.915  -8.280  1.00  0.00    -0.0500  A
ATOM      3  C6  24D L   1      13.790  -8.002  -7.581  1.00  0.00    -0.0428  A
ATOM      4  C7  24D L   1      14.351  -8.355  -6.357  1.00  0.00    +0.0424  A
ATOM      5 CL8  24D L   1      15.327  -7.226  -5.507  1.00  0.00    -0.0835 Cl
ATOM      6  C9  24D L   1      14.130  -9.620  -5.826  1.00  0.00    -0.0246  A
ATOM      7 C10  24D L   1      13.335 -10.535  -6.521  1.00  0.00    +0.0513  A
ATOM      8 CL11 24D L   1      13.130 -12.098  -5.813  1.00  0.00    -0.0830 Cl
ATOM      9 H18  24D L   1      12.594  -8.589  -9.236  1.00  0.00    +0.0623  H
ATOM     10 H19  24D L   1      13.975  -7.011  -7.996  1.00  0.00    +0.0632  H
ATOM     11 H20  24D L   1      14.581  -9.892  -4.874  1.00  0.00    +0.0647  H
ENDROOT
BRANCH 1 13
ATOM     12  C1  24D L   1      12.282 -11.278  -9.986  1.00  0.00    -0.0030  C
ATOM     13  C2  24D L   1      11.893 -11.205  -8.513  1.00  0.00    +0.1552  C
ATOM     14  N3  24D L   1      10.429 -10.922  -8.440  1.00  0.00    -0.1890  N
ATOM     15 H12  24D L   1      13.334 -11.560 -10.103  1.00  0.00    +0.0292  H
ATOM     16 H13  24D L   1      11.678 -12.025 -10.514  1.00  0.00    +0.0292  H
ATOM     17 H14  24D L   1      12.142 -10.315 -10.491  1.00  0.00    +0.0292  H
ATOM     18 H15  24D L   1      11.975 -12.195  -8.056  1.00  0.00    +0.1051  H
ATOM     19 H16  24D L   1      10.151 -10.161  -9.071  1.00  0.00    +0.4057 HD
ATOM     20 H17  24D L   1       9.879 -11.753  -8.697  1.00  0.00    +0.4057 HD
ENDBRANCH 1 13
TORSDOF 1
ENDMDL
MODEL 12
REMARK VINA RESULT:    -4.382     11.402     12.511
REMARK INTER + INTRA:          -4.760
REMARK INTER:                  -4.629
REMARK INTRA:                  -0.131
REMARK UNBOUND:                -0.121
ROOT
ATOM      1  C4  24D L   1      13.442 -10.321  -8.022  1.00  0.00    +0.0325  A
ATOM      2  C5  24D L   1      14.604 -11.070  -7.744  1.00  0.00    -0.0500  A
ATOM      3  C6  24D L   1      14.602 -12.050  -6.746  1.00  0.00    -0.0428  A
ATOM      4  C7  24D L   1      13.443 -12.307  -6.019  1.00  0.00    +0.0424  A
ATOM      5 CL8  24D L   1      13.453 -13.513  -4.796  1.00  0.00    -0.0835 Cl
ATOM      6  C9  24D L   1      12.279 -11.596  -6.284  1.00  0.00    -0.0246  A
ATOM      7 C10  24D L   1      12.277 -10.617  -7.280  1.00  0.00    +0.0513  A
ATOM      8 CL11 24D L   1      10.785  -9.795  -7.574  1.00  0.00    -0.0830 Cl
ATOM      9 H18  24D L   1      15.532 -10.923  -8.289  1.00  0.00    +0.0623  H
ATOM     10 H19  24D L   1      15.509 -12.618  -6.539  1.00  0.00    +0.0632  H
ATOM     11 H20  24D L   1      11.375 -11.811  -5.718  1.00  0.00    +0.0647  H
ENDROOT
BRANCH 1 13
ATOM     12  C1  24D L   1      14.585  -9.444 -10.089  1.00  0.00    -0.0030  C
ATOM     13  C2  24D L   1      13.425  -9.270  -9.114  1.00  0.00    +0.1552  C
ATOM     14  N3  24D L   1      13.474  -7.872  -8.590  1.00  0.00    -0.1890  N
ATOM     15 H12  24D L   1      14.556 -10.431 -10.565  1.00  0.00    +0.0292  H
ATOM     16 H13  24D L   1      14.546  -8.691 -10.884  1.00  0.00    +0.0292  H
ATOM     17 H14  24D L   1      15.554  -9.352  -9.585  1.00  0.00    +0.0292  H
ATOM     18 H15  24D L   1      12.475  -9.296  -9.656  1.00  0.00    +0.1051  H
ATOM     19 H16  24D L   1      14.420  -7.603  -8.297  1.00  0.00    +0.4057 HD
ATOM     20 H17  24D L   1      13.169  -7.199  -9.306  1.00  0.00    +0.4057 HD
ENDBRANCH 1 13
TORSDOF 1
ENDMDL
