MODEL 1
REMARK VINA RESULT:    -5.982      0.000      0.000
REMARK INTER + INTRA:          -6.403
REMARK INTER:                  -6.332
REMARK INTRA:                  -0.071
REMARK UNBOUND:                -0.071
ROOT
ATOM      1  C4  34D L   1       7.880  -1.724  -2.931  1.00  0.00    +0.0156  A
ATOM      2  C5  34D L   1       6.736  -1.149  -2.349  1.00  0.00    -0.0513  A
ATOM      3  C6  34D L   1       6.849  -0.191  -1.335  1.00  0.00    -0.0415  A
ATOM      4  C7  34D L   1       8.104   0.209  -0.874  1.00  0.00    +0.0593  A
ATOM      5 CL8  34D L   1       8.166   1.388   0.382  1.00  0.00    -0.0820 Cl
ATOM      6  C9  34D L   1       9.251  -0.358  -1.433  1.00  0.00    +0.0597  A
ATOM      7 CL10 34D L   1      10.843   0.066  -0.915  1.00  0.00    -0.0820 Cl
ATOM      8 C11  34D L   1       9.138  -1.319  -2.451  1.00  0.00    -0.0330  A
ATOM      9 H18  34D L   1       5.734  -1.430  -2.677  1.00  0.00    +0.0623  H
ATOM     10 H19  34D L   1       5.947   0.245  -0.905  1.00  0.00    +0.0633  H
ATOM     11 H20  34D L   1      10.059  -1.731  -2.859  1.00  0.00    +0.0637  H
ENDROOT
BRANCH 1 13
ATOM     12  C1  34D L   1       8.231  -4.170  -3.650  1.00  0.00    -0.0031  C
ATOM     13  C2  34D L   1       7.711  -2.779  -4.004  1.00  0.00    +0.1539  C
ATOM     14  N3  34D L   1       6.278  -2.906  -4.383  1.00  0.00    -0.1890  N
ATOM     15 H12  34D L   1       7.652  -4.636  -2.845  1.00  0.00    +0.0292  H
ATOM     16 H13  34D L   1       8.175  -4.837  -4.518  1.00  0.00    +0.0292  H
ATOM     17 H14  34D L   1       9.279  -4.127  -3.332  1.00  0.00    +0.0292  H
ATOM     18 H15  34D L   1       8.227  -2.451  -4.915  1.00  0.00    +0.1051  H
ATOM     19 H16  34D L   1       5.689  -3.117  -3.567  1.00  0.00    +0.4057 HD
ATOM     20 H17  34D L   1       6.125  -3.636  -5.090  1.00  0.00    +0.4057 HD
ENDBRANCH 1 13
TORSDOF 1
ENDMDL
MODEL 2
REMARK VINA RESULT:    -5.215      1.071      2.485
REMARK INTER + INTRA:          -5.591
REMARK INTER:                  -5.524
REMARK INTRA:                  -0.068
REMARK UNBOUND:                -0.071
ROOT
ATOM      1  C4  34D L   1       7.578  -2.020  -2.807  1.00  0.00    +0.0156  A
ATOM      2  C5  34D L   1       8.888  -2.438  -3.103  1.00  0.00    -0.0513  A
ATOM      3  C6  34D L   1       9.992  -1.809  -2.516  1.00  0.00    -0.0415  A
ATOM      4  C7  34D L   1       9.815  -0.745  -1.630  1.00  0.00    +0.0593  A
ATOM      5 CL8  34D L   1      11.221  -0.013  -0.953  1.00  0.00    -0.0820 Cl
ATOM      6  C9  34D L   1       8.521  -0.310  -1.333  1.00  0.00    +0.0597  A
ATOM      7 CL10 34D L   1       8.208   1.006  -0.261  1.00  0.00    -0.0820 Cl
ATOM      8 C11  34D L   1       7.413  -0.942  -1.921  1.00  0.00    -0.0330  A
ATOM      9 H18  34D L   1       9.076  -3.265  -3.788  1.00  0.00    +0.0623  H
ATOM     10 H19  34D L   1      10.998  -2.155  -2.755  1.00  0.00    +0.0633  H
ATOM     11 H20  34D L   1       6.424  -0.572  -1.657  1.00  0.00    +0.0637  H
ENDROOT
BRANCH 1 13
ATOM     12  C1  34D L   1       5.197  -1.830  -3.766  1.00  0.00    -0.0031  C
ATOM     13  C2  34D L   1       6.413  -2.710  -3.487  1.00  0.00    +0.1539  C
ATOM     14  N3  34D L   1       6.850  -3.314  -4.775  1.00  0.00    -0.1890  N
ATOM     15 H12  34D L   1       5.408  -1.055  -4.511  1.00  0.00    +0.0292  H
ATOM     16 H13  34D L   1       4.365  -2.432  -4.150  1.00  0.00    +0.0292  H
ATOM     17 H14  34D L   1       4.853  -1.336  -2.851  1.00  0.00    +0.0292  H
ATOM     18 H15  34D L   1       6.082  -3.552  -2.867  1.00  0.00    +0.1051  H
ATOM     19 H16  34D L   1       7.273  -2.612  -5.396  1.00  0.00    +0.4057 HD
ATOM     20 H17  34D L   1       6.075  -3.766  -5.277  1.00  0.00    +0.4057 HD
ENDBRANCH 1 13
TORSDOF 1
ENDMDL
MODEL 3
REMARK VINA RESULT:    -5.213     10.840     12.278
REMARK INTER + INTRA:          -5.589
REMARK INTER:                  -5.525
REMARK INTRA:                  -0.064
REMARK UNBOUND:                -0.071
ROOT
ATOM      1  C4  34D L   1      12.422  -9.445  -7.356  1.00  0.00    +0.0156  A
ATOM      2  C5  34D L   1      11.163 -10.032  -7.571  1.00  0.00    -0.0513  A
ATOM      3  C6  34D L   1      10.973 -10.973  -8.590  1.00  0.00    -0.0415  A
ATOM      4  C7  34D L   1      12.033 -11.342  -9.421  1.00  0.00    +0.0593  A
ATOM      5 CL8  34D L   1      11.724 -12.500 -10.660  1.00  0.00    -0.0820 Cl
ATOM      6  C9  34D L   1      13.288 -10.762  -9.228  1.00  0.00    +0.0597  A
ATOM      7 CL10 34D L   1      14.651 -11.147 -10.215  1.00  0.00    -0.0820 Cl
ATOM      8 C11  34D L   1      13.479  -9.818  -8.204  1.00  0.00    -0.0330  A
ATOM      9 H18  34D L   1      10.306  -9.776  -6.948  1.00  0.00    +0.0623  H
ATOM     10 H19  34D L   1       9.990 -11.420  -8.734  1.00  0.00    +0.0633  H
ATOM     11 H20  34D L   1      14.475  -9.395  -8.089  1.00  0.00    +0.0637  H
ENDROOT
BRANCH 1 13
ATOM     12  C1  34D L   1      13.824  -7.535  -6.349  1.00  0.00    -0.0031  C
ATOM     13  C2  34D L   1      12.575  -8.409  -6.260  1.00  0.00    +0.1539  C
ATOM     14  N3  34D L   1      11.388  -7.514  -6.227  1.00  0.00    -0.1890  N
ATOM     15 H12  34D L   1      13.806  -6.874  -7.222  1.00  0.00    +0.0292  H
ATOM     16 H13  34D L   1      13.913  -6.898  -5.461  1.00  0.00    +0.0292  H
ATOM     17 H14  34D L   1      14.729  -8.150  -6.408  1.00  0.00    +0.0292  H
ATOM     18 H15  34D L   1      12.588  -8.915  -5.287  1.00  0.00    +0.1051  H
ATOM     19 H16  34D L   1      11.229  -7.063  -7.136  1.00  0.00    +0.4057 HD
ATOM     20 H17  34D L   1      11.473  -6.780  -5.512  1.00  0.00    +0.4057 HD
ENDBRANCH 1 13
TORSDOF 1
ENDMDL
MODEL 4
REMARK VINA RESULT:    -5.199      3.372      4.393
REMARK INTER + INTRA:          -5.574
REMARK INTER:                  -5.498
REMARK INTRA:                  -0.076
REMARK UNBOUND:                -0.071
ROOT
ATOM      1  C4  34D L   1       8.117  -0.560  -1.735  1.00  0.00    +0.0156  A
ATOM      2  C5  34D L   1       6.806  -0.252  -2.140  1.00  0.00    -0.0513  A
ATOM      3  C6  34D L   1       6.091  -1.114  -2.979  1.00  0.00    -0.0415  A
ATOM      4  C7  34D L   1       6.670  -2.298  -3.439  1.00  0.00    +0.0593  A
ATOM      5 CL8  34D L   1       5.733  -3.308  -4.475  1.00  0.00    -0.0820 Cl
ATOM      6  C9  34D L   1       7.974  -2.616  -3.055  1.00  0.00    +0.0597  A
ATOM      7 CL10 34D L   1       8.775  -4.050  -3.586  1.00  0.00    -0.0820 Cl
ATOM      8 C11  34D L   1       8.692  -1.751  -2.212  1.00  0.00    -0.0330  A
ATOM      9 H18  34D L   1       6.312   0.661  -1.806  1.00  0.00    +0.0623  H
ATOM     10 H19  34D L   1       5.073  -0.857  -3.273  1.00  0.00    +0.0633  H
ATOM     11 H20  34D L   1       9.704  -2.042  -1.937  1.00  0.00    +0.0637  H
ENDROOT
BRANCH 1 13
ATOM     12  C1  34D L   1       8.315   0.578   0.565  1.00  0.00    -0.0031  C
ATOM     13  C2  34D L   1       8.865   0.416  -0.851  1.00  0.00    +0.1539  C
ATOM     14  N3  34D L   1      10.297   0.027  -0.747  1.00  0.00    -0.1890  N
ATOM     15 H12  34D L   1       8.433  -0.334   1.162  1.00  0.00    +0.0292  H
ATOM     16 H13  34D L   1       8.840   1.382   1.093  1.00  0.00    +0.0292  H
ATOM     17 H14  34D L   1       7.250   0.835   0.545  1.00  0.00    +0.0292  H
ATOM     18 H15  34D L   1       8.863   1.405  -1.326  1.00  0.00    +0.1051  H
ATOM     19 H16  34D L   1      10.403  -0.934  -0.401  1.00  0.00    +0.4057 HD
ATOM     20 H17  34D L   1      10.827   0.655  -0.129  1.00  0.00    +0.4057 HD
ENDBRANCH 1 13
TORSDOF 1
ENDMDL
MODEL 5
REMARK VINA RESULT:    -4.948      3.363      4.789
REMARK INTER + INTRA:          -5.308
REMARK INTER:                  -5.238
REMARK INTRA:                  -0.070
REMARK UNBOUND:                -0.071
ROOT
ATOM      1  C4  34D L   1       8.602  -0.571  -1.818  1.00  0.00    +0.0156  A
ATOM      2  C5  34D L   1       9.388  -1.584  -2.396  1.00  0.00    -0.0513  A
ATOM      3  C6  34D L   1       8.820  -2.535  -3.253  1.00  0.00    -0.0415  A
ATOM      4  C7  34D L   1       7.456  -2.501  -3.545  1.00  0.00    +0.0593  A
ATOM      5 CL8  34D L   1       6.824  -3.708  -4.601  1.00  0.00    -0.0820 Cl
ATOM      6  C9  34D L   1       6.657  -1.508  -2.972  1.00  0.00    +0.0597  A
ATOM      7 CL10 34D L   1       4.960  -1.398  -3.265  1.00  0.00    -0.0820 Cl
ATOM      8 C11  34D L   1       7.227  -0.554  -2.113  1.00  0.00    -0.0330  A
ATOM      9 H18  34D L   1      10.458  -1.651  -2.198  1.00  0.00    +0.0623  H
ATOM     10 H19  34D L   1       9.451  -3.306  -3.694  1.00  0.00    +0.0633  H
ATOM     11 H20  34D L   1       6.568   0.203  -1.693  1.00  0.00    +0.0637  H
ENDROOT
BRANCH 1 13
ATOM     12  C1  34D L   1       8.559   0.596   0.475  1.00  0.00    -0.0031  C
ATOM     13  C2  34D L   1       9.252   0.419  -0.874  1.00  0.00    +0.1539  C
ATOM     14  N3  34D L   1      10.667   0.036  -0.618  1.00  0.00    -0.1890  N
ATOM     15 H12  34D L   1       8.615  -0.307   1.093  1.00  0.00    +0.0292  H
ATOM     16 H13  34D L   1       9.025   1.409   1.045  1.00  0.00    +0.0292  H
ATOM     17 H14  34D L   1       7.501   0.850   0.341  1.00  0.00    +0.0292  H
ATOM     18 H15  34D L   1       9.298   1.401  -1.359  1.00  0.00    +0.1051  H
ATOM     19 H16  34D L   1      10.738  -0.921  -0.250  1.00  0.00    +0.4057 HD
ATOM     20 H17  34D L   1      11.129   0.672   0.044  1.00  0.00    +0.4057 HD
ENDBRANCH 1 13
TORSDOF 1
ENDMDL
MODEL 6
REMARK VINA RESULT:    -4.919     10.759     12.266
REMARK INTER + INTRA:          -5.278
REMARK INTER:                  -5.193
REMARK INTRA:                  -0.085
REMARK UNBOUND:                -0.071
ROOT
ATOM      1  C4  34D L   1      13.552 -12.016  -5.982  1.00  0.00    +0.0156  A
ATOM      2  C5  34D L   1      14.534 -11.098  -5.570  1.00  0.00    -0.0513  A
ATOM      3  C6  34D L   1      14.351  -9.721  -5.749  1.00  0.00    -0.0415  A
ATOM      4  C7  34D L   1      13.190  -9.232  -6.350  1.00  0.00    +0.0593  A
ATOM      5 CL8  34D L   1      13.037  -7.526  -6.545  1.00  0.00    -0.0820 Cl
ATOM      6  C9  34D L   1      12.209 -10.130  -6.774  1.00  0.00    +0.0597  A
ATOM      7 CL10 34D L   1      10.749  -9.616  -7.540  1.00  0.00    -0.0820 Cl
ATOM      8 C11  34D L   1      12.391 -11.511  -6.594  1.00  0.00    -0.0330  A
ATOM      9 H18  34D L   1      15.457 -11.432  -5.095  1.00  0.00    +0.0623  H
ATOM     10 H19  34D L   1      15.124  -9.029  -5.415  1.00  0.00    +0.0633  H
ATOM     11 H20  34D L   1      11.598 -12.173  -6.937  1.00  0.00    +0.0637  H
ENDROOT
BRANCH 1 13
ATOM     12  C1  34D L   1      15.267 -13.903  -5.631  1.00  0.00    -0.0031  C
ATOM     13  C2  34D L   1      13.804 -13.498  -5.796  1.00  0.00    +0.1539  C
ATOM     14  N3  34D L   1      13.050 -14.007  -4.619  1.00  0.00    -0.1890  N
ATOM     15 H12  34D L   1      15.698 -13.527  -4.696  1.00  0.00    +0.0292  H
ATOM     16 H13  34D L   1      15.367 -14.995  -5.619  1.00  0.00    +0.0292  H
ATOM     17 H14  34D L   1      15.874 -13.524  -6.461  1.00  0.00    +0.0292  H
ATOM     18 H15  34D L   1      13.401 -14.043  -6.659  1.00  0.00    +0.1051  H
ATOM     19 H16  34D L   1      13.287 -13.486  -3.765  1.00  0.00    +0.4057 HD
ATOM     20 H17  34D L   1      13.223 -15.005  -4.447  1.00  0.00    +0.4057 HD
ENDBRANCH 1 13
TORSDOF 1
ENDMDL
MODEL 7
REMARK VINA RESULT:    -4.900     11.319     13.512
REMARK INTER + INTRA:          -5.257
REMARK INTER:                  -5.187
REMARK INTRA:                  -0.070
REMARK UNBOUND:                -0.071
ROOT
ATOM      1  C4  34D L   1      12.477 -10.998  -7.242  1.00  0.00    +0.0156  A
ATOM      2  C5  34D L   1      13.120 -11.798  -6.281  1.00  0.00    -0.0513  A
ATOM      3  C6  34D L   1      13.920 -12.880  -6.665  1.00  0.00    -0.0415  A
ATOM      4  C7  34D L   1      14.088 -13.194  -8.015  1.00  0.00    +0.0593  A
ATOM      5 CL8  34D L   1      15.081 -14.546  -8.414  1.00  0.00    -0.0820 Cl
ATOM      6  C9  34D L   1      13.449 -12.417  -8.983  1.00  0.00    +0.0597  A
ATOM      7 CL10 34D L   1      13.589 -12.740 -10.673  1.00  0.00    -0.0820 Cl
ATOM      8 C11  34D L   1      12.647 -11.330  -8.598  1.00  0.00    -0.0330  A
ATOM      9 H18  34D L   1      13.019 -11.591  -5.215  1.00  0.00    +0.0623  H
ATOM     10 H19  34D L   1      14.414 -13.481  -5.902  1.00  0.00    +0.0633  H
ATOM     11 H20  34D L   1      12.171 -10.750  -9.387  1.00  0.00    +0.0637  H
ENDROOT
BRANCH 1 13
ATOM     12  C1  34D L   1      12.330  -8.571  -6.399  1.00  0.00    -0.0031  C
ATOM     13  C2  34D L   1      11.597  -9.854  -6.781  1.00  0.00    +0.1539  C
ATOM     14  N3  34D L   1      10.595  -9.519  -7.828  1.00  0.00    -0.1890  N
ATOM     15 H12  34D L   1      12.809  -8.094  -7.262  1.00  0.00    +0.0292  H
ATOM     16 H13  34D L   1      11.633  -7.841  -5.970  1.00  0.00    +0.0292  H
ATOM     17 H14  34D L   1      13.104  -8.770  -5.650  1.00  0.00    +0.0292  H
ATOM     18 H15  34D L   1      11.013 -10.179  -5.910  1.00  0.00    +0.1051  H
ATOM     19 H16  34D L   1      11.045  -9.294  -8.724  1.00  0.00    +0.4057 HD
ATOM     20 H17  34D L   1       9.999  -8.726  -7.557  1.00  0.00    +0.4057 HD
ENDBRANCH 1 13
TORSDOF 1
ENDMDL
MODEL 8
REMARK VINA RESULT:    -4.877      1.727      2.041
REMARK INTER + INTRA:          -5.233
REMARK INTER:                  -5.164
REMARK INTRA:                  -0.069
REMARK UNBOUND:                -0.071
ROOT
ATOM      1  C4  34D L   1       6.546  -1.895  -3.546  1.00  0.00    +0.0156  A
ATOM      2  C5  34D L   1       6.177  -0.915  -2.607  1.00  0.00    -0.0513  A
ATOM      3  C6  34D L   1       7.122  -0.365  -1.733  1.00  0.00    -0.0415  A
ATOM      4  C7  34D L   1       8.453  -0.787  -1.770  1.00  0.00    +0.0593  A
ATOM      5 CL8  34D L   1       9.559  -0.073  -0.658  1.00  0.00    -0.0820 Cl
ATOM      6  C9  34D L   1       8.834  -1.767  -2.689  1.00  0.00    +0.0597  A
ATOM      7 CL10 34D L   1      10.452  -2.359  -2.796  1.00  0.00    -0.0820 Cl
ATOM      8 C11  34D L   1       7.886  -2.318  -3.567  1.00  0.00    -0.0330  A
ATOM      9 H18  34D L   1       5.151  -0.553  -2.541  1.00  0.00    +0.0623  H
ATOM     10 H19  34D L   1       6.815   0.398  -1.018  1.00  0.00    +0.0633  H
ATOM     11 H20  34D L   1       8.230  -3.076  -4.269  1.00  0.00    +0.0637  H
ENDROOT
BRANCH 1 13
ATOM     12  C1  34D L   1       5.584  -3.987  -4.696  1.00  0.00    -0.0031  C
ATOM     13  C2  34D L   1       5.484  -2.483  -4.452  1.00  0.00    +0.1539  C
ATOM     14  N3  34D L   1       4.127  -2.194  -3.915  1.00  0.00    -0.1890  N
ATOM     15 H12  34D L   1       5.390  -4.569  -3.788  1.00  0.00    +0.0292  H
ATOM     16 H13  34D L   1       4.854  -4.306  -5.449  1.00  0.00    +0.0292  H
ATOM     17 H14  34D L   1       6.581  -4.259  -5.065  1.00  0.00    +0.0292  H
ATOM     18 H15  34D L   1       5.526  -1.982  -5.427  1.00  0.00    +0.1051  H
ATOM     19 H16  34D L   1       4.020  -2.541  -2.954  1.00  0.00    +0.4057 HD
ATOM     20 H17  34D L   1       3.383  -2.605  -4.493  1.00  0.00    +0.4057 HD
ENDBRANCH 1 13
TORSDOF 1
ENDMDL
MODEL 9
REMARK VINA RESULT:    -4.748     12.540     14.095
REMARK INTER + INTRA:          -5.097
REMARK INTER:                  -5.026
REMARK INTRA:                  -0.070
REMARK UNBOUND:                -0.071
ROOT
ATOM      1  C4  34D L   1      13.204 -12.809  -9.933  1.00  0.00    +0.0156  A
ATOM      2  C5  34D L   1      12.050 -12.171 -10.423  1.00  0.00    -0.0513  A
ATOM      3  C6  34D L   1      11.350 -11.248  -9.636  1.00  0.00    -0.0415  A
ATOM      4  C7  34D L   1      11.781 -10.949  -8.342  1.00  0.00    +0.0593  A
ATOM      5 CL8  34D L   1      10.865  -9.809  -7.429  1.00  0.00    -0.0820 Cl
ATOM      6  C9  34D L   1      12.918 -11.580  -7.836  1.00  0.00    +0.0597  A
ATOM      7 CL10 34D L   1      13.514 -11.283  -6.243  1.00  0.00    -0.0820 Cl
ATOM      8 C11  34D L   1      13.621 -12.506  -8.625  1.00  0.00    -0.0330  A
ATOM      9 H18  34D L   1      11.676 -12.372 -11.427  1.00  0.00    +0.0623  H
ATOM     10 H19  34D L   1      10.463 -10.761 -10.040  1.00  0.00    +0.0633  H
ATOM     11 H20  34D L   1      14.504 -12.971  -8.190  1.00  0.00    +0.0637  H
ENDROOT
BRANCH 1 13
ATOM     12  C1  34D L   1      14.835 -13.241 -11.876  1.00  0.00    -0.0031  C
ATOM     13  C2  34D L   1      13.913 -13.823 -10.807  1.00  0.00    +0.1539  C
ATOM     14  N3  34D L   1      14.711 -14.759  -9.970  1.00  0.00    -0.1890  N
ATOM     15 H12  34D L   1      15.705 -12.736 -11.443  1.00  0.00    +0.0292  H
ATOM     16 H13  34D L   1      15.213 -14.034 -12.533  1.00  0.00    +0.0292  H
ATOM     17 H14  34D L   1      14.301 -12.519 -12.503  1.00  0.00    +0.0292  H
ATOM     18 H15  34D L   1      13.165 -14.447 -11.313  1.00  0.00    +0.1051  H
ATOM     19 H16  34D L   1      15.382 -14.256  -9.376  1.00  0.00    +0.4057 HD
ATOM     20 H17  34D L   1      15.229 -15.443 -10.536  1.00  0.00    +0.4057 HD
ENDBRANCH 1 13
TORSDOF 1
ENDMDL
MODEL 10
REMARK VINA RESULT:    -4.670     13.636     15.000
REMARK INTER + INTRA:          -5.014
REMARK INTER:                  -4.959
REMARK INTRA:                  -0.054
REMARK UNBOUND:                -0.071
ROOT
ATOM      1  C4  34D L   1      -0.841  -5.806 -11.355  1.00  0.00    +0.0156  A
ATOM      2  C5  34D L   1      -0.801  -7.185 -11.084  1.00  0.00    -0.0513  A
ATOM      3  C6  34D L   1      -1.973  -7.951 -11.080  1.00  0.00    -0.0415  A
ATOM      4  C7  34D L   1      -3.210  -7.357 -11.338  1.00  0.00    +0.0593  A
ATOM      5 CL8  34D L   1      -4.611  -8.360 -11.308  1.00  0.00    -0.0820 Cl
ATOM      6  C9  34D L   1      -3.270  -5.986 -11.599  1.00  0.00    +0.0597  A
ATOM      7 CL10 34D L   1      -4.755  -5.164 -11.913  1.00  0.00    -0.0820 Cl
ATOM      8 C11  34D L   1      -2.093  -5.218 -11.604  1.00  0.00    -0.0330  A
ATOM      9 H18  34D L   1       0.141  -7.694 -10.879  1.00  0.00    +0.0623  H
ATOM     10 H19  34D L   1      -1.917  -9.020 -10.875  1.00  0.00    +0.0633  H
ATOM     11 H20  34D L   1      -2.188  -4.154 -11.816  1.00  0.00    +0.0637  H
ENDROOT
BRANCH 1 13
ATOM     12  C1  34D L   1       0.541  -3.861 -12.321  1.00  0.00    -0.0031  C
ATOM     13  C2  34D L   1       0.448  -5.010 -11.320  1.00  0.00    +0.1539  C
ATOM     14  N3  34D L   1       0.675  -4.454  -9.959  1.00  0.00    -0.1890  N
ATOM     15 H12  34D L   1      -0.172  -3.060 -12.101  1.00  0.00    +0.0292  H
ATOM     16 H13  34D L   1       1.544  -3.417 -12.307  1.00  0.00    +0.0292  H
ATOM     17 H14  34D L   1       0.350  -4.214 -13.341  1.00  0.00    +0.0292  H
ATOM     18 H15  34D L   1       1.292  -5.686 -11.505  1.00  0.00    +0.1051  H
ATOM     19 H16  34D L   1      -0.118  -3.879  -9.649  1.00  0.00    +0.4057 HD
ATOM     20 H17  34D L   1       1.528  -3.884  -9.908  1.00  0.00    +0.4057 HD
ENDBRANCH 1 13
TORSDOF 1
ENDMDL
MODEL 11
REMARK VINA RESULT:    -4.581     12.643     13.090
REMARK INTER + INTRA:          -4.920
REMARK INTER:                  -4.863
REMARK INTRA:                  -0.057
REMARK UNBOUND:                -0.071
ROOT
ATOM      1  C4  34D L   1       1.649  -5.434 -12.042  1.00  0.00    +0.0156  A
ATOM      2  C5  34D L   1       1.594  -4.354 -12.941  1.00  0.00    -0.0513  A
ATOM      3  C6  34D L   1       2.558  -4.205 -13.946  1.00  0.00    -0.0415  A
ATOM      4  C7  34D L   1       3.600  -5.126 -14.070  1.00  0.00    +0.0593  A
ATOM      5 CL8  34D L   1       4.755  -4.875 -15.326  1.00  0.00    -0.0820 Cl
ATOM      6  C9  34D L   1       3.676  -6.199 -13.180  1.00  0.00    +0.0597  A
ATOM      7 CL10 34D L   1       4.937  -7.376 -13.250  1.00  0.00    -0.0820 Cl
ATOM      8 C11  34D L   1       2.708  -6.349 -12.173  1.00  0.00    -0.0330  A
ATOM      9 H18  34D L   1       0.799  -3.611 -12.884  1.00  0.00    +0.0623  H
ATOM     10 H19  34D L   1       2.491  -3.364 -14.635  1.00  0.00    +0.0633  H
ATOM     11 H20  34D L   1       2.805  -7.202 -11.504  1.00  0.00    +0.0637  H
ENDROOT
BRANCH 1 13
ATOM     12  C1  34D L   1       0.531  -6.885 -10.234  1.00  0.00    -0.0031  C
ATOM     13  C2  34D L   1       0.602  -5.540 -10.952  1.00  0.00    +0.1539  C
ATOM     14  N3  34D L   1       0.815  -4.482  -9.928  1.00  0.00    -0.1890  N
ATOM     15 H12  34D L   1       1.430  -7.088  -9.642  1.00  0.00    +0.0292  H
ATOM     16 H13  34D L   1      -0.324  -6.912  -9.547  1.00  0.00    +0.0292  H
ATOM     17 H14  34D L   1       0.405  -7.705 -10.951  1.00  0.00    +0.0292  H
ATOM     18 H15  34D L   1      -0.386  -5.336 -11.382  1.00  0.00    +0.1051  H
ATOM     19 H16  34D L   1       1.762  -4.526  -9.531  1.00  0.00    +0.4057 HD
ATOM     20 H17  34D L   1       0.137  -4.544  -9.157  1.00  0.00    +0.4057 HD
ENDBRANCH 1 13
TORSDOF 1
ENDMDL
MODEL 12
REMARK VINA RESULT:    -4.530     12.593     13.096
REMARK INTER + INTRA:          -4.866
REMARK INTER:                  -4.795
REMARK INTRA:                  -0.071
REMARK UNBOUND:                -0.071
ROOT
ATOM      1  C4  34D L   1       3.513  -6.314 -13.182  1.00  0.00    +0.0156  A
ATOM      2  C5  34D L   1       3.515  -5.255 -14.108  1.00  0.00    -0.0513  A
ATOM      3  C6  34D L   1       2.584  -4.214 -14.011  1.00  0.00    -0.0415  A
ATOM      4  C7  34D L   1       1.626  -4.211 -12.996  1.00  0.00    +0.0593  A
ATOM      5 CL8  34D L   1       0.506  -2.901 -12.944  1.00  0.00    -0.0820 Cl
ATOM      6  C9  34D L   1       1.602  -5.259 -12.074  1.00  0.00    +0.0597  A
ATOM      7 CL10 34D L   1       0.446  -5.346 -10.795  1.00  0.00    -0.0820 Cl
ATOM      8 C11  34D L   1       2.537  -6.303 -12.170  1.00  0.00    -0.0330  A
ATOM      9 H18  34D L   1       4.244  -5.213 -14.918  1.00  0.00    +0.0623  H
ATOM     10 H19  34D L   1       2.609  -3.400 -14.736  1.00  0.00    +0.0633  H
ATOM     11 H20  34D L   1       2.484  -7.098 -11.427  1.00  0.00    +0.0637  H
ENDROOT
BRANCH 1 13
ATOM     12  C1  34D L   1       5.930  -7.130 -12.843  1.00  0.00    -0.0031  C
ATOM     13  C2  34D L   1       4.519  -7.434 -13.342  1.00  0.00    +0.1539  C
ATOM     14  N3  34D L   1       4.041  -8.661 -12.650  1.00  0.00    -0.1890  N
ATOM     15 H12  34D L   1       5.967  -7.006 -11.755  1.00  0.00    +0.0292  H
ATOM     16 H13  34D L   1       6.616  -7.945 -13.101  1.00  0.00    +0.0292  H
ATOM     17 H14  34D L   1       6.318  -6.213 -13.301  1.00  0.00    +0.0292  H
ATOM     18 H15  34D L   1       4.590  -7.705 -14.403  1.00  0.00    +0.1051  H
ATOM     19 H16  34D L   1       3.847  -8.483 -11.657  1.00  0.00    +0.4057 HD
ATOM     20 H17  34D L   1       4.716  -9.433 -12.715  1.00  0.00    +0.4057 HD
ENDBRANCH 1 13
TORSDOF 1
ENDMDL
