MODEL 1
REMARK VINA RESULT:    -6.336      0.000      0.000
REMARK INTER + INTRA:          -6.336
REMARK INTER:                  -6.336
REMARK INTRA:                   0.000
REMARK UNBOUND:                 0.000
ROOT
ATOM      1 CL1  SKF L   1       7.813   0.702  -0.330  1.00  0.00    -0.0831 Cl
ATOM      2  C2  SKF L   1       8.484  -0.459  -1.419  1.00  0.00    +0.0498  A
ATOM      3  C3  SKF L   1       9.857  -0.698  -1.355  1.00  0.00    -0.0429  A
ATOM      4  C4  SKF L   1      10.440  -1.635  -2.203  1.00  0.00    -0.0601  A
ATOM      5  C5  SKF L   1       9.653  -2.343  -3.109  1.00  0.00    -0.0579  A
ATOM      6  C6  SKF L   1       8.270  -2.122  -3.175  1.00  0.00    -0.0321  A
ATOM      7  C7  SKF L   1       7.452  -2.897  -4.182  1.00  0.00    +0.0227  C
ATOM      8  C8  SKF L   1       5.959  -2.880  -3.868  1.00  0.00    +0.0823  C
ATOM      9  N9  SKF L   1       5.532  -1.476  -3.601  1.00  0.00    -0.3450  N
ATOM     10 C10  SKF L   1       6.191  -0.901  -2.386  1.00  0.00    +0.1054  C
ATOM     11 C11  SKF L   1       7.674  -1.151  -2.338  1.00  0.00    +0.0285  A
ATOM     12 H12  SKF L   1      10.482  -0.159  -0.645  1.00  0.00    +0.0632  H
ATOM     13 H13  SKF L   1      11.513  -1.818  -2.155  1.00  0.00    +0.0618  H
ATOM     14 H14  SKF L   1      10.132  -3.073  -3.761  1.00  0.00    +0.0620  H
ATOM     15 H15  SKF L   1       7.792  -3.939  -4.218  1.00  0.00    +0.0368  H
ATOM     16 H16  SKF L   1       7.624  -2.455  -5.172  1.00  0.00    +0.0368  H
ATOM     17 H17  SKF L   1       5.714  -3.470  -2.978  1.00  0.00    +0.0919  H
ATOM     18 H18  SKF L   1       5.369  -3.245  -4.714  1.00  0.00    +0.0919  H
ATOM     19 H19  SKF L   1       4.512  -1.426  -3.486  1.00  0.00    +0.3469 HD
ATOM     20 H20  SKF L   1       5.763  -0.882  -4.408  1.00  0.00    +0.3469 HD
ATOM     21 H21  SKF L   1       5.963   0.169  -2.420  1.00  0.00    +0.0970  H
ATOM     22 H22  SKF L   1       5.701  -1.358  -1.521  1.00  0.00    +0.0970  H
ENDROOT
TORSDOF 0
ENDMDL
MODEL 2
REMARK VINA RESULT:    -6.071      1.777      2.661
REMARK INTER + INTRA:          -6.071
REMARK INTER:                  -6.071
REMARK INTRA:                   0.000
REMARK UNBOUND:                 0.000
ROOT
ATOM      1 CL1  SKF L   1      10.816  -2.247  -2.818  1.00  0.00    -0.0831 Cl
ATOM      2  C2  SKF L   1       9.515  -1.338  -2.136  1.00  0.00    +0.0498  A
ATOM      3  C3  SKF L   1       9.822  -0.385  -1.166  1.00  0.00    -0.0429  A
ATOM      4  C4  SKF L   1       8.806   0.381  -0.598  1.00  0.00    -0.0601  A
ATOM      5  C5  SKF L   1       7.486   0.204  -1.007  1.00  0.00    -0.0579  A
ATOM      6  C6  SKF L   1       7.166  -0.743  -1.991  1.00  0.00    -0.0321  A
ATOM      7  C7  SKF L   1       5.720  -0.916  -2.395  1.00  0.00    +0.0227  C
ATOM      8  C8  SKF L   1       5.564  -1.641  -3.729  1.00  0.00    +0.0823  C
ATOM      9  N9  SKF L   1       6.407  -2.872  -3.717  1.00  0.00    -0.3450  N
ATOM     10 C10  SKF L   1       7.868  -2.562  -3.612  1.00  0.00    +0.1054  C
ATOM     11 C11  SKF L   1       8.186  -1.544  -2.550  1.00  0.00    +0.0285  A
ATOM     12 H12  SKF L   1      10.850  -0.229  -0.845  1.00  0.00    +0.0632  H
ATOM     13 H13  SKF L   1       9.047   1.123   0.162  1.00  0.00    +0.0618  H
ATOM     14 H14  SKF L   1       6.710   0.817  -0.550  1.00  0.00    +0.0620  H
ATOM     15 H15  SKF L   1       5.230   0.062  -2.467  1.00  0.00    +0.0368  H
ATOM     16 H16  SKF L   1       5.213  -1.486  -1.606  1.00  0.00    +0.0368  H
ATOM     17 H17  SKF L   1       5.893  -1.030  -4.576  1.00  0.00    +0.0919  H
ATOM     18 H18  SKF L   1       4.530  -1.957  -3.893  1.00  0.00    +0.0919  H
ATOM     19 H19  SKF L   1       6.241  -3.430  -4.565  1.00  0.00    +0.3469 HD
ATOM     20 H20  SKF L   1       6.143  -3.468  -2.922  1.00  0.00    +0.3469 HD
ATOM     21 H21  SKF L   1       8.347  -3.524  -3.407  1.00  0.00    +0.0970  H
ATOM     22 H22  SKF L   1       8.178  -2.194  -4.595  1.00  0.00    +0.0970  H
ENDROOT
TORSDOF 0
ENDMDL
MODEL 3
REMARK VINA RESULT:    -5.916      1.721      2.635
REMARK INTER + INTRA:          -5.916
REMARK INTER:                  -5.916
REMARK INTRA:                   0.000
REMARK UNBOUND:                 0.000
ROOT
ATOM      1 CL1  SKF L   1       5.518  -0.428  -2.038  1.00  0.00    -0.0831 Cl
ATOM      2  C2  SKF L   1       7.220  -0.530  -1.765  1.00  0.00    +0.0498  A
ATOM      3  C3  SKF L   1       7.827   0.491  -1.035  1.00  0.00    -0.0429  A
ATOM      4  C4  SKF L   1       9.195   0.444  -0.778  1.00  0.00    -0.0601  A
ATOM      5  C5  SKF L   1       9.956  -0.629  -1.239  1.00  0.00    -0.0579  A
ATOM      6  C6  SKF L   1       9.355  -1.669  -1.963  1.00  0.00    -0.0321  A
ATOM      7  C7  SKF L   1      10.217  -2.807  -2.460  1.00  0.00    +0.0227  C
ATOM      8  C8  SKF L   1       9.403  -4.039  -2.844  1.00  0.00    +0.0823  C
ATOM      9  N9  SKF L   1       8.273  -3.623  -3.725  1.00  0.00    -0.3450  N
ATOM     10 C10  SKF L   1       7.306  -2.721  -3.023  1.00  0.00    +0.1054  C
ATOM     11 C11  SKF L   1       7.973  -1.613  -2.254  1.00  0.00    +0.0285  A
ATOM     12 H12  SKF L   1       7.243   1.330  -0.661  1.00  0.00    +0.0632  H
ATOM     13 H13  SKF L   1       9.669   1.244  -0.211  1.00  0.00    +0.0618  H
ATOM     14 H14  SKF L   1      11.024  -0.645  -1.022  1.00  0.00    +0.0620  H
ATOM     15 H15  SKF L   1      10.944  -3.091  -1.690  1.00  0.00    +0.0368  H
ATOM     16 H16  SKF L   1      10.778  -2.450  -3.333  1.00  0.00    +0.0368  H
ATOM     17 H17  SKF L   1       8.969  -4.539  -1.972  1.00  0.00    +0.0919  H
ATOM     18 H18  SKF L   1      10.007  -4.756  -3.406  1.00  0.00    +0.0919  H
ATOM     19 H19  SKF L   1       7.770  -4.447  -4.078  1.00  0.00    +0.3469 HD
ATOM     20 H20  SKF L   1       8.638  -3.130  -4.550  1.00  0.00    +0.3469 HD
ATOM     21 H21  SKF L   1       6.658  -2.330  -3.815  1.00  0.00    +0.0970  H
ATOM     22 H22  SKF L   1       6.724  -3.355  -2.347  1.00  0.00    +0.0970  H
ENDROOT
TORSDOF 0
ENDMDL
MODEL 4
REMARK VINA RESULT:    -5.786      2.015      3.517
REMARK INTER + INTRA:          -5.786
REMARK INTER:                  -5.786
REMARK INTRA:                   0.000
REMARK UNBOUND:                 0.000
ROOT
ATOM      1 CL1  SKF L   1       5.349  -0.677  -2.553  1.00  0.00    -0.0831 Cl
ATOM      2  C2  SKF L   1       6.778  -1.613  -2.811  1.00  0.00    +0.0498  A
ATOM      3  C3  SKF L   1       6.682  -2.742  -3.624  1.00  0.00    -0.0429  A
ATOM      4  C4  SKF L   1       7.810  -3.519  -3.871  1.00  0.00    -0.0601  A
ATOM      5  C5  SKF L   1       9.038  -3.164  -3.317  1.00  0.00    -0.0579  A
ATOM      6  C6  SKF L   1       9.151  -2.024  -2.509  1.00  0.00    -0.0321  A
ATOM      7  C7  SKF L   1      10.497  -1.681  -1.913  1.00  0.00    +0.0227  C
ATOM      8  C8  SKF L   1      10.576  -0.236  -1.427  1.00  0.00    +0.0823  C
ATOM      9  N9  SKF L   1       9.379   0.063  -0.589  1.00  0.00    -0.3450  N
ATOM     10 C10  SKF L   1       8.103  -0.015  -1.369  1.00  0.00    +0.1054  C
ATOM     11 C11  SKF L   1       8.005  -1.247  -2.228  1.00  0.00    +0.0285  A
ATOM     12 H12  SKF L   1       5.730  -3.026  -4.071  1.00  0.00    +0.0632  H
ATOM     13 H13  SKF L   1       7.732  -4.403  -4.504  1.00  0.00    +0.0618  H
ATOM     14 H14  SKF L   1       9.908  -3.786  -3.528  1.00  0.00    +0.0620  H
ATOM     15 H15  SKF L   1      11.289  -1.847  -2.653  1.00  0.00    +0.0368  H
ATOM     16 H16  SKF L   1      10.679  -2.362  -1.071  1.00  0.00    +0.0368  H
ATOM     17 H17  SKF L   1      10.582   0.481  -2.255  1.00  0.00    +0.0919  H
ATOM     18 H18  SKF L   1      11.459  -0.073  -0.803  1.00  0.00    +0.0919  H
ATOM     19 H19  SKF L   1       9.459   0.998  -0.169  1.00  0.00    +0.3469 HD
ATOM     20 H20  SKF L   1       9.325  -0.603   0.192  1.00  0.00    +0.3469 HD
ATOM     21 H21  SKF L   1       7.309   0.016  -0.616  1.00  0.00    +0.0970  H
ATOM     22 H22  SKF L   1       8.063   0.885  -1.990  1.00  0.00    +0.0970  H
ENDROOT
TORSDOF 0
ENDMDL
MODEL 5
REMARK VINA RESULT:    -5.645      2.196      3.348
REMARK INTER + INTRA:          -5.645
REMARK INTER:                  -5.645
REMARK INTRA:                   0.000
REMARK UNBOUND:                 0.000
ROOT
ATOM      1 CL1  SKF L   1       6.212  -3.066  -4.276  1.00  0.00    -0.0831 Cl
ATOM      2  C2  SKF L   1       7.649  -2.800  -3.356  1.00  0.00    +0.0498  A
ATOM      3  C3  SKF L   1       8.698  -3.706  -3.505  1.00  0.00    -0.0429  A
ATOM      4  C4  SKF L   1       9.881  -3.524  -2.794  1.00  0.00    -0.0601  A
ATOM      5  C5  SKF L   1      10.023  -2.431  -1.942  1.00  0.00    -0.0579  A
ATOM      6  C6  SKF L   1       8.980  -1.505  -1.793  1.00  0.00    -0.0321  A
ATOM      7  C7  SKF L   1       9.166  -0.341  -0.847  1.00  0.00    +0.0227  C
ATOM      8  C8  SKF L   1       8.166   0.785  -1.094  1.00  0.00    +0.0823  C
ATOM      9  N9  SKF L   1       6.793   0.208  -1.181  1.00  0.00    -0.3450  N
ATOM     10 C10  SKF L   1       6.636  -0.715  -2.349  1.00  0.00    +0.1054  C
ATOM     11 C11  SKF L   1       7.766  -1.699  -2.488  1.00  0.00    +0.0285  A
ATOM     12 H12  SKF L   1       8.604  -4.560  -4.175  1.00  0.00    +0.0632  H
ATOM     13 H13  SKF L   1      10.699  -4.235  -2.909  1.00  0.00    +0.0618  H
ATOM     14 H14  SKF L   1      10.959  -2.308  -1.398  1.00  0.00    +0.0620  H
ATOM     15 H15  SKF L   1      10.181   0.063  -0.944  1.00  0.00    +0.0368  H
ATOM     16 H16  SKF L   1       9.052  -0.715   0.178  1.00  0.00    +0.0368  H
ATOM     17 H17  SKF L   1       8.358   1.314  -2.034  1.00  0.00    +0.0919  H
ATOM     18 H18  SKF L   1       8.165   1.505  -0.270  1.00  0.00    +0.0919  H
ATOM     19 H19  SKF L   1       6.092   0.957  -1.246  1.00  0.00    +0.3469 HD
ATOM     20 H20  SKF L   1       6.580  -0.315  -0.322  1.00  0.00    +0.3469 HD
ATOM     21 H21  SKF L   1       5.678  -1.219  -2.184  1.00  0.00    +0.0970  H
ATOM     22 H22  SKF L   1       6.573  -0.081  -3.239  1.00  0.00    +0.0970  H
ENDROOT
TORSDOF 0
ENDMDL
MODEL 6
REMARK VINA RESULT:    -5.280     10.125     11.195
REMARK INTER + INTRA:          -5.280
REMARK INTER:                  -5.280
REMARK INTRA:                   0.000
REMARK UNBOUND:                 0.000
ROOT
ATOM      1 CL1  SKF L   1      15.407  -7.756  -8.718  1.00  0.00    -0.0831 Cl
ATOM      2  C2  SKF L   1      13.966  -8.252  -7.904  1.00  0.00    +0.0498  A
ATOM      3  C3  SKF L   1      13.543  -7.501  -6.807  1.00  0.00    -0.0429  A
ATOM      4  C4  SKF L   1      12.380  -7.855  -6.129  1.00  0.00    -0.0601  A
ATOM      5  C5  SKF L   1      11.630  -8.951  -6.552  1.00  0.00    -0.0579  A
ATOM      6  C6  SKF L   1      12.037  -9.706  -7.661  1.00  0.00    -0.0321  A
ATOM      7  C7  SKF L   1      11.206 -10.897  -8.079  1.00  0.00    +0.0227  C
ATOM      8  C8  SKF L   1      11.507 -11.355  -9.503  1.00  0.00    +0.0823  C
ATOM      9  N9  SKF L   1      12.983 -11.478  -9.676  1.00  0.00    -0.3450  N
ATOM     10 C10  SKF L   1      13.685 -10.163  -9.534  1.00  0.00    +0.1054  C
ATOM     11 C11  SKF L   1      13.232  -9.372  -8.337  1.00  0.00    +0.0285  A
ATOM     12 H12  SKF L   1      14.115  -6.637  -6.472  1.00  0.00    +0.0632  H
ATOM     13 H13  SKF L   1      12.054  -7.270  -5.270  1.00  0.00    +0.0618  H
ATOM     14 H14  SKF L   1      10.722  -9.206  -6.007  1.00  0.00    +0.0620  H
ATOM     15 H15  SKF L   1      10.139 -10.655  -8.005  1.00  0.00    +0.0368  H
ATOM     16 H16  SKF L   1      11.411 -11.717  -7.379  1.00  0.00    +0.0368  H
ATOM     17 H17  SKF L   1      11.149 -10.642 -10.254  1.00  0.00    +0.0919  H
ATOM     18 H18  SKF L   1      11.073 -12.339  -9.706  1.00  0.00    +0.0919  H
ATOM     19 H19  SKF L   1      13.206 -11.881 -10.595  1.00  0.00    +0.3469 HD
ATOM     20 H20  SKF L   1      13.363 -12.127  -8.974  1.00  0.00    +0.3469 HD
ATOM     21 H21  SKF L   1      14.749 -10.415  -9.474  1.00  0.00    +0.0970  H
ATOM     22 H22  SKF L   1      13.487  -9.605 -10.455  1.00  0.00    +0.0970  H
ENDROOT
TORSDOF 0
ENDMDL
MODEL 7
REMARK VINA RESULT:    -5.181     11.668     12.832
REMARK INTER + INTRA:          -5.181
REMARK INTER:                  -5.181
REMARK INTRA:                   0.000
REMARK UNBOUND:                 0.000
ROOT
ATOM      1 CL1  SKF L   1      14.216 -10.683  -5.819  1.00  0.00    -0.0831 Cl
ATOM      2  C2  SKF L   1      12.947 -10.711  -6.990  1.00  0.00    +0.0498  A
ATOM      3  C3  SKF L   1      11.830  -9.907  -6.763  1.00  0.00    -0.0429  A
ATOM      4  C4  SKF L   1      10.788  -9.886  -7.687  1.00  0.00    -0.0601  A
ATOM      5  C5  SKF L   1      10.865 -10.659  -8.843  1.00  0.00    -0.0579  A
ATOM      6  C6  SKF L   1      11.988 -11.463  -9.089  1.00  0.00    -0.0321  A
ATOM      7  C7  SKF L   1      12.026 -12.300 -10.348  1.00  0.00    +0.0227  C
ATOM      8  C8  SKF L   1      13.433 -12.776 -10.696  1.00  0.00    +0.0823  C
ATOM      9  N9  SKF L   1      14.064 -13.368  -9.481  1.00  0.00    -0.3450  N
ATOM     10 C10  SKF L   1      14.254 -12.361  -8.389  1.00  0.00    +0.1054  C
ATOM     11 C11  SKF L   1      13.036 -11.512  -8.143  1.00  0.00    +0.0285  A
ATOM     12 H12  SKF L   1      11.762  -9.290  -5.868  1.00  0.00    +0.0632  H
ATOM     13 H13  SKF L   1       9.915  -9.260  -7.506  1.00  0.00    +0.0618  H
ATOM     14 H14  SKF L   1      10.038 -10.625  -9.552  1.00  0.00    +0.0620  H
ATOM     15 H15  SKF L   1      11.629 -11.725 -11.193  1.00  0.00    +0.0368  H
ATOM     16 H16  SKF L   1      11.371 -13.168 -10.198  1.00  0.00    +0.0368  H
ATOM     17 H17  SKF L   1      14.079 -11.957 -11.032  1.00  0.00    +0.0919  H
ATOM     18 H18  SKF L   1      13.412 -13.554 -11.464  1.00  0.00    +0.0919  H
ATOM     19 H19  SKF L   1      14.974 -13.786  -9.715  1.00  0.00    +0.3469 HD
ATOM     20 H20  SKF L   1      13.477 -14.132  -9.121  1.00  0.00    +0.3469 HD
ATOM     21 H21  SKF L   1      14.522 -12.949  -7.505  1.00  0.00    +0.0970  H
ATOM     22 H22  SKF L   1      15.099 -11.734  -8.689  1.00  0.00    +0.0970  H
ENDROOT
TORSDOF 0
ENDMDL
MODEL 8
REMARK VINA RESULT:    -5.040      2.537      4.287
REMARK INTER + INTRA:          -5.040
REMARK INTER:                  -5.040
REMARK INTRA:                   0.000
REMARK UNBOUND:                 0.000
ROOT
ATOM      1 CL1  SKF L   1       8.932  -4.100  -3.588  1.00  0.00    -0.0831 Cl
ATOM      2  C2  SKF L   1       7.909  -2.766  -3.190  1.00  0.00    +0.0498  A
ATOM      3  C3  SKF L   1       6.592  -2.792  -3.648  1.00  0.00    -0.0429  A
ATOM      4  C4  SKF L   1       5.727  -1.746  -3.340  1.00  0.00    -0.0601  A
ATOM      5  C5  SKF L   1       6.172  -0.678  -2.563  1.00  0.00    -0.0579  A
ATOM      6  C6  SKF L   1       7.490  -0.645  -2.086  1.00  0.00    -0.0321  A
ATOM      7  C7  SKF L   1       7.939   0.539  -1.260  1.00  0.00    +0.0227  C
ATOM      8  C8  SKF L   1       9.214   0.257  -0.470  1.00  0.00    +0.0823  C
ATOM      9  N9  SKF L   1      10.230  -0.346  -1.381  1.00  0.00    -0.3450  N
ATOM     10 C10  SKF L   1       9.799  -1.678  -1.912  1.00  0.00    +0.1054  C
ATOM     11 C11  SKF L   1       8.382  -1.688  -2.419  1.00  0.00    +0.0285  A
ATOM     12 H12  SKF L   1       6.229  -3.626  -4.247  1.00  0.00    +0.0632  H
ATOM     13 H13  SKF L   1       4.700  -1.766  -3.702  1.00  0.00    +0.0618  H
ATOM     14 H14  SKF L   1       5.475   0.128  -2.333  1.00  0.00    +0.0620  H
ATOM     15 H15  SKF L   1       7.148   0.830  -0.560  1.00  0.00    +0.0368  H
ATOM     16 H16  SKF L   1       8.109   1.383  -1.942  1.00  0.00    +0.0368  H
ATOM     17 H17  SKF L   1       9.048  -0.452   0.348  1.00  0.00    +0.0919  H
ATOM     18 H18  SKF L   1       9.645   1.178  -0.066  1.00  0.00    +0.0919  H
ATOM     19 H19  SKF L   1      11.130  -0.453  -0.895  1.00  0.00    +0.3469 HD
ATOM     20 H20  SKF L   1      10.401   0.281  -2.177  1.00  0.00    +0.3469 HD
ATOM     21 H21  SKF L   1      10.515  -1.911  -2.707  1.00  0.00    +0.0970  H
ATOM     22 H22  SKF L   1       9.913  -2.392  -1.090  1.00  0.00    +0.0970  H
ENDROOT
TORSDOF 0
ENDMDL
MODEL 9
REMARK VINA RESULT:    -4.956     10.218     11.617
REMARK INTER + INTRA:          -4.956
REMARK INTER:                  -4.956
REMARK INTRA:                   0.000
REMARK UNBOUND:                 0.000
ROOT
ATOM      1 CL1  SKF L   1      14.336 -10.907 -10.251  1.00  0.00    -0.0831 Cl
ATOM      2  C2  SKF L   1      13.129 -10.442  -9.106  1.00  0.00    +0.0498  A
ATOM      3  C3  SKF L   1      11.930 -11.155  -9.094  1.00  0.00    -0.0429  A
ATOM      4  C4  SKF L   1      10.934 -10.824  -8.179  1.00  0.00    -0.0601  A
ATOM      5  C5  SKF L   1      11.137  -9.791  -7.267  1.00  0.00    -0.0579  A
ATOM      6  C6  SKF L   1      12.343  -9.074  -7.260  1.00  0.00    -0.0321  A
ATOM      7  C7  SKF L   1      12.519  -7.949  -6.267  1.00  0.00    +0.0227  C
ATOM      8  C8  SKF L   1      13.980  -7.551  -6.080  1.00  0.00    +0.0823  C
ATOM      9  N9  SKF L   1      14.610  -7.364  -7.419  1.00  0.00    -0.3450  N
ATOM     10 C10  SKF L   1      14.652  -8.633  -8.212  1.00  0.00    +0.1054  C
ATOM     11 C11  SKF L   1      13.347  -9.384  -8.205  1.00  0.00    +0.0285  A
ATOM     12 H12  SKF L   1      11.762 -11.971  -9.794  1.00  0.00    +0.0632  H
ATOM     13 H13  SKF L   1       9.996 -11.380  -8.174  1.00  0.00    +0.0618  H
ATOM     14 H14  SKF L   1      10.343  -9.553  -6.560  1.00  0.00    +0.0620  H
ATOM     15 H15  SKF L   1      12.106  -8.240  -5.293  1.00  0.00    +0.0368  H
ATOM     16 H16  SKF L   1      11.946  -7.085  -6.627  1.00  0.00    +0.0368  H
ATOM     17 H17  SKF L   1      14.557  -8.319  -5.553  1.00  0.00    +0.0919  H
ATOM     18 H18  SKF L   1      14.069  -6.602  -5.543  1.00  0.00    +0.0919  H
ATOM     19 H19  SKF L   1      15.566  -6.998  -7.319  1.00  0.00    +0.3469 HD
ATOM     20 H20  SKF L   1      14.086  -6.662  -7.956  1.00  0.00    +0.3469 HD
ATOM     21 H21  SKF L   1      14.936  -8.326  -9.223  1.00  0.00    +0.0970  H
ATOM     22 H22  SKF L   1      15.445  -9.247  -7.773  1.00  0.00    +0.0970  H
ENDROOT
TORSDOF 0
ENDMDL
MODEL 10
REMARK VINA RESULT:    -4.955     11.638     12.864
REMARK INTER + INTRA:          -4.955
REMARK INTER:                  -4.955
REMARK INTRA:                   0.000
REMARK UNBOUND:                 0.000
ROOT
ATOM      1 CL1  SKF L   1      16.008 -10.851  -9.098  1.00  0.00    -0.0831 Cl
ATOM      2  C2  SKF L   1      14.379 -11.317  -9.438  1.00  0.00    +0.0498  A
ATOM      3  C3  SKF L   1      14.171 -12.325 -10.379  1.00  0.00    -0.0429  A
ATOM      4  C4  SKF L   1      12.877 -12.743 -10.675  1.00  0.00    -0.0601  A
ATOM      5  C5  SKF L   1      11.789 -12.163 -10.025  1.00  0.00    -0.0579  A
ATOM      6  C6  SKF L   1      11.985 -11.157  -9.069  1.00  0.00    -0.0321  A
ATOM      7  C7  SKF L   1      10.779 -10.541  -8.398  1.00  0.00    +0.0227  C
ATOM      8  C8  SKF L   1      11.136  -9.794  -7.116  1.00  0.00    +0.0823  C
ATOM      9  N9  SKF L   1      12.287  -8.884  -7.384  1.00  0.00    -0.3450  N
ATOM     10 C10  SKF L   1      13.530  -9.633  -7.756  1.00  0.00    +0.1054  C
ATOM     11 C11  SKF L   1      13.294 -10.706  -8.784  1.00  0.00    +0.0285  A
ATOM     12 H12  SKF L   1      15.013 -12.794 -10.887  1.00  0.00    +0.0632  H
ATOM     13 H13  SKF L   1      12.716 -13.529 -11.413  1.00  0.00    +0.0618  H
ATOM     14 H14  SKF L   1      10.786 -12.509 -10.273  1.00  0.00    +0.0620  H
ATOM     15 H15  SKF L   1      10.045 -11.319  -8.159  1.00  0.00    +0.0368  H
ATOM     16 H16  SKF L   1      10.312  -9.848  -9.109  1.00  0.00    +0.0368  H
ATOM     17 H17  SKF L   1      11.436 -10.471  -6.309  1.00  0.00    +0.0919  H
ATOM     18 H18  SKF L   1      10.304  -9.173  -6.772  1.00  0.00    +0.0919  H
ATOM     19 H19  SKF L   1      12.481  -8.297  -6.563  1.00  0.00    +0.3469 HD
ATOM     20 H20  SKF L   1      12.052  -8.242  -8.152  1.00  0.00    +0.3469 HD
ATOM     21 H21  SKF L   1      14.222  -8.868  -8.122  1.00  0.00    +0.0970  H
ATOM     22 H22  SKF L   1      13.916 -10.071  -6.831  1.00  0.00    +0.0970  H
ENDROOT
TORSDOF 0
ENDMDL
MODEL 11
REMARK VINA RESULT:    -4.846     12.103     13.212
REMARK INTER + INTRA:          -4.846
REMARK INTER:                  -4.846
REMARK INTRA:                   0.000
REMARK UNBOUND:                 0.000
ROOT
ATOM      1 CL1  SKF L   1      13.417 -12.950 -11.074  1.00  0.00    -0.0831 Cl
ATOM      2  C2  SKF L   1      13.548 -12.731  -9.366  1.00  0.00    +0.0498  A
ATOM      3  C3  SKF L   1      14.550 -13.430  -8.693  1.00  0.00    -0.0429  A
ATOM      4  C4  SKF L   1      14.702 -13.274  -7.317  1.00  0.00    -0.0601  A
ATOM      5  C5  SKF L   1      13.863 -12.412  -6.615  1.00  0.00    -0.0579  A
ATOM      6  C6  SKF L   1      12.860 -11.694  -7.282  1.00  0.00    -0.0321  A
ATOM      7  C7  SKF L   1      11.958 -10.782  -6.482  1.00  0.00    +0.0227  C
ATOM      8  C8  SKF L   1      11.220  -9.770  -7.353  1.00  0.00    +0.0823  C
ATOM      9  N9  SKF L   1      10.596 -10.482  -8.506  1.00  0.00    -0.3450  N
ATOM     10 C10  SKF L   1      11.614 -11.105  -9.410  1.00  0.00    +0.1054  C
ATOM     11 C11  SKF L   1      12.679 -11.869  -8.672  1.00  0.00    +0.0285  A
ATOM     12 H12  SKF L   1      15.219 -14.099  -9.231  1.00  0.00    +0.0632  H
ATOM     13 H13  SKF L   1      15.483 -13.823  -6.792  1.00  0.00    +0.0618  H
ATOM     14 H14  SKF L   1      14.004 -12.305  -5.539  1.00  0.00    +0.0620  H
ATOM     15 H15  SKF L   1      12.545 -10.238  -5.732  1.00  0.00    +0.0368  H
ATOM     16 H16  SKF L   1      11.231 -11.406  -5.948  1.00  0.00    +0.0368  H
ATOM     17 H17  SKF L   1      11.891  -9.008  -7.766  1.00  0.00    +0.0919  H
ATOM     18 H18  SKF L   1      10.415  -9.279  -6.800  1.00  0.00    +0.0919  H
ATOM     19 H19  SKF L   1      10.010  -9.838  -9.052  1.00  0.00    +0.3469 HD
ATOM     20 H20  SKF L   1       9.971 -11.222  -8.161  1.00  0.00    +0.3469 HD
ATOM     21 H21  SKF L   1      11.039 -11.754 -10.078  1.00  0.00    +0.0970  H
ATOM     22 H22  SKF L   1      12.062 -10.287  -9.983  1.00  0.00    +0.0970  H
ENDROOT
TORSDOF 0
ENDMDL
MODEL 12
REMARK VINA RESULT:    -4.844     11.373     12.714
REMARK INTER + INTRA:          -4.844
REMARK INTER:                  -4.844
REMARK INTRA:                   0.000
REMARK UNBOUND:                 0.000
ROOT
ATOM      1 CL1  SKF L   1      11.861 -12.183 -10.385  1.00  0.00    -0.0831 Cl
ATOM      2  C2  SKF L   1      11.930 -11.247  -8.935  1.00  0.00    +0.0498  A
ATOM      3  C3  SKF L   1      10.809 -10.491  -8.591  1.00  0.00    -0.0429  A
ATOM      4  C4  SKF L   1      10.814  -9.732  -7.424  1.00  0.00    -0.0601  A
ATOM      5  C5  SKF L   1      11.932  -9.735  -6.593  1.00  0.00    -0.0579  A
ATOM      6  C6  SKF L   1      13.061 -10.500  -6.921  1.00  0.00    -0.0321  A
ATOM      7  C7  SKF L   1      14.260 -10.465  -6.002  1.00  0.00    +0.0227  C
ATOM      8  C8  SKF L   1      15.217 -11.630  -6.236  1.00  0.00    +0.0823  C
ATOM      9  N9  SKF L   1      15.498 -11.746  -7.696  1.00  0.00    -0.3450  N
ATOM     10 C10  SKF L   1      14.273 -12.084  -8.487  1.00  0.00    +0.1054  C
ATOM     11 C11  SKF L   1      13.076 -11.250  -8.119  1.00  0.00    +0.0285  A
ATOM     12 H12  SKF L   1       9.925 -10.488  -9.227  1.00  0.00    +0.0632  H
ATOM     13 H13  SKF L   1       9.939  -9.139  -7.159  1.00  0.00    +0.0618  H
ATOM     14 H14  SKF L   1      11.911  -9.135  -5.683  1.00  0.00    +0.0620  H
ATOM     15 H15  SKF L   1      13.932 -10.483  -4.956  1.00  0.00    +0.0368  H
ATOM     16 H16  SKF L   1      14.788  -9.517  -6.170  1.00  0.00    +0.0368  H
ATOM     17 H17  SKF L   1      14.796 -12.587  -5.908  1.00  0.00    +0.0919  H
ATOM     18 H18  SKF L   1      16.174 -11.468  -5.733  1.00  0.00    +0.0919  H
ATOM     19 H19  SKF L   1      16.218 -12.459  -7.869  1.00  0.00    +0.3469 HD
ATOM     20 H20  SKF L   1      15.878 -10.858  -8.050  1.00  0.00    +0.3469 HD
ATOM     21 H21  SKF L   1      14.561 -11.937  -9.533  1.00  0.00    +0.0970  H
ATOM     22 H22  SKF L   1      14.068 -13.144  -8.305  1.00  0.00    +0.0970  H
ENDROOT
TORSDOF 0
ENDMDL
