MODEL 1
REMARK VINA RESULT:    -6.633      0.000      0.000
REMARK INTER + INTRA:          -7.142
REMARK INTER:                  -7.020
REMARK INTRA:                  -0.122
REMARK UNBOUND:                -0.122
ROOT
ATOM      1  C4  24D L   1       8.167  -1.849  -2.583  1.00  0.00    +0.0325  A
ATOM      2  C5  24D L   1       6.962  -1.238  -2.176  1.00  0.00    -0.0500  A
ATOM      3  C6  24D L   1       6.962  -0.187  -1.256  1.00  0.00    -0.0428  A
ATOM      4  C7  24D L   1       8.164   0.276  -0.729  1.00  0.00    +0.0424  A
ATOM      5 CL8  24D L   1       8.159   1.567   0.404  1.00  0.00    -0.0835 Cl
ATOM      6  C9  24D L   1       9.367  -0.302  -1.117  1.00  0.00    -0.0246  A
ATOM      7 C10  24D L   1       9.370  -1.354  -2.039  1.00  0.00    +0.0513  A
ATOM      8 CL11 24D L   1      10.909  -2.018  -2.457  1.00  0.00    -0.0830 Cl
ATOM      9 H18  24D L   1       5.999  -1.559  -2.576  1.00  0.00    +0.0623  H
ATOM     10 H19  24D L   1       6.021   0.274  -0.955  1.00  0.00    +0.0632  H
ATOM     11 H20  24D L   1      10.302   0.072  -0.702  1.00  0.00    +0.0647  H
ENDROOT
BRANCH 1 13
ATOM     12  C1  24D L   1       8.345  -4.346  -2.994  1.00  0.00    -0.0030  C
ATOM     13  C2  24D L   1       8.090  -2.970  -3.600  1.00  0.00    +0.1552  C
ATOM     14  N3  24D L   1       6.806  -3.012  -4.349  1.00  0.00    -0.1890  N
ATOM     15 H12  24D L   1       7.582  -4.632  -2.264  1.00  0.00    +0.0292  H
ATOM     16 H13  24D L   1       8.363  -5.117  -3.772  1.00  0.00    +0.0292  H
ATOM     17 H14  24D L   1       9.314  -4.370  -2.482  1.00  0.00    +0.0292  H
ATOM     18 H15  24D L   1       8.841  -2.794  -4.379  1.00  0.00    +0.1051  H
ATOM     19 H16  24D L   1       6.552  -2.087  -4.718  1.00  0.00    +0.4057 HD
ATOM     20 H17  24D L   1       6.833  -3.677  -5.131  1.00  0.00    +0.4057 HD
ENDBRANCH 1 13
TORSDOF 1
ENDMDL
MODEL 2
REMARK VINA RESULT:    -5.848      1.636      2.211
REMARK INTER + INTRA:          -6.312
REMARK INTER:                  -6.912
REMARK INTRA:                   0.600
REMARK UNBOUND:                -0.122
ROOT
ATOM      1  C4  24D L   1       8.235  -1.627  -2.555  1.00  0.00    +0.0325  A
ATOM      2  C5  24D L   1       9.468  -1.234  -1.994  1.00  0.00    -0.0500  A
ATOM      3  C6  24D L   1       9.530  -0.244  -1.010  1.00  0.00    -0.0428  A
ATOM      4  C7  24D L   1       8.362   0.368  -0.565  1.00  0.00    +0.0424  A
ATOM      5 CL8  24D L   1       8.443   1.587   0.642  1.00  0.00    -0.0835 Cl
ATOM      6  C9  24D L   1       7.132  -0.003  -1.095  1.00  0.00    -0.0246  A
ATOM      7 C10  24D L   1       7.067  -0.995  -2.080  1.00  0.00    +0.0513  A
ATOM      8 CL11 24D L   1       5.498  -1.387  -2.687  1.00  0.00    -0.0830 Cl
ATOM      9 H18  24D L   1      10.405  -1.699  -2.302  1.00  0.00    +0.0623  H
ATOM     10 H19  24D L   1      10.492   0.044  -0.588  1.00  0.00    +0.0632  H
ATOM     11 H20  24D L   1       6.224   0.479  -0.736  1.00  0.00    +0.0647  H
ENDROOT
BRANCH 1 13
ATOM     12  C1  24D L   1       8.576  -4.096  -3.030  1.00  0.00    -0.0030  C
ATOM     13  C2  24D L   1       8.244  -2.721  -3.603  1.00  0.00    +0.1552  C
ATOM     14  N3  24D L   1       6.977  -2.822  -4.374  1.00  0.00    -0.1890  N
ATOM     15 H12  24D L   1       7.820  -4.449  -2.321  1.00  0.00    +0.0292  H
ATOM     16 H13  24D L   1       8.654  -4.841  -3.828  1.00  0.00    +0.0292  H
ATOM     17 H14  24D L   1       9.535  -4.074  -2.502  1.00  0.00    +0.0292  H
ATOM     18 H15  24D L   1       8.995  -2.478  -4.363  1.00  0.00    +0.1051  H
ATOM     19 H16  24D L   1       6.671  -1.905  -4.723  1.00  0.00    +0.4057 HD
ATOM     20 H17  24D L   1       7.057  -3.462  -5.173  1.00  0.00    +0.4057 HD
ENDBRANCH 1 13
TORSDOF 1
ENDMDL
MODEL 3
REMARK VINA RESULT:    -5.485      2.675      3.994
REMARK INTER + INTRA:          -5.928
REMARK INTER:                  -6.090
REMARK INTRA:                   0.162
REMARK UNBOUND:                -0.122
ROOT
ATOM      1  C4  24D L   1       8.262  -1.160  -1.873  1.00  0.00    +0.0325  A
ATOM      2  C5  24D L   1       6.979  -0.655  -2.172  1.00  0.00    -0.0500  A
ATOM      3  C6  24D L   1       6.142  -1.306  -3.081  1.00  0.00    -0.0428  A
ATOM      4  C7  24D L   1       6.568  -2.475  -3.705  1.00  0.00    +0.0424  A
ATOM      5 CL8  24D L   1       5.537  -3.271  -4.824  1.00  0.00    -0.0835 Cl
ATOM      6  C9  24D L   1       7.825  -3.000  -3.425  1.00  0.00    -0.0246  A
ATOM      7 C10  24D L   1       8.665  -2.350  -2.514  1.00  0.00    +0.0513  A
ATOM      8 CL11 24D L   1      10.211  -3.067  -2.233  1.00  0.00    -0.0830 Cl
ATOM      9 H18  24D L   1       6.600   0.249  -1.694  1.00  0.00    +0.0623  H
ATOM     10 H19  24D L   1       5.153  -0.902  -3.297  1.00  0.00    +0.0632  H
ATOM     11 H20  24D L   1       8.146  -3.917  -3.915  1.00  0.00    +0.0647  H
ENDROOT
BRANCH 1 13
ATOM     12  C1  24D L   1      10.511  -0.100  -1.367  1.00  0.00    -0.0030  C
ATOM     13  C2  24D L   1       9.106  -0.410  -0.862  1.00  0.00    +0.1552  C
ATOM     14  N3  24D L   1       8.484   0.852  -0.382  1.00  0.00    -0.1890  N
ATOM     15 H12  24D L   1      10.508   0.578  -2.226  1.00  0.00    +0.0292  H
ATOM     16 H13  24D L   1      11.113   0.367  -0.580  1.00  0.00    +0.0292  H
ATOM     17 H14  24D L   1      11.023  -1.018  -1.676  1.00  0.00    +0.0292  H
ATOM     18 H15  24D L   1       9.195  -1.019   0.045  1.00  0.00    +0.1051  H
ATOM     19 H16  24D L   1       7.508   0.710  -0.096  1.00  0.00    +0.4057 HD
ATOM     20 H17  24D L   1       8.996   1.263   0.407  1.00  0.00    +0.4057 HD
ENDBRANCH 1 13
TORSDOF 1
ENDMDL
MODEL 4
REMARK VINA RESULT:    -5.054      2.806      3.966
REMARK INTER + INTRA:          -5.471
REMARK INTER:                  -5.474
REMARK INTRA:                   0.003
REMARK UNBOUND:                -0.122
ROOT
ATOM      1  C4  24D L   1       8.552  -1.831  -2.294  1.00  0.00    +0.0325  A
ATOM      2  C5  24D L   1       8.394  -2.728  -3.371  1.00  0.00    -0.0500  A
ATOM      3  C6  24D L   1       7.160  -2.876  -4.011  1.00  0.00    -0.0428  A
ATOM      4  C7  24D L   1       6.065  -2.128  -3.592  1.00  0.00    +0.0424  A
ATOM      5 CL8  24D L   1       4.550  -2.314  -4.380  1.00  0.00    -0.0835 Cl
ATOM      6  C9  24D L   1       6.192  -1.230  -2.538  1.00  0.00    -0.0246  A
ATOM      7 C10  24D L   1       7.427  -1.080  -1.895  1.00  0.00    +0.0513  A
ATOM      8 CL11 24D L   1       7.492   0.050  -0.590  1.00  0.00    -0.0830 Cl
ATOM      9 H18  24D L   1       9.229  -3.322  -3.742  1.00  0.00    +0.0623  H
ATOM     10 H19  24D L   1       7.059  -3.573  -4.843  1.00  0.00    +0.0632  H
ATOM     11 H20  24D L   1       5.330  -0.647  -2.221  1.00  0.00    +0.0647  H
ENDROOT
BRANCH 1 13
ATOM     12  C1  24D L   1      10.951  -2.657  -2.275  1.00  0.00    -0.0030  C
ATOM     13  C2  24D L   1       9.923  -1.710  -1.662  1.00  0.00    +0.1552  C
ATOM     14  N3  24D L   1      10.475  -0.329  -1.689  1.00  0.00    -0.1890  N
ATOM     15 H12  24D L   1      11.151  -2.434  -3.328  1.00  0.00    +0.0292  H
ATOM     16 H13  24D L   1      11.903  -2.598  -1.738  1.00  0.00    +0.0292  H
ATOM     17 H14  24D L   1      10.602  -3.694  -2.220  1.00  0.00    +0.0292  H
ATOM     18 H15  24D L   1       9.843  -1.938  -0.593  1.00  0.00    +0.1051  H
ATOM     19 H16  24D L   1       9.791   0.359  -1.351  1.00  0.00    +0.4057 HD
ATOM     20 H17  24D L   1      11.329  -0.240  -1.126  1.00  0.00    +0.4057 HD
ENDBRANCH 1 13
TORSDOF 1
ENDMDL
MODEL 5
REMARK VINA RESULT:    -5.052      9.836     11.665
REMARK INTER + INTRA:          -5.469
REMARK INTER:                  -5.344
REMARK INTRA:                  -0.125
REMARK UNBOUND:                -0.122
ROOT
ATOM      1  C4  24D L   1      13.327  -9.354  -6.383  1.00  0.00    +0.0325  A
ATOM      2  C5  24D L   1      14.458  -9.887  -5.730  1.00  0.00    -0.0500  A
ATOM      3  C6  24D L   1      14.543 -11.249  -5.430  1.00  0.00    -0.0428  A
ATOM      4  C7  24D L   1      13.502 -12.104  -5.779  1.00  0.00    +0.0424  A
ATOM      5 CL8  24D L   1      13.609 -13.777  -5.406  1.00  0.00    -0.0835 Cl
ATOM      6  C9  24D L   1      12.377 -11.609  -6.430  1.00  0.00    -0.0246  A
ATOM      7 C10  24D L   1      12.291 -10.245  -6.733  1.00  0.00    +0.0513  A
ATOM      8 CL11 24D L   1      10.854  -9.716  -7.533  1.00  0.00    -0.0830 Cl
ATOM      9 H18  24D L   1      15.303  -9.255  -5.453  1.00  0.00    +0.0623  H
ATOM     10 H19  24D L   1      15.426 -11.641  -4.927  1.00  0.00    +0.0632  H
ATOM     11 H20  24D L   1      11.572 -12.288  -6.703  1.00  0.00    +0.0647  H
ENDROOT
BRANCH 1 13
ATOM     12  C1  24D L   1      14.365  -7.088  -5.913  1.00  0.00    -0.0030  C
ATOM     13  C2  24D L   1      13.315  -7.872  -6.694  1.00  0.00    +0.1552  C
ATOM     14  N3  24D L   1      13.469  -7.562  -8.140  1.00  0.00    -0.1890  N
ATOM     15 H12  24D L   1      15.387  -7.379  -6.175  1.00  0.00    +0.0292  H
ATOM     16 H13  24D L   1      14.269  -6.013  -6.103  1.00  0.00    +0.0292  H
ATOM     17 H14  24D L   1      14.244  -7.246  -4.836  1.00  0.00    +0.0292  H
ATOM     18 H15  24D L   1      12.328  -7.465  -6.444  1.00  0.00    +0.1051  H
ATOM     19 H16  24D L   1      12.830  -8.121  -8.718  1.00  0.00    +0.4057 HD
ATOM     20 H17  24D L   1      13.307  -6.569  -8.345  1.00  0.00    +0.4057 HD
ENDBRANCH 1 13
TORSDOF 1
ENDMDL
MODEL 6
REMARK VINA RESULT:    -4.963      9.556     10.746
REMARK INTER + INTRA:          -5.375
REMARK INTER:                  -5.511
REMARK INTRA:                   0.136
REMARK UNBOUND:                -0.122
ROOT
ATOM      1  C4  24D L   1      12.629  -9.244  -7.255  1.00  0.00    +0.0325  A
ATOM      2  C5  24D L   1      12.647  -8.188  -6.320  1.00  0.00    -0.0500  A
ATOM      3  C6  24D L   1      13.491  -7.087  -6.491  1.00  0.00    -0.0428  A
ATOM      4  C7  24D L   1      14.327  -7.019  -7.601  1.00  0.00    +0.0424  A
ATOM      5 CL8  24D L   1      15.364  -5.665  -7.807  1.00  0.00    -0.0835 Cl
ATOM      6  C9  24D L   1      14.326  -8.041  -8.543  1.00  0.00    -0.0246  A
ATOM      7 C10  24D L   1      13.482  -9.144  -8.374  1.00  0.00    +0.0513  A
ATOM      8 CL11 24D L   1      13.553 -10.372  -9.587  1.00  0.00    -0.0830 Cl
ATOM      9 H18  24D L   1      11.996  -8.193  -5.445  1.00  0.00    +0.0623  H
ATOM     10 H19  24D L   1      13.488  -6.280  -5.759  1.00  0.00    +0.0632  H
ATOM     11 H20  24D L   1      14.982  -7.975  -9.410  1.00  0.00    +0.0647  H
ENDROOT
BRANCH 1 13
ATOM     12  C1  24D L   1      10.762 -10.677  -8.203  1.00  0.00    -0.0030  C
ATOM     13  C2  24D L   1      11.674 -10.395  -7.013  1.00  0.00    +0.1552  C
ATOM     14  N3  24D L   1      12.349 -11.660  -6.621  1.00  0.00    -0.1890  N
ATOM     15 H12  24D L   1      11.317 -11.007  -9.087  1.00  0.00    +0.0292  H
ATOM     16 H13  24D L   1      10.034 -11.457  -7.959  1.00  0.00    +0.0292  H
ATOM     17 H14  24D L   1      10.203  -9.777  -8.484  1.00  0.00    +0.0292  H
ATOM     18 H15  24D L   1      11.044 -10.156  -6.148  1.00  0.00    +0.1051  H
ATOM     19 H16  24D L   1      13.030 -11.510  -5.867  1.00  0.00    +0.4057 HD
ATOM     20 H17  24D L   1      11.682 -12.379  -6.317  1.00  0.00    +0.4057 HD
ENDBRANCH 1 13
TORSDOF 1
ENDMDL
MODEL 7
REMARK VINA RESULT:    -4.849      1.675      2.361
REMARK INTER + INTRA:          -5.254
REMARK INTER:                  -5.247
REMARK INTRA:                  -0.008
REMARK UNBOUND:                -0.122
ROOT
ATOM      1  C4  24D L   1       7.518  -1.974  -2.811  1.00  0.00    +0.0325  A
ATOM      2  C5  24D L   1       7.502  -0.605  -2.472  1.00  0.00    -0.0500  A
ATOM      3  C6  24D L   1       8.626   0.013  -1.916  1.00  0.00    -0.0428  A
ATOM      4  C7  24D L   1       9.785  -0.723  -1.693  1.00  0.00    +0.0424  A
ATOM      5 CL8  24D L   1      11.163   0.040  -1.007  1.00  0.00    -0.0835 Cl
ATOM      6  C9  24D L   1       9.832  -2.072  -2.024  1.00  0.00    -0.0246  A
ATOM      7 C10  24D L   1       8.709  -2.693  -2.581  1.00  0.00    +0.0513  A
ATOM      8 CL11 24D L   1       8.853  -4.374  -2.953  1.00  0.00    -0.0830 Cl
ATOM      9 H18  24D L   1       6.620   0.013  -2.645  1.00  0.00    +0.0623  H
ATOM     10 H19  24D L   1       8.595   1.073  -1.662  1.00  0.00    +0.0632  H
ATOM     11 H20  24D L   1      10.746  -2.637  -1.849  1.00  0.00    +0.0647  H
ENDROOT
BRANCH 1 13
ATOM     12  C1  24D L   1       5.117  -1.575  -3.528  1.00  0.00    -0.0030  C
ATOM     13  C2  24D L   1       6.269  -2.570  -3.429  1.00  0.00    +0.1552  C
ATOM     14  N3  24D L   1       6.493  -3.171  -4.770  1.00  0.00    -0.1890  N
ATOM     15 H12  24D L   1       5.340  -0.739  -4.198  1.00  0.00    +0.0292  H
ATOM     16 H13  24D L   1       4.211  -2.064  -3.901  1.00  0.00    +0.0292  H
ATOM     17 H14  24D L   1       4.885  -1.153  -2.543  1.00  0.00    +0.0292  H
ATOM     18 H15  24D L   1       5.939  -3.415  -2.815  1.00  0.00    +0.1051  H
ATOM     19 H16  24D L   1       7.308  -3.797  -4.774  1.00  0.00    +0.4057 HD
ATOM     20 H17  24D L   1       5.677  -3.699  -5.101  1.00  0.00    +0.4057 HD
ENDBRANCH 1 13
TORSDOF 1
ENDMDL
MODEL 8
REMARK VINA RESULT:    -4.674     10.555     13.335
REMARK INTER + INTRA:          -5.069
REMARK INTER:                  -4.962
REMARK INTRA:                  -0.107
REMARK UNBOUND:                -0.122
ROOT
ATOM      1  C4  24D L   1      12.519 -11.099  -7.828  1.00  0.00    +0.0325  A
ATOM      2  C5  24D L   1      12.255 -11.230  -9.207  1.00  0.00    -0.0500  A
ATOM      3  C6  24D L   1      12.902 -12.202  -9.975  1.00  0.00    -0.0428  A
ATOM      4  C7  24D L   1      13.819 -13.062  -9.380  1.00  0.00    +0.0424  A
ATOM      5 CL8  24D L   1      14.614 -14.253 -10.328  1.00  0.00    -0.0835 Cl
ATOM      6  C9  24D L   1      14.094 -12.961  -8.021  1.00  0.00    -0.0246  A
ATOM      7 C10  24D L   1      13.447 -11.989  -7.249  1.00  0.00    +0.0513  A
ATOM      8 CL11 24D L   1      13.856 -11.928  -5.572  1.00  0.00    -0.0830 Cl
ATOM      9 H18  24D L   1      11.532 -10.588  -9.711  1.00  0.00    +0.0623  H
ATOM     10 H19  24D L   1      12.683 -12.289 -11.039  1.00  0.00    +0.0632  H
ATOM     11 H20  24D L   1      14.810 -13.642  -7.564  1.00  0.00    +0.0647  H
ENDROOT
BRANCH 1 13
ATOM     12  C1  24D L   1      12.644  -8.859  -6.641  1.00  0.00    -0.0030  C
ATOM     13  C2  24D L   1      11.764 -10.035  -7.056  1.00  0.00    +0.1552  C
ATOM     14  N3  24D L   1      10.573  -9.508  -7.771  1.00  0.00    -0.1890  N
ATOM     15 H12  24D L   1      13.032  -8.303  -7.500  1.00  0.00    +0.0292  H
ATOM     16 H13  24D L   1      12.083  -8.156  -6.017  1.00  0.00    +0.0292  H
ATOM     17 H14  24D L   1      13.505  -9.206  -6.059  1.00  0.00    +0.0292  H
ATOM     18 H15  24D L   1      11.346 -10.486  -6.148  1.00  0.00    +0.1051  H
ATOM     19 H16  24D L   1       9.982 -10.266  -8.135  1.00  0.00    +0.4057 HD
ATOM     20 H17  24D L   1       9.995  -8.905  -7.174  1.00  0.00    +0.4057 HD
ENDBRANCH 1 13
TORSDOF 1
ENDMDL
MODEL 9
REMARK VINA RESULT:    -4.637     12.734     13.341
REMARK INTER + INTRA:          -5.030
REMARK INTER:                  -4.892
REMARK INTRA:                  -0.138
REMARK UNBOUND:                -0.122
ROOT
ATOM      1  C4  24D L   1       1.623  -5.292 -12.103  1.00  0.00    +0.0325  A
ATOM      2  C5  24D L   1       2.663  -6.242 -12.187  1.00  0.00    -0.0500  A
ATOM      3  C6  24D L   1       3.639  -6.156 -13.184  1.00  0.00    -0.0428  A
ATOM      4  C7  24D L   1       3.597  -5.119 -14.111  1.00  0.00    +0.0424  A
ATOM      5 CL8  24D L   1       4.797  -5.019 -15.336  1.00  0.00    -0.0835 Cl
ATOM      6  C9  24D L   1       2.588  -4.164 -14.048  1.00  0.00    -0.0246  A
ATOM      7 C10  24D L   1       1.610  -4.247 -13.051  1.00  0.00    +0.0513  A
ATOM      8 CL11 24D L   1       0.390  -3.025 -13.054  1.00  0.00    -0.0830 Cl
ATOM      9 H18  24D L   1       2.743  -7.061 -11.472  1.00  0.00    +0.0623  H
ATOM     10 H19  24D L   1       4.435  -6.898 -13.231  1.00  0.00    +0.0632  H
ATOM     11 H20  24D L   1       2.568  -3.355 -14.776  1.00  0.00    +0.0647  H
ENDROOT
BRANCH 1 13
ATOM     12  C1  24D L   1       0.587  -6.839 -10.380  1.00  0.00    -0.0030  C
ATOM     13  C2  24D L   1       0.613  -5.438 -10.984  1.00  0.00    +0.1552  C
ATOM     14  N3  24D L   1       0.789  -4.451  -9.886  1.00  0.00    -0.1890  N
ATOM     15 H12  24D L   1       1.529  -7.102  -9.889  1.00  0.00    +0.0292  H
ATOM     16 H13  24D L   1      -0.211  -6.926  -9.634  1.00  0.00    +0.0292  H
ATOM     17 H14  24D L   1       0.400  -7.591 -11.155  1.00  0.00    +0.0292  H
ATOM     18 H15  24D L   1      -0.386  -5.216 -11.377  1.00  0.00    +0.1051  H
ATOM     19 H16  24D L   1       0.885  -3.494 -10.247  1.00  0.00    +0.4057 HD
ATOM     20 H17  24D L   1       0.010  -4.469  -9.218  1.00  0.00    +0.4057 HD
ENDBRANCH 1 13
TORSDOF 1
ENDMDL
MODEL 10
REMARK VINA RESULT:    -4.518     10.757     12.155
REMARK INTER + INTRA:          -4.904
REMARK INTER:                  -4.750
REMARK INTRA:                  -0.154
REMARK UNBOUND:                -0.122
ROOT
ATOM      1  C4  24D L   1      13.260 -10.640  -8.927  1.00  0.00    +0.0325  A
ATOM      2  C5  24D L   1      14.040  -9.776  -9.723  1.00  0.00    -0.0500  A
ATOM      3  C6  24D L   1      14.333  -8.476  -9.302  1.00  0.00    -0.0428  A
ATOM      4  C7  24D L   1      13.856  -8.018  -8.078  1.00  0.00    +0.0424  A
ATOM      5 CL8  24D L   1      14.216  -6.419  -7.565  1.00  0.00    -0.0835 Cl
ATOM      6  C9  24D L   1      13.090  -8.850  -7.269  1.00  0.00    -0.0246  A
ATOM      7 C10  24D L   1      12.796 -10.152  -7.688  1.00  0.00    +0.0513  A
ATOM      8 CL11 24D L   1      11.832 -11.113  -6.625  1.00  0.00    -0.0830 Cl
ATOM      9 H18  24D L   1      14.447 -10.100 -10.682  1.00  0.00    +0.0623  H
ATOM     10 H19  24D L   1      14.939  -7.824  -9.930  1.00  0.00    +0.0632  H
ATOM     11 H20  24D L   1      12.727  -8.482  -6.311  1.00  0.00    +0.0647  H
ENDROOT
BRANCH 1 13
ATOM     12  C1  24D L   1      11.795 -12.126 -10.371  1.00  0.00    -0.0030  C
ATOM     13  C2  24D L   1      13.000 -12.042  -9.440  1.00  0.00    +0.1552  C
ATOM     14  N3  24D L   1      14.170 -12.656 -10.122  1.00  0.00    -0.1890  N
ATOM     15 H12  24D L   1      11.937 -11.555 -11.294  1.00  0.00    +0.0292  H
ATOM     16 H13  24D L   1      11.592 -13.164 -10.653  1.00  0.00    +0.0292  H
ATOM     17 H14  24D L   1      10.898 -11.734  -9.878  1.00  0.00    +0.0292  H
ATOM     18 H15  24D L   1      12.819 -12.705  -8.586  1.00  0.00    +0.1051  H
ATOM     19 H16  24D L   1      15.028 -12.562  -9.565  1.00  0.00    +0.4057 HD
ATOM     20 H17  24D L   1      14.024 -13.652 -10.326  1.00  0.00    +0.4057 HD
ENDBRANCH 1 13
TORSDOF 1
ENDMDL
MODEL 11
REMARK VINA RESULT:    -4.518     12.832     13.271
REMARK INTER + INTRA:          -4.903
REMARK INTER:                  -4.753
REMARK INTRA:                  -0.151
REMARK UNBOUND:                -0.122
ROOT
ATOM      1  C4  24D L   1       3.564  -6.307 -13.277  1.00  0.00    +0.0325  A
ATOM      2  C5  24D L   1       2.599  -6.305 -12.249  1.00  0.00    -0.0500  A
ATOM      3  C6  24D L   1       1.660  -5.275 -12.144  1.00  0.00    -0.0428  A
ATOM      4  C7  24D L   1       1.665  -4.233 -13.066  1.00  0.00    +0.0424  A
ATOM      5 CL8  24D L   1       0.511  -2.967 -12.932  1.00  0.00    -0.0835 Cl
ATOM      6  C9  24D L   1       2.601  -4.212 -14.094  1.00  0.00    -0.0246  A
ATOM      7 C10  24D L   1       3.542  -5.243 -14.202  1.00  0.00    +0.0513  A
ATOM      8 CL11 24D L   1       4.671  -5.132 -15.504  1.00  0.00    -0.0830 Cl
ATOM      9 H18  24D L   1       2.549  -7.110 -11.515  1.00  0.00    +0.0623  H
ATOM     10 H19  24D L   1       0.921  -5.292 -11.344  1.00  0.00    +0.0632  H
ATOM     11 H20  24D L   1       2.593  -3.394 -14.813  1.00  0.00    +0.0647  H
ENDROOT
BRANCH 1 13
ATOM     12  C1  24D L   1       5.910  -7.129 -12.766  1.00  0.00    -0.0030  C
ATOM     13  C2  24D L   1       4.537  -7.467 -13.339  1.00  0.00    +0.1552  C
ATOM     14  N3  24D L   1       4.038  -8.702 -12.678  1.00  0.00    -0.1890  N
ATOM     15 H12  24D L   1       5.874  -6.902 -11.696  1.00  0.00    +0.0292  H
ATOM     16 H13  24D L   1       6.606  -7.963 -12.904  1.00  0.00    +0.0292  H
ATOM     17 H14  24D L   1       6.335  -6.255 -13.272  1.00  0.00    +0.0292  H
ATOM     18 H15  24D L   1       4.667  -7.765 -14.385  1.00  0.00    +0.1051  H
ATOM     19 H16  24D L   1       3.084  -8.934 -12.978  1.00  0.00    +0.4057 HD
ATOM     20 H17  24D L   1       4.641  -9.513 -12.861  1.00  0.00    +0.4057 HD
ENDBRANCH 1 13
TORSDOF 1
ENDMDL
MODEL 12
REMARK VINA RESULT:    -4.409     12.046     13.382
REMARK INTER + INTRA:          -4.788
REMARK INTER:                  -4.851
REMARK INTRA:                   0.063
REMARK UNBOUND:                -0.122
ROOT
ATOM      1  C4  24D L   1      13.337 -11.851  -8.190  1.00  0.00    +0.0325  A
ATOM      2  C5  24D L   1      14.210 -12.957  -8.254  1.00  0.00    -0.0500  A
ATOM      3  C6  24D L   1      14.489 -13.722  -7.118  1.00  0.00    -0.0428  A
ATOM      4  C7  24D L   1      13.897 -13.400  -5.901  1.00  0.00    +0.0424  A
ATOM      5 CL8  24D L   1      14.243 -14.341  -4.506  1.00  0.00    -0.0835 Cl
ATOM      6  C9  24D L   1      13.026 -12.320  -5.809  1.00  0.00    -0.0246  A
ATOM      7 C10  24D L   1      12.746 -11.552  -6.945  1.00  0.00    +0.0513  A
ATOM      8 CL11 24D L   1      11.661 -10.224  -6.738  1.00  0.00    -0.0830 Cl
ATOM      9 H18  24D L   1      14.683 -13.254  -9.191  1.00  0.00    +0.0623  H
ATOM     10 H19  24D L   1      15.164 -14.574  -7.188  1.00  0.00    +0.0632  H
ATOM     11 H20  24D L   1      12.566 -12.080  -4.853  1.00  0.00    +0.0647  H
ENDROOT
BRANCH 1 13
ATOM     12  C1  24D L   1      11.644 -11.260  -9.985  1.00  0.00    -0.0030  C
ATOM     13  C2  24D L   1      13.067 -11.081  -9.467  1.00  0.00    +0.1552  C
ATOM     14  N3  24D L   1      13.354  -9.626  -9.360  1.00  0.00    -0.1890  N
ATOM     15 H12  24D L   1      10.893 -10.856  -9.299  1.00  0.00    +0.0292  H
ATOM     16 H13  24D L   1      11.515 -10.757 -10.949  1.00  0.00    +0.0292  H
ATOM     17 H14  24D L   1      11.417 -12.322 -10.132  1.00  0.00    +0.0292  H
ATOM     18 H15  24D L   1      13.760 -11.427 -10.243  1.00  0.00    +0.1051  H
ATOM     19 H16  24D L   1      14.278  -9.450  -8.947  1.00  0.00    +0.4057 HD
ATOM     20 H17  24D L   1      13.311  -9.152 -10.270  1.00  0.00    +0.4057 HD
ENDBRANCH 1 13
TORSDOF 1
ENDMDL
