MODEL 1
REMARK VINA RESULT:    -6.068      0.000      0.000
REMARK INTER + INTRA:          -6.450
REMARK INTER:                  -6.422
REMARK INTRA:                  -0.028
REMARK UNBOUND:                -0.028
ROOT
ATOM      1  C4  25D L   1       8.300  -2.002  -2.371  1.00  0.00    +0.0338  A
ATOM      2  C5  25D L   1       8.632  -1.103  -1.335  1.00  0.00    -0.0330  A
ATOM      3  C6  25D L   1       7.719  -0.135  -0.904  1.00  0.00    +0.0415  A
ATOM      4 CL7  25D L   1       8.162   0.934   0.367  1.00  0.00    -0.0835 Cl
ATOM      5  C8  25D L   1       6.468  -0.029  -1.497  1.00  0.00    -0.0420  A
ATOM      6  C9  25D L   1       6.125  -0.894  -2.536  1.00  0.00    -0.0415  A
ATOM      7 C10  25D L   1       7.031  -1.866  -2.972  1.00  0.00    +0.0500  A
ATOM      8 CL11 25D L   1       6.536  -2.876  -4.283  1.00  0.00    -0.0831 Cl
ATOM      9 H18  25D L   1       9.602  -1.130  -0.845  1.00  0.00    +0.0637  H
ATOM     10 H19  25D L   1       5.758   0.726  -1.164  1.00  0.00    +0.0633  H
ATOM     11 H20  25D L   1       5.146  -0.799  -3.003  1.00  0.00    +0.0633  H
ENDROOT
BRANCH 1 13
ATOM     12  C1  25D L   1      10.672  -2.838  -2.244  1.00  0.00    -0.0030  C
ATOM     13  C2  25D L   1       9.289  -3.043  -2.855  1.00  0.00    +0.1553  C
ATOM     14  N3  25D L   1       8.863  -4.445  -2.564  1.00  0.00    -0.1890  N
ATOM     15 H12  25D L   1      11.381  -3.584  -2.622  1.00  0.00    +0.0292  H
ATOM     16 H13  25D L   1      11.069  -1.848  -2.492  1.00  0.00    +0.0292  H
ATOM     17 H14  25D L   1      10.647  -2.919  -1.152  1.00  0.00    +0.0292  H
ATOM     18 H15  25D L   1       9.359  -3.027  -3.946  1.00  0.00    +0.1051  H
ATOM     19 H16  25D L   1       9.016  -4.702  -1.582  1.00  0.00    +0.4057 HD
ATOM     20 H17  25D L   1       9.383  -5.116  -3.144  1.00  0.00    +0.4057 HD
ENDBRANCH 1 13
TORSDOF 1
ENDMDL
MODEL 2
REMARK VINA RESULT:    -5.655      1.547      3.423
REMARK INTER + INTRA:          -6.013
REMARK INTER:                  -6.087
REMARK INTRA:                   0.074
REMARK UNBOUND:                -0.028
ROOT
ATOM      1  C4  25D L   1       8.450  -1.512  -2.003  1.00  0.00    +0.0338  A
ATOM      2  C5  25D L   1       7.920  -2.309  -3.040  1.00  0.00    -0.0330  A
ATOM      3  C6  25D L   1       6.585  -2.176  -3.436  1.00  0.00    +0.0415  A
ATOM      4 CL7  25D L   1       5.982  -3.160  -4.710  1.00  0.00    -0.0835 Cl
ATOM      5  C8  25D L   1       5.748  -1.263  -2.808  1.00  0.00    -0.0420  A
ATOM      6  C9  25D L   1       6.245  -0.479  -1.768  1.00  0.00    -0.0415  A
ATOM      7 C10  25D L   1       7.579  -0.605  -1.366  1.00  0.00    +0.0500  A
ATOM      8 CL11 25D L   1       8.104   0.385  -0.050  1.00  0.00    -0.0831 Cl
ATOM      9 H18  25D L   1       8.525  -3.050  -3.558  1.00  0.00    +0.0637  H
ATOM     10 H19  25D L   1       4.708  -1.161  -3.114  1.00  0.00    +0.0633  H
ATOM     11 H20  25D L   1       5.581   0.228  -1.272  1.00  0.00    +0.0633  H
ENDROOT
BRANCH 1 13
ATOM     12  C1  25D L   1      10.619  -2.747  -2.343  1.00  0.00    -0.0030  C
ATOM     13  C2  25D L   1       9.891  -1.662  -1.556  1.00  0.00    +0.1553  C
ATOM     14  N3  25D L   1      10.682  -0.401  -1.676  1.00  0.00    -0.1890  N
ATOM     15 H12  25D L   1      11.651  -2.859  -1.993  1.00  0.00    +0.0292  H
ATOM     16 H13  25D L   1      10.122  -3.717  -2.229  1.00  0.00    +0.0292  H
ATOM     17 H14  25D L   1      10.649  -2.518  -3.414  1.00  0.00    +0.0292  H
ATOM     18 H15  25D L   1       9.939  -1.883  -0.487  1.00  0.00    +0.1051  H
ATOM     19 H16  25D L   1      10.963  -0.209  -2.645  1.00  0.00    +0.4057 HD
ATOM     20 H17  25D L   1      11.538  -0.447  -1.109  1.00  0.00    +0.4057 HD
ENDBRANCH 1 13
TORSDOF 1
ENDMDL
MODEL 3
REMARK VINA RESULT:    -5.267      2.524      3.846
REMARK INTER + INTRA:          -5.602
REMARK INTER:                  -5.906
REMARK INTRA:                   0.303
REMARK UNBOUND:                -0.028
ROOT
ATOM      1  C4  25D L   1       8.424  -1.579  -2.008  1.00  0.00    +0.0338  A
ATOM      2  C5  25D L   1       7.138  -1.377  -2.552  1.00  0.00    -0.0330  A
ATOM      3  C6  25D L   1       6.603  -2.274  -3.481  1.00  0.00    +0.0415  A
ATOM      4 CL7  25D L   1       5.028  -1.995  -4.112  1.00  0.00    -0.0835 Cl
ATOM      5  C8  25D L   1       7.333  -3.380  -3.899  1.00  0.00    -0.0420  A
ATOM      6  C9  25D L   1       8.614  -3.589  -3.390  1.00  0.00    -0.0415  A
ATOM      7 C10  25D L   1       9.156  -2.697  -2.459  1.00  0.00    +0.0500  A
ATOM      8 CL11 25D L   1      10.760  -3.015  -1.901  1.00  0.00    -0.0831 Cl
ATOM      9 H18  25D L   1       6.528  -0.521  -2.272  1.00  0.00    +0.0637  H
ATOM     10 H19  25D L   1       6.918  -4.077  -4.624  1.00  0.00    +0.0633  H
ATOM     11 H20  25D L   1       9.185  -4.452  -3.729  1.00  0.00    +0.0633  H
ENDROOT
BRANCH 1 13
ATOM     12  C1  25D L   1      10.379  -0.084  -1.471  1.00  0.00    -0.0030  C
ATOM     13  C2  25D L   1       9.019  -0.602  -1.013  1.00  0.00    +0.1553  C
ATOM     14  N3  25D L   1       8.145   0.580  -0.749  1.00  0.00    -0.1890  N
ATOM     15 H12  25D L   1      10.806   0.602  -0.731  1.00  0.00    +0.0292  H
ATOM     16 H13  25D L   1      11.088  -0.908  -1.608  1.00  0.00    +0.0292  H
ATOM     17 H14  25D L   1      10.308   0.450  -2.425  1.00  0.00    +0.0292  H
ATOM     18 H15  25D L   1       9.111  -1.067  -0.028  1.00  0.00    +0.1051  H
ATOM     19 H16  25D L   1       8.184   1.270  -1.508  1.00  0.00    +0.4057 HD
ATOM     20 H17  25D L   1       8.422   1.057   0.119  1.00  0.00    +0.4057 HD
ENDBRANCH 1 13
TORSDOF 1
ENDMDL
MODEL 4
REMARK VINA RESULT:    -5.157      1.826      2.723
REMARK INTER + INTRA:          -5.486
REMARK INTER:                  -5.848
REMARK INTRA:                   0.362
REMARK UNBOUND:                -0.028
ROOT
ATOM      1  C4  25D L   1       8.456  -1.744  -1.831  1.00  0.00    +0.0338  A
ATOM      2  C5  25D L   1       7.798  -0.761  -1.063  1.00  0.00    -0.0330  A
ATOM      3  C6  25D L   1       8.509   0.302  -0.496  1.00  0.00    +0.0415  A
ATOM      4 CL7  25D L   1       7.666   1.483   0.426  1.00  0.00    -0.0835 Cl
ATOM      5  C8  25D L   1       9.883   0.407  -0.668  1.00  0.00    -0.0420  A
ATOM      6  C9  25D L   1      10.558  -0.564  -1.408  1.00  0.00    -0.0415  A
ATOM      7 C10  25D L   1       9.854  -1.630  -1.979  1.00  0.00    +0.0500  A
ATOM      8 CL11 25D L   1      10.772  -2.803  -2.855  1.00  0.00    -0.0831 Cl
ATOM      9 H18  25D L   1       6.726  -0.799  -0.883  1.00  0.00    +0.0637  H
ATOM     10 H19  25D L   1      10.437   1.232  -0.225  1.00  0.00    +0.0633  H
ATOM     11 H20  25D L   1      11.637  -0.483  -1.531  1.00  0.00    +0.0633  H
ENDROOT
BRANCH 1 13
ATOM     12  C1  25D L   1       7.488  -2.732  -3.936  1.00  0.00    -0.0030  C
ATOM     13  C2  25D L   1       7.697  -2.908  -2.435  1.00  0.00    +0.1553  C
ATOM     14  N3  25D L   1       8.363  -4.226  -2.217  1.00  0.00    -0.1890  N
ATOM     15 H12  25D L   1       6.919  -3.570  -4.353  1.00  0.00    +0.0292  H
ATOM     16 H13  25D L   1       6.934  -1.813  -4.152  1.00  0.00    +0.0292  H
ATOM     17 H14  25D L   1       8.443  -2.674  -4.472  1.00  0.00    +0.0292  H
ATOM     18 H15  25D L   1       6.731  -3.034  -1.938  1.00  0.00    +0.1051  H
ATOM     19 H16  25D L   1       9.160  -4.369  -2.849  1.00  0.00    +0.4057 HD
ATOM     20 H17  25D L   1       7.705  -5.002  -2.368  1.00  0.00    +0.4057 HD
ENDBRANCH 1 13
TORSDOF 1
ENDMDL
MODEL 5
REMARK VINA RESULT:    -5.080     10.519     12.073
REMARK INTER + INTRA:          -5.404
REMARK INTER:                  -5.282
REMARK INTRA:                  -0.122
REMARK UNBOUND:                -0.028
ROOT
ATOM      1  C4  25D L   1      13.218 -10.517  -9.167  1.00  0.00    +0.0338  A
ATOM      2  C5  25D L   1      13.312  -9.494  -8.200  1.00  0.00    -0.0330  A
ATOM      3  C6  25D L   1      12.229  -9.191  -7.368  1.00  0.00    +0.0415  A
ATOM      4 CL7  25D L   1      12.390  -7.943  -6.197  1.00  0.00    -0.0835 Cl
ATOM      5  C8  25D L   1      11.031  -9.884  -7.485  1.00  0.00    -0.0420  A
ATOM      6  C9  25D L   1      10.909 -10.886  -8.447  1.00  0.00    -0.0415  A
ATOM      7 C10  25D L   1      11.988 -11.196  -9.282  1.00  0.00    +0.0500  A
ATOM      8 CL11 25D L   1      11.740 -12.431 -10.465  1.00  0.00    -0.0831 Cl
ATOM      9 H18  25D L   1      14.220  -8.909  -8.074  1.00  0.00    +0.0637  H
ATOM     10 H19  25D L   1      10.188  -9.647  -6.839  1.00  0.00    +0.0633  H
ATOM     11 H20  25D L   1       9.964 -11.419  -8.540  1.00  0.00    +0.0633  H
ENDROOT
BRANCH 1 13
ATOM     12  C1  25D L   1      15.256  -9.618 -10.342  1.00  0.00    -0.0030  C
ATOM     13  C2  25D L   1      14.380 -10.840 -10.084  1.00  0.00    +0.1553  C
ATOM     14  N3  25D L   1      15.259 -11.931  -9.565  1.00  0.00    -0.1890  N
ATOM     15 H12  25D L   1      16.078  -9.862 -11.024  1.00  0.00    +0.0292  H
ATOM     16 H13  25D L   1      14.677  -8.807 -10.796  1.00  0.00    +0.0292  H
ATOM     17 H14  25D L   1      15.692  -9.230  -9.414  1.00  0.00    +0.0292  H
ATOM     18 H15  25D L   1      14.019 -11.244 -11.034  1.00  0.00    +0.1051  H
ATOM     19 H16  25D L   1      15.887 -11.604  -8.822  1.00  0.00    +0.4057 HD
ATOM     20 H17  25D L   1      15.843 -12.322 -10.315  1.00  0.00    +0.4057 HD
ENDBRANCH 1 13
TORSDOF 1
ENDMDL
MODEL 6
REMARK VINA RESULT:    -5.076      1.760      2.309
REMARK INTER + INTRA:          -5.401
REMARK INTER:                  -5.288
REMARK INTRA:                  -0.113
REMARK UNBOUND:                -0.028
ROOT
ATOM      1  C4  25D L   1       7.989  -1.853  -2.197  1.00  0.00    +0.0338  A
ATOM      2  C5  25D L   1       9.342  -1.559  -1.927  1.00  0.00    -0.0330  A
ATOM      3  C6  25D L   1       9.707  -0.356  -1.313  1.00  0.00    +0.0415  A
ATOM      4 CL7  25D L   1      11.367  -0.042  -0.995  1.00  0.00    -0.0835 Cl
ATOM      5  C8  25D L   1       8.743   0.582  -0.966  1.00  0.00    -0.0420  A
ATOM      6  C9  25D L   1       7.401   0.321  -1.240  1.00  0.00    -0.0415  A
ATOM      7 C10  25D L   1       7.027  -0.880  -1.853  1.00  0.00    +0.0500  A
ATOM      8 CL11 25D L   1       5.347  -1.110  -2.183  1.00  0.00    -0.0831 Cl
ATOM      9 H18  25D L   1      10.140  -2.249  -2.190  1.00  0.00    +0.0637  H
ATOM     10 H19  25D L   1       9.026   1.519  -0.490  1.00  0.00    +0.0633  H
ATOM     11 H20  25D L   1       6.651   1.064  -0.974  1.00  0.00    +0.0633  H
ENDROOT
BRANCH 1 13
ATOM     12  C1  25D L   1       7.389  -2.959  -4.379  1.00  0.00    -0.0030  C
ATOM     13  C2  25D L   1       7.587  -3.146  -2.877  1.00  0.00    +0.1553  C
ATOM     14  N3  25D L   1       8.572  -4.251  -2.680  1.00  0.00    -0.1890  N
ATOM     15 H12  25D L   1       7.077  -3.896  -4.852  1.00  0.00    +0.0292  H
ATOM     16 H13  25D L   1       6.617  -2.209  -4.584  1.00  0.00    +0.0292  H
ATOM     17 H14  25D L   1       8.311  -2.625  -4.869  1.00  0.00    +0.0292  H
ATOM     18 H15  25D L   1       6.673  -3.547  -2.430  1.00  0.00    +0.1051  H
ATOM     19 H16  25D L   1       9.398  -4.148  -3.280  1.00  0.00    +0.4057 HD
ATOM     20 H17  25D L   1       8.149  -5.164  -2.889  1.00  0.00    +0.4057 HD
ENDBRANCH 1 13
TORSDOF 1
ENDMDL
MODEL 7
REMARK VINA RESULT:    -4.884     11.573     13.197
REMARK INTER + INTRA:          -5.197
REMARK INTER:                  -5.065
REMARK INTRA:                  -0.132
REMARK UNBOUND:                -0.028
ROOT
ATOM      1  C4  25D L   1      13.133 -11.578  -7.567  1.00  0.00    +0.0338  A
ATOM      2  C5  25D L   1      13.664 -12.408  -8.577  1.00  0.00    -0.0330  A
ATOM      3  C6  25D L   1      13.072 -12.465  -9.843  1.00  0.00    +0.0415  A
ATOM      4 CL7  25D L   1      13.756 -13.482 -11.048  1.00  0.00    -0.0835 Cl
ATOM      5  C8  25D L   1      11.939 -11.713 -10.130  1.00  0.00    -0.0420  A
ATOM      6  C9  25D L   1      11.386 -10.901  -9.141  1.00  0.00    -0.0415  A
ATOM      7 C10  25D L   1      11.972 -10.837  -7.872  1.00  0.00    +0.0500  A
ATOM      8 CL11 25D L   1      11.205  -9.828  -6.697  1.00  0.00    -0.0831 Cl
ATOM      9 H18  25D L   1      14.540 -13.028  -8.405  1.00  0.00    +0.0637  H
ATOM     10 H19  25D L   1      11.477 -11.759 -11.114  1.00  0.00    +0.0633  H
ATOM     11 H20  25D L   1      10.492 -10.322  -9.368  1.00  0.00    +0.0633  H
ENDROOT
BRANCH 1 13
ATOM     12  C1  25D L   1      13.427 -12.766  -5.365  1.00  0.00    -0.0030  C
ATOM     13  C2  25D L   1      13.757 -11.523  -6.187  1.00  0.00    +0.1553  C
ATOM     14  N3  25D L   1      15.243 -11.375  -6.215  1.00  0.00    -0.1890  N
ATOM     15 H12  25D L   1      13.866 -12.701  -4.363  1.00  0.00    +0.0292  H
ATOM     16 H13  25D L   1      12.344 -12.883  -5.247  1.00  0.00    +0.0292  H
ATOM     17 H14  25D L   1      13.806 -13.677  -5.841  1.00  0.00    +0.0292  H
ATOM     18 H15  25D L   1      13.430 -10.627  -5.653  1.00  0.00    +0.1051  H
ATOM     19 H16  25D L   1      15.718 -12.258  -6.436  1.00  0.00    +0.4057 HD
ATOM     20 H17  25D L   1      15.599 -11.052  -5.306  1.00  0.00    +0.4057 HD
ENDBRANCH 1 13
TORSDOF 1
ENDMDL
MODEL 8
REMARK VINA RESULT:    -4.875     10.477     12.049
REMARK INTER + INTRA:          -5.187
REMARK INTER:                  -5.068
REMARK INTRA:                  -0.120
REMARK UNBOUND:                -0.028
ROOT
ATOM      1  C4  25D L   1      13.406  -9.542  -8.344  1.00  0.00    +0.0338  A
ATOM      2  C5  25D L   1      13.156 -10.564  -9.285  1.00  0.00    -0.0330  A
ATOM      3  C6  25D L   1      11.920 -11.217  -9.324  1.00  0.00    +0.0415  A
ATOM      4 CL7  25D L   1      11.655 -12.450 -10.492  1.00  0.00    -0.0835 Cl
ATOM      5  C8  25D L   1      10.913 -10.881  -8.427  1.00  0.00    -0.0420  A
ATOM      6  C9  25D L   1      11.144  -9.888  -7.477  1.00  0.00    -0.0415  A
ATOM      7 C10  25D L   1      12.378  -9.229  -7.431  1.00  0.00    +0.0500  A
ATOM      8 CL11 25D L   1      12.589  -8.032  -6.203  1.00  0.00    -0.0831 Cl
ATOM      9 H18  25D L   1      13.912 -10.878 -10.001  1.00  0.00    +0.0637  H
ATOM     10 H19  25D L   1       9.952 -11.391  -8.456  1.00  0.00    +0.0633  H
ATOM     11 H20  25D L   1      10.355  -9.636  -6.770  1.00  0.00    +0.0633  H
ENDROOT
BRANCH 1 13
ATOM     12  C1  25D L   1      15.666  -9.463  -7.235  1.00  0.00    -0.0030  C
ATOM     13  C2  25D L   1      14.748  -8.841  -8.284  1.00  0.00    +0.1553  C
ATOM     14  N3  25D L   1      15.476  -8.842  -9.588  1.00  0.00    -0.1890  N
ATOM     15 H12  25D L   1      16.623  -8.931  -7.188  1.00  0.00    +0.0292  H
ATOM     16 H13  25D L   1      15.212  -9.420  -6.240  1.00  0.00    +0.0292  H
ATOM     17 H14  25D L   1      15.876 -10.516  -7.456  1.00  0.00    +0.0292  H
ATOM     18 H15  25D L   1      14.615  -7.776  -8.076  1.00  0.00    +0.1051  H
ATOM     19 H16  25D L   1      15.916  -9.748  -9.787  1.00  0.00    +0.4057 HD
ATOM     20 H17  25D L   1      16.217  -8.129  -9.597  1.00  0.00    +0.4057 HD
ENDBRANCH 1 13
TORSDOF 1
ENDMDL
MODEL 9
REMARK VINA RESULT:    -4.871      9.649     10.834
REMARK INTER + INTRA:          -5.183
REMARK INTER:                  -5.056
REMARK INTRA:                  -0.127
REMARK UNBOUND:                -0.028
ROOT
ATOM      1  C4  25D L   1      13.175 -10.317  -6.481  1.00  0.00    +0.0338  A
ATOM      2  C5  25D L   1      14.366  -9.875  -5.867  1.00  0.00    -0.0330  A
ATOM      3  C6  25D L   1      14.588  -8.515  -5.627  1.00  0.00    +0.0415  A
ATOM      4 CL7  25D L   1      16.049  -8.021  -4.869  1.00  0.00    -0.0835 Cl
ATOM      5  C8  25D L   1      13.643  -7.567  -6.000  1.00  0.00    -0.0420  A
ATOM      6  C9  25D L   1      12.467  -7.979  -6.626  1.00  0.00    -0.0415  A
ATOM      7 C10  25D L   1      12.237  -9.338  -6.869  1.00  0.00    +0.0500  A
ATOM      8 CL11 25D L   1      10.767  -9.758  -7.674  1.00  0.00    -0.0831 Cl
ATOM      9 H18  25D L   1      15.146 -10.571  -5.568  1.00  0.00    +0.0637  H
ATOM     10 H19  25D L   1      13.817  -6.509  -5.816  1.00  0.00    +0.0633  H
ATOM     11 H20  25D L   1      11.735  -7.231  -6.925  1.00  0.00    +0.0633  H
ENDROOT
BRANCH 1 13
ATOM     12  C1  25D L   1      13.851 -12.313  -7.861  1.00  0.00    -0.0030  C
ATOM     13  C2  25D L   1      12.933 -11.787  -6.760  1.00  0.00    +0.1553  C
ATOM     14  N3  25D L   1      13.115 -12.656  -5.559  1.00  0.00    -0.1890  N
ATOM     15 H12  25D L   1      13.648 -13.370  -8.066  1.00  0.00    +0.0292  H
ATOM     16 H13  25D L   1      13.704 -11.759  -8.794  1.00  0.00    +0.0292  H
ATOM     17 H14  25D L   1      14.907 -12.220  -7.585  1.00  0.00    +0.0292  H
ATOM     18 H15  25D L   1      11.889 -11.959  -7.034  1.00  0.00    +0.1051  H
ATOM     19 H16  25D L   1      14.106 -12.820  -5.344  1.00  0.00    +0.4057 HD
ATOM     20 H17  25D L   1      12.672 -13.573  -5.697  1.00  0.00    +0.4057 HD
ENDBRANCH 1 13
TORSDOF 1
ENDMDL
MODEL 10
REMARK VINA RESULT:    -4.843     10.510     12.026
REMARK INTER + INTRA:          -5.153
REMARK INTER:                  -5.020
REMARK INTRA:                  -0.134
REMARK UNBOUND:                -0.028
ROOT
ATOM      1  C4  25D L   1      12.614 -10.372  -7.235  1.00  0.00    +0.0338  A
ATOM      2  C5  25D L   1      12.944 -11.734  -7.074  1.00  0.00    -0.0330  A
ATOM      3  C6  25D L   1      13.952 -12.128  -6.188  1.00  0.00    +0.0415  A
ATOM      4 CL7  25D L   1      14.315 -13.800  -6.015  1.00  0.00    -0.0835 Cl
ATOM      5  C8  25D L   1      14.661 -11.184  -5.456  1.00  0.00    -0.0420  A
ATOM      6  C9  25D L   1      14.365  -9.830  -5.614  1.00  0.00    -0.0415  A
ATOM      7 C10  25D L   1      13.358  -9.427  -6.497  1.00  0.00    +0.0500  A
ATOM      8 CL11 25D L   1      13.077  -7.730  -6.653  1.00  0.00    -0.0831 Cl
ATOM      9 H18  25D L   1      12.432 -12.515  -7.631  1.00  0.00    +0.0637  H
ATOM     10 H19  25D L   1      15.447 -11.490  -4.769  1.00  0.00    +0.0633  H
ATOM     11 H20  25D L   1      14.931  -9.094  -5.045  1.00  0.00    +0.0633  H
ENDROOT
BRANCH 1 13
ATOM     12  C1  25D L   1      12.107  -9.611  -9.582  1.00  0.00    -0.0030  C
ATOM     13  C2  25D L   1      11.535  -9.934  -8.205  1.00  0.00    +0.1553  C
ATOM     14  N3  25D L   1      10.454 -10.949  -8.385  1.00  0.00    -0.1890  N
ATOM     15 H12  25D L   1      11.318  -9.275 -10.264  1.00  0.00    +0.0292  H
ATOM     16 H13  25D L   1      12.856  -8.814  -9.520  1.00  0.00    +0.0292  H
ATOM     17 H14  25D L   1      12.592 -10.484 -10.032  1.00  0.00    +0.0292  H
ATOM     18 H15  25D L   1      10.997  -9.066  -7.814  1.00  0.00    +0.1051  H
ATOM     19 H16  25D L   1      10.743 -11.721  -8.996  1.00  0.00    +0.4057 HD
ATOM     20 H17  25D L   1       9.614 -10.524  -8.799  1.00  0.00    +0.4057 HD
ENDBRANCH 1 13
TORSDOF 1
ENDMDL
MODEL 11
REMARK VINA RESULT:    -4.829     11.779     13.129
REMARK INTER + INTRA:          -5.139
REMARK INTER:                  -5.000
REMARK INTRA:                  -0.139
REMARK UNBOUND:                -0.028
ROOT
ATOM      1  C4  25D L   1      12.930 -11.466  -7.553  1.00  0.00    +0.0338  A
ATOM      2  C5  25D L   1      12.895 -11.889  -6.207  1.00  0.00    -0.0330  A
ATOM      3  C6  25D L   1      13.627 -13.004  -5.786  1.00  0.00    +0.0415  A
ATOM      4 CL7  25D L   1      13.563 -13.480  -4.135  1.00  0.00    -0.0835 Cl
ATOM      5  C8  25D L   1      14.395 -13.729  -6.689  1.00  0.00    -0.0420  A
ATOM      6  C9  25D L   1      14.429 -13.341  -8.028  1.00  0.00    -0.0415  A
ATOM      7 C10  25D L   1      13.701 -12.226  -8.457  1.00  0.00    +0.0500  A
ATOM      8 CL11 25D L   1      13.777 -11.832 -10.138  1.00  0.00    -0.0831 Cl
ATOM      9 H18  25D L   1      12.300 -11.369  -5.460  1.00  0.00    +0.0637  H
ATOM     10 H19  25D L   1      14.963 -14.598  -6.362  1.00  0.00    +0.0633  H
ATOM     11 H20  25D L   1      15.026 -13.918  -8.732  1.00  0.00    +0.0633  H
ENDROOT
BRANCH 1 13
ATOM     12  C1  25D L   1      10.695 -10.653  -8.382  1.00  0.00    -0.0030  C
ATOM     13  C2  25D L   1      12.127 -10.269  -8.021  1.00  0.00    +0.1553  C
ATOM     14  N3  25D L   1      12.065  -9.167  -7.015  1.00  0.00    -0.1890  N
ATOM     15 H12  25D L   1      10.135  -9.782  -8.740  1.00  0.00    +0.0292  H
ATOM     16 H13  25D L   1      10.678 -11.409  -9.175  1.00  0.00    +0.0292  H
ATOM     17 H14  25D L   1      10.159 -11.068  -7.521  1.00  0.00    +0.0292  H
ATOM     18 H15  25D L   1      12.611  -9.794  -8.878  1.00  0.00    +0.1051  H
ATOM     19 H16  25D L   1      11.399  -9.367  -6.260  1.00  0.00    +0.4057 HD
ATOM     20 H17  25D L   1      11.780  -8.282  -7.454  1.00  0.00    +0.4057 HD
ENDBRANCH 1 13
TORSDOF 1
ENDMDL
MODEL 12
REMARK VINA RESULT:    -4.713     12.401     12.968
REMARK INTER + INTRA:          -5.016
REMARK INTER:                  -4.915
REMARK INTRA:                  -0.101
REMARK UNBOUND:                -0.028
ROOT
ATOM      1  C4  25D L   1       1.680  -5.350 -12.077  1.00  0.00    +0.0338  A
ATOM      2  C5  25D L   1       2.716  -6.302 -12.175  1.00  0.00    -0.0330  A
ATOM      3  C6  25D L   1       3.684  -6.210 -13.181  1.00  0.00    +0.0415  A
ATOM      4 CL7  25D L   1       4.934  -7.387 -13.258  1.00  0.00    -0.0835 Cl
ATOM      5  C8  25D L   1       3.638  -5.183 -14.115  1.00  0.00    -0.0420  A
ATOM      6  C9  25D L   1       2.611  -4.241 -14.050  1.00  0.00    -0.0415  A
ATOM      7 C10  25D L   1       1.640  -4.325 -13.046  1.00  0.00    +0.0500  A
ATOM      8 CL11 25D L   1       0.388  -3.135 -13.056  1.00  0.00    -0.0831 Cl
ATOM      9 H18  25D L   1       2.794  -7.135 -11.481  1.00  0.00    +0.0637  H
ATOM     10 H19  25D L   1       4.389  -5.112 -14.900  1.00  0.00    +0.0633  H
ATOM     11 H20  25D L   1       2.575  -3.444 -14.791  1.00  0.00    +0.0633  H
ENDROOT
BRANCH 1 13
ATOM     12  C1  25D L   1       0.566  -6.848 -10.387  1.00  0.00    -0.0030  C
ATOM     13  C2  25D L   1       0.618  -5.452 -11.001  1.00  0.00    +0.1553  C
ATOM     14  N3  25D L   1       0.803  -4.470  -9.891  1.00  0.00    -0.1890  N
ATOM     15 H12  25D L   1      -0.221  -6.912  -9.627  1.00  0.00    +0.0292  H
ATOM     16 H13  25D L   1       0.356  -7.606 -11.149  1.00  0.00    +0.0292  H
ATOM     17 H14  25D L   1       1.516  -7.115  -9.911  1.00  0.00    +0.0292  H
ATOM     18 H15  25D L   1      -0.363  -5.187 -11.404  1.00  0.00    +0.1051  H
ATOM     19 H16  25D L   1       1.545  -4.754  -9.240  1.00  0.00    +0.4057 HD
ATOM     20 H17  25D L   1      -0.062  -4.361  -9.347  1.00  0.00    +0.4057 HD
ENDBRANCH 1 13
TORSDOF 1
ENDMDL
