MODEL 1
REMARK VINA RESULT:    -6.115      0.000      0.000
REMARK INTER + INTRA:          -6.557
REMARK INTER:                  -6.472
REMARK INTRA:                  -0.085
REMARK UNBOUND:                -0.085
ROOT
ATOM      1  C4  AMB L   1       8.371  -1.493  -1.439  1.00  0.00    +0.0142  A
ATOM      2  C5  AMB L   1       9.643  -0.961  -1.716  1.00  0.00    -0.0528  A
ATOM      3  C6  AMB L   1      10.669  -1.779  -2.191  1.00  0.00    -0.0613  A
ATOM      4  C7  AMB L   1      10.443  -3.137  -2.391  1.00  0.00    -0.0617  A
ATOM      5  C8  AMB L   1       9.189  -3.681  -2.120  1.00  0.00    -0.0613  A
ATOM      6  C9  AMB L   1       8.159  -2.867  -1.645  1.00  0.00    -0.0528  A
ATOM      7 H16  AMB L   1       9.858   0.099  -1.582  1.00  0.00    +0.0622  H
ATOM      8 H17  AMB L   1      11.648  -1.358  -2.415  1.00  0.00    +0.0618  H
ATOM      9 H18  AMB L   1      11.242  -3.773  -2.769  1.00  0.00    +0.0618  H
ATOM     10 H19  AMB L   1       9.017  -4.742  -2.290  1.00  0.00    +0.0618  H
ATOM     11 H20  AMB L   1       7.196  -3.338  -1.457  1.00  0.00    +0.0622  H
ENDROOT
BRANCH 1 13
ATOM     12  C1  AMB L   1       7.763   0.812  -0.493  1.00  0.00    -0.0031  C
ATOM     13  C2  AMB L   1       7.300  -0.591  -0.872  1.00  0.00    +0.1539  C
ATOM     14  N3  AMB L   1       6.182  -0.457  -1.846  1.00  0.00    -0.1890  N
ATOM     15 H10  AMB L   1       8.604   0.768   0.208  1.00  0.00    +0.0292  H
ATOM     16 H11  AMB L   1       8.082   1.396  -1.362  1.00  0.00    +0.0292  H
ATOM     17 H12  AMB L   1       6.952   1.367  -0.007  1.00  0.00    +0.0292  H
ATOM     18 H13  AMB L   1       6.857  -1.054   0.017  1.00  0.00    +0.1051  H
ATOM     19 H14  AMB L   1       6.530  -0.077  -2.734  1.00  0.00    +0.4057 HD
ATOM     20 H15  AMB L   1       5.801  -1.388  -2.061  1.00  0.00    +0.4057 HD
ENDBRANCH 1 13
TORSDOF 1
ENDMDL
MODEL 2
REMARK VINA RESULT:    -6.054      1.574      3.338
REMARK INTER + INTRA:          -6.493
REMARK INTER:                  -6.419
REMARK INTRA:                  -0.074
REMARK UNBOUND:                -0.085
ROOT
ATOM      1  C4  AMB L   1       8.607  -1.850  -2.201  1.00  0.00    +0.0142  A
ATOM      2  C5  AMB L   1       9.835  -1.195  -1.997  1.00  0.00    -0.0528  A
ATOM      3  C6  AMB L   1       9.912  -0.063  -1.185  1.00  0.00    -0.0613  A
ATOM      4  C7  AMB L   1       8.767   0.435  -0.571  1.00  0.00    -0.0617  A
ATOM      5  C8  AMB L   1       7.543  -0.200  -0.763  1.00  0.00    -0.0613  A
ATOM      6  C9  AMB L   1       7.459  -1.334  -1.574  1.00  0.00    -0.0528  A
ATOM      7 H16  AMB L   1      10.756  -1.559  -2.452  1.00  0.00    +0.0622  H
ATOM      8 H17  AMB L   1      10.868   0.432  -1.022  1.00  0.00    +0.0618  H
ATOM      9 H18  AMB L   1       8.830   1.313   0.069  1.00  0.00    +0.0618  H
ATOM     10 H19  AMB L   1       6.654   0.189  -0.269  1.00  0.00    +0.0618  H
ATOM     11 H20  AMB L   1       6.481  -1.798  -1.685  1.00  0.00    +0.0622  H
ENDROOT
BRANCH 1 13
ATOM     12  C1  AMB L   1       8.532  -4.402  -2.448  1.00  0.00    -0.0031  C
ATOM     13  C2  AMB L   1       8.549  -3.039  -3.131  1.00  0.00    +0.1539  C
ATOM     14  N3  AMB L   1       7.342  -2.945  -3.998  1.00  0.00    -0.1890  N
ATOM     15 H10  AMB L   1       9.392  -4.512  -1.778  1.00  0.00    +0.0292  H
ATOM     16 H11  AMB L   1       7.624  -4.562  -1.857  1.00  0.00    +0.0292  H
ATOM     17 H12  AMB L   1       8.583  -5.206  -3.191  1.00  0.00    +0.0292  H
ATOM     18 H13  AMB L   1       9.403  -3.014  -3.818  1.00  0.00    +0.1051  H
ATOM     19 H14  AMB L   1       6.494  -2.907  -3.420  1.00  0.00    +0.4057 HD
ATOM     20 H15  AMB L   1       7.368  -2.065  -4.528  1.00  0.00    +0.4057 HD
ENDBRANCH 1 13
TORSDOF 1
ENDMDL
MODEL 3
REMARK VINA RESULT:    -6.051      1.605      3.586
REMARK INTER + INTRA:          -6.490
REMARK INTER:                  -6.408
REMARK INTRA:                  -0.082
REMARK UNBOUND:                -0.085
ROOT
ATOM      1  C4  AMB L   1       8.616  -1.891  -2.299  1.00  0.00    +0.0142  A
ATOM      2  C5  AMB L   1       7.451  -1.386  -1.694  1.00  0.00    -0.0528  A
ATOM      3  C6  AMB L   1       7.507  -0.261  -0.869  1.00  0.00    -0.0613  A
ATOM      4  C7  AMB L   1       8.723   0.372  -0.634  1.00  0.00    -0.0617  A
ATOM      5  C8  AMB L   1       9.886  -0.115  -1.225  1.00  0.00    -0.0613  A
ATOM      6  C9  AMB L   1       9.837  -1.241  -2.050  1.00  0.00    -0.0528  A
ATOM      7 H16  AMB L   1       6.477  -1.847  -1.860  1.00  0.00    +0.0622  H
ATOM      8 H17  AMB L   1       6.599   0.131  -0.414  1.00  0.00    +0.0618  H
ATOM      9 H18  AMB L   1       8.764   1.254   0.002  1.00  0.00    +0.0618  H
ATOM     10 H19  AMB L   1      10.832   0.393  -1.045  1.00  0.00    +0.0618  H
ATOM     11 H20  AMB L   1      10.772  -1.576  -2.495  1.00  0.00    +0.0622  H
ENDROOT
BRANCH 1 13
ATOM     12  C1  AMB L   1       8.479  -4.451  -2.355  1.00  0.00    -0.0031  C
ATOM     13  C2  AMB L   1       8.529  -3.144  -3.139  1.00  0.00    +0.1539  C
ATOM     14  N3  AMB L   1       7.324  -3.086  -4.011  1.00  0.00    -0.1890  N
ATOM     15 H10  AMB L   1       9.337  -4.531  -1.678  1.00  0.00    +0.0292  H
ATOM     16 H11  AMB L   1       7.568  -4.545  -1.755  1.00  0.00    +0.0292  H
ATOM     17 H12  AMB L   1       8.511  -5.309  -3.036  1.00  0.00    +0.0292  H
ATOM     18 H13  AMB L   1       9.383  -3.191  -3.824  1.00  0.00    +0.1051  H
ATOM     19 H14  AMB L   1       6.477  -2.985  -3.439  1.00  0.00    +0.4057 HD
ATOM     20 H15  AMB L   1       7.371  -2.249  -4.606  1.00  0.00    +0.4057 HD
ENDBRANCH 1 13
TORSDOF 1
ENDMDL
MODEL 4
REMARK VINA RESULT:    -6.012      0.193      1.616
REMARK INTER + INTRA:          -6.448
REMARK INTER:                  -6.367
REMARK INTRA:                  -0.082
REMARK UNBOUND:                -0.085
ROOT
ATOM      1  C4  AMB L   1       8.423  -1.474  -1.365  1.00  0.00    +0.0142  A
ATOM      2  C5  AMB L   1       8.051  -2.813  -1.582  1.00  0.00    -0.0528  A
ATOM      3  C6  AMB L   1       8.950  -3.719  -2.146  1.00  0.00    -0.0613  A
ATOM      4  C7  AMB L   1      10.228  -3.303  -2.506  1.00  0.00    -0.0617  A
ATOM      5  C8  AMB L   1      10.612  -1.980  -2.299  1.00  0.00    -0.0613  A
ATOM      6  C9  AMB L   1       9.717  -1.069  -1.736  1.00  0.00    -0.0528  A
ATOM      7 H16  AMB L   1       7.063  -3.181  -1.306  1.00  0.00    +0.0622  H
ATOM      8 H17  AMB L   1       8.659  -4.757  -2.300  1.00  0.00    +0.0618  H
ATOM      9 H18  AMB L   1      10.931  -4.013  -2.938  1.00  0.00    +0.0618  H
ATOM     10 H19  AMB L   1      11.618  -1.665  -2.573  1.00  0.00    +0.0618  H
ATOM     11 H20  AMB L   1      10.068  -0.050  -1.587  1.00  0.00    +0.0622  H
ENDROOT
BRANCH 1 13
ATOM     12  C1  AMB L   1       7.941   0.884  -0.479  1.00  0.00    -0.0031  C
ATOM     13  C2  AMB L   1       7.407  -0.506  -0.806  1.00  0.00    +0.1539  C
ATOM     14  N3  AMB L   1       6.277  -0.349  -1.763  1.00  0.00    -0.1890  N
ATOM     15 H10  AMB L   1       8.793   0.821   0.208  1.00  0.00    +0.0292  H
ATOM     16 H11  AMB L   1       8.270   1.427  -1.371  1.00  0.00    +0.0292  H
ATOM     17 H12  AMB L   1       7.167   1.490   0.005  1.00  0.00    +0.0292  H
ATOM     18 H13  AMB L   1       6.961  -0.921   0.105  1.00  0.00    +0.1051  H
ATOM     19 H14  AMB L   1       6.625  -0.012  -2.669  1.00  0.00    +0.4057 HD
ATOM     20 H15  AMB L   1       5.850  -1.267  -1.943  1.00  0.00    +0.4057 HD
ENDBRANCH 1 13
TORSDOF 1
ENDMDL
MODEL 5
REMARK VINA RESULT:    -5.886      1.992      2.480
REMARK INTER + INTRA:          -6.315
REMARK INTER:                  -6.238
REMARK INTRA:                  -0.077
REMARK UNBOUND:                -0.085
ROOT
ATOM      1  C4  AMB L   1       8.785  -1.428  -2.226  1.00  0.00    +0.0142  A
ATOM      2  C5  AMB L   1       7.735  -1.462  -3.162  1.00  0.00    -0.0528  A
ATOM      3  C6  AMB L   1       7.382  -2.656  -3.793  1.00  0.00    -0.0613  A
ATOM      4  C7  AMB L   1       8.072  -3.829  -3.504  1.00  0.00    -0.0617  A
ATOM      5  C8  AMB L   1       9.115  -3.812  -2.581  1.00  0.00    -0.0613  A
ATOM      6  C9  AMB L   1       9.473  -2.621  -1.947  1.00  0.00    -0.0528  A
ATOM      7 H16  AMB L   1       7.163  -0.567  -3.408  1.00  0.00    +0.0622  H
ATOM      8 H17  AMB L   1       6.560  -2.677  -4.507  1.00  0.00    +0.0618  H
ATOM      9 H18  AMB L   1       7.790  -4.761  -3.991  1.00  0.00    +0.0618  H
ATOM     10 H19  AMB L   1       9.642  -4.737  -2.352  1.00  0.00    +0.0618  H
ATOM     11 H20  AMB L   1      10.289  -2.664  -1.227  1.00  0.00    +0.0622  H
ENDROOT
BRANCH 1 13
ATOM     12  C1  AMB L   1       8.345   0.321  -0.402  1.00  0.00    -0.0031  C
ATOM     13  C2  AMB L   1       9.178  -0.109  -1.605  1.00  0.00    +0.1539  C
ATOM     14  N3  AMB L   1      10.605  -0.154  -1.181  1.00  0.00    -0.1890  N
ATOM     15 H10  AMB L   1       7.279   0.347  -0.658  1.00  0.00    +0.0292  H
ATOM     16 H11  AMB L   1       8.468  -0.352   0.453  1.00  0.00    +0.0292  H
ATOM     17 H12  AMB L   1       8.634   1.325  -0.072  1.00  0.00    +0.0292  H
ATOM     18 H13  AMB L   1       9.123   0.687  -2.357  1.00  0.00    +0.1051  H
ATOM     19 H14  AMB L   1      10.751  -0.917  -0.511  1.00  0.00    +0.4057 HD
ATOM     20 H15  AMB L   1      11.197  -0.368  -1.994  1.00  0.00    +0.4057 HD
ENDBRANCH 1 13
TORSDOF 1
ENDMDL
MODEL 6
REMARK VINA RESULT:    -5.850      2.000      2.431
REMARK INTER + INTRA:          -6.277
REMARK INTER:                  -6.192
REMARK INTRA:                  -0.086
REMARK UNBOUND:                -0.085
ROOT
ATOM      1  C4  AMB L   1       8.800  -1.303  -2.285  1.00  0.00    +0.0142  A
ATOM      2  C5  AMB L   1       9.533  -2.474  -2.025  1.00  0.00    -0.0528  A
ATOM      3  C6  AMB L   1       9.186  -3.681  -2.636  1.00  0.00    -0.0613  A
ATOM      4  C7  AMB L   1       8.103  -3.736  -3.507  1.00  0.00    -0.0617  A
ATOM      5  C8  AMB L   1       7.366  -2.585  -3.773  1.00  0.00    -0.0613  A
ATOM      6  C9  AMB L   1       7.708  -1.375  -3.166  1.00  0.00    -0.0528  A
ATOM      7 H16  AMB L   1      10.394  -2.471  -1.357  1.00  0.00    +0.0622  H
ATOM      8 H17  AMB L   1       9.766  -4.582  -2.440  1.00  0.00    +0.0618  H
ATOM      9 H18  AMB L   1       7.839  -4.676  -3.989  1.00  0.00    +0.0618  H
ATOM     10 H19  AMB L   1       6.526  -2.635  -4.465  1.00  0.00    +0.0618  H
ATOM     11 H20  AMB L   1       7.105  -0.504  -3.414  1.00  0.00    +0.0622  H
ENDROOT
BRANCH 1 13
ATOM     12  C1  AMB L   1       8.275   0.332  -0.379  1.00  0.00    -0.0031  C
ATOM     13  C2  AMB L   1       9.167  -0.027  -1.563  1.00  0.00    +0.1539  C
ATOM     14  N3  AMB L   1      10.570  -0.108  -1.072  1.00  0.00    -0.1890  N
ATOM     15 H10  AMB L   1       7.224   0.382  -0.685  1.00  0.00    +0.0292  H
ATOM     16 H11  AMB L   1       8.352  -0.394   0.438  1.00  0.00    +0.0292  H
ATOM     17 H12  AMB L   1       8.550   1.311   0.028  1.00  0.00    +0.0292  H
ATOM     18 H13  AMB L   1       9.152   0.814  -2.265  1.00  0.00    +0.1051  H
ATOM     19 H14  AMB L   1      10.679  -0.913  -0.444  1.00  0.00    +0.4057 HD
ATOM     20 H15  AMB L   1      11.201  -0.275  -1.866  1.00  0.00    +0.4057 HD
ENDBRANCH 1 13
TORSDOF 1
ENDMDL
MODEL 7
REMARK VINA RESULT:    -5.601      1.585      2.557
REMARK INTER + INTRA:          -6.013
REMARK INTER:                  -5.929
REMARK INTRA:                  -0.084
REMARK UNBOUND:                -0.085
ROOT
ATOM      1  C4  AMB L   1       7.951  -1.834  -2.751  1.00  0.00    +0.0142  A
ATOM      2  C5  AMB L   1       8.162  -3.224  -2.728  1.00  0.00    -0.0528  A
ATOM      3  C6  AMB L   1       9.407  -3.750  -2.379  1.00  0.00    -0.0613  A
ATOM      4  C7  AMB L   1      10.458  -2.898  -2.054  1.00  0.00    -0.0617  A
ATOM      5  C8  AMB L   1      10.266  -1.519  -2.073  1.00  0.00    -0.0613  A
ATOM      6  C9  AMB L   1       9.023  -0.987  -2.421  1.00  0.00    -0.0528  A
ATOM      7 H16  AMB L   1       7.362  -3.925  -2.966  1.00  0.00    +0.0622  H
ATOM      8 H17  AMB L   1       9.560  -4.827  -2.351  1.00  0.00    +0.0618  H
ATOM      9 H18  AMB L   1      11.426  -3.309  -1.774  1.00  0.00    +0.0618  H
ATOM     10 H19  AMB L   1      11.090  -0.859  -1.806  1.00  0.00    +0.0618  H
ATOM     11 H20  AMB L   1       8.922   0.097  -2.413  1.00  0.00    +0.0622  H
ENDROOT
BRANCH 1 13
ATOM     12  C1  AMB L   1       5.707  -2.300  -3.904  1.00  0.00    -0.0031  C
ATOM     13  C2  AMB L   1       6.608  -1.298  -3.189  1.00  0.00    +0.1539  C
ATOM     14  N3  AMB L   1       5.864  -0.771  -2.012  1.00  0.00    -0.1890  N
ATOM     15 H10  AMB L   1       6.220  -2.735  -4.769  1.00  0.00    +0.0292  H
ATOM     16 H11  AMB L   1       5.396  -3.121  -3.251  1.00  0.00    +0.0292  H
ATOM     17 H12  AMB L   1       4.798  -1.809  -4.268  1.00  0.00    +0.0292  H
ATOM     18 H13  AMB L   1       6.751  -0.436  -3.852  1.00  0.00    +0.1051  H
ATOM     19 H14  AMB L   1       5.737  -1.513  -1.313  1.00  0.00    +0.4057 HD
ATOM     20 H15  AMB L   1       6.421  -0.038  -1.555  1.00  0.00    +0.4057 HD
ENDBRANCH 1 13
TORSDOF 1
ENDMDL
MODEL 8
REMARK VINA RESULT:    -5.100      2.253      3.712
REMARK INTER + INTRA:          -5.483
REMARK INTER:                  -5.397
REMARK INTRA:                  -0.086
REMARK UNBOUND:                -0.085
ROOT
ATOM      1  C4  AMB L   1       8.242  -1.743  -2.370  1.00  0.00    +0.0142  A
ATOM      2  C5  AMB L   1       8.006  -2.605  -3.456  1.00  0.00    -0.0528  A
ATOM      3  C6  AMB L   1       6.752  -2.651  -4.068  1.00  0.00    -0.0613  A
ATOM      4  C7  AMB L   1       5.719  -1.844  -3.604  1.00  0.00    -0.0617  A
ATOM      5  C8  AMB L   1       5.936  -0.986  -2.529  1.00  0.00    -0.0613  A
ATOM      6  C9  AMB L   1       7.188  -0.935  -1.912  1.00  0.00    -0.0528  A
ATOM      7 H16  AMB L   1       8.791  -3.246  -3.856  1.00  0.00    +0.0622  H
ATOM      8 H17  AMB L   1       6.579  -3.312  -4.916  1.00  0.00    +0.0618  H
ATOM      9 H18  AMB L   1       4.744  -1.875  -4.088  1.00  0.00    +0.0618  H
ATOM     10 H19  AMB L   1       5.125  -0.349  -2.179  1.00  0.00    +0.0618  H
ATOM     11 H20  AMB L   1       7.308  -0.242  -1.082  1.00  0.00    +0.0622  H
ENDROOT
BRANCH 1 13
ATOM     12  C1  AMB L   1      10.642  -2.650  -2.354  1.00  0.00    -0.0031  C
ATOM     13  C2  AMB L   1       9.594  -1.760  -1.694  1.00  0.00    +0.1539  C
ATOM     14  N3  AMB L   1      10.143  -0.378  -1.625  1.00  0.00    -0.1890  N
ATOM     15 H10  AMB L   1      10.274  -3.678  -2.450  1.00  0.00    +0.0292  H
ATOM     16 H11  AMB L   1      10.918  -2.299  -3.354  1.00  0.00    +0.0292  H
ATOM     17 H12  AMB L   1      11.557  -2.677  -1.753  1.00  0.00    +0.0292  H
ATOM     18 H13  AMB L   1       9.483  -2.082  -0.652  1.00  0.00    +0.1051  H
ATOM     19 H14  AMB L   1      10.225   0.017  -2.569  1.00  0.00    +0.4057 HD
ATOM     20 H15  AMB L   1       9.486   0.226  -1.116  1.00  0.00    +0.4057 HD
ENDBRANCH 1 13
TORSDOF 1
ENDMDL
MODEL 9
REMARK VINA RESULT:    -4.760      9.505     11.202
REMARK INTER + INTRA:          -5.123
REMARK INTER:                  -5.042
REMARK INTRA:                  -0.081
REMARK UNBOUND:                -0.085
ROOT
ATOM      1  C4  AMB L   1      12.417  -9.401  -8.300  1.00  0.00    +0.0142  A
ATOM      2  C5  AMB L   1      13.427  -8.620  -8.888  1.00  0.00    -0.0528  A
ATOM      3  C6  AMB L   1      14.048  -7.598  -8.167  1.00  0.00    -0.0613  A
ATOM      4  C7  AMB L   1      13.668  -7.340  -6.854  1.00  0.00    -0.0617  A
ATOM      5  C8  AMB L   1      12.669  -8.104  -6.257  1.00  0.00    -0.0613  A
ATOM      6  C9  AMB L   1      12.043  -9.127  -6.973  1.00  0.00    -0.0528  A
ATOM      7 H16  AMB L   1      13.761  -8.796  -9.911  1.00  0.00    +0.0622  H
ATOM      8 H17  AMB L   1      14.838  -7.005  -8.625  1.00  0.00    +0.0618  H
ATOM      9 H18  AMB L   1      14.159  -6.549  -6.290  1.00  0.00    +0.0618  H
ATOM     10 H19  AMB L   1      12.385  -7.903  -5.225  1.00  0.00    +0.0618  H
ATOM     11 H20  AMB L   1      11.275  -9.700  -6.458  1.00  0.00    +0.0622  H
ENDROOT
BRANCH 1 13
ATOM     12  C1  AMB L   1      12.602 -11.637  -9.543  1.00  0.00    -0.0031  C
ATOM     13  C2  AMB L   1      11.726 -10.460  -9.127  1.00  0.00    +0.1539  C
ATOM     14  N3  AMB L   1      10.555 -11.000  -8.383  1.00  0.00    -0.1890  N
ATOM     15 H10  AMB L   1      13.493 -11.289 -10.077  1.00  0.00    +0.0292  H
ATOM     16 H11  AMB L   1      12.935 -12.233  -8.687  1.00  0.00    +0.0292  H
ATOM     17 H12  AMB L   1      12.052 -12.308 -10.213  1.00  0.00    +0.0292  H
ATOM     18 H13  AMB L   1      11.311 -10.008 -10.035  1.00  0.00    +0.1051  H
ATOM     19 H14  AMB L   1      10.858 -11.395  -7.485  1.00  0.00    +0.4057 HD
ATOM     20 H15  AMB L   1       9.910 -10.232  -8.156  1.00  0.00    +0.4057 HD
ENDBRANCH 1 13
TORSDOF 1
ENDMDL
MODEL 10
REMARK VINA RESULT:    -4.739     10.962     12.632
REMARK INTER + INTRA:          -5.101
REMARK INTER:                  -5.010
REMARK INTRA:                  -0.091
REMARK UNBOUND:                -0.085
ROOT
ATOM      1  C4  AMB L   1      12.214 -11.243  -8.273  1.00  0.00    +0.0142  A
ATOM      2  C5  AMB L   1      11.460 -11.386  -9.451  1.00  0.00    -0.0528  A
ATOM      3  C6  AMB L   1      11.908 -12.205 -10.488  1.00  0.00    -0.0613  A
ATOM      4  C7  AMB L   1      13.114 -12.888 -10.367  1.00  0.00    -0.0617  A
ATOM      5  C8  AMB L   1      13.874 -12.756  -9.208  1.00  0.00    -0.0613  A
ATOM      6  C9  AMB L   1      13.431 -11.937  -8.167  1.00  0.00    -0.0528  A
ATOM      7 H16  AMB L   1      10.505 -10.876  -9.581  1.00  0.00    +0.0622  H
ATOM      8 H17  AMB L   1      11.312 -12.321 -11.392  1.00  0.00    +0.0618  H
ATOM      9 H18  AMB L   1      13.458 -13.534 -11.174  1.00  0.00    +0.0618  H
ATOM     10 H19  AMB L   1      14.811 -13.303  -9.117  1.00  0.00    +0.0618  H
ATOM     11 H20  AMB L   1      14.058 -11.875  -7.279  1.00  0.00    +0.0622  H
ENDROOT
BRANCH 1 13
ATOM     12  C1  AMB L   1      12.796  -9.394  -6.592  1.00  0.00    -0.0031  C
ATOM     13  C2  AMB L   1      11.729 -10.302  -7.194  1.00  0.00    +0.1539  C
ATOM     14  N3  AMB L   1      10.640  -9.439  -7.727  1.00  0.00    -0.1890  N
ATOM     15 H10  AMB L   1      13.635  -9.984  -6.204  1.00  0.00    +0.0292  H
ATOM     16 H11  AMB L   1      13.197  -8.681  -7.319  1.00  0.00    +0.0292  H
ATOM     17 H12  AMB L   1      12.383  -8.815  -5.759  1.00  0.00    +0.0292  H
ATOM     18 H13  AMB L   1      11.273 -10.877  -6.380  1.00  0.00    +0.1051  H
ATOM     19 H14  AMB L   1      10.977  -8.904  -8.537  1.00  0.00    +0.4057 HD
ATOM     20 H15  AMB L   1       9.872 -10.030  -8.073  1.00  0.00    +0.4057 HD
ENDBRANCH 1 13
TORSDOF 1
ENDMDL
MODEL 11
REMARK VINA RESULT:    -4.720     10.952     12.588
REMARK INTER + INTRA:          -5.081
REMARK INTER:                  -4.995
REMARK INTRA:                  -0.086
REMARK UNBOUND:                -0.085
ROOT
ATOM      1  C4  AMB L   1      12.213 -11.168  -8.336  1.00  0.00    +0.0142  A
ATOM      2  C5  AMB L   1      13.422 -11.868  -8.179  1.00  0.00    -0.0528  A
ATOM      3  C6  AMB L   1      13.877 -12.736  -9.172  1.00  0.00    -0.0613  A
ATOM      4  C7  AMB L   1      13.131 -12.922 -10.331  1.00  0.00    -0.0617  A
ATOM      5  C8  AMB L   1      11.931 -12.238 -10.503  1.00  0.00    -0.0613  A
ATOM      6  C9  AMB L   1      11.470 -11.368  -9.513  1.00  0.00    -0.0528  A
ATOM      7 H16  AMB L   1      14.041 -11.742  -7.290  1.00  0.00    +0.0622  H
ATOM      8 H17  AMB L   1      14.821 -13.265  -9.048  1.00  0.00    +0.0618  H
ATOM      9 H18  AMB L   1      13.491 -13.594 -11.109  1.00  0.00    +0.0618  H
ATOM     10 H19  AMB L   1      11.358 -12.380 -11.418  1.00  0.00    +0.0618  H
ATOM     11 H20  AMB L   1      10.531 -10.851  -9.699  1.00  0.00    +0.0622  H
ENDROOT
BRANCH 1 13
ATOM     12  C1  AMB L   1      12.776  -9.369  -6.596  1.00  0.00    -0.0031  C
ATOM     13  C2  AMB L   1      11.721 -10.280  -7.217  1.00  0.00    +0.1539  C
ATOM     14  N3  AMB L   1      10.604  -9.424  -7.702  1.00  0.00    -0.1890  N
ATOM     15 H10  AMB L   1      13.633  -9.953  -6.242  1.00  0.00    +0.0292  H
ATOM     16 H11  AMB L   1      13.148  -8.620  -7.302  1.00  0.00    +0.0292  H
ATOM     17 H12  AMB L   1      12.361  -8.831  -5.737  1.00  0.00    +0.0292  H
ATOM     18 H13  AMB L   1      11.291 -10.894  -6.418  1.00  0.00    +0.1051  H
ATOM     19 H14  AMB L   1      10.917  -8.851  -8.496  1.00  0.00    +0.4057 HD
ATOM     20 H15  AMB L   1       9.846 -10.019  -8.058  1.00  0.00    +0.4057 HD
ENDBRANCH 1 13
TORSDOF 1
ENDMDL
MODEL 12
REMARK VINA RESULT:    -4.694      9.393     10.793
REMARK INTER + INTRA:          -5.054
REMARK INTER:                  -4.979
REMARK INTRA:                  -0.075
REMARK UNBOUND:                -0.085
ROOT
ATOM      1  C4  AMB L   1      12.406  -9.238  -7.357  1.00  0.00    +0.0142  A
ATOM      2  C5  AMB L   1      12.519  -8.347  -6.275  1.00  0.00    -0.0528  A
ATOM      3  C6  AMB L   1      13.376  -7.248  -6.344  1.00  0.00    -0.0613  A
ATOM      4  C7  AMB L   1      14.135  -7.026  -7.488  1.00  0.00    -0.0617  A
ATOM      5  C8  AMB L   1      14.037  -7.899  -8.568  1.00  0.00    -0.0613  A
ATOM      6  C9  AMB L   1      13.181  -9.001  -8.505  1.00  0.00    -0.0528  A
ATOM      7 H16  AMB L   1      11.934  -8.480  -5.365  1.00  0.00    +0.0622  H
ATOM      8 H17  AMB L   1      13.449  -6.555  -5.507  1.00  0.00    +0.0618  H
ATOM      9 H18  AMB L   1      14.798  -6.163  -7.544  1.00  0.00    +0.0618  H
ATOM     10 H19  AMB L   1      14.626  -7.712  -9.465  1.00  0.00    +0.0618  H
ATOM     11 H20  AMB L   1      13.134  -9.648  -9.379  1.00  0.00    +0.0622  H
ENDROOT
BRANCH 1 13
ATOM     12  C1  AMB L   1      10.921 -10.967  -8.534  1.00  0.00    -0.0031  C
ATOM     13  C2  AMB L   1      11.512 -10.449  -7.227  1.00  0.00    +0.1539  C
ATOM     14  N3  AMB L   1      12.262 -11.566  -6.589  1.00  0.00    -0.1890  N
ATOM     15 H10  AMB L   1      10.376 -10.172  -9.056  1.00  0.00    +0.0292  H
ATOM     16 H11  AMB L   1      11.687 -11.351  -9.216  1.00  0.00    +0.0292  H
ATOM     17 H12  AMB L   1      10.217 -11.784  -8.341  1.00  0.00    +0.0292  H
ATOM     18 H13  AMB L   1      10.684 -10.227  -6.544  1.00  0.00    +0.1051  H
ATOM     19 H14  AMB L   1      13.093 -11.798  -7.146  1.00  0.00    +0.4057 HD
ATOM     20 H15  AMB L   1      12.608 -11.264  -5.669  1.00  0.00    +0.4057 HD
ENDBRANCH 1 13
TORSDOF 1
ENDMDL
