MODEL 1
REMARK VINA RESULT:    -6.040      0.000      0.000
REMARK INTER + INTRA:          -6.406
REMARK INTER:                  -6.393
REMARK INTRA:                  -0.013
REMARK UNBOUND:                -0.013
ROOT
ATOM      1  C3  BA  L   1       8.074  -1.490  -1.603  1.00  0.00    +0.0114  A
ATOM      2  C4  BA  L   1       9.277  -0.776  -1.720  1.00  0.00    -0.0531  A
ATOM      3  C5  BA  L   1      10.471  -1.446  -1.991  1.00  0.00    -0.0613  A
ATOM      4  C6  BA  L   1      10.474  -2.829  -2.153  1.00  0.00    -0.0617  A
ATOM      5  C7  BA  L   1       9.288  -3.548  -2.040  1.00  0.00    -0.0613  A
ATOM      6  C8  BA  L   1       8.090  -2.885  -1.768  1.00  0.00    -0.0531  A
ATOM      7 H13  BA  L   1       9.314   0.305  -1.586  1.00  0.00    +0.0622  H
ATOM      8 H14  BA  L   1      11.406  -0.893  -2.068  1.00  0.00    +0.0618  H
ATOM      9 H15  BA  L   1      11.408  -3.351  -2.357  1.00  0.00    +0.0618  H
ATOM     10 H16  BA  L   1       9.302  -4.631  -2.155  1.00  0.00    +0.0618  H
ATOM     11 H17  BA  L   1       7.183  -3.481  -1.673  1.00  0.00    +0.0622  H
ENDROOT
BRANCH 1 13
ATOM     12  N1  BA  L   1       5.893  -0.884  -2.549  1.00  0.00    -0.1914  N
ATOM     13  C2  BA  L   1       6.781  -0.767  -1.370  1.00  0.00    +0.1466  C
ATOM     14  H9  BA  L   1       6.364  -0.502  -3.379  1.00  0.00    +0.4054 HD
ATOM     15 H10  BA  L   1       5.710  -1.875  -2.750  1.00  0.00    +0.4054 HD
ATOM     16 H11  BA  L   1       6.235  -1.180  -0.516  1.00  0.00    +0.1017  H
ATOM     17 H12  BA  L   1       6.941   0.301  -1.193  1.00  0.00    +0.1017  H
ENDBRANCH 1 13
TORSDOF 1
ENDMDL
MODEL 2
REMARK VINA RESULT:    -5.830      1.798      2.452
REMARK INTER + INTRA:          -6.184
REMARK INTER:                  -6.173
REMARK INTRA:                  -0.012
REMARK UNBOUND:                -0.013
ROOT
ATOM      1  C3  BA  L   1       8.673  -0.665  -1.352  1.00  0.00    +0.0114  A
ATOM      2  C4  BA  L   1       7.812  -1.771  -1.415  1.00  0.00    -0.0531  A
ATOM      3  C5  BA  L   1       8.284  -3.010  -1.850  1.00  0.00    -0.0613  A
ATOM      4  C6  BA  L   1       9.619  -3.157  -2.219  1.00  0.00    -0.0617  A
ATOM      5  C7  BA  L   1      10.484  -2.068  -2.160  1.00  0.00    -0.0613  A
ATOM      6  C8  BA  L   1      10.018  -0.826  -1.727  1.00  0.00    -0.0531  A
ATOM      7 H13  BA  L   1       6.758  -1.689  -1.147  1.00  0.00    +0.0622  H
ATOM      8 H14  BA  L   1       7.612  -3.864  -1.911  1.00  0.00    +0.0618  H
ATOM      9 H15  BA  L   1       9.984  -4.123  -2.565  1.00  0.00    +0.0618  H
ATOM     10 H16  BA  L   1      11.523  -2.189  -2.463  1.00  0.00    +0.0618  H
ATOM     11 H17  BA  L   1      10.719   0.008  -1.707  1.00  0.00    +0.0622  H
ENDROOT
BRANCH 1 13
ATOM     12  N1  BA  L   1       8.540   0.819   0.598  1.00  0.00    -0.1914  N
ATOM     13  C2  BA  L   1       8.183   0.652  -0.830  1.00  0.00    +0.1466  C
ATOM     14  H9  BA  L   1       8.138   0.050   1.149  1.00  0.00    +0.4054 HD
ATOM     15 H10  BA  L   1       9.559   0.753   0.711  1.00  0.00    +0.4054 HD
ATOM     16 H11  BA  L   1       8.627   1.493  -1.371  1.00  0.00    +0.1017  H
ATOM     17 H12  BA  L   1       7.094   0.734  -0.900  1.00  0.00    +0.1017  H
ENDBRANCH 1 13
TORSDOF 1
ENDMDL
MODEL 3
REMARK VINA RESULT:    -5.808      1.755      1.865
REMARK INTER + INTRA:          -6.161
REMARK INTER:                  -6.151
REMARK INTRA:                  -0.010
REMARK UNBOUND:                -0.013
ROOT
ATOM      1  C3  BA  L   1       8.681  -0.787  -1.348  1.00  0.00    +0.0114  A
ATOM      2  C4  BA  L   1      10.017  -0.920  -1.758  1.00  0.00    -0.0531  A
ATOM      3  C5  BA  L   1      10.497  -2.149  -2.211  1.00  0.00    -0.0613  A
ATOM      4  C6  BA  L   1       9.649  -3.253  -2.265  1.00  0.00    -0.0617  A
ATOM      5  C7  BA  L   1       8.322  -3.134  -1.861  1.00  0.00    -0.0613  A
ATOM      6  C8  BA  L   1       7.836  -1.908  -1.406  1.00  0.00    -0.0531  A
ATOM      7 H13  BA  L   1      10.711  -0.081  -1.717  1.00  0.00    +0.0622  H
ATOM      8 H14  BA  L   1      11.537  -2.254  -2.517  1.00  0.00    +0.0618  H
ATOM      9 H15  BA  L   1      10.028  -4.213  -2.611  1.00  0.00    +0.0618  H
ATOM     10 H16  BA  L   1       7.670  -4.006  -1.893  1.00  0.00    +0.0618  H
ATOM     11 H17  BA  L   1       6.796  -1.855  -1.085  1.00  0.00    +0.0622  H
ENDROOT
BRANCH 1 13
ATOM     12  N1  BA  L   1       8.468   0.806   0.505  1.00  0.00    -0.1914  N
ATOM     13  C2  BA  L   1       8.147   0.546  -0.916  1.00  0.00    +0.1466  C
ATOM     14  H9  BA  L   1       8.073   0.062   1.093  1.00  0.00    +0.4054 HD
ATOM     15 H10  BA  L   1       9.486   0.774   0.643  1.00  0.00    +0.4054 HD
ATOM     16 H11  BA  L   1       8.583   1.364  -1.498  1.00  0.00    +0.1017  H
ATOM     17 H12  BA  L   1       7.058   0.596  -1.013  1.00  0.00    +0.1017  H
ENDBRANCH 1 13
TORSDOF 1
ENDMDL
MODEL 4
REMARK VINA RESULT:    -5.613      1.483      2.897
REMARK INTER + INTRA:          -5.954
REMARK INTER:                  -5.941
REMARK INTRA:                  -0.013
REMARK UNBOUND:                -0.013
ROOT
ATOM      1  C3  BA  L   1       8.610  -2.232  -2.091  1.00  0.00    +0.0114  A
ATOM      2  C4  BA  L   1       7.546  -1.630  -1.400  1.00  0.00    -0.0531  A
ATOM      3  C5  BA  L   1       7.729  -0.412  -0.744  1.00  0.00    -0.0613  A
ATOM      4  C6  BA  L   1       8.971   0.218  -0.776  1.00  0.00    -0.0617  A
ATOM      5  C7  BA  L   1      10.034  -0.369  -1.457  1.00  0.00    -0.0613  A
ATOM      6  C8  BA  L   1       9.858  -1.587  -2.115  1.00  0.00    -0.0531  A
ATOM      7 H13  BA  L   1       6.565  -2.102  -1.343  1.00  0.00    +0.0622  H
ATOM      8 H14  BA  L   1       6.907   0.046  -0.198  1.00  0.00    +0.0618  H
ATOM      9 H15  BA  L   1       9.114   1.164  -0.257  1.00  0.00    +0.0618  H
ATOM     10 H16  BA  L   1      11.005   0.125  -1.466  1.00  0.00    +0.0618  H
ATOM     11 H17  BA  L   1      10.715  -2.023  -2.627  1.00  0.00    +0.0622  H
ENDROOT
BRANCH 1 13
ATOM     12  N1  BA  L   1       7.473  -3.306  -3.981  1.00  0.00    -0.1914  N
ATOM     13  C2  BA  L   1       8.401  -3.510  -2.845  1.00  0.00    +0.1466  C
ATOM     14  H9  BA  L   1       6.572  -2.951  -3.635  1.00  0.00    +0.4054 HD
ATOM     15 H10  BA  L   1       7.846  -2.584  -4.609  1.00  0.00    +0.4054 HD
ATOM     16 H11  BA  L   1       9.338  -3.892  -3.262  1.00  0.00    +0.1017  H
ATOM     17 H12  BA  L   1       7.965  -4.288  -2.210  1.00  0.00    +0.1017  H
ENDBRANCH 1 13
TORSDOF 1
ENDMDL
MODEL 5
REMARK VINA RESULT:    -5.486      1.515      2.571
REMARK INTER + INTRA:          -5.820
REMARK INTER:                  -5.806
REMARK INTRA:                  -0.013
REMARK UNBOUND:                -0.013
ROOT
ATOM      1  C3  BA  L   1       8.528  -2.314  -2.550  1.00  0.00    +0.0114  A
ATOM      2  C4  BA  L   1       9.876  -1.934  -2.452  1.00  0.00    -0.0531  A
ATOM      3  C5  BA  L   1      10.241  -0.818  -1.698  1.00  0.00    -0.0613  A
ATOM      4  C6  BA  L   1       9.268  -0.078  -1.031  1.00  0.00    -0.0617  A
ATOM      5  C7  BA  L   1       7.928  -0.445  -1.120  1.00  0.00    -0.0613  A
ATOM      6  C8  BA  L   1       7.556  -1.559  -1.873  1.00  0.00    -0.0531  A
ATOM      7 H13  BA  L   1      10.662  -2.482  -2.971  1.00  0.00    +0.0622  H
ATOM      8 H14  BA  L   1      11.285  -0.516  -1.634  1.00  0.00    +0.0618  H
ATOM      9 H15  BA  L   1       9.554   0.797  -0.449  1.00  0.00    +0.0618  H
ATOM     10 H16  BA  L   1       7.172   0.148  -0.606  1.00  0.00    +0.0618  H
ATOM     11 H17  BA  L   1       6.497  -1.810  -1.932  1.00  0.00    +0.0622  H
ENDROOT
BRANCH 1 13
ATOM     12  N1  BA  L   1       7.147  -3.225  -4.361  1.00  0.00    -0.1914  N
ATOM     13  C2  BA  L   1       8.140  -3.546  -3.311  1.00  0.00    +0.1466  C
ATOM     14  H9  BA  L   1       6.315  -2.798  -3.935  1.00  0.00    +0.4054 HD
ATOM     15 H10  BA  L   1       7.535  -2.523  -5.003  1.00  0.00    +0.4054 HD
ATOM     16 H11  BA  L   1       9.000  -4.001  -3.812  1.00  0.00    +0.1017  H
ATOM     17 H12  BA  L   1       7.684  -4.298  -2.659  1.00  0.00    +0.1017  H
ENDBRANCH 1 13
TORSDOF 1
ENDMDL
MODEL 6
REMARK VINA RESULT:    -4.778      2.141      3.781
REMARK INTER + INTRA:          -5.071
REMARK INTER:                  -5.060
REMARK INTRA:                  -0.011
REMARK UNBOUND:                -0.013
ROOT
ATOM      1  C3  BA  L   1       9.248  -1.315  -1.843  1.00  0.00    +0.0114  A
ATOM      2  C4  BA  L   1       7.924  -1.774  -1.767  1.00  0.00    -0.0531  A
ATOM      3  C5  BA  L   1       6.955  -1.024  -1.099  1.00  0.00    -0.0613  A
ATOM      4  C6  BA  L   1       7.297   0.189  -0.507  1.00  0.00    -0.0617  A
ATOM      5  C7  BA  L   1       8.607   0.655  -0.575  1.00  0.00    -0.0613  A
ATOM      6  C8  BA  L   1       9.581  -0.090  -1.241  1.00  0.00    -0.0531  A
ATOM      7 H13  BA  L   1       7.624  -2.725  -2.207  1.00  0.00    +0.0622  H
ATOM      8 H14  BA  L   1       5.931  -1.388  -1.029  1.00  0.00    +0.0618  H
ATOM      9 H15  BA  L   1       6.541   0.768   0.021  1.00  0.00    +0.0618  H
ATOM     10 H16  BA  L   1       8.868   1.598  -0.098  1.00  0.00    +0.0618  H
ATOM     11 H17  BA  L   1      10.599   0.298  -1.263  1.00  0.00    +0.0622  H
ENDROOT
BRANCH 1 13
ATOM     12  N1  BA  L   1      10.608  -3.356  -1.918  1.00  0.00    -0.1914  N
ATOM     13  C2  BA  L   1      10.278  -2.089  -2.610  1.00  0.00    +0.1466  C
ATOM     14  H9  BA  L   1      10.953  -3.156  -0.971  1.00  0.00    +0.4054 HD
ATOM     15 H10  BA  L   1       9.758  -3.921  -1.803  1.00  0.00    +0.4054 HD
ATOM     16 H11  BA  L   1       9.923  -2.354  -3.610  1.00  0.00    +0.1017  H
ATOM     17 H12  BA  L   1      11.212  -1.528  -2.713  1.00  0.00    +0.1017  H
ENDBRANCH 1 13
TORSDOF 1
ENDMDL
MODEL 7
REMARK VINA RESULT:    -4.427      9.053     10.354
REMARK INTER + INTRA:          -4.699
REMARK INTER:                  -4.688
REMARK INTRA:                  -0.011
REMARK UNBOUND:                -0.013
ROOT
ATOM      1  C3  BA  L   1      12.494  -9.638  -7.766  1.00  0.00    +0.0114  A
ATOM      2  C4  BA  L   1      13.396  -8.999  -8.631  1.00  0.00    -0.0531  A
ATOM      3  C5  BA  L   1      13.942  -7.760  -8.292  1.00  0.00    -0.0613  A
ATOM      4  C6  BA  L   1      13.598  -7.152  -7.087  1.00  0.00    -0.0617  A
ATOM      5  C7  BA  L   1      12.704  -7.776  -6.221  1.00  0.00    -0.0613  A
ATOM      6  C8  BA  L   1      12.154  -9.014  -6.554  1.00  0.00    -0.0531  A
ATOM      7 H13  BA  L   1      13.677  -9.440  -9.588  1.00  0.00    +0.0622  H
ATOM      8 H14  BA  L   1      14.631  -7.260  -8.970  1.00  0.00    +0.0618  H
ATOM      9 H15  BA  L   1      14.019  -6.182  -6.828  1.00  0.00    +0.0618  H
ATOM     10 H16  BA  L   1      12.430  -7.287  -5.287  1.00  0.00    +0.0618  H
ATOM     11 H17  BA  L   1      11.448  -9.466  -5.859  1.00  0.00    +0.0622  H
ENDROOT
BRANCH 1 13
ATOM     12  N1  BA  L   1      10.505 -10.922  -8.412  1.00  0.00    -0.1914  N
ATOM     13  C2  BA  L   1      11.951 -10.995  -8.101  1.00  0.00    +0.1466  C
ATOM     14  H9  BA  L   1       9.997 -10.528  -7.610  1.00  0.00    +0.4054 HD
ATOM     15 H10  BA  L   1      10.350 -10.278  -9.197  1.00  0.00    +0.4054 HD
ATOM     16 H11  BA  L   1      12.446 -11.423  -8.978  1.00  0.00    +0.1017  H
ATOM     17 H12  BA  L   1      12.065 -11.693  -7.266  1.00  0.00    +0.1017  H
ENDBRANCH 1 13
TORSDOF 1
ENDMDL
MODEL 8
REMARK VINA RESULT:    -4.387      9.556     10.939
REMARK INTER + INTRA:          -4.657
REMARK INTER:                  -4.643
REMARK INTRA:                  -0.013
REMARK UNBOUND:                -0.013
ROOT
ATOM      1  C3  BA  L   1      13.213 -10.913  -6.345  1.00  0.00    +0.0114  A
ATOM      2  C4  BA  L   1      14.123  -9.872  -6.106  1.00  0.00    -0.0531  A
ATOM      3  C5  BA  L   1      13.700  -8.542  -6.139  1.00  0.00    -0.0613  A
ATOM      4  C6  BA  L   1      12.366  -8.241  -6.405  1.00  0.00    -0.0617  A
ATOM      5  C7  BA  L   1      11.454  -9.265  -6.644  1.00  0.00    -0.0613  A
ATOM      6  C8  BA  L   1      11.870 -10.596  -6.613  1.00  0.00    -0.0531  A
ATOM      7 H13  BA  L   1      15.177 -10.070  -5.908  1.00  0.00    +0.0622  H
ATOM      8 H14  BA  L   1      14.410  -7.735  -5.967  1.00  0.00    +0.0618  H
ATOM      9 H15  BA  L   1      12.040  -7.203  -6.439  1.00  0.00    +0.0618  H
ATOM     10 H16  BA  L   1      10.416  -9.019  -6.864  1.00  0.00    +0.0618  H
ATOM     11 H17  BA  L   1      11.132 -11.371  -6.817  1.00  0.00    +0.0622  H
ENDROOT
BRANCH 1 13
ATOM     12  N1  BA  L   1      12.996 -13.022  -5.111  1.00  0.00    -0.1914  N
ATOM     13  C2  BA  L   1      13.652 -12.343  -6.252  1.00  0.00    +0.1466  C
ATOM     14  H9  BA  L   1      13.218 -12.529  -4.238  1.00  0.00    +0.4054 HD
ATOM     15 H10  BA  L   1      11.975 -12.974  -5.219  1.00  0.00    +0.4054 HD
ATOM     16 H11  BA  L   1      13.391 -12.906  -7.153  1.00  0.00    +0.1017  H
ATOM     17 H12  BA  L   1      14.732 -12.425  -6.095  1.00  0.00    +0.1017  H
ENDBRANCH 1 13
TORSDOF 1
ENDMDL
MODEL 9
REMARK VINA RESULT:    -4.351      8.876     10.144
REMARK INTER + INTRA:          -4.618
REMARK INTER:                  -4.599
REMARK INTRA:                  -0.019
REMARK UNBOUND:                -0.013
ROOT
ATOM      1  C3  BA  L   1      12.669  -9.942  -6.593  1.00  0.00    +0.0114  A
ATOM      2  C4  BA  L   1      12.029  -8.693  -6.556  1.00  0.00    -0.0531  A
ATOM      3  C5  BA  L   1      12.743  -7.546  -6.205  1.00  0.00    -0.0613  A
ATOM      4  C6  BA  L   1      14.098  -7.634  -5.895  1.00  0.00    -0.0617  A
ATOM      5  C7  BA  L   1      14.743  -8.867  -5.929  1.00  0.00    -0.0613  A
ATOM      6  C8  BA  L   1      14.035 -10.018  -6.278  1.00  0.00    -0.0531  A
ATOM      7 H13  BA  L   1      10.968  -8.589  -6.779  1.00  0.00    +0.0622  H
ATOM      8 H14  BA  L   1      12.243  -6.579  -6.162  1.00  0.00    +0.0618  H
ATOM      9 H15  BA  L   1      14.650  -6.739  -5.613  1.00  0.00    +0.0618  H
ATOM     10 H16  BA  L   1      15.799  -8.928  -5.672  1.00  0.00    +0.0618  H
ATOM     11 H17  BA  L   1      14.569 -10.968  -6.281  1.00  0.00    +0.0622  H
ENDROOT
BRANCH 1 13
ATOM     12  N1  BA  L   1      10.956 -10.840  -8.103  1.00  0.00    -0.1914  N
ATOM     13  C2  BA  L   1      11.920 -11.166  -7.027  1.00  0.00    +0.1466  C
ATOM     14  H9  BA  L   1      10.297 -10.124  -7.774  1.00  0.00    +0.4054 HD
ATOM     15 H10  BA  L   1      11.453 -10.431  -8.903  1.00  0.00    +0.4054 HD
ATOM     16 H11  BA  L   1      12.592 -11.933  -7.422  1.00  0.00    +0.1017  H
ATOM     17 H12  BA  L   1      11.346 -11.602  -6.203  1.00  0.00    +0.1017  H
ENDBRANCH 1 13
TORSDOF 1
ENDMDL
MODEL 10
REMARK VINA RESULT:    -4.150     11.134     12.393
REMARK INTER + INTRA:          -4.406
REMARK INTER:                  -4.391
REMARK INTRA:                  -0.016
REMARK UNBOUND:                -0.013
ROOT
ATOM      1  C3  BA  L   1      12.085 -11.212  -8.032  1.00  0.00    +0.0114  A
ATOM      2  C4  BA  L   1      13.341 -11.837  -8.079  1.00  0.00    -0.0531  A
ATOM      3  C5  BA  L   1      13.749 -12.516  -9.227  1.00  0.00    -0.0613  A
ATOM      4  C6  BA  L   1      12.912 -12.574 -10.339  1.00  0.00    -0.0617  A
ATOM      5  C7  BA  L   1      11.664 -11.958 -10.305  1.00  0.00    -0.0613  A
ATOM      6  C8  BA  L   1      11.249 -11.277  -9.160  1.00  0.00    -0.0531  A
ATOM      7 H13  BA  L   1      14.016 -11.823  -7.223  1.00  0.00    +0.0622  H
ATOM      8 H14  BA  L   1      14.718 -13.012  -9.257  1.00  0.00    +0.0618  H
ATOM      9 H15  BA  L   1      13.229 -13.111 -11.231  1.00  0.00    +0.0618  H
ATOM     10 H16  BA  L   1      11.010 -12.019 -11.174  1.00  0.00    +0.0618  H
ATOM     11 H17  BA  L   1      10.261 -10.818  -9.164  1.00  0.00    +0.0622  H
ENDROOT
BRANCH 1 13
ATOM     12  N1  BA  L   1      11.278  -9.052  -7.193  1.00  0.00    -0.1914  N
ATOM     13  C2  BA  L   1      11.669 -10.431  -6.822  1.00  0.00    +0.1466  C
ATOM     14  H9  BA  L   1      12.064  -8.582  -7.661  1.00  0.00    +0.4054 HD
ATOM     15 H10  BA  L   1      10.510  -9.079  -7.875  1.00  0.00    +0.4054 HD
ATOM     16 H11  BA  L   1      10.806 -10.885  -6.325  1.00  0.00    +0.1017  H
ATOM     17 H12  BA  L   1      12.482 -10.349  -6.094  1.00  0.00    +0.1017  H
ENDBRANCH 1 13
TORSDOF 1
ENDMDL
MODEL 11
REMARK VINA RESULT:    -4.116     11.196     12.213
REMARK INTER + INTRA:          -4.370
REMARK INTER:                  -4.360
REMARK INTRA:                  -0.011
REMARK UNBOUND:                -0.013
ROOT
ATOM      1  C3  BA  L   1      12.849 -11.488  -7.127  1.00  0.00    +0.0114  A
ATOM      2  C4  BA  L   1      13.290 -11.802  -8.422  1.00  0.00    -0.0531  A
ATOM      3  C5  BA  L   1      12.550 -11.401  -9.535  1.00  0.00    -0.0613  A
ATOM      4  C6  BA  L   1      11.369 -10.681  -9.366  1.00  0.00    -0.0617  A
ATOM      5  C7  BA  L   1      10.922 -10.365  -8.087  1.00  0.00    -0.0613  A
ATOM      6  C8  BA  L   1      11.656 -10.763  -6.969  1.00  0.00    -0.0531  A
ATOM      7 H13  BA  L   1      14.202 -12.374  -8.591  1.00  0.00    +0.0622  H
ATOM      8 H14  BA  L   1      12.886 -11.656 -10.539  1.00  0.00    +0.0618  H
ATOM      9 H15  BA  L   1      10.789 -10.376 -10.236  1.00  0.00    +0.0618  H
ATOM     10 H16  BA  L   1       9.991  -9.813  -7.964  1.00  0.00    +0.0618  H
ATOM     11 H17  BA  L   1      11.270 -10.509  -5.983  1.00  0.00    +0.0622  H
ENDROOT
BRANCH 1 13
ATOM     12  N1  BA  L   1      13.025 -12.959  -5.171  1.00  0.00    -0.1914  N
ATOM     13  C2  BA  L   1      13.672 -11.866  -5.932  1.00  0.00    +0.1466  C
ATOM     14  H9  BA  L   1      12.086 -12.667  -4.873  1.00  0.00    +0.4054 HD
ATOM     15 H10  BA  L   1      12.894 -13.777  -5.780  1.00  0.00    +0.4054 HD
ATOM     16 H11  BA  L   1      14.666 -12.222  -6.221  1.00  0.00    +0.1017  H
ATOM     17 H12  BA  L   1      13.795 -11.025  -5.243  1.00  0.00    +0.1017  H
ENDBRANCH 1 13
TORSDOF 1
ENDMDL
MODEL 12
REMARK VINA RESULT:    -4.037     13.576     14.109
REMARK INTER + INTRA:          -4.287
REMARK INTER:                  -4.265
REMARK INTRA:                  -0.021
REMARK UNBOUND:                -0.013
ROOT
ATOM      1  C3  BA  L   1       5.346  -7.019 -14.046  1.00  0.00    +0.0114  A
ATOM      2  C4  BA  L   1       6.298  -5.989 -14.109  1.00  0.00    -0.0531  A
ATOM      3  C5  BA  L   1       6.158  -4.955 -15.036  1.00  0.00    -0.0613  A
ATOM      4  C6  BA  L   1       5.068  -4.937 -15.902  1.00  0.00    -0.0617  A
ATOM      5  C7  BA  L   1       4.117  -5.952 -15.849  1.00  0.00    -0.0613  A
ATOM      6  C8  BA  L   1       4.251  -6.990 -14.926  1.00  0.00    -0.0531  A
ATOM      7 H13  BA  L   1       7.171  -5.979 -13.456  1.00  0.00    +0.0622  H
ATOM      8 H14  BA  L   1       6.904  -4.164 -15.093  1.00  0.00    +0.0618  H
ATOM      9 H15  BA  L   1       4.965  -4.133 -16.630  1.00  0.00    +0.0618  H
ATOM     10 H16  BA  L   1       3.274  -5.937 -16.539  1.00  0.00    +0.0618  H
ATOM     11 H17  BA  L   1       3.496  -7.774 -14.921  1.00  0.00    +0.0622  H
ENDROOT
BRANCH 1 13
ATOM     12  N1  BA  L   1       4.137  -8.687 -12.715  1.00  0.00    -0.1914  N
ATOM     13  C2  BA  L   1       5.463  -8.099 -13.013  1.00  0.00    +0.1466  C
ATOM     14  H9  BA  L   1       3.497  -7.953 -12.386  1.00  0.00    +0.4054 HD
ATOM     15 H10  BA  L   1       3.724  -9.067 -13.575  1.00  0.00    +0.4054 HD
ATOM     16 H11  BA  L   1       6.106  -8.916 -13.352  1.00  0.00    +0.1017  H
ATOM     17 H12  BA  L   1       5.862  -7.714 -12.069  1.00  0.00    +0.1017  H
ENDBRANCH 1 13
TORSDOF 1
ENDMDL
