MODEL 1
REMARK VINA RESULT:    -6.436      0.000      0.000
REMARK INTER + INTRA:          -6.840
REMARK INTER:                  -6.812
REMARK INTRA:                  -0.027
REMARK UNBOUND:                -0.027
ROOT
ATOM      1  C3  23C L   1       8.517  -0.228  -1.381  1.00  0.00    +0.0311  A
ATOM      2  C4  23C L   1       9.902  -0.477  -1.366  1.00  0.00    -0.0516  A
ATOM      3  C5  23C L   1      10.449  -1.503  -2.137  1.00  0.00    -0.0598  A
ATOM      4  C6  23C L   1       9.625  -2.296  -2.933  1.00  0.00    -0.0419  A
ATOM      5  C7  23C L   1       8.248  -2.068  -2.964  1.00  0.00    +0.0597  A
ATOM      6 CL8  23C L   1       7.291  -3.097  -3.969  1.00  0.00    -0.0820 Cl
ATOM      7  C9  23C L   1       7.690  -1.037  -2.191  1.00  0.00    +0.0679  A
ATOM      8 CL10 23C L   1       5.979  -0.747  -2.210  1.00  0.00    -0.0816 Cl
ATOM      9 H15  23C L   1      10.582   0.128  -0.767  1.00  0.00    +0.0623  H
ATOM     10 H16  23C L   1      11.523  -1.686  -2.127  1.00  0.00    +0.0618  H
ATOM     11 H17  23C L   1      10.064  -3.093  -3.532  1.00  0.00    +0.0633  H
ENDROOT
BRANCH 1 13
ATOM     12  N1  23C L   1       8.653   0.999   0.772  1.00  0.00    -0.1914  N
ATOM     13  C2  23C L   1       7.960   0.882  -0.531  1.00  0.00    +0.1480  C
ATOM     14 H11  23C L   1       8.256   1.750   1.349  1.00  0.00    +0.4054 HD
ATOM     15 H12  23C L   1       9.659   1.174   0.655  1.00  0.00    +0.4054 HD
ATOM     16 H13  23C L   1       6.895   0.740  -0.326  1.00  0.00    +0.1017  H
ATOM     17 H14  23C L   1       8.070   1.854  -1.023  1.00  0.00    +0.1017  H
ENDBRANCH 1 13
TORSDOF 1
ENDMDL
MODEL 2
REMARK VINA RESULT:    -6.154      2.474      3.568
REMARK INTER + INTRA:          -6.541
REMARK INTER:                  -6.524
REMARK INTRA:                  -0.017
REMARK UNBOUND:                -0.027
ROOT
ATOM      1  C3  23C L   1       8.584  -2.390  -2.515  1.00  0.00    +0.0311  A
ATOM      2  C4  23C L   1       9.987  -2.478  -2.600  1.00  0.00    -0.0516  A
ATOM      3  C5  23C L   1      10.797  -1.497  -2.030  1.00  0.00    -0.0598  A
ATOM      4  C6  23C L   1      10.224  -0.413  -1.367  1.00  0.00    -0.0419  A
ATOM      5  C7  23C L   1       8.836  -0.304  -1.270  1.00  0.00    +0.0597  A
ATOM      6 CL8  23C L   1       8.199   1.072  -0.441  1.00  0.00    -0.0820 Cl
ATOM      7  C9  23C L   1       8.013  -1.288  -1.841  1.00  0.00    +0.0679  A
ATOM      8 CL10 23C L   1       6.285  -1.162  -1.738  1.00  0.00    -0.0816 Cl
ATOM      9 H15  23C L   1      10.474  -3.315  -3.099  1.00  0.00    +0.0623  H
ATOM     10 H16  23C L   1      11.882  -1.574  -2.093  1.00  0.00    +0.0618  H
ATOM     11 H17  23C L   1      10.868   0.346  -0.924  1.00  0.00    +0.0633  H
ENDROOT
BRANCH 1 13
ATOM     12  N1  23C L   1       7.173  -3.041  -4.449  1.00  0.00    -0.1914  N
ATOM     13  C2  23C L   1       7.740  -3.462  -3.148  1.00  0.00    +0.1480  C
ATOM     14 H11  23C L   1       6.588  -3.775  -4.866  1.00  0.00    +0.4054 HD
ATOM     15 H12  23C L   1       7.907  -2.787  -5.122  1.00  0.00    +0.4054 HD
ATOM     16 H13  23C L   1       6.906  -3.754  -2.504  1.00  0.00    +0.1017  H
ATOM     17 H14  23C L   1       8.327  -4.364  -3.350  1.00  0.00    +0.1017  H
ENDBRANCH 1 13
TORSDOF 1
ENDMDL
MODEL 3
REMARK VINA RESULT:    -5.926      3.096      4.319
REMARK INTER + INTRA:          -6.299
REMARK INTER:                  -6.272
REMARK INTRA:                  -0.027
REMARK UNBOUND:                -0.027
ROOT
ATOM      1  C3  23C L   1       7.945  -2.154  -2.774  1.00  0.00    +0.0311  A
ATOM      2  C4  23C L   1       6.804  -1.430  -2.383  1.00  0.00    -0.0516  A
ATOM      3  C5  23C L   1       6.921  -0.305  -1.567  1.00  0.00    -0.0598  A
ATOM      4  C6  23C L   1       8.175   0.115  -1.128  1.00  0.00    -0.0419  A
ATOM      5  C7  23C L   1       9.322  -0.588  -1.503  1.00  0.00    +0.0597  A
ATOM      6 CL8  23C L   1      10.840  -0.013  -0.913  1.00  0.00    -0.0820 Cl
ATOM      7  C9  23C L   1       9.212  -1.722  -2.324  1.00  0.00    +0.0679  A
ATOM      8 CL10 23C L   1      10.626  -2.613  -2.791  1.00  0.00    -0.0816 Cl
ATOM      9 H15  23C L   1       5.806  -1.717  -2.714  1.00  0.00    +0.0623  H
ATOM     10 H16  23C L   1       6.035   0.257  -1.273  1.00  0.00    +0.0618  H
ATOM     11 H17  23C L   1       8.254   0.996  -0.493  1.00  0.00    +0.0633  H
ENDROOT
BRANCH 1 13
ATOM     12  N1  23C L   1       6.638  -3.244  -4.581  1.00  0.00    -0.1914  N
ATOM     13  C2  23C L   1       7.781  -3.368  -3.648  1.00  0.00    +0.1480  C
ATOM     14 H11  23C L   1       6.527  -4.083  -5.163  1.00  0.00    +0.4054 HD
ATOM     15 H12  23C L   1       6.735  -2.429  -5.198  1.00  0.00    +0.4054 HD
ATOM     16 H13  23C L   1       7.628  -4.276  -3.057  1.00  0.00    +0.1017  H
ATOM     17 H14  23C L   1       8.666  -3.532  -4.273  1.00  0.00    +0.1017  H
ENDBRANCH 1 13
TORSDOF 1
ENDMDL
MODEL 4
REMARK VINA RESULT:    -5.859      3.105      3.801
REMARK INTER + INTRA:          -6.228
REMARK INTER:                  -6.200
REMARK INTRA:                  -0.028
REMARK UNBOUND:                -0.027
ROOT
ATOM      1  C3  23C L   1       7.775  -2.381  -3.070  1.00  0.00    +0.0311  A
ATOM      2  C4  23C L   1       8.278  -3.695  -3.015  1.00  0.00    -0.0516  A
ATOM      3  C5  23C L   1       9.533  -3.954  -2.464  1.00  0.00    -0.0598  A
ATOM      4  C6  23C L   1      10.306  -2.909  -1.961  1.00  0.00    -0.0419  A
ATOM      5  C7  23C L   1       9.828  -1.598  -2.005  1.00  0.00    +0.0597  A
ATOM      6 CL8  23C L   1      10.847  -0.355  -1.370  1.00  0.00    -0.0820 Cl
ATOM      7  C9  23C L   1       8.566  -1.329  -2.558  1.00  0.00    +0.0679  A
ATOM      8 CL10 23C L   1       7.962   0.296  -2.630  1.00  0.00    -0.0816 Cl
ATOM      9 H15  23C L   1       7.700  -4.541  -3.387  1.00  0.00    +0.0623  H
ATOM     10 H16  23C L   1       9.914  -4.973  -2.417  1.00  0.00    +0.0618  H
ATOM     11 H17  23C L   1      11.284  -3.124  -1.532  1.00  0.00    +0.0633  H
ENDROOT
BRANCH 1 13
ATOM     12  N1  23C L   1       6.063  -3.157  -4.691  1.00  0.00    -0.1914  N
ATOM     13  C2  23C L   1       6.421  -2.137  -3.679  1.00  0.00    +0.1480  C
ATOM     14 H11  23C L   1       5.143  -2.973  -5.109  1.00  0.00    +0.4054 HD
ATOM     15 H12  23C L   1       6.057  -4.104  -4.293  1.00  0.00    +0.4054 HD
ATOM     16 H13  23C L   1       6.365  -1.158  -4.164  1.00  0.00    +0.1017  H
ATOM     17 H14  23C L   1       5.632  -2.171  -2.921  1.00  0.00    +0.1017  H
ENDBRANCH 1 13
TORSDOF 1
ENDMDL
MODEL 5
REMARK VINA RESULT:    -5.452      2.281      3.178
REMARK INTER + INTRA:          -5.798
REMARK INTER:                  -5.770
REMARK INTRA:                  -0.028
REMARK UNBOUND:                -0.027
ROOT
ATOM      1  C3  23C L   1       7.398  -1.235  -2.532  1.00  0.00    +0.0311  A
ATOM      2  C4  23C L   1       7.621  -0.023  -1.851  1.00  0.00    -0.0516  A
ATOM      3  C5  23C L   1       8.868   0.261  -1.295  1.00  0.00    -0.0598  A
ATOM      4  C6  23C L   1       9.911  -0.657  -1.408  1.00  0.00    -0.0419  A
ATOM      5  C7  23C L   1       9.713  -1.865  -2.079  1.00  0.00    +0.0597  A
ATOM      6 CL8  23C L   1      11.050  -2.955  -2.171  1.00  0.00    -0.0820 Cl
ATOM      7  C9  23C L   1       8.460  -2.158  -2.642  1.00  0.00    +0.0679  A
ATOM      8 CL10 23C L   1       8.195  -3.660  -3.470  1.00  0.00    -0.0816 Cl
ATOM      9 H15  23C L   1       6.836   0.726  -1.751  1.00  0.00    +0.0623  H
ATOM     10 H16  23C L   1       9.038   1.203  -0.776  1.00  0.00    +0.0618  H
ATOM     11 H17  23C L   1      10.881  -0.423  -0.972  1.00  0.00    +0.0633  H
ENDROOT
BRANCH 1 13
ATOM     12  N1  23C L   1       4.960  -0.785  -2.403  1.00  0.00    -0.1914  N
ATOM     13  C2  23C L   1       6.037  -1.512  -3.112  1.00  0.00    +0.1480  C
ATOM     14 H11  23C L   1       4.035  -0.993  -2.798  1.00  0.00    +0.4054 HD
ATOM     15 H12  23C L   1       5.105   0.231  -2.426  1.00  0.00    +0.4054 HD
ATOM     16 H13  23C L   1       5.793  -2.578  -3.081  1.00  0.00    +0.1017  H
ATOM     17 H14  23C L   1       5.979  -1.195  -4.159  1.00  0.00    +0.1017  H
ENDBRANCH 1 13
TORSDOF 1
ENDMDL
MODEL 6
REMARK VINA RESULT:    -5.445      1.894      3.209
REMARK INTER + INTRA:          -5.790
REMARK INTER:                  -5.741
REMARK INTRA:                  -0.049
REMARK UNBOUND:                -0.027
ROOT
ATOM      1  C3  23C L   1       9.308  -1.269  -2.169  1.00  0.00    +0.0311  A
ATOM      2  C4  23C L   1       9.607  -0.277  -1.216  1.00  0.00    -0.0516  A
ATOM      3  C5  23C L   1       8.594   0.502  -0.658  1.00  0.00    -0.0598  A
ATOM      4  C6  23C L   1       7.268   0.307  -1.041  1.00  0.00    -0.0419  A
ATOM      5  C7  23C L   1       6.947  -0.671  -1.985  1.00  0.00    +0.0597  A
ATOM      6 CL8  23C L   1       5.284  -0.849  -2.416  1.00  0.00    -0.0820 Cl
ATOM      7  C9  23C L   1       7.962  -1.460  -2.551  1.00  0.00    +0.0679  A
ATOM      8 CL10 23C L   1       7.581  -2.673  -3.733  1.00  0.00    -0.0816 Cl
ATOM      9 H15  23C L   1      10.629  -0.101  -0.881  1.00  0.00    +0.0623  H
ATOM     10 H16  23C L   1       8.830   1.263   0.084  1.00  0.00    +0.0618  H
ATOM     11 H17  23C L   1       6.486   0.920  -0.597  1.00  0.00    +0.0633  H
ENDROOT
BRANCH 1 13
ATOM     12  N1  23C L   1      10.746  -3.279  -1.939  1.00  0.00    -0.1914  N
ATOM     13  C2  23C L   1      10.427  -2.086  -2.756  1.00  0.00    +0.1480  C
ATOM     14 H11  23C L   1      11.520  -3.821  -2.342  1.00  0.00    +0.4054 HD
ATOM     15 H12  23C L   1       9.933  -3.898  -1.833  1.00  0.00    +0.4054 HD
ATOM     16 H13  23C L   1      11.346  -1.501  -2.858  1.00  0.00    +0.1017  H
ATOM     17 H14  23C L   1      10.167  -2.460  -3.751  1.00  0.00    +0.1017  H
ENDBRANCH 1 13
TORSDOF 1
ENDMDL
MODEL 7
REMARK VINA RESULT:    -5.443      2.098      2.639
REMARK INTER + INTRA:          -5.788
REMARK INTER:                  -5.778
REMARK INTRA:                  -0.010
REMARK UNBOUND:                -0.027
ROOT
ATOM      1  C3  23C L   1       8.175   0.021  -1.086  1.00  0.00    +0.0311  A
ATOM      2  C4  23C L   1       6.923  -0.486  -1.481  1.00  0.00    -0.0516  A
ATOM      3  C5  23C L   1       6.834  -1.670  -2.213  1.00  0.00    -0.0598  A
ATOM      4  C6  23C L   1       7.989  -2.366  -2.563  1.00  0.00    -0.0419  A
ATOM      5  C7  23C L   1       9.242  -1.882  -2.183  1.00  0.00    +0.0597  A
ATOM      6 CL8  23C L   1      10.629  -2.794  -2.661  1.00  0.00    -0.0820 Cl
ATOM      7  C9  23C L   1       9.340  -0.691  -1.446  1.00  0.00    +0.0679  A
ATOM      8 CL10 23C L   1      10.891  -0.070  -0.975  1.00  0.00    -0.0816 Cl
ATOM      9 H15  23C L   1       5.995   0.021  -1.217  1.00  0.00    +0.0623  H
ATOM     10 H16  23C L   1       5.861  -2.062  -2.509  1.00  0.00    +0.0618  H
ATOM     11 H17  23C L   1       7.906  -3.291  -3.133  1.00  0.00    +0.0633  H
ENDROOT
BRANCH 1 13
ATOM     12  N1  23C L   1       8.491   1.081   1.136  1.00  0.00    -0.1914  N
ATOM     13  C2  23C L   1       8.235   1.306  -0.305  1.00  0.00    +0.1480  C
ATOM     14 H11  23C L   1       8.516   1.963   1.661  1.00  0.00    +0.4054 HD
ATOM     15 H12  23C L   1       9.374   0.582   1.293  1.00  0.00    +0.4054 HD
ATOM     16 H13  23C L   1       7.304   1.875  -0.389  1.00  0.00    +0.1017  H
ATOM     17 H14  23C L   1       9.045   1.951  -0.660  1.00  0.00    +0.1017  H
ENDBRANCH 1 13
TORSDOF 1
ENDMDL
MODEL 8
REMARK VINA RESULT:    -5.372      2.841      4.146
REMARK INTER + INTRA:          -5.713
REMARK INTER:                  -5.763
REMARK INTRA:                   0.050
REMARK UNBOUND:                -0.027
ROOT
ATOM      1  C3  23C L   1       8.814  -1.486  -2.398  1.00  0.00    +0.0311  A
ATOM      2  C4  23C L   1       7.479  -1.770  -2.742  1.00  0.00    -0.0516  A
ATOM      3  C5  23C L   1       6.427  -1.080  -2.141  1.00  0.00    -0.0598  A
ATOM      4  C6  23C L   1       6.687  -0.097  -1.188  1.00  0.00    -0.0419  A
ATOM      5  C7  23C L   1       8.004   0.202  -0.830  1.00  0.00    +0.0597  A
ATOM      6 CL8  23C L   1       8.247   1.426   0.364  1.00  0.00    -0.0820 Cl
ATOM      7  C9  23C L   1       9.068  -0.488  -1.431  1.00  0.00    +0.0679  A
ATOM      8 CL10 23C L   1      10.709  -0.135  -0.990  1.00  0.00    -0.0816 Cl
ATOM      9 H15  23C L   1       7.234  -2.523  -3.491  1.00  0.00    +0.0623  H
ATOM     10 H16  23C L   1       5.396  -1.300  -2.417  1.00  0.00    +0.0618  H
ATOM     11 H17  23C L   1       5.857   0.436  -0.727  1.00  0.00    +0.0633  H
ENDROOT
BRANCH 1 13
ATOM     12  N1  23C L   1      10.588  -3.202  -2.136  1.00  0.00    -0.1914  N
ATOM     13  C2  23C L   1       9.925  -2.255  -3.060  1.00  0.00    +0.1480  C
ATOM     14 H11  23C L   1      11.352  -3.711  -2.595  1.00  0.00    +0.4054 HD
ATOM     15 H12  23C L   1       9.925  -3.885  -1.749  1.00  0.00    +0.4054 HD
ATOM     16 H13  23C L   1      10.696  -1.590  -3.460  1.00  0.00    +0.1017  H
ATOM     17 H14  23C L   1       9.550  -2.857  -3.894  1.00  0.00    +0.1017  H
ENDBRANCH 1 13
TORSDOF 1
ENDMDL
MODEL 9
REMARK VINA RESULT:    -4.781     10.469     11.970
REMARK INTER + INTRA:          -5.087
REMARK INTER:                  -5.049
REMARK INTRA:                  -0.038
REMARK UNBOUND:                -0.027
ROOT
ATOM      1  C3  23C L   1      13.154 -11.126  -6.259  1.00  0.00    +0.0311  A
ATOM      2  C4  23C L   1      11.829 -10.886  -6.671  1.00  0.00    -0.0516  A
ATOM      3  C5  23C L   1      11.352  -9.582  -6.807  1.00  0.00    -0.0598  A
ATOM      4  C6  23C L   1      12.185  -8.499  -6.535  1.00  0.00    -0.0419  A
ATOM      5  C7  23C L   1      13.503  -8.713  -6.125  1.00  0.00    +0.0597  A
ATOM      6 CL8  23C L   1      14.472  -7.321  -5.798  1.00  0.00    -0.0820 Cl
ATOM      7  C9  23C L   1      13.990 -10.022  -5.986  1.00  0.00    +0.0679  A
ATOM      8 CL10 23C L   1      15.622 -10.305  -5.467  1.00  0.00    -0.0816 Cl
ATOM      9 H15  23C L   1      11.149 -11.705  -6.905  1.00  0.00    +0.0623  H
ATOM     10 H16  23C L   1      10.328  -9.403  -7.134  1.00  0.00    +0.0618  H
ATOM     11 H17  23C L   1      11.801  -7.486  -6.647  1.00  0.00    +0.0633  H
ENDROOT
BRANCH 1 13
ATOM     12  N1  23C L   1      13.005 -13.241  -4.969  1.00  0.00    -0.1914  N
ATOM     13  C2  23C L   1      13.633 -12.545  -6.115  1.00  0.00    +0.1480  C
ATOM     14 H11  23C L   1      13.350 -14.203  -4.872  1.00  0.00    +0.4054 HD
ATOM     15 H12  23C L   1      11.982 -13.267  -5.051  1.00  0.00    +0.4054 HD
ATOM     16 H13  23C L   1      14.717 -12.595  -5.977  1.00  0.00    +0.1017  H
ATOM     17 H14  23C L   1      13.390 -13.140  -7.001  1.00  0.00    +0.1017  H
ENDBRANCH 1 13
TORSDOF 1
ENDMDL
MODEL 10
REMARK VINA RESULT:    -4.700     10.341     11.643
REMARK INTER + INTRA:          -5.002
REMARK INTER:                  -4.975
REMARK INTRA:                  -0.027
REMARK UNBOUND:                -0.027
ROOT
ATOM      1  C3  23C L   1      12.520  -9.614  -7.920  1.00  0.00    +0.0311  A
ATOM      2  C4  23C L   1      11.909  -9.107  -6.758  1.00  0.00    -0.0516  A
ATOM      3  C5  23C L   1      12.391  -7.949  -6.148  1.00  0.00    -0.0598  A
ATOM      4  C6  23C L   1      13.489  -7.279  -6.686  1.00  0.00    -0.0419  A
ATOM      5  C7  23C L   1      14.111  -7.763  -7.838  1.00  0.00    +0.0597  A
ATOM      6 CL8  23C L   1      15.471  -6.884  -8.440  1.00  0.00    -0.0820 Cl
ATOM      7  C9  23C L   1      13.632  -8.929  -8.457  1.00  0.00    +0.0679  A
ATOM      8 CL10 23C L   1      14.401  -9.550  -9.884  1.00  0.00    -0.0816 Cl
ATOM      9 H15  23C L   1      11.042  -9.594  -6.313  1.00  0.00    +0.0623  H
ATOM     10 H16  23C L   1      11.909  -7.557  -5.253  1.00  0.00    +0.0618  H
ATOM     11 H17  23C L   1      13.854  -6.374  -6.202  1.00  0.00    +0.0633  H
ENDROOT
BRANCH 1 13
ATOM     12  N1  23C L   1      10.507 -10.974  -8.429  1.00  0.00    -0.1914  N
ATOM     13  C2  23C L   1      11.980 -10.871  -8.547  1.00  0.00    +0.1480  C
ATOM     14 H11  23C L   1      10.151 -11.842  -8.847  1.00  0.00    +0.4054 HD
ATOM     15 H12  23C L   1      10.032 -10.178  -8.871  1.00  0.00    +0.4054 HD
ATOM     16 H13  23C L   1      12.410 -11.768  -8.092  1.00  0.00    +0.1017  H
ATOM     17 H14  23C L   1      12.202 -10.909  -9.618  1.00  0.00    +0.1017  H
ENDBRANCH 1 13
TORSDOF 1
ENDMDL
MODEL 11
REMARK VINA RESULT:    -4.673     12.191     13.101
REMARK INTER + INTRA:          -4.974
REMARK INTER:                  -4.924
REMARK INTRA:                  -0.050
REMARK UNBOUND:                -0.027
ROOT
ATOM      1  C3  23C L   1      12.759 -11.434  -6.815  1.00  0.00    +0.0311  A
ATOM      2  C4  23C L   1      11.784 -10.449  -6.572  1.00  0.00    -0.0516  A
ATOM      3  C5  23C L   1      10.936 -10.020  -7.592  1.00  0.00    -0.0598  A
ATOM      4  C6  23C L   1      11.046 -10.564  -8.870  1.00  0.00    -0.0419  A
ATOM      5  C7  23C L   1      12.006 -11.543  -9.136  1.00  0.00    +0.0597  A
ATOM      6 CL8  23C L   1      12.088 -12.164 -10.746  1.00  0.00    -0.0820 Cl
ATOM      7  C9  23C L   1      12.864 -11.980  -8.114  1.00  0.00    +0.0679  A
ATOM      8 CL10 23C L   1      14.069 -13.188  -8.430  1.00  0.00    -0.0816 Cl
ATOM      9 H15  23C L   1      11.657 -10.007  -5.584  1.00  0.00    +0.0623  H
ATOM     10 H16  23C L   1      10.178  -9.262  -7.396  1.00  0.00    +0.0618  H
ATOM     11 H17  23C L   1      10.376 -10.223  -9.658  1.00  0.00    +0.0633  H
ENDROOT
BRANCH 1 13
ATOM     12  N1  23C L   1      13.128 -13.032  -4.953  1.00  0.00    -0.1914  N
ATOM     13  C2  23C L   1      13.663 -11.868  -5.693  1.00  0.00    +0.1480  C
ATOM     14 H11  23C L   1      13.746 -13.311  -4.181  1.00  0.00    +0.4054 HD
ATOM     15 H12  23C L   1      12.987 -13.843  -5.567  1.00  0.00    +0.4054 HD
ATOM     16 H13  23C L   1      13.825 -11.063  -4.970  1.00  0.00    +0.1017  H
ATOM     17 H14  23C L   1      14.646 -12.171  -6.068  1.00  0.00    +0.1017  H
ENDBRANCH 1 13
TORSDOF 1
ENDMDL
MODEL 12
REMARK VINA RESULT:    -4.654     11.051     11.834
REMARK INTER + INTRA:          -4.953
REMARK INTER:                  -4.921
REMARK INTRA:                  -0.032
REMARK UNBOUND:                -0.027
ROOT
ATOM      1  C3  23C L   1      13.165  -8.992  -7.813  1.00  0.00    +0.0311  A
ATOM      2  C4  23C L   1      12.182  -9.082  -6.811  1.00  0.00    -0.0516  A
ATOM      3  C5  23C L   1      11.146 -10.011  -6.912  1.00  0.00    -0.0598  A
ATOM      4  C6  23C L   1      11.074 -10.863  -8.012  1.00  0.00    -0.0419  A
ATOM      5  C7  23C L   1      12.038 -10.791  -9.019  1.00  0.00    +0.0597  A
ATOM      6 CL8  23C L   1      11.877 -11.874 -10.356  1.00  0.00    -0.0820 Cl
ATOM      7  C9  23C L   1      13.084  -9.859  -8.925  1.00  0.00    +0.0679  A
ATOM      8 CL10 23C L   1      14.284  -9.751 -10.174  1.00  0.00    -0.0816 Cl
ATOM      9 H15  23C L   1      12.209  -8.442  -5.928  1.00  0.00    +0.0623  H
ATOM     10 H16  23C L   1      10.392 -10.081  -6.128  1.00  0.00    +0.0618  H
ATOM     11 H17  23C L   1      10.261 -11.585  -8.078  1.00  0.00    +0.0633  H
ENDROOT
BRANCH 1 13
ATOM     12  N1  23C L   1      13.746  -6.587  -7.618  1.00  0.00    -0.1914  N
ATOM     13  C2  23C L   1      14.264  -7.973  -7.677  1.00  0.00    +0.1480  C
ATOM     14 H11  23C L   1      14.505  -5.899  -7.538  1.00  0.00    +0.4054 HD
ATOM     15 H12  23C L   1      13.101  -6.453  -6.831  1.00  0.00    +0.4054 HD
ATOM     16 H13  23C L   1      14.972  -8.025  -8.509  1.00  0.00    +0.1017  H
ATOM     17 H14  23C L   1      14.834  -8.123  -6.754  1.00  0.00    +0.1017  H
ENDBRANCH 1 13
TORSDOF 1
ENDMDL
