MODEL 1
REMARK VINA RESULT:    -6.101      0.000      0.000
REMARK INTER + INTRA:          -6.540
REMARK INTER:                  -6.458
REMARK INTRA:                  -0.082
REMARK UNBOUND:                -0.082
ROOT
ATOM      1  C4  34D L   1       7.911  -1.676  -2.787  1.00  0.00    +0.0156  A
ATOM      2  C5  34D L   1       6.830  -1.112  -2.092  1.00  0.00    -0.0513  A
ATOM      3  C6  34D L   1       7.046  -0.190  -1.059  1.00  0.00    -0.0415  A
ATOM      4  C7  34D L   1       8.341   0.183  -0.693  1.00  0.00    +0.0593  A
ATOM      5 CL8  34D L   1       8.524   1.316   0.593  1.00  0.00    -0.0820 Cl
ATOM      6  C9  34D L   1       9.429  -0.372  -1.368  1.00  0.00    +0.0597  A
ATOM      7 CL10 34D L   1      11.065   0.020  -0.980  1.00  0.00    -0.0820 Cl
ATOM      8 C11  34D L   1       9.213  -1.294  -2.404  1.00  0.00    -0.0330  A
ATOM      9 H18  34D L   1       5.795  -1.355  -2.332  1.00  0.00    +0.0623  H
ATOM     10 H19  34D L   1       6.191   0.242  -0.538  1.00  0.00    +0.0633  H
ATOM     11 H20  34D L   1      10.082  -1.708  -2.914  1.00  0.00    +0.0637  H
ENDROOT
BRANCH 1 13
ATOM     12  C1  34D L   1       6.312  -3.012  -4.312  1.00  0.00    -0.0031  C
ATOM     13  C2  34D L   1       7.747  -2.696  -3.896  1.00  0.00    +0.1539  C
ATOM     14  N3  34D L   1       8.402  -3.977  -3.516  1.00  0.00    -0.1890  N
ATOM     15 H12  34D L   1       5.776  -2.098  -4.592  1.00  0.00    +0.0292  H
ATOM     16 H13  34D L   1       6.299  -3.682  -5.178  1.00  0.00    +0.0292  H
ATOM     17 H14  34D L   1       5.750  -3.503  -3.511  1.00  0.00    +0.0292  H
ATOM     18 H15  34D L   1       8.285  -2.341  -4.783  1.00  0.00    +0.1051  H
ATOM     19 H16  34D L   1       8.027  -4.343  -2.632  1.00  0.00    +0.4057 HD
ATOM     20 H17  34D L   1       8.294  -4.700  -4.237  1.00  0.00    +0.4057 HD
ENDBRANCH 1 13
TORSDOF 1
ENDMDL
MODEL 2
REMARK VINA RESULT:    -5.312      3.254      4.367
REMARK INTER + INTRA:          -5.705
REMARK INTER:                  -5.620
REMARK INTRA:                  -0.085
REMARK UNBOUND:                -0.082
ROOT
ATOM      1  C4  34D L   1       7.919  -0.788  -1.326  1.00  0.00    +0.0156  A
ATOM      2  C5  34D L   1       6.658  -0.416  -1.818  1.00  0.00    -0.0513  A
ATOM      3  C6  34D L   1       6.034  -1.163  -2.826  1.00  0.00    -0.0415  A
ATOM      4  C7  34D L   1       6.656  -2.291  -3.367  1.00  0.00    +0.0593  A
ATOM      5 CL8  34D L   1       5.826  -3.153  -4.608  1.00  0.00    -0.0820 Cl
ATOM      6  C9  34D L   1       7.912  -2.673  -2.895  1.00  0.00    +0.0597  A
ATOM      7 CL10 34D L   1       8.760  -4.044  -3.511  1.00  0.00    -0.0820 Cl
ATOM      8 C11  34D L   1       8.536  -1.925  -1.885  1.00  0.00    -0.0330  A
ATOM      9 H18  34D L   1       6.118   0.449  -1.434  1.00  0.00    +0.0623  H
ATOM     10 H19  34D L   1       5.051  -0.861  -3.187  1.00  0.00    +0.0633  H
ATOM     11 H20  34D L   1       9.516  -2.250  -1.535  1.00  0.00    +0.0637  H
ENDROOT
BRANCH 1 13
ATOM     12  C1  34D L   1       8.058   1.342   0.128  1.00  0.00    -0.0031  C
ATOM     13  C2  34D L   1       8.659  -0.009  -0.256  1.00  0.00    +0.1539  C
ATOM     14  N3  34D L   1      10.069   0.222  -0.672  1.00  0.00    -0.1890  N
ATOM     15 H12  34D L   1       7.012   1.232   0.433  1.00  0.00    +0.0292  H
ATOM     16 H13  34D L   1       8.604   1.782   0.969  1.00  0.00    +0.0292  H
ATOM     17 H14  34D L   1       8.098   2.060  -0.699  1.00  0.00    +0.0292  H
ATOM     18 H15  34D L   1       8.715  -0.623   0.651  1.00  0.00    +0.1051  H
ATOM     19 H16  34D L   1      10.119   0.713  -1.574  1.00  0.00    +0.4057 HD
ATOM     20 H17  34D L   1      10.596   0.766   0.022  1.00  0.00    +0.4057 HD
ENDBRANCH 1 13
TORSDOF 1
ENDMDL
MODEL 3
REMARK VINA RESULT:    -5.036      1.055      2.282
REMARK INTER + INTRA:          -5.413
REMARK INTER:                  -5.349
REMARK INTRA:                  -0.063
REMARK UNBOUND:                -0.082
ROOT
ATOM      1  C4  34D L   1       7.905  -1.674  -3.215  1.00  0.00    +0.0156  A
ATOM      2  C5  34D L   1       9.234  -2.112  -3.328  1.00  0.00    -0.0513  A
ATOM      3  C6  34D L   1      10.235  -1.582  -2.503  1.00  0.00    -0.0415  A
ATOM      4  C7  34D L   1       9.934  -0.602  -1.555  1.00  0.00    +0.0593  A
ATOM      5 CL8  34D L   1      11.222   0.005  -0.583  1.00  0.00    -0.0820 Cl
ATOM      6  C9  34D L   1       8.620  -0.149  -1.432  1.00  0.00    +0.0597  A
ATOM      7 CL10 34D L   1       8.155   1.066  -0.297  1.00  0.00    -0.0820 Cl
ATOM      8 C11  34D L   1       7.617  -0.681  -2.257  1.00  0.00    -0.0330  A
ATOM      9 H18  34D L   1       9.534  -2.879  -4.042  1.00  0.00    +0.0623  H
ATOM     10 H19  34D L   1      11.259  -1.943  -2.602  1.00  0.00    +0.0633  H
ATOM     11 H20  34D L   1       6.600  -0.309  -2.137  1.00  0.00    +0.0637  H
ENDROOT
BRANCH 1 13
ATOM     12  C1  34D L   1       5.366  -1.997  -3.555  1.00  0.00    -0.0031  C
ATOM     13  C2  34D L   1       6.782  -2.188  -4.094  1.00  0.00    +0.1539  C
ATOM     14  N3  34D L   1       6.971  -3.637  -4.373  1.00  0.00    -0.1890  N
ATOM     15 H12  34D L   1       5.175  -0.944  -3.320  1.00  0.00    +0.0292  H
ATOM     16 H13  34D L   1       4.624  -2.310  -4.298  1.00  0.00    +0.0292  H
ATOM     17 H14  34D L   1       5.188  -2.585  -2.648  1.00  0.00    +0.0292  H
ATOM     18 H15  34D L   1       6.842  -1.689  -5.069  1.00  0.00    +0.1051  H
ATOM     19 H16  34D L   1       7.025  -4.183  -3.504  1.00  0.00    +0.4057 HD
ATOM     20 H17  34D L   1       6.215  -4.025  -4.951  1.00  0.00    +0.4057 HD
ENDBRANCH 1 13
TORSDOF 1
ENDMDL
MODEL 4
REMARK VINA RESULT:    -4.883      3.281      4.891
REMARK INTER + INTRA:          -5.250
REMARK INTER:                  -5.166
REMARK INTRA:                  -0.084
REMARK UNBOUND:                -0.082
ROOT
ATOM      1  C4  34D L   1       8.555  -0.036  -1.076  1.00  0.00    +0.0156  A
ATOM      2  C5  34D L   1       9.572  -0.876  -1.556  1.00  0.00    -0.0513  A
ATOM      3  C6  34D L   1       9.293  -1.869  -2.504  1.00  0.00    -0.0415  A
ATOM      4  C7  34D L   1       7.995  -2.050  -2.986  1.00  0.00    +0.0593  A
ATOM      5 CL8  34D L   1       7.732  -3.299  -4.146  1.00  0.00    -0.0820 Cl
ATOM      6  C9  34D L   1       6.969  -1.230  -2.516  1.00  0.00    +0.0597  A
ATOM      7 CL10 34D L   1       5.334  -1.388  -3.046  1.00  0.00    -0.0820 Cl
ATOM      8 C11  34D L   1       7.249  -0.235  -1.568  1.00  0.00    -0.0330  A
ATOM      9 H18  34D L   1      10.607  -0.781  -1.225  1.00  0.00    +0.0623  H
ATOM     10 H19  34D L   1      10.101  -2.503  -2.870  1.00  0.00    +0.0633  H
ATOM     11 H20  34D L   1       6.428   0.392  -1.221  1.00  0.00    +0.0637  H
ENDROOT
BRANCH 1 13
ATOM     12  C1  34D L   1       9.695   0.660   1.134  1.00  0.00    -0.0031  C
ATOM     13  C2  34D L   1       8.786   1.039  -0.033  1.00  0.00    +0.1539  C
ATOM     14  N3  34D L   1       7.486   1.493   0.533  1.00  0.00    -0.1890  N
ATOM     15 H12  34D L   1      10.667   0.306   0.773  1.00  0.00    +0.0292  H
ATOM     16 H13  34D L   1       9.877   1.527   1.779  1.00  0.00    +0.0292  H
ATOM     17 H14  34D L   1       9.257  -0.125   1.759  1.00  0.00    +0.0292  H
ATOM     18 H15  34D L   1       9.217   1.920  -0.525  1.00  0.00    +0.1051  H
ATOM     19 H16  34D L   1       6.958   0.709   0.936  1.00  0.00    +0.4057 HD
ATOM     20 H17  34D L   1       7.605   2.210   1.259  1.00  0.00    +0.4057 HD
ENDBRANCH 1 13
TORSDOF 1
ENDMDL
MODEL 5
REMARK VINA RESULT:    -4.863     10.871     12.238
REMARK INTER + INTRA:          -5.229
REMARK INTER:                  -5.167
REMARK INTRA:                  -0.062
REMARK UNBOUND:                -0.082
ROOT
ATOM      1  C4  34D L   1      13.930 -11.808  -5.762  1.00  0.00    +0.0156  A
ATOM      2  C5  34D L   1      14.818 -10.777  -5.416  1.00  0.00    -0.0513  A
ATOM      3  C6  34D L   1      14.503  -9.439  -5.688  1.00  0.00    -0.0415  A
ATOM      4  C7  34D L   1      13.302  -9.102  -6.317  1.00  0.00    +0.0593  A
ATOM      5 CL8  34D L   1      12.992  -7.434  -6.624  1.00  0.00    -0.0820 Cl
ATOM      6  C9  34D L   1      12.409 -10.113  -6.674  1.00  0.00    +0.0597  A
ATOM      7 CL10 34D L   1      10.907  -9.793  -7.463  1.00  0.00    -0.0820 Cl
ATOM      8 C11  34D L   1      12.724 -11.452  -6.399  1.00  0.00    -0.0330  A
ATOM      9 H18  34D L   1      15.768 -10.972  -4.918  1.00  0.00    +0.0623  H
ATOM     10 H19  34D L   1      15.204  -8.655  -5.403  1.00  0.00    +0.0633  H
ATOM     11 H20  34D L   1      12.006 -12.220  -6.688  1.00  0.00    +0.0637  H
ENDROOT
BRANCH 1 13
ATOM     12  C1  34D L   1      14.574 -14.104  -6.751  1.00  0.00    -0.0031  C
ATOM     13  C2  34D L   1      14.221 -13.275  -5.518  1.00  0.00    +0.1539  C
ATOM     14  N3  34D L   1      13.061 -13.925  -4.850  1.00  0.00    -0.1890  N
ATOM     15 H12  34D L   1      15.419 -13.663  -7.291  1.00  0.00    +0.0292  H
ATOM     16 H13  34D L   1      14.860 -15.122  -6.463  1.00  0.00    +0.0292  H
ATOM     17 H14  34D L   1      13.732 -14.186  -7.446  1.00  0.00    +0.0292  H
ATOM     18 H15  34D L   1      15.054 -13.355  -4.808  1.00  0.00    +0.1051  H
ATOM     19 H16  34D L   1      12.201 -13.816  -5.402  1.00  0.00    +0.4057 HD
ATOM     20 H17  34D L   1      13.216 -14.927  -4.687  1.00  0.00    +0.4057 HD
ENDBRANCH 1 13
TORSDOF 1
ENDMDL
MODEL 6
REMARK VINA RESULT:    -4.777     12.486     13.989
REMARK INTER + INTRA:          -5.139
REMARK INTER:                  -5.082
REMARK INTRA:                  -0.057
REMARK UNBOUND:                -0.082
ROOT
ATOM      1  C4  34D L   1      13.174 -12.625  -9.986  1.00  0.00    +0.0156  A
ATOM      2  C5  34D L   1      11.913 -12.150 -10.377  1.00  0.00    -0.0513  A
ATOM      3  C6  34D L   1      11.199 -11.259  -9.564  1.00  0.00    -0.0415  A
ATOM      4  C7  34D L   1      11.723 -10.831  -8.343  1.00  0.00    +0.0593  A
ATOM      5 CL8  34D L   1      10.780  -9.741  -7.396  1.00  0.00    -0.0820 Cl
ATOM      6  C9  34D L   1      12.973 -11.297  -7.933  1.00  0.00    +0.0597  A
ATOM      7 CL10 34D L   1      13.696 -10.831  -6.437  1.00  0.00    -0.0820 Cl
ATOM      8 C11  34D L   1      13.689 -12.187  -8.749  1.00  0.00    -0.0330  A
ATOM      9 H18  34D L   1      11.450 -12.440 -11.321  1.00  0.00    +0.0623  H
ATOM     10 H19  34D L   1      10.225 -10.897  -9.892  1.00  0.00    +0.0633  H
ATOM     11 H20  34D L   1      14.663 -12.532  -8.403  1.00  0.00    +0.0637  H
ENDROOT
BRANCH 1 13
ATOM     12  C1  34D L   1      14.627 -14.759 -10.035  1.00  0.00    -0.0031  C
ATOM     13  C2  34D L   1      13.986 -13.607 -10.806  1.00  0.00    +0.1539  C
ATOM     14  N3  34D L   1      15.066 -12.894 -11.541  1.00  0.00    -0.1890  N
ATOM     15 H12  34D L   1      13.875 -15.314  -9.464  1.00  0.00    +0.0292  H
ATOM     16 H13  34D L   1      15.108 -15.463 -10.722  1.00  0.00    +0.0292  H
ATOM     17 H14  34D L   1      15.395 -14.409  -9.337  1.00  0.00    +0.0292  H
ATOM     18 H15  34D L   1      13.338 -14.039 -11.580  1.00  0.00    +0.1051  H
ATOM     19 H16  34D L   1      15.675 -12.373 -10.898  1.00  0.00    +0.4057 HD
ATOM     20 H17  34D L   1      15.649 -13.533 -12.094  1.00  0.00    +0.4057 HD
ENDBRANCH 1 13
TORSDOF 1
ENDMDL
MODEL 7
REMARK VINA RESULT:    -4.744     13.690     15.044
REMARK INTER + INTRA:          -5.103
REMARK INTER:                  -5.031
REMARK INTRA:                  -0.072
REMARK UNBOUND:                -0.082
ROOT
ATOM      1  C4  34D L   1      -0.751  -5.747 -11.314  1.00  0.00    +0.0156  A
ATOM      2  C5  34D L   1      -0.707  -7.124 -11.042  1.00  0.00    -0.0513  A
ATOM      3  C6  34D L   1      -1.878  -7.893 -11.048  1.00  0.00    -0.0415  A
ATOM      4  C7  34D L   1      -3.116  -7.305 -11.319  1.00  0.00    +0.0593  A
ATOM      5 CL8  34D L   1      -4.512  -8.317 -11.300  1.00  0.00    -0.0820 Cl
ATOM      6  C9  34D L   1      -3.181  -5.937 -11.585  1.00  0.00    +0.0597  A
ATOM      7 CL10 34D L   1      -4.666  -5.123 -11.919  1.00  0.00    -0.0820 Cl
ATOM      8 C11  34D L   1      -2.008  -5.168 -11.580  1.00  0.00    -0.0330  A
ATOM      9 H18  34D L   1       0.227  -7.644 -10.830  1.00  0.00    +0.0623  H
ATOM     10 H19  34D L   1      -1.819  -8.961 -10.843  1.00  0.00    +0.0633  H
ATOM     11 H20  34D L   1      -2.090  -4.102 -11.794  1.00  0.00    +0.0637  H
ENDROOT
BRANCH 1 13
ATOM     12  C1  34D L   1       1.739  -5.438 -11.926  1.00  0.00    -0.0031  C
ATOM     13  C2  34D L   1       0.475  -4.855 -11.298  1.00  0.00    +0.1539  C
ATOM     14  N3  34D L   1       0.802  -4.459  -9.901  1.00  0.00    -0.1890  N
ATOM     15 H12  34D L   1       1.551  -5.759 -12.957  1.00  0.00    +0.0292  H
ATOM     16 H13  34D L   1       2.537  -4.689 -11.953  1.00  0.00    +0.0292  H
ATOM     17 H14  34D L   1       2.117  -6.299 -11.365  1.00  0.00    +0.0292  H
ATOM     18 H15  34D L   1       0.237  -3.921 -11.822  1.00  0.00    +0.1051  H
ATOM     19 H16  34D L   1       0.948  -5.281  -9.302  1.00  0.00    +0.4057 HD
ATOM     20 H17  34D L   1       1.641  -3.869  -9.850  1.00  0.00    +0.4057 HD
ENDBRANCH 1 13
TORSDOF 1
ENDMDL
MODEL 8
REMARK VINA RESULT:    -4.705     11.460     12.231
REMARK INTER + INTRA:          -5.062
REMARK INTER:                  -4.999
REMARK INTRA:                  -0.062
REMARK UNBOUND:                -0.082
ROOT
ATOM      1  C4  34D L   1      12.719 -10.360  -6.821  1.00  0.00    +0.0156  A
ATOM      2  C5  34D L   1      13.732  -9.541  -6.296  1.00  0.00    -0.0513  A
ATOM      3  C6  34D L   1      14.679 -10.057  -5.402  1.00  0.00    -0.0415  A
ATOM      4  C7  34D L   1      14.632 -11.396  -5.007  1.00  0.00    +0.0593  A
ATOM      5 CL8  34D L   1      15.829 -11.953  -3.898  1.00  0.00    -0.0820 Cl
ATOM      6  C9  34D L   1      13.629 -12.224  -5.512  1.00  0.00    +0.0597  A
ATOM      7 CL10 34D L   1      13.486 -13.888  -5.073  1.00  0.00    -0.0820 Cl
ATOM      8 C11  34D L   1      12.682 -11.707  -6.409  1.00  0.00    -0.0330  A
ATOM      9 H18  34D L   1      13.828  -8.490  -6.569  1.00  0.00    +0.0623  H
ATOM     10 H19  34D L   1      15.462  -9.405  -5.014  1.00  0.00    +0.0633  H
ATOM     11 H20  34D L   1      11.912 -12.379  -6.789  1.00  0.00    +0.0637  H
ENDROOT
BRANCH 1 13
ATOM     12  C1  34D L   1      10.799 -10.927  -8.451  1.00  0.00    -0.0031  C
ATOM     13  C2  34D L   1      11.651  -9.857  -7.771  1.00  0.00    +0.1539  C
ATOM     14  N3  34D L   1      12.265  -9.020  -8.837  1.00  0.00    -0.1890  N
ATOM     15 H12  34D L   1      10.330 -11.583  -7.710  1.00  0.00    +0.0292  H
ATOM     16 H13  34D L   1       9.998 -10.467  -9.040  1.00  0.00    +0.0292  H
ATOM     17 H14  34D L   1      11.388 -11.550  -9.133  1.00  0.00    +0.0292  H
ATOM     18 H15  34D L   1      10.977  -9.189  -7.221  1.00  0.00    +0.1051  H
ATOM     19 H16  34D L   1      12.989  -9.537  -9.351  1.00  0.00    +0.4057 HD
ATOM     20 H17  34D L   1      11.571  -8.677  -9.512  1.00  0.00    +0.4057 HD
ENDBRANCH 1 13
TORSDOF 1
ENDMDL
MODEL 9
REMARK VINA RESULT:    -4.700     11.026     12.689
REMARK INTER + INTRA:          -5.057
REMARK INTER:                  -4.978
REMARK INTRA:                  -0.078
REMARK UNBOUND:                -0.082
ROOT
ATOM      1  C4  34D L   1      12.885  -9.822  -7.296  1.00  0.00    +0.0156  A
ATOM      2  C5  34D L   1      11.547 -10.194  -7.498  1.00  0.00    -0.0513  A
ATOM      3  C6  34D L   1      11.184 -10.999  -8.586  1.00  0.00    -0.0415  A
ATOM      4  C7  34D L   1      12.145 -11.442  -9.498  1.00  0.00    +0.0593  A
ATOM      5 CL8  34D L   1      11.618 -12.423 -10.814  1.00  0.00    -0.0820 Cl
ATOM      6  C9  34D L   1      13.479 -11.077  -9.317  1.00  0.00    +0.0597  A
ATOM      7 CL10 34D L   1      14.733 -11.568 -10.398  1.00  0.00    -0.0820 Cl
ATOM      8 C11  34D L   1      13.843 -10.272  -8.227  1.00  0.00    -0.0330  A
ATOM      9 H18  34D L   1      10.750  -9.888  -6.820  1.00  0.00    +0.0623  H
ATOM     10 H19  34D L   1      10.140 -11.284  -8.718  1.00  0.00    +0.0633  H
ATOM     11 H20  34D L   1      14.893 -10.005  -8.111  1.00  0.00    +0.0637  H
ENDROOT
BRANCH 1 13
ATOM     12  C1  34D L   1      12.804  -7.503  -6.163  1.00  0.00    -0.0031  C
ATOM     13  C2  34D L   1      13.339  -8.933  -6.155  1.00  0.00    +0.1539  C
ATOM     14  N3  34D L   1      14.825  -8.863  -6.119  1.00  0.00    -0.1890  N
ATOM     15 H12  34D L   1      11.709  -7.495  -6.201  1.00  0.00    +0.0292  H
ATOM     16 H13  34D L   1      13.108  -6.972  -5.254  1.00  0.00    +0.0292  H
ATOM     17 H14  34D L   1      13.178  -6.928  -7.017  1.00  0.00    +0.0292  H
ATOM     18 H15  34D L   1      13.042  -9.399  -5.207  1.00  0.00    +0.1051  H
ATOM     19 H16  34D L   1      15.206  -8.525  -7.011  1.00  0.00    +0.4057 HD
ATOM     20 H17  34D L   1      15.168  -8.252  -5.368  1.00  0.00    +0.4057 HD
ENDBRANCH 1 13
TORSDOF 1
ENDMDL
MODEL 10
REMARK VINA RESULT:    -4.696     14.097     15.254
REMARK INTER + INTRA:          -5.052
REMARK INTER:                  -4.988
REMARK INTRA:                  -0.065
REMARK UNBOUND:                -0.082
ROOT
ATOM      1  C4  34D L   1      -1.113  -6.791 -10.785  1.00  0.00    +0.0156  A
ATOM      2  C5  34D L   1      -1.350  -5.444 -11.102  1.00  0.00    -0.0513  A
ATOM      3  C6  34D L   1      -2.612  -5.022 -11.541  1.00  0.00    -0.0415  A
ATOM      4  C7  34D L   1      -3.660  -5.935 -11.682  1.00  0.00    +0.0593  A
ATOM      5 CL8  34D L   1      -5.180  -5.339 -12.235  1.00  0.00    -0.0820 Cl
ATOM      6  C9  34D L   1      -3.443  -7.279 -11.378  1.00  0.00    +0.0597  A
ATOM      7 CL10 34D L   1      -4.674  -8.479 -11.531  1.00  0.00    -0.0820 Cl
ATOM      8 C11  34D L   1      -2.179  -7.700 -10.936  1.00  0.00    -0.0330  A
ATOM      9 H18  34D L   1      -0.576  -4.681 -11.008  1.00  0.00    +0.0623  H
ATOM     10 H19  34D L   1      -2.775  -3.970 -11.773  1.00  0.00    +0.0633  H
ATOM     11 H20  34D L   1      -2.040  -8.756 -10.704  1.00  0.00    +0.0637  H
ENDROOT
BRANCH 1 13
ATOM     12  C1  34D L   1       0.210  -8.323  -9.182  1.00  0.00    -0.0031  C
ATOM     13  C2  34D L   1       0.234  -7.315 -10.329  1.00  0.00    +0.1539  C
ATOM     14  N3  34D L   1       1.114  -6.185  -9.924  1.00  0.00    -0.1890  N
ATOM     15 H12  34D L   1      -0.436  -9.174  -9.423  1.00  0.00    +0.0292  H
ATOM     16 H13  34D L   1       1.215  -8.713  -8.989  1.00  0.00    +0.0292  H
ATOM     17 H14  34D L   1      -0.151  -7.876  -8.249  1.00  0.00    +0.0292  H
ATOM     18 H15  34D L   1       0.735  -7.788 -11.183  1.00  0.00    +0.1051  H
ATOM     19 H16  34D L   1       0.680  -5.618  -9.185  1.00  0.00    +0.4057 HD
ATOM     20 H17  34D L   1       2.031  -6.506  -9.589  1.00  0.00    +0.4057 HD
ENDBRANCH 1 13
TORSDOF 1
ENDMDL
MODEL 11
REMARK VINA RESULT:    -4.638      1.852      2.318
REMARK INTER + INTRA:          -4.991
REMARK INTER:                  -4.926
REMARK INTRA:                  -0.065
REMARK UNBOUND:                -0.082
ROOT
ATOM      1  C4  34D L   1       7.029  -1.852  -2.887  1.00  0.00    +0.0156  A
ATOM      2  C5  34D L   1       7.062  -0.542  -2.385  1.00  0.00    -0.0513  A
ATOM      3  C6  34D L   1       8.240  -0.012  -1.843  1.00  0.00    -0.0415  A
ATOM      4  C7  34D L   1       9.406  -0.778  -1.784  1.00  0.00    +0.0593  A
ATOM      5 CL8  34D L   1      10.813  -0.057  -1.095  1.00  0.00    -0.0820 Cl
ATOM      6  C9  34D L   1       9.392  -2.086  -2.271  1.00  0.00    +0.0597  A
ATOM      7 CL10 34D L   1      10.780  -3.111  -2.229  1.00  0.00    -0.0820 Cl
ATOM      8 C11  34D L   1       8.212  -2.615  -2.816  1.00  0.00    -0.0330  A
ATOM      9 H18  34D L   1       6.189   0.110  -2.409  1.00  0.00    +0.0623  H
ATOM     10 H19  34D L   1       8.245   1.012  -1.468  1.00  0.00    +0.0633  H
ATOM     11 H20  34D L   1       8.232  -3.639  -3.191  1.00  0.00    +0.0637  H
ENDROOT
BRANCH 1 13
ATOM     12  C1  34D L   1       5.953  -3.224  -4.792  1.00  0.00    -0.0031  C
ATOM     13  C2  34D L   1       5.782  -2.493  -3.462  1.00  0.00    +0.1539  C
ATOM     14  N3  34D L   1       4.715  -1.470  -3.640  1.00  0.00    -0.1890  N
ATOM     15 H12  34D L   1       6.739  -3.985  -4.722  1.00  0.00    +0.0292  H
ATOM     16 H13  34D L   1       5.025  -3.732  -5.076  1.00  0.00    +0.0292  H
ATOM     17 H14  34D L   1       6.214  -2.540  -5.607  1.00  0.00    +0.0292  H
ATOM     18 H15  34D L   1       5.385  -3.209  -2.732  1.00  0.00    +0.1051  H
ATOM     19 H16  34D L   1       5.032  -0.698  -4.240  1.00  0.00    +0.4057 HD
ATOM     20 H17  34D L   1       3.859  -1.866  -4.048  1.00  0.00    +0.4057 HD
ENDBRANCH 1 13
TORSDOF 1
ENDMDL
MODEL 12
REMARK VINA RESULT:    -4.588     12.845     13.392
REMARK INTER + INTRA:          -4.938
REMARK INTER:                  -4.863
REMARK INTRA:                  -0.075
REMARK UNBOUND:                -0.082
ROOT
ATOM      1  C4  34D L   1       1.441  -5.138 -12.191  1.00  0.00    +0.0156  A
ATOM      2  C5  34D L   1       1.499  -4.149 -13.186  1.00  0.00    -0.0513  A
ATOM      3  C6  34D L   1       2.544  -4.134 -14.120  1.00  0.00    -0.0415  A
ATOM      4  C7  34D L   1       3.554  -5.097 -14.076  1.00  0.00    +0.0593  A
ATOM      5 CL8  34D L   1       4.808  -5.006 -15.256  1.00  0.00    -0.0820 Cl
ATOM      6  C9  34D L   1       3.517  -6.084 -13.091  1.00  0.00    +0.0597  A
ATOM      7 CL10 34D L   1       4.726  -7.309 -12.953  1.00  0.00    -0.0820 Cl
ATOM      8 C11  34D L   1       2.470  -6.101 -12.157  1.00  0.00    -0.0330  A
ATOM      9 H18  34D L   1       0.739  -3.374 -13.278  1.00  0.00    +0.0623  H
ATOM     10 H19  34D L   1       2.564  -3.362 -14.889  1.00  0.00    +0.0633  H
ATOM     11 H20  34D L   1       2.466  -6.885 -11.401  1.00  0.00    +0.0637  H
ENDROOT
BRANCH 1 13
ATOM     12  C1  34D L   1      -1.026  -4.700 -11.566  1.00  0.00    -0.0031  C
ATOM     13  C2  34D L   1       0.353  -5.196 -11.137  1.00  0.00    +0.1539  C
ATOM     14  N3  34D L   1       0.761  -4.419  -9.935  1.00  0.00    -0.1890  N
ATOM     15 H12  34D L   1      -1.373  -5.232 -12.459  1.00  0.00    +0.0292  H
ATOM     16 H13  34D L   1      -1.762  -4.870 -10.773  1.00  0.00    +0.0292  H
ATOM     17 H14  34D L   1      -1.027  -3.628 -11.788  1.00  0.00    +0.0292  H
ATOM     18 H15  34D L   1       0.248  -6.233 -10.797  1.00  0.00    +0.1051  H
ATOM     19 H16  34D L   1       0.979  -3.444 -10.174  1.00  0.00    +0.4057 HD
ATOM     20 H17  34D L   1       0.038  -4.420  -9.206  1.00  0.00    +0.4057 HD
ENDBRANCH 1 13
TORSDOF 1
ENDMDL
