MODEL 1
REMARK VINA RESULT:    -5.868      0.000      0.000
REMARK INTER + INTRA:          -6.287
REMARK INTER:                  -6.212
REMARK INTRA:                  -0.075
REMARK UNBOUND:                -0.075
ROOT
ATOM      1  C4  34D L   1       4.743   1.297   4.245  1.00  0.00    +0.0156  A
ATOM      2  C5  34D L   1       3.820   0.733   3.347  1.00  0.00    -0.0513  A
ATOM      3  C6  34D L   1       3.027   1.545   2.527  1.00  0.00    -0.0415  A
ATOM      4  C7  34D L   1       3.132   2.936   2.591  1.00  0.00    +0.0593  A
ATOM      5 CL8  34D L   1       2.119   3.872   1.558  1.00  0.00    -0.0820 Cl
ATOM      6  C9  34D L   1       4.037   3.513   3.484  1.00  0.00    +0.0597  A
ATOM      7 CL10 34D L   1       4.223   5.222   3.641  1.00  0.00    -0.0820 Cl
ATOM      8 C11  34D L   1       4.833   2.699   4.307  1.00  0.00    -0.0330  A
ATOM      9 H18  34D L   1       3.702  -0.347   3.261  1.00  0.00    +0.0623  H
ATOM     10 H19  34D L   1       2.323   1.085   1.834  1.00  0.00    +0.0633  H
ATOM     11 H20  34D L   1       5.526   3.193   4.985  1.00  0.00    +0.0637  H
ENDROOT
BRANCH 1 13
ATOM     12  C1  34D L   1       6.615  -0.461   4.423  1.00  0.00    -0.0031  C
ATOM     13  C2  34D L   1       5.559   0.382   5.135  1.00  0.00    +0.1539  C
ATOM     14  N3  34D L   1       6.239   1.168   6.200  1.00  0.00    -0.1890  N
ATOM     15 H12  34D L   1       7.421   0.152   4.004  1.00  0.00    +0.0292  H
ATOM     16 H13  34D L   1       7.075  -1.173   5.119  1.00  0.00    +0.0292  H
ATOM     17 H14  34D L   1       6.168  -1.038   3.605  1.00  0.00    +0.0292  H
ATOM     18 H15  34D L   1       4.884  -0.303   5.663  1.00  0.00    +0.1051  H
ATOM     19 H16  34D L   1       6.827   1.912   5.803  1.00  0.00    +0.4057 HD
ATOM     20 H17  34D L   1       6.826   0.579   6.804  1.00  0.00    +0.4057 HD
ENDBRANCH 1 13
TORSDOF 1
ENDMDL
MODEL 2
REMARK VINA RESULT:    -5.553      3.321      4.854
REMARK INTER + INTRA:          -5.953
REMARK INTER:                  -5.880
REMARK INTRA:                  -0.073
REMARK UNBOUND:                -0.075
ROOT
ATOM      1  C4  34D L   1       3.632   2.955   2.922  1.00  0.00    +0.0156  A
ATOM      2  C5  34D L   1       4.445   3.340   4.003  1.00  0.00    -0.0513  A
ATOM      3  C6  34D L   1       5.239   2.402   4.675  1.00  0.00    -0.0415  A
ATOM      4  C7  34D L   1       5.233   1.061   4.288  1.00  0.00    +0.0593  A
ATOM      5 CL8  34D L   1       6.230  -0.038   5.165  1.00  0.00    -0.0820 Cl
ATOM      6  C9  34D L   1       4.424   0.659   3.223  1.00  0.00    +0.0597  A
ATOM      7 CL10 34D L   1       4.343  -0.979   2.685  1.00  0.00    -0.0820 Cl
ATOM      8 C11  34D L   1       3.628   1.600   2.548  1.00  0.00    -0.0330  A
ATOM      9 H18  34D L   1       4.483   4.376   4.341  1.00  0.00    +0.0623  H
ATOM     10 H19  34D L   1       5.867   2.725   5.505  1.00  0.00    +0.0633  H
ATOM     11 H20  34D L   1       3.016   1.242   1.722  1.00  0.00    +0.0637  H
ENDROOT
BRANCH 1 13
ATOM     12  C1  34D L   1       3.508   4.999   1.362  1.00  0.00    -0.0031  C
ATOM     13  C2  34D L   1       2.766   3.997   2.244  1.00  0.00    +0.1539  C
ATOM     14  N3  34D L   1       1.721   3.340   1.415  1.00  0.00    -0.1890  N
ATOM     15 H12  34D L   1       3.949   4.526   0.478  1.00  0.00    +0.0292  H
ATOM     16 H13  34D L   1       2.826   5.781   1.007  1.00  0.00    +0.0292  H
ATOM     17 H14  34D L   1       4.313   5.491   1.921  1.00  0.00    +0.0292  H
ATOM     18 H15  34D L   1       2.220   4.564   3.009  1.00  0.00    +0.1051  H
ATOM     19 H16  34D L   1       2.134   2.701   0.723  1.00  0.00    +0.4057 HD
ATOM     20 H17  34D L   1       1.133   4.021   0.917  1.00  0.00    +0.4057 HD
ENDBRANCH 1 13
TORSDOF 1
ENDMDL
MODEL 3
REMARK VINA RESULT:    -5.545      3.881      5.902
REMARK INTER + INTRA:          -5.944
REMARK INTER:                  -5.876
REMARK INTRA:                  -0.068
REMARK UNBOUND:                -0.075
ROOT
ATOM      1  C4  34D L   1       2.109   5.446   2.031  1.00  0.00    +0.0156  A
ATOM      2  C5  34D L   1       3.036   6.054   2.895  1.00  0.00    -0.0513  A
ATOM      3  C6  34D L   1       3.964   5.287   3.609  1.00  0.00    -0.0415  A
ATOM      4  C7  34D L   1       3.982   3.897   3.483  1.00  0.00    +0.0593  A
ATOM      5 CL8  34D L   1       5.147   3.016   4.398  1.00  0.00    -0.0820 Cl
ATOM      6  C9  34D L   1       3.062   3.275   2.636  1.00  0.00    +0.0597  A
ATOM      7 CL10 34D L   1       3.002   1.562   2.429  1.00  0.00    -0.0820 Cl
ATOM      8 C11  34D L   1       2.132   4.045   1.919  1.00  0.00    -0.0330  A
ATOM      9 H18  34D L   1       3.061   7.136   3.027  1.00  0.00    +0.0623  H
ATOM     10 H19  34D L   1       4.678   5.781   4.268  1.00  0.00    +0.0633  H
ATOM     11 H20  34D L   1       1.436   3.517   1.268  1.00  0.00    +0.0637  H
ENDROOT
BRANCH 1 13
ATOM     12  C1  34D L   1       1.578   6.896  -0.029  1.00  0.00    -0.0031  C
ATOM     13  C2  34D L   1       1.104   6.312   1.301  1.00  0.00    +0.1539  C
ATOM     14  N3  34D L   1      -0.149   5.550   1.048  1.00  0.00    -0.1890  N
ATOM     15 H12  34D L   1       1.736   6.122  -0.788  1.00  0.00    +0.0292  H
ATOM     16 H13  34D L   1       0.836   7.598  -0.428  1.00  0.00    +0.0292  H
ATOM     17 H14  34D L   1       2.518   7.444   0.098  1.00  0.00    +0.0292  H
ATOM     18 H15  34D L   1       0.812   7.148   1.949  1.00  0.00    +0.1051  H
ATOM     19 H16  34D L   1       0.035   4.684   0.525  1.00  0.00    +0.4057 HD
ATOM     20 H17  34D L   1      -0.842   6.101   0.527  1.00  0.00    +0.4057 HD
ENDBRANCH 1 13
TORSDOF 1
ENDMDL
MODEL 4
REMARK VINA RESULT:    -5.543      2.707      3.457
REMARK INTER + INTRA:          -5.942
REMARK INTER:                  -5.857
REMARK INTRA:                  -0.084
REMARK UNBOUND:                -0.075
ROOT
ATOM      1  C4  34D L   1       4.911   3.252   2.045  1.00  0.00    +0.0156  A
ATOM      2  C5  34D L   1       4.623   3.549   3.389  1.00  0.00    -0.0513  A
ATOM      3  C6  34D L   1       3.915   4.706   3.735  1.00  0.00    -0.0415  A
ATOM      4  C7  34D L   1       3.486   5.596   2.749  1.00  0.00    +0.0593  A
ATOM      5 CL8  34D L   1       2.626   7.004   3.249  1.00  0.00    -0.0820 Cl
ATOM      6  C9  34D L   1       3.771   5.323   1.410  1.00  0.00    +0.0597  A
ATOM      7 CL10 34D L   1       3.292   6.373   0.126  1.00  0.00    -0.0820 Cl
ATOM      8 C11  34D L   1       4.481   4.161   1.063  1.00  0.00    -0.0330  A
ATOM      9 H18  34D L   1       4.937   2.883   4.194  1.00  0.00    +0.0623  H
ATOM     10 H19  34D L   1       3.698   4.910   4.784  1.00  0.00    +0.0633  H
ATOM     11 H20  34D L   1       4.677   3.988   0.006  1.00  0.00    +0.0637  H
ENDROOT
BRANCH 1 13
ATOM     12  C1  34D L   1       6.583   1.467   2.847  1.00  0.00    -0.0031  C
ATOM     13  C2  34D L   1       5.705   2.005   1.719  1.00  0.00    +0.1539  C
ATOM     14  N3  34D L   1       4.795   0.912   1.283  1.00  0.00    -0.1890  N
ATOM     15 H12  34D L   1       5.991   1.090   3.689  1.00  0.00    +0.0292  H
ATOM     16 H13  34D L   1       7.206   0.639   2.491  1.00  0.00    +0.0292  H
ATOM     17 H14  34D L   1       7.253   2.247   3.227  1.00  0.00    +0.0292  H
ATOM     18 H15  34D L   1       6.354   2.207   0.857  1.00  0.00    +0.1051  H
ATOM     19 H16  34D L   1       4.077   0.713   1.992  1.00  0.00    +0.4057 HD
ATOM     20 H17  34D L   1       5.301   0.040   1.082  1.00  0.00    +0.4057 HD
ENDBRANCH 1 13
TORSDOF 1
ENDMDL
MODEL 5
REMARK VINA RESULT:    -5.532      2.854      3.695
REMARK INTER + INTRA:          -5.930
REMARK INTER:                  -5.845
REMARK INTRA:                  -0.086
REMARK UNBOUND:                -0.075
ROOT
ATOM      1  C4  34D L   1       6.465  -1.802   3.735  1.00  0.00    +0.0156  A
ATOM      2  C5  34D L   1       5.322  -2.217   3.030  1.00  0.00    -0.0513  A
ATOM      3  C6  34D L   1       4.324  -1.302   2.673  1.00  0.00    -0.0415  A
ATOM      4  C7  34D L   1       4.442   0.045   3.020  1.00  0.00    +0.0593  A
ATOM      5 CL8  34D L   1       3.172   1.114   2.555  1.00  0.00    -0.0820 Cl
ATOM      6  C9  34D L   1       5.566   0.474   3.729  1.00  0.00    +0.0597  A
ATOM      7 CL10 34D L   1       5.789   2.117   4.211  1.00  0.00    -0.0820 Cl
ATOM      8 C11  34D L   1       6.567  -0.445   4.086  1.00  0.00    -0.0330  A
ATOM      9 H18  34D L   1       5.185  -3.259   2.737  1.00  0.00    +0.0623  H
ATOM     10 H19  34D L   1       3.450  -1.646   2.121  1.00  0.00    +0.0633  H
ATOM     11 H20  34D L   1       7.427  -0.065   4.635  1.00  0.00    +0.0637  H
ENDROOT
BRANCH 1 13
ATOM     12  C1  34D L   1       7.056  -4.289   4.035  1.00  0.00    -0.0031  C
ATOM     13  C2  34D L   1       7.505  -2.832   4.126  1.00  0.00    +0.1539  C
ATOM     14  N3  34D L   1       8.728  -2.674   3.294  1.00  0.00    -0.1890  N
ATOM     15 H12  34D L   1       6.871  -4.602   3.001  1.00  0.00    +0.0292  H
ATOM     16 H13  34D L   1       7.825  -4.956   4.444  1.00  0.00    +0.0292  H
ATOM     17 H14  34D L   1       6.137  -4.453   4.608  1.00  0.00    +0.0292  H
ATOM     18 H15  34D L   1       7.826  -2.645   5.158  1.00  0.00    +0.1051  H
ATOM     19 H16  34D L   1       8.512  -2.735   2.291  1.00  0.00    +0.4057 HD
ATOM     20 H17  34D L   1       9.443  -3.378   3.515  1.00  0.00    +0.4057 HD
ENDBRANCH 1 13
TORSDOF 1
ENDMDL
MODEL 6
REMARK VINA RESULT:    -5.489      4.486      5.912
REMARK INTER + INTRA:          -5.885
REMARK INTER:                  -5.829
REMARK INTRA:                  -0.056
REMARK UNBOUND:                -0.075
ROOT
ATOM      1  C4  34D L   1       1.836   5.188   1.422  1.00  0.00    +0.0156  A
ATOM      2  C5  34D L   1       2.262   5.982   0.343  1.00  0.00    -0.0513  A
ATOM      3  C6  34D L   1       1.461   7.021  -0.146  1.00  0.00    -0.0415  A
ATOM      4  C7  34D L   1       0.214   7.284   0.425  1.00  0.00    +0.0593  A
ATOM      5 CL8  34D L   1      -0.721   8.573  -0.233  1.00  0.00    -0.0820 Cl
ATOM      6  C9  34D L   1      -0.230   6.499   1.491  1.00  0.00    +0.0597  A
ATOM      7 CL10 34D L   1      -1.762   6.742   2.248  1.00  0.00    -0.0820 Cl
ATOM      8 C11  34D L   1       0.575   5.457   1.982  1.00  0.00    -0.0330  A
ATOM      9 H18  34D L   1       3.228   5.816  -0.135  1.00  0.00    +0.0623  H
ATOM     10 H19  34D L   1       1.816   7.628  -0.979  1.00  0.00    +0.0633  H
ATOM     11 H20  34D L   1       0.189   4.874   2.817  1.00  0.00    +0.0637  H
ENDROOT
BRANCH 1 13
ATOM     12  C1  34D L   1       3.163   4.134   3.359  1.00  0.00    -0.0031  C
ATOM     13  C2  34D L   1       2.722   4.056   1.900  1.00  0.00    +0.1539  C
ATOM     14  N3  34D L   1       2.046   2.747   1.692  1.00  0.00    -0.1890  N
ATOM     15 H12  34D L   1       2.324   4.012   4.053  1.00  0.00    +0.0292  H
ATOM     16 H13  34D L   1       3.890   3.345   3.586  1.00  0.00    +0.0292  H
ATOM     17 H14  34D L   1       3.642   5.097   3.573  1.00  0.00    +0.0292  H
ATOM     18 H15  34D L   1       3.625   4.020   1.278  1.00  0.00    +0.1051  H
ATOM     19 H16  34D L   1       1.131   2.717   2.160  1.00  0.00    +0.4057 HD
ATOM     20 H17  34D L   1       2.610   1.959   2.033  1.00  0.00    +0.4057 HD
ENDBRANCH 1 13
TORSDOF 1
ENDMDL
MODEL 7
REMARK VINA RESULT:    -5.479      1.882      2.265
REMARK INTER + INTRA:          -5.874
REMARK INTER:                  -5.814
REMARK INTRA:                  -0.060
REMARK UNBOUND:                -0.075
ROOT
ATOM      1  C4  34D L   1       5.338   1.814   4.007  1.00  0.00    +0.0156  A
ATOM      2  C5  34D L   1       4.481   2.856   4.404  1.00  0.00    -0.0513  A
ATOM      3  C6  34D L   1       4.183   3.912   3.535  1.00  0.00    -0.0415  A
ATOM      4  C7  34D L   1       4.739   3.956   2.255  1.00  0.00    +0.0593  A
ATOM      5 CL8  34D L   1       4.333   5.290   1.243  1.00  0.00    -0.0820 Cl
ATOM      6  C9  34D L   1       5.600   2.935   1.848  1.00  0.00    +0.0597  A
ATOM      7 CL10 34D L   1       6.344   2.914   0.290  1.00  0.00    -0.0820 Cl
ATOM      8 C11  34D L   1       5.898   1.874   2.719  1.00  0.00    -0.0330  A
ATOM      9 H18  34D L   1       4.022   2.865   5.394  1.00  0.00    +0.0623  H
ATOM     10 H19  34D L   1       3.510   4.705   3.863  1.00  0.00    +0.0633  H
ATOM     11 H20  34D L   1       6.571   1.099   2.357  1.00  0.00    +0.0637  H
ENDROOT
BRANCH 1 13
ATOM     12  C1  34D L   1       6.564  -0.402   4.464  1.00  0.00    -0.0031  C
ATOM     13  C2  34D L   1       5.656   0.706   4.991  1.00  0.00    +0.1539  C
ATOM     14  N3  34D L   1       6.281   1.269   6.218  1.00  0.00    -0.1890  N
ATOM     15 H12  34D L   1       7.579  -0.045   4.259  1.00  0.00    +0.0292  H
ATOM     16 H13  34D L   1       6.647  -1.214   5.196  1.00  0.00    +0.0292  H
ATOM     17 H14  34D L   1       6.163  -0.831   3.538  1.00  0.00    +0.0292  H
ATOM     18 H15  34D L   1       4.720   0.242   5.325  1.00  0.00    +0.1051  H
ATOM     19 H16  34D L   1       7.123   1.814   5.997  1.00  0.00    +0.4057 HD
ATOM     20 H17  34D L   1       6.537   0.539   6.895  1.00  0.00    +0.4057 HD
ENDBRANCH 1 13
TORSDOF 1
ENDMDL
MODEL 8
REMARK VINA RESULT:    -5.436      3.802      4.984
REMARK INTER + INTRA:          -5.829
REMARK INTER:                  -5.744
REMARK INTRA:                  -0.085
REMARK UNBOUND:                -0.075
ROOT
ATOM      1  C4  34D L   1       4.179   1.271   3.475  1.00  0.00    +0.0156  A
ATOM      2  C5  34D L   1       5.566   1.470   3.350  1.00  0.00    -0.0513  A
ATOM      3  C6  34D L   1       6.455   0.391   3.406  1.00  0.00    -0.0415  A
ATOM      4  C7  34D L   1       5.983  -0.909   3.596  1.00  0.00    +0.0593  A
ATOM      5 CL8  34D L   1       7.136  -2.188   3.663  1.00  0.00    -0.0820 Cl
ATOM      6  C9  34D L   1       4.610  -1.125   3.733  1.00  0.00    +0.0597  A
ATOM      7 CL10 34D L   1       3.937  -2.694   3.986  1.00  0.00    -0.0820 Cl
ATOM      8 C11  34D L   1       3.717  -0.041   3.675  1.00  0.00    -0.0330  A
ATOM      9 H18  34D L   1       5.982   2.467   3.199  1.00  0.00    +0.0623  H
ATOM     10 H19  34D L   1       7.525   0.570   3.299  1.00  0.00    +0.0633  H
ATOM     11 H20  34D L   1       2.655  -0.258   3.783  1.00  0.00    +0.0637  H
ENDROOT
BRANCH 1 13
ATOM     12  C1  34D L   1       3.920   3.823   3.688  1.00  0.00    -0.0031  C
ATOM     13  C2  34D L   1       3.256   2.471   3.438  1.00  0.00    +0.1539  C
ATOM     14  N3  34D L   1       2.551   2.540   2.129  1.00  0.00    -0.1890  N
ATOM     15 H12  34D L   1       4.611   4.101   2.885  1.00  0.00    +0.0292  H
ATOM     16 H13  34D L   1       3.166   4.616   3.759  1.00  0.00    +0.0292  H
ATOM     17 H14  34D L   1       4.481   3.814   4.630  1.00  0.00    +0.0292  H
ATOM     18 H15  34D L   1       2.467   2.341   4.189  1.00  0.00    +0.1051  H
ATOM     19 H16  34D L   1       3.213   2.565   1.344  1.00  0.00    +0.4057 HD
ATOM     20 H17  34D L   1       1.936   3.361   2.061  1.00  0.00    +0.4057 HD
ENDBRANCH 1 13
TORSDOF 1
ENDMDL
MODEL 9
REMARK VINA RESULT:    -5.400      4.302      5.280
REMARK INTER + INTRA:          -5.790
REMARK INTER:                  -5.736
REMARK INTRA:                  -0.054
REMARK UNBOUND:                -0.075
ROOT
ATOM      1  C4  34D L   1       5.240   0.169   2.820  1.00  0.00    +0.0156  A
ATOM      2  C5  34D L   1       4.467  -0.962   2.503  1.00  0.00    -0.0513  A
ATOM      3  C6  34D L   1       4.853  -2.239   2.928  1.00  0.00    -0.0415  A
ATOM      4  C7  34D L   1       6.022  -2.416   3.670  1.00  0.00    +0.0593  A
ATOM      5 CL8  34D L   1       6.440  -4.018   4.152  1.00  0.00    -0.0820 Cl
ATOM      6  C9  34D L   1       6.808  -1.306   3.985  1.00  0.00    +0.0597  A
ATOM      7 CL10 34D L   1       8.275  -1.431   4.885  1.00  0.00    -0.0820 Cl
ATOM      8 C11  34D L   1       6.419  -0.024   3.560  1.00  0.00    -0.0330  A
ATOM      9 H18  34D L   1       3.545  -0.874   1.926  1.00  0.00    +0.0623  H
ATOM     10 H19  34D L   1       4.234  -3.100   2.676  1.00  0.00    +0.0633  H
ATOM     11 H20  34D L   1       7.060   0.813   3.832  1.00  0.00    +0.0637  H
ENDROOT
BRANCH 1 13
ATOM     12  C1  34D L   1       5.077   2.701   3.251  1.00  0.00    -0.0031  C
ATOM     13  C2  34D L   1       4.800   1.527   2.314  1.00  0.00    +0.1539  C
ATOM     14  N3  34D L   1       5.439   1.823   1.004  1.00  0.00    -0.1890  N
ATOM     15 H12  34D L   1       6.149   2.891   3.371  1.00  0.00    +0.0292  H
ATOM     16 H13  34D L   1       4.625   3.621   2.862  1.00  0.00    +0.0292  H
ATOM     17 H14  34D L   1       4.652   2.518   4.245  1.00  0.00    +0.0292  H
ATOM     18 H15  34D L   1       3.721   1.505   2.116  1.00  0.00    +0.1051  H
ATOM     19 H16  34D L   1       6.463   1.769   1.063  1.00  0.00    +0.4057 HD
ATOM     20 H17  34D L   1       5.183   2.752   0.647  1.00  0.00    +0.4057 HD
ENDBRANCH 1 13
TORSDOF 1
ENDMDL
MODEL 10
REMARK VINA RESULT:    -5.397      5.661      7.438
REMARK INTER + INTRA:          -5.788
REMARK INTER:                  -5.729
REMARK INTRA:                  -0.058
REMARK UNBOUND:                -0.075
ROOT
ATOM      1  C4  34D L   1       1.001   6.928   0.619  1.00  0.00    +0.0156  A
ATOM      2  C5  34D L   1       0.818   7.065   2.006  1.00  0.00    -0.0513  A
ATOM      3  C6  34D L   1       1.780   6.597   2.908  1.00  0.00    -0.0415  A
ATOM      4  C7  34D L   1       2.942   5.975   2.446  1.00  0.00    +0.0593  A
ATOM      5 CL8  34D L   1       4.079   5.416   3.614  1.00  0.00    -0.0820 Cl
ATOM      6  C9  34D L   1       3.136   5.821   1.072  1.00  0.00    +0.0597  A
ATOM      7 CL10 34D L   1       4.533   5.052   0.412  1.00  0.00    -0.0820 Cl
ATOM      8 C11  34D L   1       2.170   6.292   0.167  1.00  0.00    -0.0330  A
ATOM      9 H18  34D L   1      -0.073   7.545   2.414  1.00  0.00    +0.0623  H
ATOM     10 H19  34D L   1       1.620   6.721   3.979  1.00  0.00    +0.0633  H
ATOM     11 H20  34D L   1       2.365   6.153  -0.895  1.00  0.00    +0.0637  H
ENDROOT
BRANCH 1 13
ATOM     12  C1  34D L   1       0.303   8.608  -1.203  1.00  0.00    -0.0031  C
ATOM     13  C2  34D L   1      -0.081   7.423  -0.320  1.00  0.00    +0.1539  C
ATOM     14  N3  34D L   1      -0.541   6.319  -1.205  1.00  0.00    -0.1890  N
ATOM     15 H12  34D L   1       1.074   8.346  -1.936  1.00  0.00    +0.0292  H
ATOM     16 H13  34D L   1      -0.567   8.972  -1.761  1.00  0.00    +0.0292  H
ATOM     17 H14  34D L   1       0.680   9.441  -0.598  1.00  0.00    +0.0292  H
ATOM     18 H15  34D L   1      -0.961   7.713   0.267  1.00  0.00    +0.1051  H
ATOM     19 H16  34D L   1       0.240   5.908  -1.732  1.00  0.00    +0.4057 HD
ATOM     20 H17  34D L   1      -1.256   6.630  -1.875  1.00  0.00    +0.4057 HD
ENDBRANCH 1 13
TORSDOF 1
ENDMDL
MODEL 11
REMARK VINA RESULT:    -5.396      4.321      5.198
REMARK INTER + INTRA:          -5.786
REMARK INTER:                  -5.705
REMARK INTRA:                  -0.082
REMARK UNBOUND:                -0.075
ROOT
ATOM      1  C4  34D L   1       6.198   3.517   0.080  1.00  0.00    +0.0156  A
ATOM      2  C5  34D L   1       5.226   4.508   0.301  1.00  0.00    -0.0513  A
ATOM      3  C6  34D L   1       4.518   4.565   1.507  1.00  0.00    -0.0415  A
ATOM      4  C7  34D L   1       4.759   3.631   2.516  1.00  0.00    +0.0593  A
ATOM      5 CL8  34D L   1       3.844   3.757   3.971  1.00  0.00    -0.0820 Cl
ATOM      6  C9  34D L   1       5.714   2.633   2.311  1.00  0.00    +0.0597  A
ATOM      7 CL10 34D L   1       6.067   1.428   3.495  1.00  0.00    -0.0820 Cl
ATOM      8 C11  34D L   1       6.425   2.576   1.100  1.00  0.00    -0.0330  A
ATOM      9 H18  34D L   1       5.003   5.260  -0.457  1.00  0.00    +0.0623  H
ATOM     10 H19  34D L   1       3.773   5.347   1.658  1.00  0.00    +0.0633  H
ATOM     11 H20  34D L   1       7.163   1.784   0.986  1.00  0.00    +0.0637  H
ENDROOT
BRANCH 1 13
ATOM     12  C1  34D L   1       6.082   3.867  -2.467  1.00  0.00    -0.0031  C
ATOM     13  C2  34D L   1       6.919   3.475  -1.251  1.00  0.00    +0.1539  C
ATOM     14  N3  34D L   1       8.120   4.352  -1.217  1.00  0.00    -0.1890  N
ATOM     15 H12  34D L   1       5.796   4.924  -2.450  1.00  0.00    +0.0292  H
ATOM     16 H13  34D L   1       6.644   3.698  -3.393  1.00  0.00    +0.0292  H
ATOM     17 H14  34D L   1       5.166   3.269  -2.521  1.00  0.00    +0.0292  H
ATOM     18 H15  34D L   1       7.302   2.461  -1.421  1.00  0.00    +0.1051  H
ATOM     19 H16  34D L   1       7.876   5.317  -0.964  1.00  0.00    +0.4057 HD
ATOM     20 H17  34D L   1       8.617   4.368  -2.117  1.00  0.00    +0.4057 HD
ENDBRANCH 1 13
TORSDOF 1
ENDMDL
MODEL 12
REMARK VINA RESULT:    -5.369      4.236      5.589
REMARK INTER + INTRA:          -5.758
REMARK INTER:                  -5.703
REMARK INTRA:                  -0.055
REMARK UNBOUND:                -0.075
ROOT
ATOM      1  C4  34D L   1       5.198  -0.352   3.815  1.00  0.00    +0.0156  A
ATOM      2  C5  34D L   1       6.520  -0.806   3.658  1.00  0.00    -0.0513  A
ATOM      3  C6  34D L   1       6.819  -2.173   3.689  1.00  0.00    -0.0415  A
ATOM      4  C7  34D L   1       5.808  -3.116   3.885  1.00  0.00    +0.0593  A
ATOM      5 CL8  34D L   1       6.251  -4.782   3.919  1.00  0.00    -0.0820 Cl
ATOM      6  C9  34D L   1       4.491  -2.683   4.052  1.00  0.00    +0.0597  A
ATOM      7 CL10 34D L   1       3.181  -3.776   4.314  1.00  0.00    -0.0820 Cl
ATOM      8 C11  34D L   1       4.191  -1.311   4.021  1.00  0.00    -0.0330  A
ATOM      9 H18  34D L   1       7.343  -0.107   3.502  1.00  0.00    +0.0623  H
ATOM     10 H19  34D L   1       7.850  -2.501   3.558  1.00  0.00    +0.0633  H
ATOM     11 H20  34D L   1       3.150  -1.020   4.152  1.00  0.00    +0.0637  H
ENDROOT
BRANCH 1 13
ATOM     12  C1  34D L   1       3.554   1.553   3.274  1.00  0.00    -0.0031  C
ATOM     13  C2  34D L   1       4.924   1.138   3.805  1.00  0.00    +0.1539  C
ATOM     14  N3  34D L   1       5.078   1.701   5.174  1.00  0.00    -0.1890  N
ATOM     15 H12  34D L   1       2.739   1.224   3.928  1.00  0.00    +0.0292  H
ATOM     16 H13  34D L   1       3.486   2.645   3.194  1.00  0.00    +0.0292  H
ATOM     17 H14  34D L   1       3.378   1.136   2.276  1.00  0.00    +0.0292  H
ATOM     18 H15  34D L   1       5.686   1.639   3.195  1.00  0.00    +0.1051  H
ATOM     19 H16  34D L   1       4.469   1.222   5.849  1.00  0.00    +0.4057 HD
ATOM     20 H17  34D L   1       4.870   2.707   5.207  1.00  0.00    +0.4057 HD
ENDBRANCH 1 13
TORSDOF 1
ENDMDL
