MODEL 1
REMARK VINA RESULT:    -5.500      0.000      0.000
REMARK INTER + INTRA:          -5.963
REMARK INTER:                  -5.822
REMARK INTRA:                  -0.141
REMARK UNBOUND:                -0.141
ROOT
ATOM      1  C4  24D L   1       0.515   7.172   0.606  1.00  0.00    +0.0325  A
ATOM      2  C5  24D L   1       1.870   7.104   0.221  1.00  0.00    -0.0500  A
ATOM      3  C6  24D L   1       2.845   6.620   1.098  1.00  0.00    -0.0428  A
ATOM      4  C7  24D L   1       2.483   6.191   2.372  1.00  0.00    +0.0424  A
ATOM      5 CL8  24D L   1       3.684   5.599   3.447  1.00  0.00    -0.0835 Cl
ATOM      6  C9  24D L   1       1.154   6.240   2.776  1.00  0.00    -0.0246  A
ATOM      7 C10  24D L   1       0.176   6.724   1.899  1.00  0.00    +0.0513  A
ATOM      8 CL11 24D L   1      -1.448   6.758   2.487  1.00  0.00    -0.0830 Cl
ATOM      9 H18  24D L   1       2.195   7.414  -0.772  1.00  0.00    +0.0623  H
ATOM     10 H19  24D L   1       3.887   6.573   0.782  1.00  0.00    +0.0632  H
ATOM     11 H20  24D L   1       0.882   5.898   3.773  1.00  0.00    +0.0647  H
ENDROOT
BRANCH 1 13
ATOM     12  C1  24D L   1      -0.027   8.962  -1.109  1.00  0.00    -0.0030  C
ATOM     13  C2  24D L   1      -0.488   7.689  -0.405  1.00  0.00    +0.1552  C
ATOM     14  N3  24D L   1      -0.869   6.688  -1.437  1.00  0.00    -0.1890  N
ATOM     15 H12  24D L   1       0.869   8.804  -1.718  1.00  0.00    +0.0292  H
ATOM     16 H13  24D L   1      -0.811   9.348  -1.768  1.00  0.00    +0.0292  H
ATOM     17 H14  24D L   1       0.208   9.744  -0.378  1.00  0.00    +0.0292  H
ATOM     18 H15  24D L   1      -1.431   7.906   0.110  1.00  0.00    +0.1051  H
ATOM     19 H16  24D L   1      -1.120   5.786  -1.015  1.00  0.00    +0.4057 HD
ATOM     20 H17  24D L   1      -1.655   7.006  -2.016  1.00  0.00    +0.4057 HD
ENDBRANCH 1 13
TORSDOF 1
ENDMDL
MODEL 2
REMARK VINA RESULT:    -5.499      6.305      8.175
REMARK INTER + INTRA:          -5.962
REMARK INTER:                  -5.881
REMARK INTRA:                  -0.081
REMARK UNBOUND:                -0.141
ROOT
ATOM      1  C4  24D L   1       4.819   1.311   4.296  1.00  0.00    +0.0325  A
ATOM      2  C5  24D L   1       4.941   2.712   4.409  1.00  0.00    -0.0500  A
ATOM      3  C6  24D L   1       4.166   3.568   3.622  1.00  0.00    -0.0428  A
ATOM      4  C7  24D L   1       3.253   3.042   2.713  1.00  0.00    +0.0424  A
ATOM      5 CL8  24D L   1       2.305   4.098   1.746  1.00  0.00    -0.0835 Cl
ATOM      6  C9  24D L   1       3.107   1.665   2.585  1.00  0.00    -0.0246  A
ATOM      7 C10  24D L   1       3.881   0.805   3.372  1.00  0.00    +0.0513  A
ATOM      8 CL11 24D L   1       3.641  -0.889   3.141  1.00  0.00    -0.0830 Cl
ATOM      9 H18  24D L   1       5.631   3.167   5.120  1.00  0.00    +0.0623  H
ATOM     10 H19  24D L   1       4.272   4.648   3.725  1.00  0.00    +0.0632  H
ATOM     11 H20  24D L   1       2.387   1.265   1.873  1.00  0.00    +0.0647  H
ENDROOT
BRANCH 1 13
ATOM     12  C1  24D L   1       6.750  -0.329   4.436  1.00  0.00    -0.0030  C
ATOM     13  C2  24D L   1       5.678   0.446   5.196  1.00  0.00    +0.1552  C
ATOM     14  N3  24D L   1       6.329   1.196   6.302  1.00  0.00    -0.1890  N
ATOM     15 H12  24D L   1       7.485   0.327   3.961  1.00  0.00    +0.0292  H
ATOM     16 H13  24D L   1       7.293  -1.003   5.108  1.00  0.00    +0.0292  H
ATOM     17 H14  24D L   1       6.298  -0.941   3.647  1.00  0.00    +0.0292  H
ATOM     18 H15  24D L   1       5.035  -0.276   5.713  1.00  0.00    +0.1051  H
ATOM     19 H16  24D L   1       5.659   1.793   6.803  1.00  0.00    +0.4057 HD
ATOM     20 H17  24D L   1       6.779   0.573   6.983  1.00  0.00    +0.4057 HD
ENDBRANCH 1 13
TORSDOF 1
ENDMDL
MODEL 3
REMARK VINA RESULT:    -5.479      6.145      7.733
REMARK INTER + INTRA:          -5.939
REMARK INTER:                  -5.801
REMARK INTRA:                  -0.138
REMARK UNBOUND:                -0.141
ROOT
ATOM      1  C4  24D L   1       5.435   2.100   3.452  1.00  0.00    +0.0325  A
ATOM      2  C5  24D L   1       6.606   1.663   2.800  1.00  0.00    -0.0500  A
ATOM      3  C6  24D L   1       6.982   2.191   1.561  1.00  0.00    -0.0428  A
ATOM      4  C7  24D L   1       6.198   3.167   0.955  1.00  0.00    +0.0424  A
ATOM      5 CL8  24D L   1       6.662   3.812  -0.568  1.00  0.00    -0.0835 Cl
ATOM      6  C9  24D L   1       5.041   3.623   1.578  1.00  0.00    -0.0246  A
ATOM      7 C10  24D L   1       4.663   3.097   2.818  1.00  0.00    +0.0513  A
ATOM      8 CL11 24D L   1       3.208   3.714   3.515  1.00  0.00    -0.0830 Cl
ATOM      9 H18  24D L   1       7.258   0.911   3.246  1.00  0.00    +0.0623  H
ATOM     10 H19  24D L   1       7.892   1.841   1.074  1.00  0.00    +0.0632  H
ATOM     11 H20  24D L   1       4.438   4.391   1.097  1.00  0.00    +0.0647  H
ENDROOT
BRANCH 1 13
ATOM     12  C1  24D L   1       4.900  -0.014   4.748  1.00  0.00    -0.0030  C
ATOM     13  C2  24D L   1       5.102   1.497   4.801  1.00  0.00    +0.1552  C
ATOM     14  N3  24D L   1       6.102   1.805   5.858  1.00  0.00    -0.1890  N
ATOM     15 H12  24D L   1       5.810  -0.550   4.463  1.00  0.00    +0.0292  H
ATOM     16 H13  24D L   1       4.581  -0.399   5.722  1.00  0.00    +0.0292  H
ATOM     17 H14  24D L   1       4.125  -0.275   4.018  1.00  0.00    +0.0292  H
ATOM     18 H15  24D L   1       4.178   1.952   5.175  1.00  0.00    +0.1051  H
ATOM     19 H16  24D L   1       6.328   2.806   5.886  1.00  0.00    +0.4057 HD
ATOM     20 H17  24D L   1       5.784   1.517   6.791  1.00  0.00    +0.4057 HD
ENDBRANCH 1 13
TORSDOF 1
ENDMDL
MODEL 4
REMARK VINA RESULT:    -5.466      6.429      7.934
REMARK INTER + INTRA:          -5.926
REMARK INTER:                  -5.768
REMARK INTRA:                  -0.158
REMARK UNBOUND:                -0.141
ROOT
ATOM      1  C4  24D L   1       4.402   1.214   3.067  1.00  0.00    +0.0325  A
ATOM      2  C5  24D L   1       4.087   0.106   2.253  1.00  0.00    -0.0500  A
ATOM      3  C6  24D L   1       4.596  -1.164   2.537  1.00  0.00    -0.0428  A
ATOM      4  C7  24D L   1       5.424  -1.351   3.640  1.00  0.00    +0.0424  A
ATOM      5 CL8  24D L   1       6.050  -2.913   3.984  1.00  0.00    -0.0835 Cl
ATOM      6  C9  24D L   1       5.746  -0.278   4.463  1.00  0.00    -0.0246  A
ATOM      7 C10  24D L   1       5.237   0.995   4.182  1.00  0.00    +0.0513  A
ATOM      8 CL11 24D L   1       5.696   2.271   5.252  1.00  0.00    -0.0830 Cl
ATOM      9 H18  24D L   1       3.430   0.204   1.389  1.00  0.00    +0.0623  H
ATOM     10 H19  24D L   1       4.340  -2.009   1.898  1.00  0.00    +0.0632  H
ATOM     11 H20  24D L   1       6.391  -0.437   5.326  1.00  0.00    +0.0647  H
ENDROOT
BRANCH 1 13
ATOM     12  C1  24D L   1       4.741   3.442   1.901  1.00  0.00    -0.0030  C
ATOM     13  C2  24D L   1       3.797   2.557   2.708  1.00  0.00    +0.1552  C
ATOM     14  N3  24D L   1       2.504   2.455   1.981  1.00  0.00    -0.1890  N
ATOM     15 H12  24D L   1       4.980   3.017   0.921  1.00  0.00    +0.0292  H
ATOM     16 H13  24D L   1       4.300   4.431   1.734  1.00  0.00    +0.0292  H
ATOM     17 H14  24D L   1       5.687   3.587   2.435  1.00  0.00    +0.0292  H
ATOM     18 H15  24D L   1       3.537   3.086   3.631  1.00  0.00    +0.1051  H
ATOM     19 H16  24D L   1       1.855   1.810   2.449  1.00  0.00    +0.4057 HD
ATOM     20 H17  24D L   1       2.040   3.366   1.883  1.00  0.00    +0.4057 HD
ENDBRANCH 1 13
TORSDOF 1
ENDMDL
MODEL 5
REMARK VINA RESULT:    -5.459      4.323      6.300
REMARK INTER + INTRA:          -5.919
REMARK INTER:                  -5.771
REMARK INTRA:                  -0.148
REMARK UNBOUND:                -0.141
ROOT
ATOM      1  C4  24D L   1       5.025   3.422   2.022  1.00  0.00    +0.0325  A
ATOM      2  C5  24D L   1       4.603   3.563   3.361  1.00  0.00    -0.0500  A
ATOM      3  C6  24D L   1       3.882   4.686   3.775  1.00  0.00    -0.0428  A
ATOM      4  C7  24D L   1       3.566   5.685   2.859  1.00  0.00    +0.0424  A
ATOM      5 CL8  24D L   1       2.681   7.065   3.373  1.00  0.00    -0.0835 Cl
ATOM      6  C9  24D L   1       3.962   5.570   1.532  1.00  0.00    -0.0246  A
ATOM      7 C10  24D L   1       4.684   4.446   1.115  1.00  0.00    +0.0513  A
ATOM      8 CL11 24D L   1       5.144   4.390  -0.549  1.00  0.00    -0.0830 Cl
ATOM      9 H18  24D L   1       4.815   2.796   4.107  1.00  0.00    +0.0623  H
ATOM     10 H19  24D L   1       3.562   4.776   4.813  1.00  0.00    +0.0632  H
ATOM     11 H20  24D L   1       3.705   6.356   0.824  1.00  0.00    +0.0647  H
ENDROOT
BRANCH 1 13
ATOM     12  C1  24D L   1       6.648   1.624   2.778  1.00  0.00    -0.0030  C
ATOM     13  C2  24D L   1       5.785   2.167   1.643  1.00  0.00    +0.1552  C
ATOM     14  N3  24D L   1       4.917   1.070   1.140  1.00  0.00    -0.1890  N
ATOM     15 H12  24D L   1       6.054   1.294   3.636  1.00  0.00    +0.0292  H
ATOM     16 H13  24D L   1       7.243   0.769   2.439  1.00  0.00    +0.0292  H
ATOM     17 H14  24D L   1       7.344   2.391   3.136  1.00  0.00    +0.0292  H
ATOM     18 H15  24D L   1       6.440   2.393   0.794  1.00  0.00    +0.1051  H
ATOM     19 H16  24D L   1       4.264   1.403   0.420  1.00  0.00    +0.4057 HD
ATOM     20 H17  24D L   1       5.461   0.292   0.749  1.00  0.00    +0.4057 HD
ENDBRANCH 1 13
TORSDOF 1
ENDMDL
MODEL 6
REMARK VINA RESULT:    -5.456      9.862     11.102
REMARK INTER + INTRA:          -5.915
REMARK INTER:                  -5.760
REMARK INTRA:                  -0.155
REMARK UNBOUND:                -0.141
ROOT
ATOM      1  C4  24D L   1       4.618  -2.324   3.764  1.00  0.00    +0.0325  A
ATOM      2  C5  24D L   1       5.987  -2.486   3.464  1.00  0.00    -0.0500  A
ATOM      3  C6  24D L   1       6.654  -3.678   3.758  1.00  0.00    -0.0428  A
ATOM      4  C7  24D L   1       5.966  -4.731   4.354  1.00  0.00    +0.0424  A
ATOM      5 CL8  24D L   1       6.791  -6.193   4.717  1.00  0.00    -0.0835 Cl
ATOM      6  C9  24D L   1       4.615  -4.603   4.655  1.00  0.00    -0.0246  A
ATOM      7 C10  24D L   1       3.944  -3.410   4.360  1.00  0.00    +0.0513  A
ATOM      8 CL11 24D L   1       2.270  -3.336   4.776  1.00  0.00    -0.0830 Cl
ATOM      9 H18  24D L   1       6.560  -1.692   2.983  1.00  0.00    +0.0623  H
ATOM     10 H19  24D L   1       7.712  -3.784   3.517  1.00  0.00    +0.0632  H
ATOM     11 H20  24D L   1       4.086  -5.435   5.116  1.00  0.00    +0.0647  H
ENDROOT
BRANCH 1 13
ATOM     12  C1  24D L   1       4.078   0.046   4.490  1.00  0.00    -0.0030  C
ATOM     13  C2  24D L   1       3.958  -1.011   3.397  1.00  0.00    +0.1552  C
ATOM     14  N3  24D L   1       4.449  -0.430   2.119  1.00  0.00    -0.1890  N
ATOM     15 H12  24D L   1       5.115   0.342   4.676  1.00  0.00    +0.0292  H
ATOM     16 H13  24D L   1       3.519   0.948   4.222  1.00  0.00    +0.0292  H
ATOM     17 H14  24D L   1       3.670  -0.328   5.436  1.00  0.00    +0.0292  H
ATOM     18 H15  24D L   1       2.893  -1.190   3.210  1.00  0.00    +0.1051  H
ATOM     19 H16  24D L   1       4.456  -1.126   1.364  1.00  0.00    +0.4057 HD
ATOM     20 H17  24D L   1       3.887   0.373   1.815  1.00  0.00    +0.4057 HD
ENDBRANCH 1 13
TORSDOF 1
ENDMDL
MODEL 7
REMARK VINA RESULT:    -5.449      4.153      6.024
REMARK INTER + INTRA:          -5.908
REMARK INTER:                  -5.801
REMARK INTRA:                  -0.107
REMARK UNBOUND:                -0.141
ROOT
ATOM      1  C4  24D L   1       4.769   3.367   2.072  1.00  0.00    +0.0325  A
ATOM      2  C5  24D L   1       4.271   4.259   1.100  1.00  0.00    -0.0500  A
ATOM      3  C6  24D L   1       3.610   5.434   1.471  1.00  0.00    -0.0428  A
ATOM      4  C7  24D L   1       3.441   5.741   2.818  1.00  0.00    +0.0424  A
ATOM      5 CL8  24D L   1       2.626   7.184   3.269  1.00  0.00    -0.0835 Cl
ATOM      6  C9  24D L   1       3.927   4.883   3.798  1.00  0.00    -0.0246  A
ATOM      7 C10  24D L   1       4.589   3.707   3.429  1.00  0.00    +0.0513  A
ATOM      8 CL11 24D L   1       5.153   2.696   4.712  1.00  0.00    -0.0830 Cl
ATOM      9 H18  24D L   1       4.396   4.066   0.034  1.00  0.00    +0.0623  H
ATOM     10 H19  24D L   1       3.234   6.112   0.705  1.00  0.00    +0.0632  H
ATOM     11 H20  24D L   1       3.793   5.135   4.848  1.00  0.00    +0.0647  H
ENDROOT
BRANCH 1 13
ATOM     12  C1  24D L   1       4.691   0.844   1.817  1.00  0.00    -0.0030  C
ATOM     13  C2  24D L   1       5.491   2.124   1.595  1.00  0.00    +0.1552  C
ATOM     14  N3  24D L   1       5.906   2.183   0.168  1.00  0.00    -0.1890  N
ATOM     15 H12  24D L   1       3.765   0.822   1.234  1.00  0.00    +0.0292  H
ATOM     16 H13  24D L   1       5.279  -0.036   1.536  1.00  0.00    +0.0292  H
ATOM     17 H14  24D L   1       4.417   0.737   2.872  1.00  0.00    +0.0292  H
ATOM     18 H15  24D L   1       6.439   2.033   2.139  1.00  0.00    +0.1051  H
ATOM     19 H16  24D L   1       6.389   3.063  -0.050  1.00  0.00    +0.4057 HD
ATOM     20 H17  24D L   1       6.521   1.403  -0.091  1.00  0.00    +0.4057 HD
ENDBRANCH 1 13
TORSDOF 1
ENDMDL
MODEL 8
REMARK VINA RESULT:    -5.431      2.516      3.536
REMARK INTER + INTRA:          -5.889
REMARK INTER:                  -5.735
REMARK INTRA:                  -0.154
REMARK UNBOUND:                -0.141
ROOT
ATOM      1  C4  24D L   1       1.937   4.965   2.196  1.00  0.00    +0.0325  A
ATOM      2  C5  24D L   1       2.106   3.625   1.787  1.00  0.00    -0.0500  A
ATOM      3  C6  24D L   1       3.233   2.892   2.168  1.00  0.00    -0.0428  A
ATOM      4  C7  24D L   1       4.209   3.481   2.966  1.00  0.00    +0.0424  A
ATOM      5 CL8  24D L   1       5.594   2.577   3.428  1.00  0.00    -0.0835 Cl
ATOM      6  C9  24D L   1       4.067   4.797   3.389  1.00  0.00    -0.0246  A
ATOM      7 C10  24D L   1       2.938   5.534   3.010  1.00  0.00    +0.0513  A
ATOM      8 CL11 24D L   1       2.848   7.164   3.574  1.00  0.00    -0.0830 Cl
ATOM      9 H18  24D L   1       1.358   3.120   1.175  1.00  0.00    +0.0623  H
ATOM     10 H19  24D L   1       3.344   1.857   1.844  1.00  0.00    +0.0632  H
ATOM     11 H20  24D L   1       4.834   5.246   4.017  1.00  0.00    +0.0647  H
ENDROOT
BRANCH 1 13
ATOM     12  C1  24D L   1       0.803   6.326   0.381  1.00  0.00    -0.0030  C
ATOM     13  C2  24D L   1       0.680   5.690   1.762  1.00  0.00    +0.1552  C
ATOM     14  N3  24D L   1      -0.540   4.840   1.786  1.00  0.00    -0.1890  N
ATOM     15 H12  24D L   1       0.939   5.585  -0.413  1.00  0.00    +0.0292  H
ATOM     16 H13  24D L   1      -0.093   6.909   0.139  1.00  0.00    +0.0292  H
ATOM     17 H14  24D L   1       1.661   7.007   0.343  1.00  0.00    +0.0292  H
ATOM     18 H15  24D L   1       0.460   6.483   2.485  1.00  0.00    +0.1051  H
ATOM     19 H16  24D L   1      -0.630   4.331   2.673  1.00  0.00    +0.4057 HD
ATOM     20 H17  24D L   1      -1.397   5.385   1.636  1.00  0.00    +0.4057 HD
ENDBRANCH 1 13
TORSDOF 1
ENDMDL
MODEL 9
REMARK VINA RESULT:    -5.307      6.412      8.313
REMARK INTER + INTRA:          -5.758
REMARK INTER:                  -5.607
REMARK INTRA:                  -0.150
REMARK UNBOUND:                -0.141
ROOT
ATOM      1  C4  24D L   1       4.366   0.206   3.608  1.00  0.00    +0.0325  A
ATOM      2  C5  24D L   1       3.469   0.840   2.722  1.00  0.00    -0.0500  A
ATOM      3  C6  24D L   1       3.294   2.227   2.744  1.00  0.00    -0.0428  A
ATOM      4  C7  24D L   1       4.014   3.004   3.646  1.00  0.00    +0.0424  A
ATOM      5 CL8  24D L   1       3.793   4.708   3.671  1.00  0.00    -0.0835 Cl
ATOM      6  C9  24D L   1       4.909   2.408   4.526  1.00  0.00    -0.0246  A
ATOM      7 C10  24D L   1       5.087   1.020   4.506  1.00  0.00    +0.0513  A
ATOM      8 CL11 24D L   1       6.212   0.363   5.640  1.00  0.00    -0.0830 Cl
ATOM      9 H18  24D L   1       2.898   0.271   1.988  1.00  0.00    +0.0623  H
ATOM     10 H19  24D L   1       2.599   2.698   2.050  1.00  0.00    +0.0632  H
ATOM     11 H20  24D L   1       5.470   3.026   5.225  1.00  0.00    +0.0647  H
ENDROOT
BRANCH 1 13
ATOM     12  C1  24D L   1       3.414  -2.059   4.242  1.00  0.00    -0.0030  C
ATOM     13  C2  24D L   1       4.517  -1.298   3.512  1.00  0.00    +0.1552  C
ATOM     14  N3  24D L   1       4.600  -1.804   2.117  1.00  0.00    -0.1890  N
ATOM     15 H12  24D L   1       2.426  -1.889   3.802  1.00  0.00    +0.0292  H
ATOM     16 H13  24D L   1       3.605  -3.137   4.219  1.00  0.00    +0.0292  H
ATOM     17 H14  24D L   1       3.363  -1.753   5.292  1.00  0.00    +0.0292  H
ATOM     18 H15  24D L   1       5.479  -1.586   3.952  1.00  0.00    +0.1051  H
ATOM     19 H16  24D L   1       5.282  -1.274   1.560  1.00  0.00    +0.4057 HD
ATOM     20 H17  24D L   1       4.853  -2.799   2.077  1.00  0.00    +0.4057 HD
ENDBRANCH 1 13
TORSDOF 1
ENDMDL
MODEL 10
REMARK VINA RESULT:    -5.266      2.640      4.700
REMARK INTER + INTRA:          -5.714
REMARK INTER:                  -5.572
REMARK INTRA:                  -0.142
REMARK UNBOUND:                -0.141
ROOT
ATOM      1  C4  24D L   1       1.987   5.294   1.260  1.00  0.00    +0.0325  A
ATOM      2  C5  24D L   1       0.700   5.541   1.782  1.00  0.00    -0.0500  A
ATOM      3  C6  24D L   1      -0.077   6.603   1.313  1.00  0.00    -0.0428  A
ATOM      4  C7  24D L   1       0.415   7.436   0.312  1.00  0.00    +0.0424  A
ATOM      5 CL8  24D L   1      -0.542   8.742  -0.260  1.00  0.00    -0.0835 Cl
ATOM      6  C9  24D L   1       1.678   7.213  -0.226  1.00  0.00    -0.0246  A
ATOM      7 C10  24D L   1       2.457   6.149   0.241  1.00  0.00    +0.0513  A
ATOM      8 CL11 24D L   1       4.016   5.952  -0.477  1.00  0.00    -0.0830 Cl
ATOM      9 H18  24D L   1       0.270   4.904   2.555  1.00  0.00    +0.0623  H
ATOM     10 H19  24D L   1      -1.070   6.776   1.727  1.00  0.00    +0.0632  H
ATOM     11 H20  24D L   1       2.050   7.868  -1.012  1.00  0.00    +0.0647  H
ENDROOT
BRANCH 1 13
ATOM     12  C1  24D L   1       3.195   4.296   3.255  1.00  0.00    -0.0030  C
ATOM     13  C2  24D L   1       2.763   4.112   1.804  1.00  0.00    +0.1552  C
ATOM     14  N3  24D L   1       2.042   2.817   1.683  1.00  0.00    -0.1890  N
ATOM     15 H12  24D L   1       2.345   4.361   3.941  1.00  0.00    +0.0292  H
ATOM     16 H13  24D L   1       3.821   3.459   3.583  1.00  0.00    +0.0292  H
ATOM     17 H14  24D L   1       3.781   5.214   3.371  1.00  0.00    +0.0292  H
ATOM     18 H15  24D L   1       3.663   3.968   1.195  1.00  0.00    +0.1051  H
ATOM     19 H16  24D L   1       1.667   2.678   0.737  1.00  0.00    +0.4057 HD
ATOM     20 H17  24D L   1       2.640   2.015   1.916  1.00  0.00    +0.4057 HD
ENDBRANCH 1 13
TORSDOF 1
ENDMDL
MODEL 11
REMARK VINA RESULT:    -5.247      2.837      3.743
REMARK INTER + INTRA:          -5.694
REMARK INTER:                  -5.556
REMARK INTRA:                  -0.139
REMARK UNBOUND:                -0.141
ROOT
ATOM      1  C4  24D L   1       2.165   5.356   1.813  1.00  0.00    +0.0325  A
ATOM      2  C5  24D L   1       2.322   6.027   0.582  1.00  0.00    -0.0500  A
ATOM      3  C6  24D L   1       3.514   5.935  -0.142  1.00  0.00    -0.0428  A
ATOM      4  C7  24D L   1       4.567   5.168   0.347  1.00  0.00    +0.0424  A
ATOM      5 CL8  24D L   1       6.031   5.059  -0.545  1.00  0.00    -0.0835 Cl
ATOM      6  C9  24D L   1       4.438   4.489   1.554  1.00  0.00    -0.0246  A
ATOM      7 C10  24D L   1       3.246   4.580   2.281  1.00  0.00    +0.0513  A
ATOM      8 CL11 24D L   1       3.176   3.712   3.773  1.00  0.00    -0.0830 Cl
ATOM      9 H18  24D L   1       1.517   6.626   0.155  1.00  0.00    +0.0623  H
ATOM     10 H19  24D L   1       3.616   6.459  -1.092  1.00  0.00    +0.0632  H
ATOM     11 H20  24D L   1       5.267   3.888   1.924  1.00  0.00    +0.0647  H
ENDROOT
BRANCH 1 13
ATOM     12  C1  24D L   1       0.512   6.922   2.931  1.00  0.00    -0.0030  C
ATOM     13  C2  24D L   1       0.837   5.486   2.532  1.00  0.00    +0.1552  C
ATOM     14  N3  24D L   1      -0.313   4.933   1.769  1.00  0.00    -0.1890  N
ATOM     15 H12  24D L   1       0.382   7.579   2.065  1.00  0.00    +0.0292  H
ATOM     16 H13  24D L   1      -0.412   6.963   3.518  1.00  0.00    +0.0292  H
ATOM     17 H14  24D L   1       1.314   7.345   3.545  1.00  0.00    +0.0292  H
ATOM     18 H15  24D L   1       0.866   4.876   3.442  1.00  0.00    +0.1051  H
ATOM     19 H16  24D L   1      -0.115   3.989   1.415  1.00  0.00    +0.4057 HD
ATOM     20 H17  24D L   1      -1.171   4.894   2.332  1.00  0.00    +0.4057 HD
ENDBRANCH 1 13
TORSDOF 1
ENDMDL
MODEL 12
REMARK VINA RESULT:    -5.239      4.951      6.109
REMARK INTER + INTRA:          -5.686
REMARK INTER:                  -5.553
REMARK INTRA:                  -0.133
REMARK UNBOUND:                -0.141
ROOT
ATOM      1  C4  24D L   1       5.202   3.472   1.984  1.00  0.00    +0.0325  A
ATOM      2  C5  24D L   1       5.879   2.251   1.784  1.00  0.00    -0.0500  A
ATOM      3  C6  24D L   1       6.064   1.349   2.836  1.00  0.00    -0.0428  A
ATOM      4  C7  24D L   1       5.575   1.649   4.103  1.00  0.00    +0.0424  A
ATOM      5 CL8  24D L   1       5.807   0.539   5.394  1.00  0.00    -0.0835 Cl
ATOM      6  C9  24D L   1       4.898   2.842   4.329  1.00  0.00    -0.0246  A
ATOM      7 C10  24D L   1       4.710   3.746   3.277  1.00  0.00    +0.0513  A
ATOM      8 CL11 24D L   1       3.866   5.207   3.649  1.00  0.00    -0.0830 Cl
ATOM      9 H18  24D L   1       6.264   1.969   0.804  1.00  0.00    +0.0623  H
ATOM     10 H19  24D L   1       6.588   0.409   2.661  1.00  0.00    +0.0632  H
ATOM     11 H20  24D L   1       4.515   3.064   5.323  1.00  0.00    +0.0647  H
ENDROOT
BRANCH 1 13
ATOM     12  C1  24D L   1       5.967   4.068  -0.360  1.00  0.00    -0.0030  C
ATOM     13  C2  24D L   1       5.021   4.390   0.793  1.00  0.00    +0.1552  C
ATOM     14  N3  24D L   1       3.630   4.425   0.270  1.00  0.00    -0.1890  N
ATOM     15 H12  24D L   1       5.783   3.079  -0.790  1.00  0.00    +0.0292  H
ATOM     16 H13  24D L   1       5.862   4.803  -1.166  1.00  0.00    +0.0292  H
ATOM     17 H14  24D L   1       7.009   4.091  -0.023  1.00  0.00    +0.0292  H
ATOM     18 H15  24D L   1       5.207   5.423   1.109  1.00  0.00    +0.1051  H
ATOM     19 H16  24D L   1       2.945   4.568   1.022  1.00  0.00    +0.4057 HD
ATOM     20 H17  24D L   1       3.497   5.161  -0.434  1.00  0.00    +0.4057 HD
ENDBRANCH 1 13
TORSDOF 1
ENDMDL
