MODEL 1
REMARK VINA RESULT:    -5.990      0.000      0.000
REMARK INTER + INTRA:          -5.990
REMARK INTER:                  -5.990
REMARK INTRA:                   0.000
REMARK UNBOUND:                 0.000
ROOT
ATOM      1 CL1  SKF L   1       5.748   3.671   0.060  1.00  0.00    -0.0831 Cl
ATOM      2  C2  SKF L   1       5.193   3.676   1.695  1.00  0.00    +0.0498  A
ATOM      3  C3  SKF L   1       4.341   4.707   2.093  1.00  0.00    -0.0429  A
ATOM      4  C4  SKF L   1       3.857   4.744   3.398  1.00  0.00    -0.0601  A
ATOM      5  C5  SKF L   1       4.212   3.747   4.304  1.00  0.00    -0.0579  A
ATOM      6  C6  SKF L   1       5.058   2.698   3.913  1.00  0.00    -0.0321  A
ATOM      7  C7  SKF L   1       5.433   1.644   4.929  1.00  0.00    +0.0227  C
ATOM      8  C8  SKF L   1       5.985   0.376   4.286  1.00  0.00    +0.0823  C
ATOM      9  N9  SKF L   1       7.033   0.747   3.292  1.00  0.00    -0.3450  N
ATOM     10 C10  SKF L   1       6.480   1.550   2.155  1.00  0.00    +0.1054  C
ATOM     11 C11  SKF L   1       5.577   2.669   2.599  1.00  0.00    +0.0285  A
ATOM     12 H12  SKF L   1       4.048   5.487   1.392  1.00  0.00    +0.0632  H
ATOM     13 H13  SKF L   1       3.195   5.552   3.708  1.00  0.00    +0.0618  H
ATOM     14 H14  SKF L   1       3.818   3.796   5.319  1.00  0.00    +0.0620  H
ATOM     15 H15  SKF L   1       4.559   1.380   5.536  1.00  0.00    +0.0368  H
ATOM     16 H16  SKF L   1       6.188   2.074   5.600  1.00  0.00    +0.0368  H
ATOM     17 H17  SKF L   1       5.214  -0.189   3.751  1.00  0.00    +0.0919  H
ATOM     18 H18  SKF L   1       6.457  -0.275   5.028  1.00  0.00    +0.0919  H
ATOM     19 H19  SKF L   1       7.490  -0.095   2.918  1.00  0.00    +0.3469 HD
ATOM     20 H20  SKF L   1       7.770   1.298   3.751  1.00  0.00    +0.3469 HD
ATOM     21 H21  SKF L   1       7.359   1.928   1.622  1.00  0.00    +0.0970  H
ATOM     22 H22  SKF L   1       5.932   0.850   1.518  1.00  0.00    +0.0970  H
ENDROOT
TORSDOF 0
ENDMDL
MODEL 2
REMARK VINA RESULT:    -5.694      2.288      3.485
REMARK INTER + INTRA:          -5.694
REMARK INTER:                  -5.694
REMARK INTRA:                   0.000
REMARK UNBOUND:                 0.000
ROOT
ATOM      1 CL1  SKF L   1       5.134   1.879   4.432  1.00  0.00    -0.0831 Cl
ATOM      2  C2  SKF L   1       4.693   3.227   3.446  1.00  0.00    +0.0498  A
ATOM      3  C3  SKF L   1       3.950   4.251   4.032  1.00  0.00    -0.0429  A
ATOM      4  C4  SKF L   1       3.584   5.364   3.280  1.00  0.00    -0.0601  A
ATOM      5  C5  SKF L   1       3.969   5.461   1.944  1.00  0.00    -0.0579  A
ATOM      6  C6  SKF L   1       4.727   4.445   1.346  1.00  0.00    -0.0321  A
ATOM      7  C7  SKF L   1       5.111   4.580  -0.110  1.00  0.00    +0.0227  C
ATOM      8  C8  SKF L   1       6.256   3.652  -0.506  1.00  0.00    +0.0823  C
ATOM      9  N9  SKF L   1       5.958   2.273  -0.019  1.00  0.00    -0.3450  N
ATOM     10 C10  SKF L   1       5.896   2.198   1.475  1.00  0.00    +0.1054  C
ATOM     11 C11  SKF L   1       5.077   3.298   2.094  1.00  0.00    +0.0285  A
ATOM     12 H12  SKF L   1       3.651   4.192   5.078  1.00  0.00    +0.0632  H
ATOM     13 H13  SKF L   1       3.000   6.161   3.739  1.00  0.00    +0.0618  H
ATOM     14 H14  SKF L   1       3.672   6.343   1.377  1.00  0.00    +0.0620  H
ATOM     15 H15  SKF L   1       5.405   5.614  -0.326  1.00  0.00    +0.0368  H
ATOM     16 H16  SKF L   1       4.226   4.351  -0.717  1.00  0.00    +0.0368  H
ATOM     17 H17  SKF L   1       7.210   3.955  -0.062  1.00  0.00    +0.0919  H
ATOM     18 H18  SKF L   1       6.366   3.596  -1.593  1.00  0.00    +0.0919  H
ATOM     19 H19  SKF L   1       6.666   1.610  -0.360  1.00  0.00    +0.3469 HD
ATOM     20 H20  SKF L   1       5.057   1.957  -0.399  1.00  0.00    +0.3469 HD
ATOM     21 H21  SKF L   1       5.475   1.211   1.691  1.00  0.00    +0.0970  H
ATOM     22 H22  SKF L   1       6.929   2.247   1.832  1.00  0.00    +0.0970  H
ENDROOT
TORSDOF 0
ENDMDL
MODEL 3
REMARK VINA RESULT:    -5.603      2.701      4.097
REMARK INTER + INTRA:          -5.603
REMARK INTER:                  -5.603
REMARK INTRA:                   0.000
REMARK UNBOUND:                 0.000
ROOT
ATOM      1 CL1  SKF L   1       4.373  -1.469   2.859  1.00  0.00    -0.0831 Cl
ATOM      2  C2  SKF L   1       4.763  -0.018   3.711  1.00  0.00    +0.0498  A
ATOM      3  C3  SKF L   1       5.679  -0.103   4.760  1.00  0.00    -0.0429  A
ATOM      4  C4  SKF L   1       6.035   1.043   5.467  1.00  0.00    -0.0601  A
ATOM      5  C5  SKF L   1       5.486   2.276   5.120  1.00  0.00    -0.0579  A
ATOM      6  C6  SKF L   1       4.574   2.377   4.060  1.00  0.00    -0.0321  A
ATOM      7  C7  SKF L   1       3.988   3.729   3.726  1.00  0.00    +0.0227  C
ATOM      8  C8  SKF L   1       3.367   3.775   2.333  1.00  0.00    +0.0823  C
ATOM      9  N9  SKF L   1       2.468   2.597   2.160  1.00  0.00    -0.3450  N
ATOM     10 C10  SKF L   1       3.213   1.299   2.211  1.00  0.00    +0.1054  C
ATOM     11 C11  SKF L   1       4.185   1.214   3.357  1.00  0.00    +0.0285  A
ATOM     12 H12  SKF L   1       6.123  -1.059   5.034  1.00  0.00    +0.0632  H
ATOM     13 H13  SKF L   1       6.747   0.974   6.288  1.00  0.00    +0.0618  H
ATOM     14 H14  SKF L   1       5.782   3.158   5.687  1.00  0.00    +0.0620  H
ATOM     15 H15  SKF L   1       4.765   4.501   3.790  1.00  0.00    +0.0368  H
ATOM     16 H16  SKF L   1       3.223   3.963   4.477  1.00  0.00    +0.0368  H
ATOM     17 H17  SKF L   1       4.121   3.729   1.539  1.00  0.00    +0.0919  H
ATOM     18 H18  SKF L   1       2.757   4.672   2.197  1.00  0.00    +0.0919  H
ATOM     19 H19  SKF L   1       1.961   2.659   1.268  1.00  0.00    +0.3469 HD
ATOM     20 H20  SKF L   1       1.754   2.592   2.900  1.00  0.00    +0.3469 HD
ATOM     21 H21  SKF L   1       2.437   0.530   2.282  1.00  0.00    +0.0970  H
ATOM     22 H22  SKF L   1       3.742   1.207   1.258  1.00  0.00    +0.0970  H
ENDROOT
TORSDOF 0
ENDMDL
MODEL 4
REMARK VINA RESULT:    -5.577      3.782      5.935
REMARK INTER + INTRA:          -5.577
REMARK INTER:                  -5.577
REMARK INTRA:                   0.000
REMARK UNBOUND:                 0.000
ROOT
ATOM      1 CL1  SKF L   1       2.833  -3.435   4.408  1.00  0.00    -0.0831 Cl
ATOM      2  C2  SKF L   1       4.432  -2.850   4.118  1.00  0.00    +0.0498  A
ATOM      3  C3  SKF L   1       5.456  -3.787   3.982  1.00  0.00    -0.0429  A
ATOM      4  C4  SKF L   1       6.759  -3.363   3.734  1.00  0.00    -0.0601  A
ATOM      5  C5  SKF L   1       7.039  -2.004   3.610  1.00  0.00    -0.0579  A
ATOM      6  C6  SKF L   1       6.017  -1.052   3.733  1.00  0.00    -0.0321  A
ATOM      7  C7  SKF L   1       6.365   0.414   3.610  1.00  0.00    +0.0227  C
ATOM      8  C8  SKF L   1       5.144   1.288   3.341  1.00  0.00    +0.0823  C
ATOM      9  N9  SKF L   1       4.068   0.937   4.314  1.00  0.00    -0.3450  N
ATOM     10 C10  SKF L   1       3.583  -0.469   4.144  1.00  0.00    +0.1054  C
ATOM     11 C11  SKF L   1       4.698  -1.473   4.015  1.00  0.00    +0.0285  A
ATOM     12 H12  SKF L   1       5.248  -4.853   4.066  1.00  0.00    +0.0632  H
ATOM     13 H13  SKF L   1       7.558  -4.097   3.631  1.00  0.00    +0.0618  H
ATOM     14 H14  SKF L   1       8.066  -1.697   3.414  1.00  0.00    +0.0620  H
ATOM     15 H15  SKF L   1       7.088   0.561   2.799  1.00  0.00    +0.0368  H
ATOM     16 H16  SKF L   1       6.844   0.729   4.545  1.00  0.00    +0.0368  H
ATOM     17 H17  SKF L   1       4.736   1.137   2.336  1.00  0.00    +0.0919  H
ATOM     18 H18  SKF L   1       5.374   2.349   3.480  1.00  0.00    +0.0919  H
ATOM     19 H19  SKF L   1       3.272   1.581   4.218  1.00  0.00    +0.3469 HD
ATOM     20 H20  SKF L   1       4.417   1.047   5.274  1.00  0.00    +0.3469 HD
ATOM     21 H21  SKF L   1       2.965  -0.664   5.026  1.00  0.00    +0.0970  H
ATOM     22 H22  SKF L   1       2.960  -0.476   3.244  1.00  0.00    +0.0970  H
ENDROOT
TORSDOF 0
ENDMDL
MODEL 5
REMARK VINA RESULT:    -5.532      1.897      2.916
REMARK INTER + INTRA:          -5.532
REMARK INTER:                  -5.532
REMARK INTRA:                   0.000
REMARK UNBOUND:                 0.000
ROOT
ATOM      1 CL1  SKF L   1       3.318   5.719   1.240  1.00  0.00    -0.0831 Cl
ATOM      2  C2  SKF L   1       4.530   4.488   1.253  1.00  0.00    +0.0498  A
ATOM      3  C3  SKF L   1       5.329   4.346   0.119  1.00  0.00    -0.0429  A
ATOM      4  C4  SKF L   1       6.329   3.376   0.090  1.00  0.00    -0.0601  A
ATOM      5  C5  SKF L   1       6.539   2.556   1.196  1.00  0.00    -0.0579  A
ATOM      6  C6  SKF L   1       5.750   2.697   2.347  1.00  0.00    -0.0321  A
ATOM      7  C7  SKF L   1       5.998   1.777   3.520  1.00  0.00    +0.0227  C
ATOM      8  C8  SKF L   1       5.388   2.299   4.818  1.00  0.00    +0.0823  C
ATOM      9  N9  SKF L   1       3.972   2.695   4.568  1.00  0.00    -0.3450  N
ATOM     10 C10  SKF L   1       3.861   3.832   3.601  1.00  0.00    +0.1054  C
ATOM     11 C11  SKF L   1       4.715   3.658   2.374  1.00  0.00    +0.0285  A
ATOM     12 H12  SKF L   1       5.182   4.987  -0.749  1.00  0.00    +0.0632  H
ATOM     13 H13  SKF L   1       6.950   3.264  -0.799  1.00  0.00    +0.0618  H
ATOM     14 H14  SKF L   1       7.328   1.806   1.150  1.00  0.00    +0.0620  H
ATOM     15 H15  SKF L   1       7.076   1.639   3.668  1.00  0.00    +0.0368  H
ATOM     16 H16  SKF L   1       5.567   0.797   3.280  1.00  0.00    +0.0368  H
ATOM     17 H17  SKF L   1       5.911   3.183   5.198  1.00  0.00    +0.0919  H
ATOM     18 H18  SKF L   1       5.378   1.527   5.593  1.00  0.00    +0.0919  H
ATOM     19 H19  SKF L   1       3.510   2.955   5.448  1.00  0.00    +0.3469 HD
ATOM     20 H20  SKF L   1       3.448   1.895   4.190  1.00  0.00    +0.3469 HD
ATOM     21 H21  SKF L   1       2.797   3.886   3.348  1.00  0.00    +0.0970  H
ATOM     22 H22  SKF L   1       4.159   4.733   4.146  1.00  0.00    +0.0970  H
ENDROOT
TORSDOF 0
ENDMDL
MODEL 6
REMARK VINA RESULT:    -5.484      5.326      6.911
REMARK INTER + INTRA:          -5.484
REMARK INTER:                  -5.484
REMARK INTRA:                   0.000
REMARK UNBOUND:                 0.000
ROOT
ATOM      1 CL1  SKF L   1      -2.006   6.591   2.575  1.00  0.00    -0.0831 Cl
ATOM      2  C2  SKF L   1      -0.833   6.928   1.352  1.00  0.00    +0.0498  A
ATOM      3  C3  SKF L   1      -1.237   7.677   0.247  1.00  0.00    -0.0429  A
ATOM      4  C4  SKF L   1      -0.322   7.985  -0.757  1.00  0.00    -0.0601  A
ATOM      5  C5  SKF L   1       0.999   7.556  -0.653  1.00  0.00    -0.0579  A
ATOM      6  C6  SKF L   1       1.421   6.813   0.459  1.00  0.00    -0.0321  A
ATOM      7  C7  SKF L   1       2.859   6.351   0.527  1.00  0.00    +0.0227  C
ATOM      8  C8  SKF L   1       3.281   5.941   1.934  1.00  0.00    +0.0823  C
ATOM      9  N9  SKF L   1       2.256   5.018   2.502  1.00  0.00    -0.3450  N
ATOM     10 C10  SKF L   1       0.924   5.680   2.673  1.00  0.00    +0.1054  C
ATOM     11 C11  SKF L   1       0.492   6.470   1.467  1.00  0.00    +0.0285  A
ATOM     12 H12  SKF L   1      -2.264   8.027   0.159  1.00  0.00    +0.0632  H
ATOM     13 H13  SKF L   1      -0.641   8.567  -1.621  1.00  0.00    +0.0618  H
ATOM     14 H14  SKF L   1       1.697   7.811  -1.450  1.00  0.00    +0.0620  H
ATOM     15 H15  SKF L   1       3.526   7.149   0.178  1.00  0.00    +0.0368  H
ATOM     16 H16  SKF L   1       2.974   5.498  -0.154  1.00  0.00    +0.0368  H
ATOM     17 H17  SKF L   1       3.358   6.798   2.612  1.00  0.00    +0.0919  H
ATOM     18 H18  SKF L   1       4.234   5.404   1.925  1.00  0.00    +0.0919  H
ATOM     19 H19  SKF L   1       2.567   4.649   3.410  1.00  0.00    +0.3469 HD
ATOM     20 H20  SKF L   1       2.138   4.205   1.883  1.00  0.00    +0.3469 HD
ATOM     21 H21  SKF L   1       0.228   4.864   2.891  1.00  0.00    +0.0970  H
ATOM     22 H22  SKF L   1       1.013   6.335   3.545  1.00  0.00    +0.0970  H
ENDROOT
TORSDOF 0
ENDMDL
MODEL 7
REMARK VINA RESULT:    -5.440      2.676      4.249
REMARK INTER + INTRA:          -5.440
REMARK INTER:                  -5.440
REMARK INTRA:                   0.000
REMARK UNBOUND:                 0.000
ROOT
ATOM      1 CL1  SKF L   1       5.205   0.878   4.831  1.00  0.00    -0.0831 Cl
ATOM      2  C2  SKF L   1       5.482   1.784   3.387  1.00  0.00    +0.0498  A
ATOM      3  C3  SKF L   1       6.679   1.574   2.703  1.00  0.00    -0.0429  A
ATOM      4  C4  SKF L   1       6.940   2.272   1.527  1.00  0.00    -0.0601  A
ATOM      5  C5  SKF L   1       6.002   3.172   1.026  1.00  0.00    -0.0579  A
ATOM      6  C6  SKF L   1       4.789   3.383   1.697  1.00  0.00    -0.0321  A
ATOM      7  C7  SKF L   1       3.803   4.380   1.130  1.00  0.00    +0.0227  C
ATOM      8  C8  SKF L   1       2.397   4.204   1.695  1.00  0.00    +0.0823  C
ATOM      9  N9  SKF L   1       2.475   4.114   3.182  1.00  0.00    -0.3450  N
ATOM     10 C10  SKF L   1       3.231   2.906   3.641  1.00  0.00    +0.1054  C
ATOM     11 C11  SKF L   1       4.529   2.701   2.907  1.00  0.00    +0.0285  A
ATOM     12 H12  SKF L   1       7.417   0.867   3.079  1.00  0.00    +0.0632  H
ATOM     13 H13  SKF L   1       7.878   2.110   0.996  1.00  0.00    +0.0618  H
ATOM     14 H14  SKF L   1       6.228   3.704   0.102  1.00  0.00    +0.0620  H
ATOM     15 H15  SKF L   1       3.759   4.284   0.039  1.00  0.00    +0.0368  H
ATOM     16 H16  SKF L   1       4.169   5.388   1.363  1.00  0.00    +0.0368  H
ATOM     17 H17  SKF L   1       1.916   3.286   1.338  1.00  0.00    +0.0919  H
ATOM     18 H18  SKF L   1       1.760   5.060   1.454  1.00  0.00    +0.0919  H
ATOM     19 H19  SKF L   1       1.532   4.096   3.591  1.00  0.00    +0.3469 HD
ATOM     20 H20  SKF L   1       2.939   4.951   3.558  1.00  0.00    +0.3469 HD
ATOM     21 H21  SKF L   1       3.393   3.064   4.712  1.00  0.00    +0.0970  H
ATOM     22 H22  SKF L   1       2.569   2.048   3.488  1.00  0.00    +0.0970  H
ENDROOT
TORSDOF 0
ENDMDL
MODEL 8
REMARK VINA RESULT:    -5.369      5.069      6.528
REMARK INTER + INTRA:          -5.369
REMARK INTER:                  -5.369
REMARK INTRA:                   0.000
REMARK UNBOUND:                 0.000
ROOT
ATOM      1 CL1  SKF L   1       2.071  -3.288   4.808  1.00  0.00    -0.0831 Cl
ATOM      2  C2  SKF L   1       3.598  -2.656   4.304  1.00  0.00    +0.0498  A
ATOM      3  C3  SKF L   1       3.656  -1.317   3.920  1.00  0.00    -0.0429  A
ATOM      4  C4  SKF L   1       4.868  -0.760   3.519  1.00  0.00    -0.0601  A
ATOM      5  C5  SKF L   1       6.025  -1.537   3.514  1.00  0.00    -0.0579  A
ATOM      6  C6  SKF L   1       5.982  -2.881   3.910  1.00  0.00    -0.0321  A
ATOM      7  C7  SKF L   1       7.256  -3.695   3.875  1.00  0.00    +0.0227  C
ATOM      8  C8  SKF L   1       7.164  -4.969   4.709  1.00  0.00    +0.0823  C
ATOM      9  N9  SKF L   1       5.903  -5.688   4.365  1.00  0.00    -0.3450  N
ATOM     10 C10  SKF L   1       4.682  -4.900   4.725  1.00  0.00    +0.1054  C
ATOM     11 C11  SKF L   1       4.751  -3.462   4.289  1.00  0.00    +0.0285  A
ATOM     12 H12  SKF L   1       2.761  -0.696   3.929  1.00  0.00    +0.0632  H
ATOM     13 H13  SKF L   1       4.912   0.285   3.216  1.00  0.00    +0.0618  H
ATOM     14 H14  SKF L   1       6.962  -1.078   3.199  1.00  0.00    +0.0620  H
ATOM     15 H15  SKF L   1       8.096  -3.094   4.242  1.00  0.00    +0.0368  H
ATOM     16 H16  SKF L   1       7.463  -3.954   2.829  1.00  0.00    +0.0368  H
ATOM     17 H17  SKF L   1       7.139  -4.763   5.784  1.00  0.00    +0.0919  H
ATOM     18 H18  SKF L   1       7.994  -5.648   4.492  1.00  0.00    +0.0919  H
ATOM     19 H19  SKF L   1       5.867  -6.600   4.840  1.00  0.00    +0.3469 HD
ATOM     20 H20  SKF L   1       5.877  -5.885   3.357  1.00  0.00    +0.3469 HD
ATOM     21 H21  SKF L   1       3.852  -5.429   4.245  1.00  0.00    +0.0970  H
ATOM     22 H22  SKF L   1       4.582  -4.963   5.813  1.00  0.00    +0.0970  H
ENDROOT
TORSDOF 0
ENDMDL
MODEL 9
REMARK VINA RESULT:    -5.347      6.184      7.557
REMARK INTER + INTRA:          -5.347
REMARK INTER:                  -5.347
REMARK INTRA:                   0.000
REMARK UNBOUND:                 0.000
ROOT
ATOM      1 CL1  SKF L   1       9.904   7.086  -1.200  1.00  0.00    -0.0831 Cl
ATOM      2  C2  SKF L   1       8.595   7.197  -2.321  1.00  0.00    +0.0498  A
ATOM      3  C3  SKF L   1       8.484   8.359  -3.083  1.00  0.00    -0.0429  A
ATOM      4  C4  SKF L   1       7.453   8.488  -4.010  1.00  0.00    -0.0601  A
ATOM      5  C5  SKF L   1       6.539   7.451  -4.186  1.00  0.00    -0.0579  A
ATOM      6  C6  SKF L   1       6.646   6.272  -3.435  1.00  0.00    -0.0321  A
ATOM      7  C7  SKF L   1       5.625   5.177  -3.643  1.00  0.00    +0.0227  C
ATOM      8  C8  SKF L   1       6.088   3.828  -3.100  1.00  0.00    +0.0823  C
ATOM      9  N9  SKF L   1       6.599   4.010  -1.710  1.00  0.00    -0.3450  N
ATOM     10 C10  SKF L   1       7.811   4.887  -1.658  1.00  0.00    +0.1054  C
ATOM     11 C11  SKF L   1       7.672   6.146  -2.471  1.00  0.00    +0.0285  A
ATOM     12 H12  SKF L   1       9.198   9.173  -2.963  1.00  0.00    +0.0632  H
ATOM     13 H13  SKF L   1       7.365   9.398  -4.602  1.00  0.00    +0.0618  H
ATOM     14 H14  SKF L   1       5.742   7.574  -4.919  1.00  0.00    +0.0620  H
ATOM     15 H15  SKF L   1       5.403   5.069  -4.711  1.00  0.00    +0.0368  H
ATOM     16 H16  SKF L   1       4.698   5.477  -3.138  1.00  0.00    +0.0368  H
ATOM     17 H17  SKF L   1       6.903   3.399  -3.693  1.00  0.00    +0.0919  H
ATOM     18 H18  SKF L   1       5.263   3.112  -3.052  1.00  0.00    +0.0919  H
ATOM     19 H19  SKF L   1       6.823   3.100  -1.287  1.00  0.00    +0.3469 HD
ATOM     20 H20  SKF L   1       5.868   4.431  -1.123  1.00  0.00    +0.3469 HD
ATOM     21 H21  SKF L   1       7.957   5.106  -0.596  1.00  0.00    +0.0970  H
ATOM     22 H22  SKF L   1       8.646   4.285  -2.032  1.00  0.00    +0.0970  H
ENDROOT
TORSDOF 0
ENDMDL
MODEL 10
REMARK VINA RESULT:    -5.291      3.677      5.477
REMARK INTER + INTRA:          -5.291
REMARK INTER:                  -5.291
REMARK INTRA:                   0.000
REMARK UNBOUND:                 0.000
ROOT
ATOM      1 CL1  SKF L   1       6.903  -4.015   3.878  1.00  0.00    -0.0831 Cl
ATOM      2  C2  SKF L   1       5.515  -2.995   4.014  1.00  0.00    +0.0498  A
ATOM      3  C3  SKF L   1       4.276  -3.602   4.218  1.00  0.00    -0.0429  A
ATOM      4  C4  SKF L   1       3.131  -2.820   4.348  1.00  0.00    -0.0601  A
ATOM      5  C5  SKF L   1       3.224  -1.431   4.286  1.00  0.00    -0.0579  A
ATOM      6  C6  SKF L   1       4.466  -0.808   4.095  1.00  0.00    -0.0321  A
ATOM      7  C7  SKF L   1       4.522   0.701   4.017  1.00  0.00    +0.0227  C
ATOM      8  C8  SKF L   1       5.930   1.249   4.232  1.00  0.00    +0.0823  C
ATOM      9  N9  SKF L   1       6.884   0.500   3.365  1.00  0.00    -0.3450  N
ATOM     10 C10  SKF L   1       6.972  -0.949   3.732  1.00  0.00    +0.1054  C
ATOM     11 C11  SKF L   1       5.628  -1.595   3.932  1.00  0.00    +0.0285  A
ATOM     12 H12  SKF L   1       4.191  -4.686   4.278  1.00  0.00    +0.0632  H
ATOM     13 H13  SKF L   1       2.164  -3.296   4.503  1.00  0.00    +0.0618  H
ATOM     14 H14  SKF L   1       2.315  -0.840   4.393  1.00  0.00    +0.0620  H
ATOM     15 H15  SKF L   1       3.855   1.140   4.768  1.00  0.00    +0.0368  H
ATOM     16 H16  SKF L   1       4.157   1.003   3.028  1.00  0.00    +0.0368  H
ATOM     17 H17  SKF L   1       6.269   1.132   5.267  1.00  0.00    +0.0919  H
ATOM     18 H18  SKF L   1       5.994   2.304   3.951  1.00  0.00    +0.0919  H
ATOM     19 H19  SKF L   1       7.822   0.918   3.417  1.00  0.00    +0.3469 HD
ATOM     20 H20  SKF L   1       6.590   0.569   2.382  1.00  0.00    +0.3469 HD
ATOM     21 H21  SKF L   1       7.527  -1.416   2.913  1.00  0.00    +0.0970  H
ATOM     22 H22  SKF L   1       7.558  -1.000   4.655  1.00  0.00    +0.0970  H
ENDROOT
TORSDOF 0
ENDMDL
MODEL 11
REMARK VINA RESULT:    -5.133      5.340      6.658
REMARK INTER + INTRA:          -5.133
REMARK INTER:                  -5.133
REMARK INTRA:                   0.000
REMARK UNBOUND:                 0.000
ROOT
ATOM      1 CL1  SKF L   1       5.942  -0.532   3.293  1.00  0.00    -0.0831 Cl
ATOM      2  C2  SKF L   1       5.386  -2.085   3.806  1.00  0.00    +0.0498  A
ATOM      3  C3  SKF L   1       4.019  -2.251   4.025  1.00  0.00    -0.0429  A
ATOM      4  C4  SKF L   1       3.524  -3.490   4.426  1.00  0.00    -0.0601  A
ATOM      5  C5  SKF L   1       4.392  -4.566   4.598  1.00  0.00    -0.0579  A
ATOM      6  C6  SKF L   1       5.767  -4.416   4.370  1.00  0.00    -0.0321  A
ATOM      7  C7  SKF L   1       6.678  -5.603   4.584  1.00  0.00    +0.0227  C
ATOM      8  C8  SKF L   1       8.036  -5.433   3.911  1.00  0.00    +0.0823  C
ATOM      9  N9  SKF L   1       8.592  -4.094   4.263  1.00  0.00    -0.3450  N
ATOM     10 C10  SKF L   1       7.753  -2.972   3.735  1.00  0.00    +0.1054  C
ATOM     11 C11  SKF L   1       6.281  -3.155   3.992  1.00  0.00    +0.0285  A
ATOM     12 H12  SKF L   1       3.329  -1.421   3.884  1.00  0.00    +0.0632  H
ATOM     13 H13  SKF L   1       2.456  -3.617   4.599  1.00  0.00    +0.0618  H
ATOM     14 H14  SKF L   1       3.980  -5.526   4.910  1.00  0.00    +0.0620  H
ATOM     15 H15  SKF L   1       6.205  -6.513   4.196  1.00  0.00    +0.0368  H
ATOM     16 H16  SKF L   1       6.817  -5.734   5.665  1.00  0.00    +0.0368  H
ATOM     17 H17  SKF L   1       7.969  -5.480   2.819  1.00  0.00    +0.0919  H
ATOM     18 H18  SKF L   1       8.751  -6.183   4.260  1.00  0.00    +0.0919  H
ATOM     19 H19  SKF L   1       9.550  -3.995   3.904  1.00  0.00    +0.3469 HD
ATOM     20 H20  SKF L   1       8.653  -4.000   5.285  1.00  0.00    +0.3469 HD
ATOM     21 H21  SKF L   1       8.140  -2.073   4.225  1.00  0.00    +0.0970  H
ATOM     22 H22  SKF L   1       7.946  -2.920   2.659  1.00  0.00    +0.0970  H
ENDROOT
TORSDOF 0
ENDMDL
MODEL 12
REMARK VINA RESULT:    -5.050      4.067      5.958
REMARK INTER + INTRA:          -5.050
REMARK INTER:                  -5.050
REMARK INTRA:                   0.000
REMARK UNBOUND:                 0.000
ROOT
ATOM      1 CL1  SKF L   1       3.339   3.720   3.806  1.00  0.00    -0.0831 Cl
ATOM      2  C2  SKF L   1       3.428   4.586   2.315  1.00  0.00    +0.0498  A
ATOM      3  C3  SKF L   1       4.550   4.389   1.510  1.00  0.00    -0.0429  A
ATOM      4  C4  SKF L   1       4.659   5.055   0.293  1.00  0.00    -0.0601  A
ATOM      5  C5  SKF L   1       3.642   5.910  -0.129  1.00  0.00    -0.0579  A
ATOM      6  C6  SKF L   1       2.503   6.108   0.665  1.00  0.00    -0.0321  A
ATOM      7  C7  SKF L   1       1.430   7.056   0.181  1.00  0.00    +0.0227  C
ATOM      8  C8  SKF L   1       0.100   6.857   0.901  1.00  0.00    +0.0823  C
ATOM      9  N9  SKF L   1       0.342   6.819   2.372  1.00  0.00    -0.3450  N
ATOM     10 C10  SKF L   1       1.183   5.649   2.781  1.00  0.00    +0.1054  C
ATOM     11 C11  SKF L   1       2.399   5.458   1.916  1.00  0.00    +0.0285  A
ATOM     12 H12  SKF L   1       5.347   3.716   1.823  1.00  0.00    +0.0632  H
ATOM     13 H13  SKF L   1       5.538   4.903  -0.333  1.00  0.00    +0.0618  H
ATOM     14 H14  SKF L   1       3.749   6.418  -1.087  1.00  0.00    +0.0620  H
ATOM     15 H15  SKF L   1       1.271   6.923  -0.896  1.00  0.00    +0.0368  H
ATOM     16 H16  SKF L   1       1.786   8.081   0.342  1.00  0.00    +0.0368  H
ATOM     17 H17  SKF L   1      -0.386   5.915   0.626  1.00  0.00    +0.0919  H
ATOM     18 H18  SKF L   1      -0.587   7.686   0.706  1.00  0.00    +0.0919  H
ATOM     19 H19  SKF L   1      -0.550   6.786   2.883  1.00  0.00    +0.3469 HD
ATOM     20 H20  SKF L   1       0.816   7.681   2.670  1.00  0.00    +0.3469 HD
ATOM     21 H21  SKF L   1       1.455   5.847   3.823  1.00  0.00    +0.0970  H
ATOM     22 H22  SKF L   1       0.536   4.768   2.727  1.00  0.00    +0.0970  H
ENDROOT
TORSDOF 0
ENDMDL
