MODEL 1
REMARK VINA RESULT:    -5.167      0.000      0.000
REMARK INTER + INTRA:          -5.493
REMARK INTER:                  -5.469
REMARK INTRA:                  -0.024
REMARK UNBOUND:                -0.024
ROOT
ATOM      1  C3  3CL L   1       3.666   2.697   3.411  1.00  0.00    +0.0127  A
ATOM      2  C4  3CL L   1       4.724   3.149   4.216  1.00  0.00    -0.0530  A
ATOM      3  C5  3CL L   1       5.493   2.243   4.951  1.00  0.00    -0.0599  A
ATOM      4  C6  3CL L   1       5.219   0.878   4.887  1.00  0.00    -0.0434  A
ATOM      5  C7  3CL L   1       4.174   0.422   4.090  1.00  0.00    +0.0414  A
ATOM      6 CL8  3CL L   1       3.833  -1.261   4.001  1.00  0.00    -0.0835 Cl
ATOM      7  C9  3CL L   1       3.399   1.319   3.353  1.00  0.00    -0.0347  A
ATOM      8 H14  3CL L   1       4.963   4.210   4.292  1.00  0.00    +0.0622  H
ATOM      9 H15  3CL L   1       6.308   2.599   5.579  1.00  0.00    +0.0618  H
ATOM     10 H16  3CL L   1       5.821   0.177   5.464  1.00  0.00    +0.0632  H
ATOM     11 H17  3CL L   1       2.584   0.928   2.746  1.00  0.00    +0.0637  H
ENDROOT
BRANCH 1 13
ATOM     12  N1  3CL L   1       1.964   2.969   1.651  1.00  0.00    -0.1914  N
ATOM     13  C2  3CL L   1       2.859   3.668   2.598  1.00  0.00    +0.1466  C
ATOM     14 H10  3CL L   1       1.423   2.238   2.131  1.00  0.00    +0.4054 HD
ATOM     15 H11  3CL L   1       1.302   3.619   1.212  1.00  0.00    +0.4054 HD
ATOM     16 H12  3CL L   1       2.223   4.293   3.232  1.00  0.00    +0.1017  H
ATOM     17 H13  3CL L   1       3.506   4.323   2.007  1.00  0.00    +0.1017  H
ENDBRANCH 1 13
TORSDOF 1
ENDMDL
MODEL 2
REMARK VINA RESULT:    -5.073      5.399      6.386
REMARK INTER + INTRA:          -5.394
REMARK INTER:                  -5.378
REMARK INTRA:                  -0.016
REMARK UNBOUND:                -0.024
ROOT
ATOM      1  C3  3CL L   1      -0.251   6.356   1.926  1.00  0.00    +0.0127  A
ATOM      2  C4  3CL L   1      -0.018   6.654   0.574  1.00  0.00    -0.0530  A
ATOM      3  C5  3CL L   1       1.286   6.735   0.079  1.00  0.00    -0.0599  A
ATOM      4  C6  3CL L   1       2.371   6.515   0.925  1.00  0.00    -0.0434  A
ATOM      5  C7  3CL L   1       2.150   6.215   2.266  1.00  0.00    +0.0414  A
ATOM      6 CL8  3CL L   1       3.482   5.935   3.316  1.00  0.00    -0.0835 Cl
ATOM      7  C9  3CL L   1       0.850   6.133   2.770  1.00  0.00    -0.0347  A
ATOM      8 H14  3CL L   1      -0.844   6.838  -0.114  1.00  0.00    +0.0622  H
ATOM      9 H15  3CL L   1       1.461   6.974  -0.969  1.00  0.00    +0.0618  H
ATOM     10 H16  3CL L   1       3.385   6.581   0.534  1.00  0.00    +0.0632  H
ATOM     11 H17  3CL L   1       0.713   5.905   3.826  1.00  0.00    +0.0637  H
ENDROOT
BRANCH 1 13
ATOM     12  N1  3CL L   1      -2.005   4.834   2.750  1.00  0.00    -0.1914  N
ATOM     13  C2  3CL L   1      -1.653   6.239   2.450  1.00  0.00    +0.1466  C
ATOM     14 H10  3CL L   1      -1.279   4.391   3.327  1.00  0.00    +0.4054 HD
ATOM     15 H11  3CL L   1      -2.897   4.771   3.254  1.00  0.00    +0.4054 HD
ATOM     16 H12  3CL L   1      -1.784   6.803   3.379  1.00  0.00    +0.1017  H
ATOM     17 H13  3CL L   1      -2.381   6.605   1.720  1.00  0.00    +0.1017  H
ENDBRANCH 1 13
TORSDOF 1
ENDMDL
MODEL 3
REMARK VINA RESULT:    -5.051      3.145      4.229
REMARK INTER + INTRA:          -5.371
REMARK INTER:                  -5.347
REMARK INTRA:                  -0.023
REMARK UNBOUND:                -0.024
ROOT
ATOM      1  C3  3CL L   1       4.768   1.318   4.256  1.00  0.00    +0.0127  A
ATOM      2  C4  3CL L   1       3.886   0.742   3.328  1.00  0.00    -0.0530  A
ATOM      3  C5  3CL L   1       3.088   1.548   2.513  1.00  0.00    -0.0599  A
ATOM      4  C6  3CL L   1       3.163   2.936   2.610  1.00  0.00    -0.0434  A
ATOM      5  C7  3CL L   1       4.037   3.516   3.525  1.00  0.00    +0.0414  A
ATOM      6 CL8  3CL L   1       4.142   5.227   3.648  1.00  0.00    -0.0835 Cl
ATOM      7  C9  3CL L   1       4.838   2.719   4.345  1.00  0.00    -0.0347  A
ATOM      8 H14  3CL L   1       3.798  -0.340   3.229  1.00  0.00    +0.0622  H
ATOM      9 H15  3CL L   1       2.399   1.096   1.800  1.00  0.00    +0.0618  H
ATOM     10 H16  3CL L   1       2.537   3.559   1.973  1.00  0.00    +0.0632  H
ATOM     11 H17  3CL L   1       5.504   3.205   5.055  1.00  0.00    +0.0637  H
ENDROOT
BRANCH 1 13
ATOM     12  N1  3CL L   1       6.213   1.209   6.249  1.00  0.00    -0.1914  N
ATOM     13  C2  3CL L   1       5.647   0.453   5.110  1.00  0.00    +0.1466  C
ATOM     14 H10  3CL L   1       5.476   1.721   6.750  1.00  0.00    +0.4054 HD
ATOM     15 H11  3CL L   1       6.681   0.586   6.917  1.00  0.00    +0.4054 HD
ATOM     16 H12  3CL L   1       5.093  -0.390   5.536  1.00  0.00    +0.1017  H
ATOM     17 H13  3CL L   1       6.490   0.055   4.536  1.00  0.00    +0.1017  H
ENDBRANCH 1 13
TORSDOF 1
ENDMDL
MODEL 4
REMARK VINA RESULT:    -4.848      3.539      4.339
REMARK INTER + INTRA:          -5.155
REMARK INTER:                  -5.134
REMARK INTRA:                  -0.022
REMARK UNBOUND:                -0.024
ROOT
ATOM      1  C3  3CL L   1       5.553   2.625   2.683  1.00  0.00    +0.0127  A
ATOM      2  C4  3CL L   1       4.958   2.801   3.942  1.00  0.00    -0.0530  A
ATOM      3  C5  3CL L   1       4.003   3.800   4.142  1.00  0.00    -0.0599  A
ATOM      4  C6  3CL L   1       3.627   4.631   3.089  1.00  0.00    -0.0434  A
ATOM      5  C7  3CL L   1       4.209   4.461   1.836  1.00  0.00    +0.0414  A
ATOM      6 CL8  3CL L   1       3.747   5.477   0.529  1.00  0.00    -0.0835 Cl
ATOM      7  C9  3CL L   1       5.166   3.466   1.627  1.00  0.00    -0.0347  A
ATOM      8 H14  3CL L   1       5.233   2.172   4.790  1.00  0.00    +0.0622  H
ATOM      9 H15  3CL L   1       3.550   3.937   5.123  1.00  0.00    +0.0618  H
ATOM     10 H16  3CL L   1       2.883   5.409   3.251  1.00  0.00    +0.0632  H
ATOM     11 H17  3CL L   1       5.607   3.367   0.636  1.00  0.00    +0.0637  H
ENDROOT
BRANCH 1 13
ATOM     12  N1  3CL L   1       7.520   1.887   1.396  1.00  0.00    -0.1914  N
ATOM     13  C2  3CL L   1       6.557   1.531   2.461  1.00  0.00    +0.1466  C
ATOM     14 H10  3CL L   1       7.915   2.822   1.557  1.00  0.00    +0.4054 HD
ATOM     15 H11  3CL L   1       8.297   1.216   1.354  1.00  0.00    +0.4054 HD
ATOM     16 H12  3CL L   1       7.144   1.332   3.363  1.00  0.00    +0.1017  H
ATOM     17 H13  3CL L   1       6.069   0.600   2.156  1.00  0.00    +0.1017  H
ENDBRANCH 1 13
TORSDOF 1
ENDMDL
MODEL 5
REMARK VINA RESULT:    -4.834      3.333      4.177
REMARK INTER + INTRA:          -5.141
REMARK INTER:                  -5.120
REMARK INTRA:                  -0.020
REMARK UNBOUND:                -0.024
ROOT
ATOM      1  C3  3CL L   1       5.138   2.437   3.683  1.00  0.00    +0.0127  A
ATOM      2  C4  3CL L   1       4.372   3.472   4.242  1.00  0.00    -0.0530  A
ATOM      3  C5  3CL L   1       4.030   4.593   3.480  1.00  0.00    -0.0599  A
ATOM      4  C6  3CL L   1       4.444   4.691   2.153  1.00  0.00    -0.0434  A
ATOM      5  C7  3CL L   1       5.200   3.668   1.590  1.00  0.00    +0.0414  A
ATOM      6 CL8  3CL L   1       5.710   3.778  -0.048  1.00  0.00    -0.0835 Cl
ATOM      7  C9  3CL L   1       5.548   2.545   2.344  1.00  0.00    -0.0347  A
ATOM      8 H14  3CL L   1       4.036   3.430   5.278  1.00  0.00    +0.0622  H
ATOM      9 H15  3CL L   1       3.442   5.396   3.921  1.00  0.00    +0.0618  H
ATOM     10 H16  3CL L   1       4.176   5.568   1.566  1.00  0.00    +0.0632  H
ATOM     11 H17  3CL L   1       6.148   1.767   1.874  1.00  0.00    +0.0637  H
ENDROOT
BRANCH 1 13
ATOM     12  N1  3CL L   1       5.934   1.582   5.852  1.00  0.00    -0.1914  N
ATOM     13  C2  3CL L   1       5.479   1.220   4.492  1.00  0.00    +0.1466  C
ATOM     14 H10  3CL L   1       5.277   2.237   6.295  1.00  0.00    +0.4054 HD
ATOM     15 H11  3CL L   1       6.013   0.754   6.453  1.00  0.00    +0.4054 HD
ATOM     16 H12  3CL L   1       4.614   0.560   4.613  1.00  0.00    +0.1017  H
ATOM     17 H13  3CL L   1       6.286   0.646   4.024  1.00  0.00    +0.1017  H
ENDBRANCH 1 13
TORSDOF 1
ENDMDL
MODEL 6
REMARK VINA RESULT:    -4.766      3.776      5.137
REMARK INTER + INTRA:          -5.068
REMARK INTER:                  -5.045
REMARK INTRA:                  -0.023
REMARK UNBOUND:                -0.024
ROOT
ATOM      1  C3  3CL L   1       5.937  -1.933   3.935  1.00  0.00    +0.0127  A
ATOM      2  C4  3CL L   1       4.590  -2.284   3.757  1.00  0.00    -0.0530  A
ATOM      3  C5  3CL L   1       3.576  -1.357   4.009  1.00  0.00    -0.0599  A
ATOM      4  C6  3CL L   1       3.894  -0.069   4.438  1.00  0.00    -0.0434  A
ATOM      5  C7  3CL L   1       5.227   0.288   4.615  1.00  0.00    +0.0414  A
ATOM      6 CL8  3CL L   1       5.630   1.875   5.137  1.00  0.00    -0.0835 Cl
ATOM      7  C9  3CL L   1       6.247  -0.633   4.366  1.00  0.00    -0.0347  A
ATOM      8 H14  3CL L   1       4.305  -3.284   3.427  1.00  0.00    +0.0622  H
ATOM      9 H15  3CL L   1       2.531  -1.636   3.876  1.00  0.00    +0.0618  H
ATOM     10 H16  3CL L   1       3.099   0.648   4.635  1.00  0.00    +0.0632  H
ATOM     11 H17  3CL L   1       7.279  -0.322   4.522  1.00  0.00    +0.0637  H
ENDROOT
BRANCH 1 13
ATOM     12  N1  3CL L   1       8.296  -2.240   3.294  1.00  0.00    -0.1914  N
ATOM     13  C2  3CL L   1       7.028  -2.920   3.634  1.00  0.00    +0.1466  C
ATOM     14 H10  3CL L   1       8.528  -1.526   3.996  1.00  0.00    +0.4054 HD
ATOM     15 H11  3CL L   1       9.077  -2.905   3.245  1.00  0.00    +0.4054 HD
ATOM     16 H12  3CL L   1       7.236  -3.566   4.493  1.00  0.00    +0.1017  H
ATOM     17 H13  3CL L   1       6.764  -3.555   2.783  1.00  0.00    +0.1017  H
ENDBRANCH 1 13
TORSDOF 1
ENDMDL
MODEL 7
REMARK VINA RESULT:    -4.752      3.329      4.261
REMARK INTER + INTRA:          -5.055
REMARK INTER:                  -5.039
REMARK INTRA:                  -0.016
REMARK UNBOUND:                -0.024
ROOT
ATOM      1  C3  3CL L   1       5.230   2.594   3.920  1.00  0.00    +0.0127  A
ATOM      2  C4  3CL L   1       5.767   2.230   2.675  1.00  0.00    -0.0530  A
ATOM      3  C5  3CL L   1       5.525   3.011   1.542  1.00  0.00    -0.0599  A
ATOM      4  C6  3CL L   1       4.750   4.166   1.639  1.00  0.00    -0.0434  A
ATOM      5  C7  3CL L   1       4.217   4.536   2.869  1.00  0.00    +0.0414  A
ATOM      6 CL8  3CL L   1       3.265   5.961   3.000  1.00  0.00    -0.0835 Cl
ATOM      7  C9  3CL L   1       4.452   3.761   4.007  1.00  0.00    -0.0347  A
ATOM      8 H14  3CL L   1       6.373   1.331   2.562  1.00  0.00    +0.0622  H
ATOM      9 H15  3CL L   1       5.938   2.720   0.577  1.00  0.00    +0.0618  H
ATOM     10 H16  3CL L   1       4.564   4.769   0.752  1.00  0.00    +0.0632  H
ATOM     11 H17  3CL L   1       4.012   4.075   4.952  1.00  0.00    +0.0637  H
ENDROOT
BRANCH 1 13
ATOM     12  N1  3CL L   1       4.779   0.488   5.117  1.00  0.00    -0.1914  N
ATOM     13  C2  3CL L   1       5.515   1.771   5.142  1.00  0.00    +0.1466  C
ATOM     14 H10  3CL L   1       4.915   0.007   4.219  1.00  0.00    +0.4054 HD
ATOM     15 H11  3CL L   1       5.093  -0.139   5.866  1.00  0.00    +0.4054 HD
ATOM     16 H12  3CL L   1       6.578   1.524   5.223  1.00  0.00    +0.1017  H
ATOM     17 H13  3CL L   1       5.214   2.298   6.053  1.00  0.00    +0.1017  H
ENDBRANCH 1 13
TORSDOF 1
ENDMDL
MODEL 8
REMARK VINA RESULT:    -4.751      2.900      3.456
REMARK INTER + INTRA:          -5.053
REMARK INTER:                  -5.030
REMARK INTRA:                  -0.023
REMARK UNBOUND:                -0.024
ROOT
ATOM      1  C3  3CL L   1       5.350   3.416   1.577  1.00  0.00    +0.0127  A
ATOM      2  C4  3CL L   1       4.396   4.419   1.811  1.00  0.00    -0.0530  A
ATOM      3  C5  3CL L   1       3.791   4.544   3.064  1.00  0.00    -0.0599  A
ATOM      4  C6  3CL L   1       4.133   3.675   4.098  1.00  0.00    -0.0434  A
ATOM      5  C7  3CL L   1       5.080   2.680   3.876  1.00  0.00    +0.0414  A
ATOM      6 CL8  3CL L   1       5.514   1.607   5.147  1.00  0.00    -0.0835 Cl
ATOM      7  C9  3CL L   1       5.690   2.546   2.627  1.00  0.00    -0.0347  A
ATOM      8 H14  3CL L   1       4.100   5.113   1.023  1.00  0.00    +0.0622  H
ATOM      9 H15  3CL L   1       3.045   5.320   3.237  1.00  0.00    +0.0618  H
ATOM     10 H16  3CL L   1       3.656   3.777   5.071  1.00  0.00    +0.0632  H
ATOM     11 H17  3CL L   1       6.421   1.752   2.486  1.00  0.00    +0.0637  H
ENDROOT
BRANCH 1 13
ATOM     12  N1  3CL L   1       7.325   2.608   0.345  1.00  0.00    -0.1914  N
ATOM     13  C2  3CL L   1       6.022   3.301   0.240  1.00  0.00    +0.1466  C
ATOM     14 H10  3CL L   1       7.230   1.728   0.869  1.00  0.00    +0.4054 HD
ATOM     15 H11  3CL L   1       7.708   2.388  -0.581  1.00  0.00    +0.4054 HD
ATOM     16 H12  3CL L   1       5.416   2.727  -0.469  1.00  0.00    +0.1017  H
ATOM     17 H13  3CL L   1       6.216   4.287  -0.193  1.00  0.00    +0.1017  H
ENDBRANCH 1 13
TORSDOF 1
ENDMDL
MODEL 9
REMARK VINA RESULT:    -4.743      5.443      7.399
REMARK INTER + INTRA:          -5.045
REMARK INTER:                  -5.030
REMARK INTRA:                  -0.015
REMARK UNBOUND:                -0.024
ROOT
ATOM      1  C3  3CL L   1       0.779   5.681   1.634  1.00  0.00    +0.0127  A
ATOM      2  C4  3CL L   1      -0.389   5.794   2.405  1.00  0.00    -0.0530  A
ATOM      3  C5  3CL L   1      -1.424   6.643   2.004  1.00  0.00    -0.0599  A
ATOM      4  C6  3CL L   1      -1.308   7.383   0.829  1.00  0.00    -0.0434  A
ATOM      5  C7  3CL L   1      -0.156   7.274   0.057  1.00  0.00    +0.0414  A
ATOM      6 CL8  3CL L   1      -0.006   8.178  -1.397  1.00  0.00    -0.0835 Cl
ATOM      7  C9  3CL L   1       0.885   6.430   0.451  1.00  0.00    -0.0347  A
ATOM      8 H14  3CL L   1      -0.511   5.233   3.332  1.00  0.00    +0.0622  H
ATOM      9 H15  3CL L   1      -2.325   6.733   2.610  1.00  0.00    +0.0618  H
ATOM     10 H16  3CL L   1      -2.117   8.044   0.523  1.00  0.00    +0.0632  H
ATOM     11 H17  3CL L   1       1.776   6.375  -0.173  1.00  0.00    +0.0637  H
ENDROOT
BRANCH 1 13
ATOM     12  N1  3CL L   1       1.722   3.414   1.424  1.00  0.00    -0.1914  N
ATOM     13  C2  3CL L   1       1.877   4.746   2.049  1.00  0.00    +0.1466  C
ATOM     14 H10  3CL L   1       1.576   3.502   0.410  1.00  0.00    +0.4054 HD
ATOM     15 H11  3CL L   1       2.552   2.829   1.577  1.00  0.00    +0.4054 HD
ATOM     16 H12  3CL L   1       2.861   5.122   1.752  1.00  0.00    +0.1017  H
ATOM     17 H13  3CL L   1       1.880   4.594   3.133  1.00  0.00    +0.1017  H
ENDBRANCH 1 13
TORSDOF 1
ENDMDL
MODEL 10
REMARK VINA RESULT:    -4.737      3.583      4.625
REMARK INTER + INTRA:          -5.038
REMARK INTER:                  -5.018
REMARK INTRA:                  -0.020
REMARK UNBOUND:                -0.024
ROOT
ATOM      1  C3  3CL L   1       5.635  -0.319   4.288  1.00  0.00    +0.0127  A
ATOM      2  C4  3CL L   1       4.559  -1.041   3.748  1.00  0.00    -0.0530  A
ATOM      3  C5  3CL L   1       4.753  -2.326   3.235  1.00  0.00    -0.0599  A
ATOM      4  C6  3CL L   1       6.020  -2.907   3.260  1.00  0.00    -0.0434  A
ATOM      5  C7  3CL L   1       7.091  -2.200   3.796  1.00  0.00    +0.0414  A
ATOM      6 CL8  3CL L   1       8.656  -2.910   3.837  1.00  0.00    -0.0835 Cl
ATOM      7  C9  3CL L   1       6.907  -0.915   4.310  1.00  0.00    -0.0347  A
ATOM      8 H14  3CL L   1       3.556  -0.616   3.709  1.00  0.00    +0.0622  H
ATOM      9 H15  3CL L   1       3.916  -2.879   2.810  1.00  0.00    +0.0618  H
ATOM     10 H16  3CL L   1       6.165  -3.908   2.857  1.00  0.00    +0.0632  H
ATOM     11 H17  3CL L   1       7.769  -0.387   4.715  1.00  0.00    +0.0637  H
ENDROOT
BRANCH 1 13
ATOM     12  N1  3CL L   1       6.130   1.211   6.155  1.00  0.00    -0.1914  N
ATOM     13  C2  3CL L   1       5.421   1.049   4.867  1.00  0.00    +0.1466  C
ATOM     14 H10  3CL L   1       7.111   0.916   6.071  1.00  0.00    +0.4054 HD
ATOM     15 H11  3CL L   1       6.117   2.188   6.470  1.00  0.00    +0.4054 HD
ATOM     16 H12  3CL L   1       5.794   1.832   4.200  1.00  0.00    +0.1017  H
ATOM     17 H13  3CL L   1       4.359   1.237   5.058  1.00  0.00    +0.1017  H
ENDBRANCH 1 13
TORSDOF 1
ENDMDL
MODEL 11
REMARK VINA RESULT:    -4.723      7.243      8.078
REMARK INTER + INTRA:          -5.023
REMARK INTER:                  -5.001
REMARK INTRA:                  -0.022
REMARK UNBOUND:                -0.024
ROOT
ATOM      1  C3  3CL L   1       6.776   3.960  -1.445  1.00  0.00    +0.0127  A
ATOM      2  C4  3CL L   1       6.229   3.945  -2.738  1.00  0.00    -0.0530  A
ATOM      3  C5  3CL L   1       6.729   4.791  -3.730  1.00  0.00    -0.0599  A
ATOM      4  C6  3CL L   1       7.783   5.658  -3.446  1.00  0.00    -0.0434  A
ATOM      5  C7  3CL L   1       8.333   5.677  -2.168  1.00  0.00    +0.0414  A
ATOM      6 CL8  3CL L   1       9.637   6.739  -1.810  1.00  0.00    -0.0835 Cl
ATOM      7  C9  3CL L   1       7.839   4.836  -1.170  1.00  0.00    -0.0347  A
ATOM      8 H14  3CL L   1       5.401   3.283  -2.993  1.00  0.00    +0.0622  H
ATOM      9 H15  3CL L   1       6.296   4.781  -4.729  1.00  0.00    +0.0618  H
ATOM     10 H16  3CL L   1       8.167   6.317  -4.223  1.00  0.00    +0.0632  H
ATOM     11 H17  3CL L   1       8.288   4.883  -0.179  1.00  0.00    +0.0637  H
ENDROOT
BRANCH 1 13
ATOM     12  N1  3CL L   1       7.327   2.630   0.555  1.00  0.00    -0.1914  N
ATOM     13  C2  3CL L   1       6.258   3.028  -0.388  1.00  0.00    +0.1466  C
ATOM     14 H10  3CL L   1       7.834   3.453   0.902  1.00  0.00    +0.4054 HD
ATOM     15 H11  3CL L   1       6.944   2.126   1.363  1.00  0.00    +0.4054 HD
ATOM     16 H12  3CL L   1       5.468   3.495   0.210  1.00  0.00    +0.1017  H
ATOM     17 H13  3CL L   1       5.859   2.110  -0.829  1.00  0.00    +0.1017  H
ENDBRANCH 1 13
TORSDOF 1
ENDMDL
MODEL 12
REMARK VINA RESULT:    -4.676      3.151      3.525
REMARK INTER + INTRA:          -4.974
REMARK INTER:                  -4.955
REMARK INTRA:                  -0.019
REMARK UNBOUND:                -0.024
ROOT
ATOM      1  C3  3CL L   1       5.692   1.263   2.176  1.00  0.00    +0.0127  A
ATOM      2  C4  3CL L   1       4.456   0.614   2.026  1.00  0.00    -0.0530  A
ATOM      3  C5  3CL L   1       4.175  -0.552   2.742  1.00  0.00    -0.0599  A
ATOM      4  C6  3CL L   1       5.122  -1.082   3.617  1.00  0.00    -0.0434  A
ATOM      5  C7  3CL L   1       6.348  -0.444   3.773  1.00  0.00    +0.0414  A
ATOM      6 CL8  3CL L   1       7.519  -1.087   4.855  1.00  0.00    -0.0835 Cl
ATOM      7  C9  3CL L   1       6.638   0.721   3.062  1.00  0.00    -0.0347  A
ATOM      8 H14  3CL L   1       3.695   0.999   1.346  1.00  0.00    +0.0622  H
ATOM      9 H15  3CL L   1       3.217  -1.055   2.617  1.00  0.00    +0.0618  H
ATOM     10 H16  3CL L   1       4.898  -1.993   4.170  1.00  0.00    +0.0632  H
ATOM     11 H17  3CL L   1       7.611   1.190   3.202  1.00  0.00    +0.0637  H
ENDROOT
BRANCH 1 13
ATOM     12  N1  3CL L   1       7.327   2.507   0.816  1.00  0.00    -0.1914  N
ATOM     13  C2  3CL L   1       5.981   2.533   1.430  1.00  0.00    +0.1466  C
ATOM     14 H10  3CL L   1       7.469   1.640   0.283  1.00  0.00    +0.4054 HD
ATOM     15 H11  3CL L   1       7.463   3.300   0.178  1.00  0.00    +0.4054 HD
ATOM     16 H12  3CL L   1       5.267   2.695   0.617  1.00  0.00    +0.1017  H
ATOM     17 H13  3CL L   1       5.947   3.400   2.096  1.00  0.00    +0.1017  H
ENDBRANCH 1 13
TORSDOF 1
ENDMDL
