MODEL 1
REMARK VINA RESULT:    -5.392      0.000      0.000
REMARK INTER + INTRA:          -5.599
REMARK INTER:                  -5.708
REMARK INTRA:                   0.109
REMARK UNBOUND:                 0.109
ROOT
ATOM      1  C4  26D L   1       0.549   6.477   1.183  1.00  0.00    +0.0507  A
ATOM      2  C5  26D L   1       1.316   6.970   0.106  1.00  0.00    +0.0513  A
ATOM      3 CL6  26D L   1       2.981   6.547  -0.106  1.00  0.00    -0.0830 Cl
ATOM      4  C7  26D L   1       0.766   7.827  -0.854  1.00  0.00    -0.0428  A
ATOM      5  C8  26D L   1      -0.563   8.225  -0.759  1.00  0.00    -0.0590  A
ATOM      6  C9  26D L   1      -1.339   7.773   0.302  1.00  0.00    -0.0428  A
ATOM      7 C10  26D L   1      -0.792   6.917   1.263  1.00  0.00    +0.0513  A
ATOM      8 CL11 26D L   1      -1.838   6.438   2.554  1.00  0.00    -0.0830 Cl
ATOM      9 H18  26D L   1       1.369   8.199  -1.682  1.00  0.00    +0.0632  H
ATOM     10 H19  26D L   1      -0.989   8.896  -1.502  1.00  0.00    +0.0618  H
ATOM     11 H20  26D L   1      -2.376   8.102   0.377  1.00  0.00    +0.0632  H
ENDROOT
BRANCH 1 13
ATOM     12  C1  26D L   1       2.353   6.166   2.929  1.00  0.00    -0.0030  C
ATOM     13  C2  26D L   1       1.120   5.569   2.257  1.00  0.00    +0.1566  C
ATOM     14  N3  26D L   1       1.466   4.195   1.789  1.00  0.00    -0.1889  N
ATOM     15 H12  26D L   1       2.713   5.514   3.732  1.00  0.00    +0.0292  H
ATOM     16 H13  26D L   1       2.122   7.142   3.371  1.00  0.00    +0.0292  H
ATOM     17 H14  26D L   1       3.179   6.312   2.225  1.00  0.00    +0.0292  H
ATOM     18 H15  26D L   1       0.375   5.365   3.030  1.00  0.00    +0.1052  H
ATOM     19 H16  26D L   1       0.648   3.726   1.384  1.00  0.00    +0.4057 HD
ATOM     20 H17  26D L   1       2.192   4.228   1.058  1.00  0.00    +0.4057 HD
ENDBRANCH 1 13
TORSDOF 1
ENDMDL
MODEL 2
REMARK VINA RESULT:    -5.382      9.130     11.095
REMARK INTER + INTRA:          -5.588
REMARK INTER:                  -5.802
REMARK INTRA:                   0.214
REMARK UNBOUND:                 0.109
ROOT
ATOM      1  C4  26D L   1       4.522  -2.030   4.050  1.00  0.00    +0.0507  A
ATOM      2  C5  26D L   1       3.825  -3.210   4.390  1.00  0.00    +0.0513  A
ATOM      3 CL6  26D L   1       2.116  -3.221   4.661  1.00  0.00    -0.0830 Cl
ATOM      4  C7  26D L   1       4.483  -4.437   4.520  1.00  0.00    -0.0428  A
ATOM      5  C8  26D L   1       5.858  -4.520   4.328  1.00  0.00    -0.0590  A
ATOM      6  C9  26D L   1       6.576  -3.373   4.013  1.00  0.00    -0.0428  A
ATOM      7 C10  26D L   1       5.921  -2.143   3.882  1.00  0.00    +0.0513  A
ATOM      8 CL11 26D L   1       6.914  -0.776   3.516  1.00  0.00    -0.0830 Cl
ATOM      9 H18  26D L   1       3.933  -5.342   4.781  1.00  0.00    +0.0632  H
ATOM     10 H19  26D L   1       6.370  -5.475   4.434  1.00  0.00    +0.0618  H
ATOM     11 H20  26D L   1       7.655  -3.444   3.878  1.00  0.00    +0.0632  H
ENDROOT
BRANCH 1 13
ATOM     12  C1  26D L   1       4.018  -0.062   2.542  1.00  0.00    -0.0030  C
ATOM     13  C2  26D L   1       3.845  -0.677   3.928  1.00  0.00    +0.1566  C
ATOM     14  N3  26D L   1       4.282   0.330   4.939  1.00  0.00    -0.1889  N
ATOM     15 H12  26D L   1       3.478   0.888   2.467  1.00  0.00    +0.0292  H
ATOM     16 H13  26D L   1       3.624  -0.731   1.768  1.00  0.00    +0.0292  H
ATOM     17 H14  26D L   1       5.068   0.133   2.303  1.00  0.00    +0.0292  H
ATOM     18 H15  26D L   1       2.775  -0.757   4.135  1.00  0.00    +0.1052  H
ATOM     19 H16  26D L   1       4.126  -0.014   5.894  1.00  0.00    +0.4057 HD
ATOM     20 H17  26D L   1       5.289   0.529   4.847  1.00  0.00    +0.4057 HD
ENDBRANCH 1 13
TORSDOF 1
ENDMDL
MODEL 3
REMARK VINA RESULT:    -5.344      5.045      6.495
REMARK INTER + INTRA:          -5.547
REMARK INTER:                  -5.629
REMARK INTRA:                   0.082
REMARK UNBOUND:                 0.109
ROOT
ATOM      1  C4  26D L   1       5.056   3.068   2.229  1.00  0.00    +0.0507  A
ATOM      2  C5  26D L   1       4.726   3.126   3.601  1.00  0.00    +0.0513  A
ATOM      3 CL6  26D L   1       5.021   1.801   4.674  1.00  0.00    -0.0830 Cl
ATOM      4  C7  26D L   1       4.144   4.266   4.166  1.00  0.00    -0.0428  A
ATOM      5  C8  26D L   1       3.864   5.376   3.376  1.00  0.00    -0.0590  A
ATOM      6  C9  26D L   1       4.158   5.342   2.018  1.00  0.00    -0.0428  A
ATOM      7 C10  26D L   1       4.740   4.204   1.449  1.00  0.00    +0.0513  A
ATOM      8 CL11 26D L   1       5.038   4.259  -0.253  1.00  0.00    -0.0830 Cl
ATOM      9 H18  26D L   1       3.896   4.299   5.227  1.00  0.00    +0.0632  H
ATOM     10 H19  26D L   1       3.407   6.260   3.815  1.00  0.00    +0.0618  H
ATOM     11 H20  26D L   1       3.922   6.211   1.403  1.00  0.00    +0.0632  H
ENDROOT
BRANCH 1 13
ATOM     12  C1  26D L   1       4.792   0.597   1.752  1.00  0.00    -0.0030  C
ATOM     13  C2  26D L   1       5.662   1.839   1.577  1.00  0.00    +0.1566  C
ATOM     14  N3  26D L   1       7.041   1.506   2.038  1.00  0.00    -0.1889  N
ATOM     15 H12  26D L   1       5.227  -0.261   1.229  1.00  0.00    +0.0292  H
ATOM     16 H13  26D L   1       3.789   0.764   1.341  1.00  0.00    +0.0292  H
ATOM     17 H14  26D L   1       4.672   0.319   2.804  1.00  0.00    +0.0292  H
ATOM     18 H15  26D L   1       5.813   2.001   0.507  1.00  0.00    +0.1052  H
ATOM     19 H16  26D L   1       7.683   2.293   1.881  1.00  0.00    +0.4057 HD
ATOM     20 H17  26D L   1       7.051   1.301   3.048  1.00  0.00    +0.4057 HD
ENDBRANCH 1 13
TORSDOF 1
ENDMDL
MODEL 4
REMARK VINA RESULT:    -5.337      8.825     10.545
REMARK INTER + INTRA:          -5.541
REMARK INTER:                  -5.617
REMARK INTRA:                   0.076
REMARK UNBOUND:                 0.109
ROOT
ATOM      1  C4  26D L   1       5.002  -1.576   3.882  1.00  0.00    +0.0507  A
ATOM      2  C5  26D L   1       6.363  -1.290   3.639  1.00  0.00    +0.0513  A
ATOM      3 CL6  26D L   1       6.924   0.320   3.339  1.00  0.00    -0.0830 Cl
ATOM      4  C7  26D L   1       7.333  -2.298   3.633  1.00  0.00    -0.0428  A
ATOM      5  C8  26D L   1       6.971  -3.621   3.857  1.00  0.00    -0.0590  A
ATOM      6  C9  26D L   1       5.636  -3.938   4.079  1.00  0.00    -0.0428  A
ATOM      7 C10  26D L   1       4.663  -2.933   4.086  1.00  0.00    +0.0513  A
ATOM      8 CL11 26D L   1       3.031  -3.441   4.345  1.00  0.00    -0.0830 Cl
ATOM      9 H18  26D L   1       8.381  -2.063   3.445  1.00  0.00    +0.0632  H
ATOM     10 H19  26D L   1       7.726  -4.406   3.847  1.00  0.00    +0.0618  H
ATOM     11 H20  26D L   1       5.359  -4.980   4.240  1.00  0.00    +0.0632  H
ENDROOT
BRANCH 1 13
ATOM     12  C1  26D L   1       3.838   0.220   2.533  1.00  0.00    -0.0030  C
ATOM     13  C2  26D L   1       3.919  -0.512   3.869  1.00  0.00    +0.1566  C
ATOM     14  N3  26D L   1       4.037   0.508   4.951  1.00  0.00    -0.1889  N
ATOM     15 H12  26D L   1       3.017   0.945   2.535  1.00  0.00    +0.0292  H
ATOM     16 H13  26D L   1       3.658  -0.484   1.713  1.00  0.00    +0.0292  H
ATOM     17 H14  26D L   1       4.760   0.764   2.301  1.00  0.00    +0.0292  H
ATOM     18 H15  26D L   1       2.940  -0.952   4.078  1.00  0.00    +0.1052  H
ATOM     19 H16  26D L   1       4.032   0.066   5.878  1.00  0.00    +0.4057 HD
ATOM     20 H17  26D L   1       4.921   1.032   4.867  1.00  0.00    +0.4057 HD
ENDBRANCH 1 13
TORSDOF 1
ENDMDL
MODEL 5
REMARK VINA RESULT:    -5.278      0.082      2.760
REMARK INTER + INTRA:          -5.478
REMARK INTER:                  -5.719
REMARK INTRA:                   0.241
REMARK UNBOUND:                 0.109
ROOT
ATOM      1  C4  26D L   1       0.501   6.529   1.257  1.00  0.00    +0.0507  A
ATOM      2  C5  26D L   1      -0.844   6.958   1.291  1.00  0.00    +0.0513  A
ATOM      3 CL6  26D L   1      -1.919   6.511   2.571  1.00  0.00    -0.0830 Cl
ATOM      4  C7  26D L   1      -1.376   7.775   0.288  1.00  0.00    -0.0428  A
ATOM      5  C8  26D L   1      -0.586   8.177  -0.784  1.00  0.00    -0.0590  A
ATOM      6  C9  26D L   1       0.736   7.754  -0.856  1.00  0.00    -0.0428  A
ATOM      7 C10  26D L   1       1.272   6.937   0.145  1.00  0.00    +0.0513  A
ATOM      8 CL11 26D L   1       2.918   6.446  -0.059  1.00  0.00    -0.0830 Cl
ATOM      9 H18  26D L   1      -2.416   8.102   0.326  1.00  0.00    +0.0632  H
ATOM     10 H19  26D L   1      -1.002   8.808  -1.566  1.00  0.00    +0.0618  H
ATOM     11 H20  26D L   1       1.345   8.061  -1.707  1.00  0.00    +0.0632  H
ENDROOT
BRANCH 1 13
ATOM     12  C1  26D L   1       2.364   6.210   2.939  1.00  0.00    -0.0030  C
ATOM     13  C2  26D L   1       1.104   5.620   2.313  1.00  0.00    +0.1566  C
ATOM     14  N3  26D L   1       1.426   4.243   1.836  1.00  0.00    -0.1889  N
ATOM     15 H12  26D L   1       2.748   5.558   3.731  1.00  0.00    +0.0292  H
ATOM     16 H13  26D L   1       2.154   7.189   3.387  1.00  0.00    +0.0292  H
ATOM     17 H14  26D L   1       3.165   6.351   2.207  1.00  0.00    +0.0292  H
ATOM     18 H15  26D L   1       0.386   5.421   3.112  1.00  0.00    +0.1052  H
ATOM     19 H16  26D L   1       0.591   3.777   1.461  1.00  0.00    +0.4057 HD
ATOM     20 H17  26D L   1       2.126   4.270   1.080  1.00  0.00    +0.4057 HD
ENDBRANCH 1 13
TORSDOF 1
ENDMDL
MODEL 6
REMARK VINA RESULT:    -5.257      4.432      6.911
REMARK INTER + INTRA:          -5.456
REMARK INTER:                  -5.514
REMARK INTRA:                   0.058
REMARK UNBOUND:                 0.109
ROOT
ATOM      1  C4  26D L   1       4.698   3.464   1.765  1.00  0.00    +0.0507  A
ATOM      2  C5  26D L   1       4.584   2.942   3.072  1.00  0.00    +0.0513  A
ATOM      3 CL6  26D L   1       3.245   3.325   4.100  1.00  0.00    -0.0830 Cl
ATOM      4  C7  26D L   1       5.549   2.081   3.603  1.00  0.00    -0.0428  A
ATOM      5  C8  26D L   1       6.663   1.725   2.851  1.00  0.00    -0.0590  A
ATOM      6  C9  26D L   1       6.815   2.239   1.568  1.00  0.00    -0.0428  A
ATOM      7 C10  26D L   1       5.852   3.101   1.033  1.00  0.00    +0.0513  A
ATOM      8 CL11 26D L   1       6.154   3.703  -0.559  1.00  0.00    -0.0830 Cl
ATOM      9 H18  26D L   1       5.448   1.683   4.613  1.00  0.00    +0.0632  H
ATOM     10 H19  26D L   1       7.416   1.059   3.266  1.00  0.00    +0.0618  H
ATOM     11 H20  26D L   1       7.698   1.967   0.990  1.00  0.00    +0.0632  H
ENDROOT
BRANCH 1 13
ATOM     12  C1  26D L   1       3.580   5.726   1.953  1.00  0.00    -0.0030  C
ATOM     13  C2  26D L   1       3.685   4.423   1.167  1.00  0.00    +0.1566  C
ATOM     14  N3  26D L   1       2.311   3.861   1.016  1.00  0.00    -0.1889  N
ATOM     15 H12  26D L   1       2.881   6.418   1.471  1.00  0.00    +0.0292  H
ATOM     16 H13  26D L   1       4.555   6.225   2.012  1.00  0.00    +0.0292  H
ATOM     17 H14  26D L   1       3.233   5.565   2.979  1.00  0.00    +0.0292  H
ATOM     18 H15  26D L   1       3.944   4.668   0.133  1.00  0.00    +0.1052  H
ATOM     19 H16  26D L   1       2.321   3.012   0.437  1.00  0.00    +0.4057 HD
ATOM     20 H17  26D L   1       1.918   3.601   1.933  1.00  0.00    +0.4057 HD
ENDBRANCH 1 13
TORSDOF 1
ENDMDL
MODEL 7
REMARK VINA RESULT:    -5.243      4.872      6.109
REMARK INTER + INTRA:          -5.441
REMARK INTER:                  -5.563
REMARK INTRA:                   0.123
REMARK UNBOUND:                 0.109
ROOT
ATOM      1  C4  26D L   1       4.842   3.192   2.678  1.00  0.00    +0.0507  A
ATOM      2  C5  26D L   1       5.819   2.507   1.924  1.00  0.00    +0.0513  A
ATOM      3 CL6  26D L   1       6.531   1.028   2.471  1.00  0.00    -0.0830 Cl
ATOM      4  C7  26D L   1       6.260   2.989   0.687  1.00  0.00    -0.0428  A
ATOM      5  C8  26D L   1       5.748   4.175   0.173  1.00  0.00    -0.0590  A
ATOM      6  C9  26D L   1       4.799   4.884   0.901  1.00  0.00    -0.0428  A
ATOM      7 C10  26D L   1       4.356   4.404   2.138  1.00  0.00    +0.0513  A
ATOM      8 CL11 26D L   1       3.195   5.379   2.972  1.00  0.00    -0.0830 Cl
ATOM      9 H18  26D L   1       7.014   2.450   0.113  1.00  0.00    +0.0632  H
ATOM     10 H19  26D L   1       6.095   4.553  -0.787  1.00  0.00    +0.0618  H
ATOM     11 H20  26D L   1       4.413   5.820   0.498  1.00  0.00    +0.0632  H
ENDROOT
BRANCH 1 13
ATOM     12  C1  26D L   1       5.509   2.482   5.013  1.00  0.00    -0.0030  C
ATOM     13  C2  26D L   1       4.360   2.713   4.035  1.00  0.00    +0.1566  C
ATOM     14  N3  26D L   1       3.527   1.476   3.998  1.00  0.00    -0.1889  N
ATOM     15 H12  26D L   1       5.130   2.186   5.997  1.00  0.00    +0.0292  H
ATOM     16 H13  26D L   1       6.099   3.396   5.144  1.00  0.00    +0.0292  H
ATOM     17 H14  26D L   1       6.193   1.697   4.671  1.00  0.00    +0.0292  H
ATOM     18 H15  26D L   1       3.673   3.436   4.481  1.00  0.00    +0.1052  H
ATOM     19 H16  26D L   1       2.702   1.604   3.400  1.00  0.00    +0.4057 HD
ATOM     20 H17  26D L   1       4.063   0.684   3.614  1.00  0.00    +0.4057 HD
ENDBRANCH 1 13
TORSDOF 1
ENDMDL
MODEL 8
REMARK VINA RESULT:    -5.241      5.046      6.246
REMARK INTER + INTRA:          -5.439
REMARK INTER:                  -5.663
REMARK INTRA:                   0.224
REMARK UNBOUND:                 0.109
ROOT
ATOM      1  C4  26D L   1       5.000   3.027   2.201  1.00  0.00    +0.0507  A
ATOM      2  C5  26D L   1       4.712   4.184   1.446  1.00  0.00    +0.0513  A
ATOM      3 CL6  26D L   1       5.024   4.274  -0.253  1.00  0.00    -0.0830 Cl
ATOM      4  C7  26D L   1       4.151   5.322   2.036  1.00  0.00    -0.0428  A
ATOM      5  C8  26D L   1       3.873   5.342   3.398  1.00  0.00    -0.0590  A
ATOM      6  C9  26D L   1       4.165   4.226   4.173  1.00  0.00    -0.0428  A
ATOM      7 C10  26D L   1       4.726   3.086   3.587  1.00  0.00    +0.0513  A
ATOM      8 CL11 26D L   1       5.075   1.765   4.648  1.00  0.00    -0.0830 Cl
ATOM      9 H18  26D L   1       3.931   6.209   1.441  1.00  0.00    +0.0632  H
ATOM     10 H19  26D L   1       3.442   6.229   3.858  1.00  0.00    +0.0618  H
ATOM     11 H20  26D L   1       3.958   4.255   5.243  1.00  0.00    +0.0632  H
ENDROOT
BRANCH 1 13
ATOM     12  C1  26D L   1       4.783   0.537   1.811  1.00  0.00    -0.0030  C
ATOM     13  C2  26D L   1       5.634   1.785   1.601  1.00  0.00    +0.1566  C
ATOM     14  N3  26D L   1       7.013   1.493   2.091  1.00  0.00    -0.1889  N
ATOM     15 H12  26D L   1       5.239  -0.333   1.324  1.00  0.00    +0.0292  H
ATOM     16 H13  26D L   1       3.783   0.671   1.382  1.00  0.00    +0.0292  H
ATOM     17 H14  26D L   1       4.655   0.295   2.871  1.00  0.00    +0.0292  H
ATOM     18 H15  26D L   1       5.797   1.912   0.528  1.00  0.00    +0.1052  H
ATOM     19 H16  26D L   1       7.644   2.285   1.913  1.00  0.00    +0.4057 HD
ATOM     20 H17  26D L   1       7.014   1.324   3.107  1.00  0.00    +0.4057 HD
ENDBRANCH 1 13
TORSDOF 1
ENDMDL
MODEL 9
REMARK VINA RESULT:    -5.191      4.381      6.360
REMARK INTER + INTRA:          -5.386
REMARK INTER:                  -5.597
REMARK INTRA:                   0.211
REMARK UNBOUND:                 0.109
ROOT
ATOM      1  C4  26D L   1       4.710   3.558   1.713  1.00  0.00    +0.0507  A
ATOM      2  C5  26D L   1       5.842   3.144   0.977  1.00  0.00    +0.0513  A
ATOM      3 CL6  26D L   1       6.117   3.659  -0.652  1.00  0.00    -0.0830 Cl
ATOM      4  C7  26D L   1       6.805   2.295   1.532  1.00  0.00    -0.0428  A
ATOM      5  C8  26D L   1       6.661   1.824   2.833  1.00  0.00    -0.0590  A
ATOM      6  C9  26D L   1       5.547   2.198   3.576  1.00  0.00    -0.0428  A
ATOM      7 C10  26D L   1       4.582   3.047   3.024  1.00  0.00    +0.0513  A
ATOM      8 CL11 26D L   1       3.224   3.425   4.026  1.00  0.00    -0.0830 Cl
ATOM      9 H18  26D L   1       7.675   1.983   0.954  1.00  0.00    +0.0632  H
ATOM     10 H19  26D L   1       7.408   1.160   3.262  1.00  0.00    +0.0618  H
ATOM     11 H20  26D L   1       5.434   1.814   4.590  1.00  0.00    +0.0632  H
ENDROOT
BRANCH 1 13
ATOM     12  C1  26D L   1       3.466   5.751   1.923  1.00  0.00    -0.0030  C
ATOM     13  C2  26D L   1       3.632   4.455   1.134  1.00  0.00    +0.1566  C
ATOM     14  N3  26D L   1       2.290   3.814   1.010  1.00  0.00    -0.1889  N
ATOM     15 H12  26D L   1       2.717   6.400   1.455  1.00  0.00    +0.0292  H
ATOM     16 H13  26D L   1       4.410   6.306   1.964  1.00  0.00    +0.0292  H
ATOM     17 H14  26D L   1       3.148   5.570   2.956  1.00  0.00    +0.0292  H
ATOM     18 H15  26D L   1       3.856   4.714   0.096  1.00  0.00    +0.1052  H
ATOM     19 H16  26D L   1       2.338   2.967   0.430  1.00  0.00    +0.4057 HD
ATOM     20 H17  26D L   1       1.931   3.531   1.933  1.00  0.00    +0.4057 HD
ENDBRANCH 1 13
TORSDOF 1
ENDMDL
MODEL 10
REMARK VINA RESULT:    -5.133      4.224      5.636
REMARK INTER + INTRA:          -5.324
REMARK INTER:                  -5.386
REMARK INTRA:                   0.062
REMARK UNBOUND:                 0.109
ROOT
ATOM      1  C4  26D L   1       4.409   4.205   1.394  1.00  0.00    +0.0507  A
ATOM      2  C5  26D L   1       5.428   3.249   1.596  1.00  0.00    +0.0513  A
ATOM      3 CL6  26D L   1       5.568   2.353   3.070  1.00  0.00    -0.0830 Cl
ATOM      4  C7  26D L   1       6.380   2.973   0.609  1.00  0.00    -0.0428  A
ATOM      5  C8  26D L   1       6.349   3.652  -0.605  1.00  0.00    -0.0590  A
ATOM      6  C9  26D L   1       5.371   4.614  -0.827  1.00  0.00    -0.0428  A
ATOM      7 C10  26D L   1       4.417   4.892   0.159  1.00  0.00    +0.0513  A
ATOM      8 CL11 26D L   1       3.263   6.126  -0.212  1.00  0.00    -0.0830 Cl
ATOM      9 H18  26D L   1       7.161   2.232   0.777  1.00  0.00    +0.0632  H
ATOM     10 H19  26D L   1       7.093   3.441  -1.371  1.00  0.00    +0.0618  H
ATOM     11 H20  26D L   1       5.362   5.151  -1.775  1.00  0.00    +0.0632  H
ENDROOT
BRANCH 1 13
ATOM     12  C1  26D L   1       3.975   5.339   3.613  1.00  0.00    -0.0030  C
ATOM     13  C2  26D L   1       3.378   4.550   2.452  1.00  0.00    +0.1566  C
ATOM     14  N3  26D L   1       2.650   3.375   3.017  1.00  0.00    -0.1889  N
ATOM     15 H12  26D L   1       3.200   5.617   4.336  1.00  0.00    +0.0292  H
ATOM     16 H13  26D L   1       4.444   6.263   3.256  1.00  0.00    +0.0292  H
ATOM     17 H14  26D L   1       4.741   4.770   4.151  1.00  0.00    +0.0292  H
ATOM     18 H15  26D L   1       2.562   5.137   2.024  1.00  0.00    +0.1052  H
ATOM     19 H16  26D L   1       2.175   2.845   2.276  1.00  0.00    +0.4057 HD
ATOM     20 H17  26D L   1       3.302   2.729   3.485  1.00  0.00    +0.4057 HD
ENDBRANCH 1 13
TORSDOF 1
ENDMDL
MODEL 11
REMARK VINA RESULT:    -5.088      4.406      6.110
REMARK INTER + INTRA:          -5.277
REMARK INTER:                  -5.356
REMARK INTRA:                   0.079
REMARK UNBOUND:                 0.109
ROOT
ATOM      1  C4  26D L   1       4.571   3.215   2.062  1.00  0.00    +0.0507  A
ATOM      2  C5  26D L   1       3.716   4.149   1.438  1.00  0.00    +0.0513  A
ATOM      3 CL6  26D L   1       2.148   4.521   2.067  1.00  0.00    -0.0830 Cl
ATOM      4  C7  26D L   1       4.097   4.828   0.276  1.00  0.00    -0.0428  A
ATOM      5  C8  26D L   1       5.338   4.585  -0.304  1.00  0.00    -0.0590  A
ATOM      6  C9  26D L   1       6.194   3.656   0.275  1.00  0.00    -0.0428  A
ATOM      7 C10  26D L   1       5.816   2.975   1.437  1.00  0.00    +0.0513  A
ATOM      8 CL11 26D L   1       6.946   1.821   2.056  1.00  0.00    -0.0830 Cl
ATOM      9 H18  26D L   1       3.428   5.548  -0.195  1.00  0.00    +0.0632  H
ATOM     10 H19  26D L   1       5.631   5.110  -1.211  1.00  0.00    +0.0618  H
ATOM     11 H20  26D L   1       7.159   3.461  -0.194  1.00  0.00    +0.0632  H
ENDROOT
BRANCH 1 13
ATOM     12  C1  26D L   1       3.181   1.325   3.010  1.00  0.00    -0.0030  C
ATOM     13  C2  26D L   1       4.180   2.439   3.307  1.00  0.00    +0.1566  C
ATOM     14  N3  26D L   1       3.626   3.276   4.411  1.00  0.00    -0.1889  N
ATOM     15 H12  26D L   1       2.956   0.752   3.916  1.00  0.00    +0.0292  H
ATOM     16 H13  26D L   1       3.585   0.628   2.266  1.00  0.00    +0.0292  H
ATOM     17 H14  26D L   1       2.234   1.711   2.617  1.00  0.00    +0.0292  H
ATOM     18 H15  26D L   1       5.059   1.993   3.779  1.00  0.00    +0.1052  H
ATOM     19 H16  26D L   1       4.293   4.005   4.692  1.00  0.00    +0.4057 HD
ATOM     20 H17  26D L   1       2.761   3.751   4.114  1.00  0.00    +0.4057 HD
ENDBRANCH 1 13
TORSDOF 1
ENDMDL
