MODEL 1
REMARK VINA RESULT:    -5.150      0.000      0.000
REMARK INTER + INTRA:          -5.534
REMARK INTER:                  -5.451
REMARK INTRA:                  -0.083
REMARK UNBOUND:                -0.083
ROOT
ATOM      1  C4  AMB L   1       6.682   3.874  -1.552  1.00  0.00    +0.0142  A
ATOM      2  C5  AMB L   1       5.902   3.937  -2.719  1.00  0.00    -0.0528  A
ATOM      3  C6  AMB L   1       6.377   4.595  -3.856  1.00  0.00    -0.0613  A
ATOM      4  C7  AMB L   1       7.629   5.203  -3.841  1.00  0.00    -0.0617  A
ATOM      5  C8  AMB L   1       8.413   5.151  -2.692  1.00  0.00    -0.0613  A
ATOM      6  C9  AMB L   1       7.943   4.495  -1.554  1.00  0.00    -0.0528  A
ATOM      7 H16  AMB L   1       4.921   3.471  -2.785  1.00  0.00    +0.0622  H
ATOM      8 H17  AMB L   1       5.774   4.630  -4.762  1.00  0.00    +0.0618  H
ATOM      9 H18  AMB L   1       8.000   5.708  -4.731  1.00  0.00    +0.0618  H
ATOM     10 H19  AMB L   1       9.396   5.619  -2.690  1.00  0.00    +0.0618  H
ATOM     11 H20  AMB L   1       8.593   4.467  -0.678  1.00  0.00    +0.0622  H
ENDROOT
BRANCH 1 13
ATOM     12  C1  AMB L   1       5.407   4.135   0.658  1.00  0.00    -0.0031  C
ATOM     13  C2  AMB L   1       6.181   3.221  -0.285  1.00  0.00    +0.1539  C
ATOM     14  N3  AMB L   1       7.326   2.643   0.473  1.00  0.00    -0.1890  N
ATOM     15 H10  AMB L   1       4.563   4.604   0.139  1.00  0.00    +0.0292  H
ATOM     16 H11  AMB L   1       5.003   3.565   1.502  1.00  0.00    +0.0292  H
ATOM     17 H12  AMB L   1       6.031   4.933   1.074  1.00  0.00    +0.0292  H
ATOM     18 H13  AMB L   1       5.539   2.368  -0.536  1.00  0.00    +0.1051  H
ATOM     19 H14  AMB L   1       7.821   1.965  -0.119  1.00  0.00    +0.4057 HD
ATOM     20 H15  AMB L   1       8.007   3.378   0.700  1.00  0.00    +0.4057 HD
ENDBRANCH 1 13
TORSDOF 1
ENDMDL
MODEL 2
REMARK VINA RESULT:    -5.058      6.726      8.258
REMARK INTER + INTRA:          -5.438
REMARK INTER:                  -5.364
REMARK INTRA:                  -0.074
REMARK UNBOUND:                -0.083
ROOT
ATOM      1  C4  AMB L   1       5.623  -0.322   4.363  1.00  0.00    +0.0142  A
ATOM      2  C5  AMB L   1       6.900  -0.905   4.304  1.00  0.00    -0.0528  A
ATOM      3  C6  AMB L   1       7.075  -2.179   3.759  1.00  0.00    -0.0613  A
ATOM      4  C7  AMB L   1       5.981  -2.888   3.274  1.00  0.00    -0.0617  A
ATOM      5  C8  AMB L   1       4.709  -2.327   3.327  1.00  0.00    -0.0613  A
ATOM      6  C9  AMB L   1       4.528  -1.054   3.870  1.00  0.00    -0.0528  A
ATOM      7 H16  AMB L   1       7.788  -0.387   4.662  1.00  0.00    +0.0622  H
ATOM      8 H17  AMB L   1       8.069  -2.620   3.704  1.00  0.00    +0.0618  H
ATOM      9 H18  AMB L   1       6.121  -3.878   2.842  1.00  0.00    +0.0618  H
ATOM     10 H19  AMB L   1       3.858  -2.882   2.935  1.00  0.00    +0.0618  H
ATOM     11 H20  AMB L   1       3.518  -0.645   3.883  1.00  0.00    +0.0622  H
ENDROOT
BRANCH 1 13
ATOM     12  C1  AMB L   1       5.668   2.229   4.099  1.00  0.00    -0.0031  C
ATOM     13  C2  AMB L   1       5.384   1.030   4.995  1.00  0.00    +0.1539  C
ATOM     14  N3  AMB L   1       6.214   1.166   6.224  1.00  0.00    -0.1890  N
ATOM     15 H10  AMB L   1       5.095   2.163   3.167  1.00  0.00    +0.0292  H
ATOM     16 H11  AMB L   1       5.383   3.161   4.599  1.00  0.00    +0.0292  H
ATOM     17 H12  AMB L   1       6.728   2.313   3.835  1.00  0.00    +0.0292  H
ATOM     18 H13  AMB L   1       4.344   1.099   5.338  1.00  0.00    +0.1051  H
ATOM     19 H14  AMB L   1       5.986   0.409   6.879  1.00  0.00    +0.4057 HD
ATOM     20 H15  AMB L   1       7.209   1.056   5.992  1.00  0.00    +0.4057 HD
ENDBRANCH 1 13
TORSDOF 1
ENDMDL
MODEL 3
REMARK VINA RESULT:    -5.052      4.155      5.593
REMARK INTER + INTRA:          -5.431
REMARK INTER:                  -5.345
REMARK INTRA:                  -0.086
REMARK UNBOUND:                -0.083
ROOT
ATOM      1  C4  AMB L   1       5.340   2.739   2.491  1.00  0.00    +0.0142  A
ATOM      2  C5  AMB L   1       4.808   2.899   3.782  1.00  0.00    -0.0528  A
ATOM      3  C6  AMB L   1       4.099   4.054   4.120  1.00  0.00    -0.0613  A
ATOM      4  C7  AMB L   1       3.918   5.064   3.180  1.00  0.00    -0.0617  A
ATOM      5  C8  AMB L   1       4.440   4.923   1.898  1.00  0.00    -0.0613  A
ATOM      6  C9  AMB L   1       5.149   3.772   1.555  1.00  0.00    -0.0528  A
ATOM      7 H16  AMB L   1       4.914   2.135   4.549  1.00  0.00    +0.0622  H
ATOM      8 H17  AMB L   1       3.678   4.167   5.118  1.00  0.00    +0.0618  H
ATOM      9 H18  AMB L   1       3.358   5.960   3.445  1.00  0.00    +0.0618  H
ATOM     10 H19  AMB L   1       4.285   5.712   1.164  1.00  0.00    +0.0618  H
ATOM     11 H20  AMB L   1       5.533   3.695   0.537  1.00  0.00    +0.0622  H
ENDROOT
BRANCH 1 13
ATOM     12  C1  AMB L   1       6.525   0.595   3.249  1.00  0.00    -0.0031  C
ATOM     13  C2  AMB L   1       6.160   1.532   2.103  1.00  0.00    +0.1539  C
ATOM     14  N3  AMB L   1       7.423   1.968   1.445  1.00  0.00    -0.1890  N
ATOM     15 H10  AMB L   1       5.627   0.263   3.781  1.00  0.00    +0.0292  H
ATOM     16 H11  AMB L   1       7.037  -0.296   2.870  1.00  0.00    +0.0292  H
ATOM     17 H12  AMB L   1       7.192   1.068   3.979  1.00  0.00    +0.0292  H
ATOM     18 H13  AMB L   1       5.624   0.948   1.344  1.00  0.00    +0.1051  H
ATOM     19 H14  AMB L   1       7.201   2.541   0.622  1.00  0.00    +0.4057 HD
ATOM     20 H15  AMB L   1       7.962   2.572   2.079  1.00  0.00    +0.4057 HD
ENDBRANCH 1 13
TORSDOF 1
ENDMDL
MODEL 4
REMARK VINA RESULT:    -5.036      4.615      6.129
REMARK INTER + INTRA:          -5.414
REMARK INTER:                  -5.331
REMARK INTRA:                  -0.083
REMARK UNBOUND:                -0.083
ROOT
ATOM      1  C4  AMB L   1       5.150   2.369   3.667  1.00  0.00    +0.0142  A
ATOM      2  C5  AMB L   1       5.462   2.509   2.304  1.00  0.00    -0.0528  A
ATOM      3  C6  AMB L   1       5.079   3.653   1.601  1.00  0.00    -0.0613  A
ATOM      4  C7  AMB L   1       4.377   4.667   2.245  1.00  0.00    -0.0617  A
ATOM      5  C8  AMB L   1       4.058   4.545   3.594  1.00  0.00    -0.0613  A
ATOM      6  C9  AMB L   1       4.438   3.403   4.301  1.00  0.00    -0.0528  A
ATOM      7 H16  AMB L   1       6.017   1.748   1.758  1.00  0.00    +0.0622  H
ATOM      8 H17  AMB L   1       5.335   3.762   0.549  1.00  0.00    +0.0618  H
ATOM      9 H18  AMB L   1       4.087   5.563   1.696  1.00  0.00    +0.0618  H
ATOM     10 H19  AMB L   1       3.519   5.347   4.095  1.00  0.00    +0.0618  H
ATOM     11 H20  AMB L   1       4.179   3.350   5.359  1.00  0.00    +0.0622  H
ENDROOT
BRANCH 1 13
ATOM     12  C1  AMB L   1       4.378   0.093   4.561  1.00  0.00    -0.0031  C
ATOM     13  C2  AMB L   1       5.496   1.123   4.448  1.00  0.00    +0.1539  C
ATOM     14  N3  AMB L   1       5.922   1.493   5.827  1.00  0.00    -0.1890  N
ATOM     15 H10  AMB L   1       4.014  -0.196   3.569  1.00  0.00    +0.0292  H
ATOM     16 H11  AMB L   1       4.739  -0.814   5.059  1.00  0.00    +0.0292  H
ATOM     17 H12  AMB L   1       3.524   0.463   5.138  1.00  0.00    +0.0292  H
ATOM     18 H13  AMB L   1       6.367   0.633   3.996  1.00  0.00    +0.1051  H
ATOM     19 H14  AMB L   1       6.726   2.130   5.778  1.00  0.00    +0.4057 HD
ATOM     20 H15  AMB L   1       5.172   2.010   6.302  1.00  0.00    +0.4057 HD
ENDBRANCH 1 13
TORSDOF 1
ENDMDL
MODEL 5
REMARK VINA RESULT:    -5.023      5.936      7.053
REMARK INTER + INTRA:          -5.400
REMARK INTER:                  -5.315
REMARK INTRA:                  -0.085
REMARK UNBOUND:                -0.083
ROOT
ATOM      1  C4  AMB L   1       3.760   2.547   3.175  1.00  0.00    +0.0142  A
ATOM      2  C5  AMB L   1       3.413   1.185   3.141  1.00  0.00    -0.0528  A
ATOM      3  C6  AMB L   1       4.060   0.267   3.972  1.00  0.00    -0.0613  A
ATOM      4  C7  AMB L   1       5.062   0.693   4.838  1.00  0.00    -0.0617  A
ATOM      5  C8  AMB L   1       5.419   2.037   4.883  1.00  0.00    -0.0613  A
ATOM      6  C9  AMB L   1       4.776   2.959   4.055  1.00  0.00    -0.0528  A
ATOM      7 H16  AMB L   1       2.630   0.804   2.488  1.00  0.00    +0.0622  H
ATOM      8 H17  AMB L   1       3.779  -0.784   3.951  1.00  0.00    +0.0618  H
ATOM      9 H18  AMB L   1       5.559  -0.024   5.490  1.00  0.00    +0.0618  H
ATOM     10 H19  AMB L   1       6.196   2.365   5.571  1.00  0.00    +0.0618  H
ATOM     11 H20  AMB L   1       5.077   4.004   4.128  1.00  0.00    +0.0622  H
ENDROOT
BRANCH 1 13
ATOM     12  C1  AMB L   1       2.706   4.871   2.914  1.00  0.00    -0.0031  C
ATOM     13  C2  AMB L   1       3.124   3.562   2.254  1.00  0.00    +0.1539  C
ATOM     14  N3  AMB L   1       1.921   2.971   1.604  1.00  0.00    -0.1890  N
ATOM     15 H10  AMB L   1       3.556   5.336   3.427  1.00  0.00    +0.0292  H
ATOM     16 H11  AMB L   1       2.342   5.581   2.164  1.00  0.00    +0.0292  H
ATOM     17 H12  AMB L   1       1.906   4.733   3.648  1.00  0.00    +0.0292  H
ATOM     18 H13  AMB L   1       3.811   3.798   1.433  1.00  0.00    +0.1051  H
ATOM     19 H14  AMB L   1       2.191   2.124   1.088  1.00  0.00    +0.4057 HD
ATOM     20 H15  AMB L   1       1.246   2.670   2.317  1.00  0.00    +0.4057 HD
ENDBRANCH 1 13
TORSDOF 1
ENDMDL
MODEL 6
REMARK VINA RESULT:    -4.933      5.839      7.222
REMARK INTER + INTRA:          -5.305
REMARK INTER:                  -5.214
REMARK INTRA:                  -0.090
REMARK UNBOUND:                -0.083
ROOT
ATOM      1  C4  AMB L   1       3.942   2.347   3.122  1.00  0.00    +0.0142  A
ATOM      2  C5  AMB L   1       4.956   2.635   4.052  1.00  0.00    -0.0528  A
ATOM      3  C6  AMB L   1       5.467   1.632   4.879  1.00  0.00    -0.0613  A
ATOM      4  C7  AMB L   1       4.971   0.335   4.794  1.00  0.00    -0.0617  A
ATOM      5  C8  AMB L   1       3.966   0.033   3.880  1.00  0.00    -0.0613  A
ATOM      6  C9  AMB L   1       3.451   1.031   3.052  1.00  0.00    -0.0528  A
ATOM      7 H16  AMB L   1       5.384   3.631   4.151  1.00  0.00    +0.0622  H
ATOM      8 H17  AMB L   1       6.262   1.857   5.588  1.00  0.00    +0.0618  H
ATOM      9 H18  AMB L   1       5.377  -0.447   5.434  1.00  0.00    +0.0618  H
ATOM     10 H19  AMB L   1       3.590  -0.987   3.811  1.00  0.00    +0.0618  H
ATOM     11 H20  AMB L   1       2.673   0.751   2.342  1.00  0.00    +0.0622  H
ENDROOT
BRANCH 1 13
ATOM     12  C1  AMB L   1       3.133   4.772   2.917  1.00  0.00    -0.0031  C
ATOM     13  C2  AMB L   1       3.324   3.414   2.250  1.00  0.00    +0.1539  C
ATOM     14  N3  AMB L   1       1.997   2.956   1.754  1.00  0.00    -0.1890  N
ATOM     15 H10  AMB L   1       4.082   5.143   3.321  1.00  0.00    +0.0292  H
ATOM     16 H11  AMB L   1       2.768   5.509   2.194  1.00  0.00    +0.0292  H
ATOM     17 H12  AMB L   1       2.410   4.736   3.739  1.00  0.00    +0.0292  H
ATOM     18 H13  AMB L   1       3.936   3.560   1.352  1.00  0.00    +0.1051  H
ATOM     19 H14  AMB L   1       2.110   2.077   1.234  1.00  0.00    +0.4057 HD
ATOM     20 H15  AMB L   1       1.377   2.744   2.545  1.00  0.00    +0.4057 HD
ENDBRANCH 1 13
TORSDOF 1
ENDMDL
MODEL 7
REMARK VINA RESULT:    -4.847      7.458      9.576
REMARK INTER + INTRA:          -5.213
REMARK INTER:                  -5.140
REMARK INTRA:                  -0.074
REMARK UNBOUND:                -0.083
ROOT
ATOM      1  C4  AMB L   1       4.523  -2.255   3.828  1.00  0.00    +0.0142  A
ATOM      2  C5  AMB L   1       5.884  -2.482   3.559  1.00  0.00    -0.0528  A
ATOM      3  C6  AMB L   1       6.470  -3.714   3.857  1.00  0.00    -0.0613  A
ATOM      4  C7  AMB L   1       5.712  -4.729   4.433  1.00  0.00    -0.0617  A
ATOM      5  C8  AMB L   1       4.364  -4.520   4.708  1.00  0.00    -0.0613  A
ATOM      6  C9  AMB L   1       3.773  -3.291   4.411  1.00  0.00    -0.0528  A
ATOM      7 H16  AMB L   1       6.517  -1.724   3.101  1.00  0.00    +0.0622  H
ATOM      8 H17  AMB L   1       7.521  -3.889   3.635  1.00  0.00    +0.0618  H
ATOM      9 H18  AMB L   1       6.171  -5.691   4.657  1.00  0.00    +0.0618  H
ATOM     10 H19  AMB L   1       3.774  -5.321   5.147  1.00  0.00    +0.0618  H
ATOM     11 H20  AMB L   1       2.712  -3.171   4.632  1.00  0.00    +0.0622  H
ENDROOT
BRANCH 1 13
ATOM     12  C1  AMB L   1       4.347  -0.181   2.328  1.00  0.00    -0.0031  C
ATOM     13  C2  AMB L   1       3.865  -0.919   3.572  1.00  0.00    +0.1539  C
ATOM     14  N3  AMB L   1       4.067  -0.023   4.745  1.00  0.00    -0.1890  N
ATOM     15 H10  AMB L   1       4.240  -0.810   1.437  1.00  0.00    +0.0292  H
ATOM     16 H11  AMB L   1       3.758   0.728   2.166  1.00  0.00    +0.0292  H
ATOM     17 H12  AMB L   1       5.398   0.120   2.401  1.00  0.00    +0.0292  H
ATOM     18 H13  AMB L   1       2.779  -1.050   3.490  1.00  0.00    +0.1051  H
ATOM     19 H14  AMB L   1       3.680  -0.468   5.586  1.00  0.00    +0.4057 HD
ATOM     20 H15  AMB L   1       5.070   0.106   4.922  1.00  0.00    +0.4057 HD
ENDBRANCH 1 13
TORSDOF 1
ENDMDL
MODEL 8
REMARK VINA RESULT:    -4.790      6.551      8.065
REMARK INTER + INTRA:          -5.154
REMARK INTER:                  -5.068
REMARK INTRA:                  -0.086
REMARK UNBOUND:                -0.083
ROOT
ATOM      1  C4  AMB L   1       0.615   6.983   0.662  1.00  0.00    +0.0142  A
ATOM      2  C5  AMB L   1       1.918   6.519   0.413  1.00  0.00    -0.0528  A
ATOM      3  C6  AMB L   1       2.831   6.369   1.459  1.00  0.00    -0.0613  A
ATOM      4  C7  AMB L   1       2.459   6.686   2.762  1.00  0.00    -0.0617  A
ATOM      5  C8  AMB L   1       1.174   7.149   3.026  1.00  0.00    -0.0613  A
ATOM      6  C9  AMB L   1       0.258   7.301   1.984  1.00  0.00    -0.0528  A
ATOM      7 H16  AMB L   1       2.254   6.249  -0.587  1.00  0.00    +0.0622  H
ATOM      8 H17  AMB L   1       3.834   5.997   1.263  1.00  0.00    +0.0618  H
ATOM      9 H18  AMB L   1       3.170   6.561   3.578  1.00  0.00    +0.0618  H
ATOM     10 H19  AMB L   1       0.886   7.384   4.049  1.00  0.00    +0.0618  H
ATOM     11 H20  AMB L   1      -0.742   7.655   2.234  1.00  0.00    +0.0622  H
ENDROOT
BRANCH 1 13
ATOM     12  C1  AMB L   1      -0.135   8.450  -1.304  1.00  0.00    -0.0031  C
ATOM     13  C2  AMB L   1      -0.383   7.212  -0.449  1.00  0.00    +0.1539  C
ATOM     14  N3  AMB L   1      -1.757   7.312   0.118  1.00  0.00    -0.1890  N
ATOM     15 H10  AMB L   1       0.875   8.434  -1.727  1.00  0.00    +0.0292  H
ATOM     16 H11  AMB L   1      -0.845   8.491  -2.137  1.00  0.00    +0.0292  H
ATOM     17 H12  AMB L   1      -0.247   9.380  -0.735  1.00  0.00    +0.0292  H
ATOM     18 H13  AMB L   1      -0.405   6.339  -1.113  1.00  0.00    +0.1051  H
ATOM     19 H14  AMB L   1      -1.976   6.454   0.638  1.00  0.00    +0.4057 HD
ATOM     20 H15  AMB L   1      -1.803   8.081   0.798  1.00  0.00    +0.4057 HD
ENDBRANCH 1 13
TORSDOF 1
ENDMDL
MODEL 9
REMARK VINA RESULT:    -4.789      2.996      5.605
REMARK INTER + INTRA:          -5.152
REMARK INTER:                  -5.065
REMARK INTRA:                  -0.087
REMARK UNBOUND:                -0.083
ROOT
ATOM      1  C4  AMB L   1       5.499   3.292   1.736  1.00  0.00    +0.0142  A
ATOM      2  C5  AMB L   1       6.197   2.220   2.318  1.00  0.00    -0.0528  A
ATOM      3  C6  AMB L   1       5.948   1.844   3.640  1.00  0.00    -0.0613  A
ATOM      4  C7  AMB L   1       5.008   2.535   4.398  1.00  0.00    -0.0617  A
ATOM      5  C8  AMB L   1       4.310   3.600   3.839  1.00  0.00    -0.0613  A
ATOM      6  C9  AMB L   1       4.555   3.981   2.519  1.00  0.00    -0.0528  A
ATOM      7 H16  AMB L   1       6.935   1.642   1.764  1.00  0.00    +0.0622  H
ATOM      8 H17  AMB L   1       6.482   1.004   4.081  1.00  0.00    +0.0618  H
ATOM      9 H18  AMB L   1       4.810   2.234   5.426  1.00  0.00    +0.0618  H
ATOM     10 H19  AMB L   1       3.568   4.130   4.434  1.00  0.00    +0.0618  H
ATOM     11 H20  AMB L   1       3.979   4.813   2.114  1.00  0.00    +0.0622  H
ENDROOT
BRANCH 1 13
ATOM     12  C1  AMB L   1       4.771   4.758  -0.239  1.00  0.00    -0.0031  C
ATOM     13  C2  AMB L   1       5.780   3.766   0.329  1.00  0.00    +0.1539  C
ATOM     14  N3  AMB L   1       5.846   2.598  -0.593  1.00  0.00    -0.1890  N
ATOM     15 H10  AMB L   1       4.670   5.629   0.419  1.00  0.00    +0.0292  H
ATOM     16 H11  AMB L   1       5.097   5.119  -1.220  1.00  0.00    +0.0292  H
ATOM     17 H12  AMB L   1       3.777   4.317  -0.367  1.00  0.00    +0.0292  H
ATOM     18 H13  AMB L   1       6.774   4.228   0.285  1.00  0.00    +0.1051  H
ATOM     19 H14  AMB L   1       6.573   1.948  -0.272  1.00  0.00    +0.4057 HD
ATOM     20 H15  AMB L   1       4.961   2.076  -0.566  1.00  0.00    +0.4057 HD
ENDBRANCH 1 13
TORSDOF 1
ENDMDL
MODEL 10
REMARK VINA RESULT:    -4.744      5.812      7.379
REMARK INTER + INTRA:          -5.105
REMARK INTER:                  -5.031
REMARK INTRA:                  -0.074
REMARK UNBOUND:                -0.083
ROOT
ATOM      1  C4  AMB L   1       5.281  -0.021   2.991  1.00  0.00    +0.0142  A
ATOM      2  C5  AMB L   1       4.591  -1.229   2.793  1.00  0.00    -0.0528  A
ATOM      3  C6  AMB L   1       5.145  -2.440   3.214  1.00  0.00    -0.0613  A
ATOM      4  C7  AMB L   1       6.393  -2.462   3.829  1.00  0.00    -0.0617  A
ATOM      5  C8  AMB L   1       7.091  -1.275   4.030  1.00  0.00    -0.0613  A
ATOM      6  C9  AMB L   1       6.542  -0.062   3.611  1.00  0.00    -0.0528  A
ATOM      7 H16  AMB L   1       3.609  -1.264   2.326  1.00  0.00    +0.0622  H
ATOM      8 H17  AMB L   1       4.601  -3.372   3.071  1.00  0.00    +0.0618  H
ATOM      9 H18  AMB L   1       6.819  -3.407   4.164  1.00  0.00    +0.0618  H
ATOM     10 H19  AMB L   1       8.062  -1.298   4.522  1.00  0.00    +0.0618  H
ATOM     11 H20  AMB L   1       7.115   0.846   3.797  1.00  0.00    +0.0622  H
ENDROOT
BRANCH 1 13
ATOM     12  C1  AMB L   1       3.232   1.478   2.621  1.00  0.00    -0.0031  C
ATOM     13  C2  AMB L   1       4.742   1.302   2.499  1.00  0.00    +0.1539  C
ATOM     14  N3  AMB L   1       5.114   1.501   1.071  1.00  0.00    -0.1890  N
ATOM     15 H10  AMB L   1       2.905   1.318   3.655  1.00  0.00    +0.0292  H
ATOM     16 H11  AMB L   1       2.938   2.492   2.331  1.00  0.00    +0.0292  H
ATOM     17 H12  AMB L   1       2.678   0.782   1.982  1.00  0.00    +0.0292  H
ATOM     18 H13  AMB L   1       5.225   2.124   3.042  1.00  0.00    +0.1051  H
ATOM     19 H14  AMB L   1       6.136   1.462   0.974  1.00  0.00    +0.4057 HD
ATOM     20 H15  AMB L   1       4.741   0.733   0.498  1.00  0.00    +0.4057 HD
ENDBRANCH 1 13
TORSDOF 1
ENDMDL
MODEL 11
REMARK VINA RESULT:    -4.738      6.708      7.573
REMARK INTER + INTRA:          -5.099
REMARK INTER:                  -5.014
REMARK INTRA:                  -0.085
REMARK UNBOUND:                -0.083
ROOT
ATOM      1  C4  AMB L   1       0.275   6.719   0.986  1.00  0.00    +0.0142  A
ATOM      2  C5  AMB L   1      -0.862   7.433   0.569  1.00  0.00    -0.0528  A
ATOM      3  C6  AMB L   1      -0.786   8.329  -0.500  1.00  0.00    -0.0613  A
ATOM      4  C7  AMB L   1       0.423   8.530  -1.159  1.00  0.00    -0.0617  A
ATOM      5  C8  AMB L   1       1.558   7.833  -0.758  1.00  0.00    -0.0613  A
ATOM      6  C9  AMB L   1       1.488   6.937   0.309  1.00  0.00    -0.0528  A
ATOM      7 H16  AMB L   1      -1.832   7.304   1.046  1.00  0.00    +0.0622  H
ATOM      8 H17  AMB L   1      -1.672   8.870  -0.827  1.00  0.00    +0.0618  H
ATOM      9 H18  AMB L   1       0.477   9.224  -1.997  1.00  0.00    +0.0618  H
ATOM     10 H19  AMB L   1       2.498   7.987  -1.286  1.00  0.00    +0.0618  H
ATOM     11 H20  AMB L   1       2.397   6.402   0.585  1.00  0.00    +0.0622  H
ENDROOT
BRANCH 1 13
ATOM     12  C1  AMB L   1       1.609   5.284   2.641  1.00  0.00    -0.0031  C
ATOM     13  C2  AMB L   1       0.247   5.784   2.172  1.00  0.00    +0.1539  C
ATOM     14  N3  AMB L   1      -0.596   4.596   1.859  1.00  0.00    -0.1890  N
ATOM     15 H10  AMB L   1       2.276   6.124   2.862  1.00  0.00    +0.0292  H
ATOM     16 H11  AMB L   1       1.507   4.690   3.555  1.00  0.00    +0.0292  H
ATOM     17 H12  AMB L   1       2.102   4.652   1.894  1.00  0.00    +0.0292  H
ATOM     18 H13  AMB L   1      -0.246   6.275   3.019  1.00  0.00    +0.1051  H
ATOM     19 H14  AMB L   1      -1.544   4.904   1.612  1.00  0.00    +0.4057 HD
ATOM     20 H15  AMB L   1      -0.228   4.108   1.033  1.00  0.00    +0.4057 HD
ENDBRANCH 1 13
TORSDOF 1
ENDMDL
MODEL 12
REMARK VINA RESULT:    -4.725      5.503      7.392
REMARK INTER + INTRA:          -5.084
REMARK INTER:                  -5.000
REMARK INTRA:                  -0.084
REMARK UNBOUND:                -0.083
ROOT
ATOM      1  C4  AMB L   1       1.014   5.638   1.226  1.00  0.00    +0.0142  A
ATOM      2  C5  AMB L   1      -0.058   5.826   2.116  1.00  0.00    -0.0528  A
ATOM      3  C6  AMB L   1      -1.099   6.702   1.799  1.00  0.00    -0.0613  A
ATOM      4  C7  AMB L   1      -1.081   7.405   0.598  1.00  0.00    -0.0617  A
ATOM      5  C8  AMB L   1      -0.026   7.232  -0.293  1.00  0.00    -0.0613  A
ATOM      6  C9  AMB L   1       1.017   6.359   0.018  1.00  0.00    -0.0528  A
ATOM      7 H16  AMB L   1      -0.123   5.293   3.062  1.00  0.00    +0.0622  H
ATOM      8 H17  AMB L   1      -1.933   6.833   2.486  1.00  0.00    +0.0618  H
ATOM      9 H18  AMB L   1      -1.898   8.080   0.350  1.00  0.00    +0.0618  H
ATOM     10 H19  AMB L   1      -0.024   7.776  -1.236  1.00  0.00    +0.0618  H
ATOM     11 H20  AMB L   1       1.819   6.243  -0.711  1.00  0.00    +0.0622  H
ENDROOT
BRANCH 1 13
ATOM     12  C1  AMB L   1       3.430   4.957   0.701  1.00  0.00    -0.0031  C
ATOM     13  C2  AMB L   1       2.186   4.744   1.556  1.00  0.00    +0.1539  C
ATOM     14  N3  AMB L   1       1.783   3.316   1.434  1.00  0.00    -0.1890  N
ATOM     15 H10  AMB L   1       3.755   6.003   0.740  1.00  0.00    +0.0292  H
ATOM     16 H11  AMB L   1       4.258   4.338   1.064  1.00  0.00    +0.0292  H
ATOM     17 H12  AMB L   1       3.265   4.696  -0.350  1.00  0.00    +0.0292  H
ATOM     18 H13  AMB L   1       2.469   4.877   2.607  1.00  0.00    +0.1051  H
ATOM     19 H14  AMB L   1       0.990   3.128   2.059  1.00  0.00    +0.4057 HD
ATOM     20 H15  AMB L   1       1.449   3.123   0.481  1.00  0.00    +0.4057 HD
ENDBRANCH 1 13
TORSDOF 1
ENDMDL
