MODEL 1
REMARK VINA RESULT:    -5.282      0.000      0.000
REMARK INTER + INTRA:          -5.595
REMARK INTER:                  -5.590
REMARK INTRA:                  -0.005
REMARK UNBOUND:                -0.005
ROOT
ATOM      1  C3  23C L   1      -0.822   6.735   1.476  1.00  0.00    +0.0311  A
ATOM      2  C4  23C L   1      -1.407   7.485   0.438  1.00  0.00    -0.0516  A
ATOM      3  C5  23C L   1      -0.635   7.947  -0.628  1.00  0.00    -0.0598  A
ATOM      4  C6  23C L   1       0.729   7.670  -0.677  1.00  0.00    -0.0419  A
ATOM      5  C7  23C L   1       1.332   6.928   0.341  1.00  0.00    +0.0597  A
ATOM      6 CL8  23C L   1       3.029   6.633   0.215  1.00  0.00    -0.0820 Cl
ATOM      7  C9  23C L   1       0.562   6.459   1.417  1.00  0.00    +0.0679  A
ATOM      8 CL10 23C L   1       1.298   5.544   2.696  1.00  0.00    -0.0816 Cl
ATOM      9 H15  23C L   1      -2.473   7.713   0.433  1.00  0.00    +0.0623  H
ATOM     10 H16  23C L   1      -1.095   8.521  -1.431  1.00  0.00    +0.0618  H
ATOM     11 H17  23C L   1       1.321   8.035  -1.515  1.00  0.00    +0.0633  H
ENDROOT
BRANCH 1 13
ATOM     12  N1  23C L   1      -2.002   4.817   2.519  1.00  0.00    -0.1914  N
ATOM     13  C2  23C L   1      -1.682   6.259   2.615  1.00  0.00    +0.1480  C
ATOM     14 H11  23C L   1      -2.601   4.506   3.293  1.00  0.00    +0.4054 HD
ATOM     15 H12  23C L   1      -1.154   4.237   2.508  1.00  0.00    +0.4054 HD
ATOM     16 H13  23C L   1      -2.629   6.804   2.663  1.00  0.00    +0.1017  H
ATOM     17 H14  23C L   1      -1.179   6.395   3.578  1.00  0.00    +0.1017  H
ENDBRANCH 1 13
TORSDOF 1
ENDMDL
MODEL 2
REMARK VINA RESULT:    -5.162      5.730      7.090
REMARK INTER + INTRA:          -5.468
REMARK INTER:                  -5.441
REMARK INTRA:                  -0.028
REMARK UNBOUND:                -0.005
ROOT
ATOM      1  C3  23C L   1       5.480   3.173   1.956  1.00  0.00    +0.0311  A
ATOM      2  C4  23C L   1       5.494   2.468   3.175  1.00  0.00    -0.0516  A
ATOM      3  C5  23C L   1       4.725   2.899   4.255  1.00  0.00    -0.0598  A
ATOM      4  C6  23C L   1       3.930   4.038   4.139  1.00  0.00    -0.0419  A
ATOM      5  C7  23C L   1       3.900   4.753   2.940  1.00  0.00    +0.0597  A
ATOM      6 CL8  23C L   1       2.897   6.159   2.875  1.00  0.00    -0.0820 Cl
ATOM      7  C9  23C L   1       4.671   4.326   1.848  1.00  0.00    +0.0679  A
ATOM      8 CL10 23C L   1       4.653   5.209   0.354  1.00  0.00    -0.0816 Cl
ATOM      9 H15  23C L   1       6.093   1.566   3.303  1.00  0.00    +0.0623  H
ATOM     10 H16  23C L   1       4.734   2.346   5.193  1.00  0.00    +0.0618  H
ATOM     11 H17  23C L   1       3.332   4.364   4.989  1.00  0.00    +0.0633  H
ENDROOT
BRANCH 1 13
ATOM     12  N1  23C L   1       7.572   2.025   1.274  1.00  0.00    -0.1914  N
ATOM     13  C2  23C L   1       6.329   2.684   0.814  1.00  0.00    +0.1480  C
ATOM     14 H11  23C L   1       8.150   1.708   0.487  1.00  0.00    +0.4054 HD
ATOM     15 H12  23C L   1       7.376   1.220   1.881  1.00  0.00    +0.4054 HD
ATOM     16 H13  23C L   1       6.616   3.500   0.145  1.00  0.00    +0.1017  H
ATOM     17 H14  23C L   1       5.796   1.941   0.212  1.00  0.00    +0.1017  H
ENDBRANCH 1 13
TORSDOF 1
ENDMDL
MODEL 3
REMARK VINA RESULT:    -5.143      6.138      6.954
REMARK INTER + INTRA:          -5.449
REMARK INTER:                  -5.405
REMARK INTRA:                  -0.044
REMARK UNBOUND:                -0.005
ROOT
ATOM      1  C3  23C L   1       5.136   2.717   3.935  1.00  0.00    +0.0311  A
ATOM      2  C4  23C L   1       4.173   3.731   4.105  1.00  0.00    -0.0516  A
ATOM      3  C5  23C L   1       3.809   4.551   3.038  1.00  0.00    -0.0598  A
ATOM      4  C6  23C L   1       4.397   4.376   1.786  1.00  0.00    -0.0419  A
ATOM      5  C7  23C L   1       5.354   3.377   1.594  1.00  0.00    +0.0597  A
ATOM      6 CL8  23C L   1       6.044   3.226   0.018  1.00  0.00    -0.0820 Cl
ATOM      7  C9  23C L   1       5.726   2.547   2.664  1.00  0.00    +0.0679  A
ATOM      8 CL10 23C L   1       6.921   1.308   2.445  1.00  0.00    -0.0816 Cl
ATOM      9 H15  23C L   1       3.681   3.893   5.064  1.00  0.00    +0.0623  H
ATOM     10 H16  23C L   1       3.058   5.329   3.173  1.00  0.00    +0.0618  H
ATOM     11 H17  23C L   1       4.102   5.022   0.960  1.00  0.00    +0.0633  H
ENDROOT
BRANCH 1 13
ATOM     12  N1  23C L   1       4.765   0.577   5.137  1.00  0.00    -0.1914  N
ATOM     13  C2  23C L   1       5.511   1.856   5.110  1.00  0.00    +0.1480  C
ATOM     14 H11  23C L   1       5.020   0.004   5.950  1.00  0.00    +0.4054 HD
ATOM     15 H12  23C L   1       4.924   0.025   4.285  1.00  0.00    +0.4054 HD
ATOM     16 H13  23C L   1       5.326   2.365   6.061  1.00  0.00    +0.1017  H
ATOM     17 H14  23C L   1       6.572   1.588   5.085  1.00  0.00    +0.1017  H
ENDBRANCH 1 13
TORSDOF 1
ENDMDL
MODEL 4
REMARK VINA RESULT:    -5.063     10.497     11.670
REMARK INTER + INTRA:          -5.364
REMARK INTER:                  -5.336
REMARK INTRA:                  -0.028
REMARK UNBOUND:                -0.005
ROOT
ATOM      1  C3  23C L   1       5.701  -2.179   3.805  1.00  0.00    +0.0311  A
ATOM      2  C4  23C L   1       6.372  -3.405   3.973  1.00  0.00    -0.0516  A
ATOM      3  C5  23C L   1       5.677  -4.549   4.366  1.00  0.00    -0.0598  A
ATOM      4  C6  23C L   1       4.304  -4.489   4.598  1.00  0.00    -0.0419  A
ATOM      5  C7  23C L   1       3.617  -3.284   4.438  1.00  0.00    +0.0597  A
ATOM      6 CL8  23C L   1       1.918  -3.287   4.751  1.00  0.00    -0.0820 Cl
ATOM      7  C9  23C L   1       4.310  -2.129   4.042  1.00  0.00    +0.0679  A
ATOM      8 CL10 23C L   1       3.472  -0.621   3.849  1.00  0.00    -0.0816 Cl
ATOM      9 H15  23C L   1       7.443  -3.497   3.790  1.00  0.00    +0.0623  H
ATOM     10 H16  23C L   1       6.201  -5.496   4.487  1.00  0.00    +0.0618  H
ATOM     11 H17  23C L   1       3.773  -5.390   4.902  1.00  0.00    +0.0633  H
ENDROOT
BRANCH 1 13
ATOM     12  N1  23C L   1       7.721  -0.787   4.181  1.00  0.00    -0.1914  N
ATOM     13  C2  23C L   1       6.483  -0.963   3.388  1.00  0.00    +0.1480  C
ATOM     14 H11  23C L   1       8.239   0.053   3.898  1.00  0.00    +0.4054 HD
ATOM     15 H12  23C L   1       8.345  -1.599   4.101  1.00  0.00    +0.4054 HD
ATOM     16 H13  23C L   1       5.893  -0.047   3.490  1.00  0.00    +0.1017  H
ATOM     17 H14  23C L   1       6.800  -1.032   2.343  1.00  0.00    +0.1017  H
ENDBRANCH 1 13
TORSDOF 1
ENDMDL
MODEL 5
REMARK VINA RESULT:    -5.057      6.540      7.489
REMARK INTER + INTRA:          -5.357
REMARK INTER:                  -5.308
REMARK INTRA:                  -0.049
REMARK UNBOUND:                -0.005
ROOT
ATOM      1  C3  23C L   1       5.581   1.913   3.477  1.00  0.00    +0.0311  A
ATOM      2  C4  23C L   1       6.687   1.536   2.692  1.00  0.00    -0.0516  A
ATOM      3  C5  23C L   1       6.949   2.172   1.479  1.00  0.00    -0.0598  A
ATOM      4  C6  23C L   1       6.113   3.192   1.028  1.00  0.00    -0.0419  A
ATOM      5  C7  23C L   1       5.010   3.583   1.789  1.00  0.00    +0.0597  A
ATOM      6 CL8  23C L   1       4.016   4.849   1.161  1.00  0.00    -0.0820 Cl
ATOM      7  C9  23C L   1       4.740   2.948   3.011  1.00  0.00    +0.0679  A
ATOM      8 CL10 23C L   1       3.366   3.415   3.964  1.00  0.00    -0.0816 Cl
ATOM      9 H15  23C L   1       7.372   0.751   3.015  1.00  0.00    +0.0623  H
ATOM     10 H16  23C L   1       7.811   1.881   0.880  1.00  0.00    +0.0618  H
ATOM     11 H17  23C L   1       6.330   3.683   0.080  1.00  0.00    +0.0633  H
ENDROOT
BRANCH 1 13
ATOM     12  N1  23C L   1       6.051   1.811   5.911  1.00  0.00    -0.1914  N
ATOM     13  C2  23C L   1       5.323   1.200   4.776  1.00  0.00    +0.1480  C
ATOM     14 H11  23C L   1       5.879   1.308   6.790  1.00  0.00    +0.4054 HD
ATOM     15 H12  23C L   1       5.794   2.796   6.044  1.00  0.00    +0.4054 HD
ATOM     16 H13  23C L   1       5.616   0.147   4.726  1.00  0.00    +0.1017  H
ATOM     17 H14  23C L   1       4.262   1.230   5.044  1.00  0.00    +0.1017  H
ENDBRANCH 1 13
TORSDOF 1
ENDMDL
MODEL 6
REMARK VINA RESULT:    -5.053      5.752      6.950
REMARK INTER + INTRA:          -5.353
REMARK INTER:                  -5.322
REMARK INTRA:                  -0.031
REMARK UNBOUND:                -0.005
ROOT
ATOM      1  C3  23C L   1       4.723   3.686   1.768  1.00  0.00    +0.0311  A
ATOM      2  C4  23C L   1       5.771   3.257   0.933  1.00  0.00    -0.0516  A
ATOM      3  C5  23C L   1       6.722   2.347   1.395  1.00  0.00    -0.0598  A
ATOM      4  C6  23C L   1       6.644   1.851   2.695  1.00  0.00    -0.0419  A
ATOM      5  C7  23C L   1       5.613   2.263   3.542  1.00  0.00    +0.0597  A
ATOM      6 CL8  23C L   1       5.587   1.612   5.142  1.00  0.00    -0.0820 Cl
ATOM      7  C9  23C L   1       4.652   3.179   3.084  1.00  0.00    +0.0679  A
ATOM      8 CL10 23C L   1       3.371   3.709   4.128  1.00  0.00    -0.0816 Cl
ATOM      9 H15  23C L   1       5.861   3.611  -0.094  1.00  0.00    +0.0623  H
ATOM     10 H16  23C L   1       7.526   2.012   0.741  1.00  0.00    +0.0618  H
ATOM     11 H17  23C L   1       7.391   1.139   3.043  1.00  0.00    +0.0633  H
ENDROOT
BRANCH 1 13
ATOM     12  N1  23C L   1       2.463   4.028   0.801  1.00  0.00    -0.1914  N
ATOM     13  C2  23C L   1       3.720   4.675   1.240  1.00  0.00    +0.1480  C
ATOM     14 H11  23C L   1       1.791   4.710   0.430  1.00  0.00    +0.4054 HD
ATOM     15 H12  23C L   1       2.013   3.509   1.566  1.00  0.00    +0.4054 HD
ATOM     16 H13  23C L   1       4.115   5.238   0.389  1.00  0.00    +0.1017  H
ATOM     17 H14  23C L   1       3.435   5.402   2.007  1.00  0.00    +0.1017  H
ENDBRANCH 1 13
TORSDOF 1
ENDMDL
MODEL 7
REMARK VINA RESULT:    -5.050      1.955      2.599
REMARK INTER + INTRA:          -5.351
REMARK INTER:                  -5.311
REMARK INTRA:                  -0.040
REMARK UNBOUND:                -0.005
ROOT
ATOM      1  C3  23C L   1      -0.067   5.972   1.718  1.00  0.00    +0.0311  A
ATOM      2  C4  23C L   1       1.172   5.353   1.968  1.00  0.00    -0.0516  A
ATOM      3  C5  23C L   1       2.302   5.697   1.226  1.00  0.00    -0.0598  A
ATOM      4  C6  23C L   1       2.215   6.662   0.224  1.00  0.00    -0.0419  A
ATOM      5  C7  23C L   1       0.996   7.290  -0.042  1.00  0.00    +0.0597  A
ATOM      6 CL8  23C L   1       0.964   8.469  -1.304  1.00  0.00    -0.0820 Cl
ATOM      7  C9  23C L   1      -0.145   6.948   0.701  1.00  0.00    +0.0679  A
ATOM      8 CL10 23C L   1      -1.670   7.711   0.376  1.00  0.00    -0.0816 Cl
ATOM      9 H15  23C L   1       1.285   4.602   2.750  1.00  0.00    +0.0623  H
ATOM     10 H16  23C L   1       3.260   5.220   1.429  1.00  0.00    +0.0618  H
ATOM     11 H17  23C L   1       3.104   6.924  -0.347  1.00  0.00    +0.0633  H
ENDROOT
BRANCH 1 13
ATOM     12  N1  23C L   1      -1.766   4.222   2.177  1.00  0.00    -0.1914  N
ATOM     13  C2  23C L   1      -1.267   5.570   2.532  1.00  0.00    +0.1480  C
ATOM     14 H11  23C L   1      -2.593   3.964   2.729  1.00  0.00    +0.4054 HD
ATOM     15 H12  23C L   1      -1.047   3.501   2.310  1.00  0.00    +0.4054 HD
ATOM     16 H13  23C L   1      -2.096   6.273   2.405  1.00  0.00    +0.1017  H
ATOM     17 H14  23C L   1      -1.030   5.535   3.600  1.00  0.00    +0.1017  H
ENDBRANCH 1 13
TORSDOF 1
ENDMDL
MODEL 8
REMARK VINA RESULT:    -5.023      1.994      2.902
REMARK INTER + INTRA:          -5.322
REMARK INTER:                  -5.273
REMARK INTRA:                  -0.049
REMARK UNBOUND:                -0.005
ROOT
ATOM      1  C3  23C L   1       0.907   5.672   1.597  1.00  0.00    +0.0311  A
ATOM      2  C4  23C L   1      -0.373   5.702   2.181  1.00  0.00    -0.0516  A
ATOM      3  C5  23C L   1      -1.341   6.599   1.729  1.00  0.00    -0.0598  A
ATOM      4  C6  23C L   1      -1.048   7.480   0.690  1.00  0.00    -0.0419  A
ATOM      5  C7  23C L   1       0.215   7.469   0.095  1.00  0.00    +0.0597  A
ATOM      6 CL8  23C L   1       0.506   8.596  -1.181  1.00  0.00    -0.0820 Cl
ATOM      7  C9  23C L   1       1.194   6.569   0.545  1.00  0.00    +0.0679  A
ATOM      8 CL10 23C L   1       2.773   6.550  -0.177  1.00  0.00    -0.0816 Cl
ATOM      9 H15  23C L   1      -0.646   5.021   2.988  1.00  0.00    +0.0623  H
ATOM     10 H16  23C L   1      -2.332   6.612   2.180  1.00  0.00    +0.0618  H
ATOM     11 H17  23C L   1      -1.813   8.174   0.345  1.00  0.00    +0.0633  H
ENDROOT
BRANCH 1 13
ATOM     12  N1  23C L   1       1.812   3.364   1.482  1.00  0.00    -0.1914  N
ATOM     13  C2  23C L   1       1.929   4.697   2.115  1.00  0.00    +0.1480  C
ATOM     14 H11  23C L   1       2.505   2.703   1.852  1.00  0.00    +0.4054 HD
ATOM     15 H12  23C L   1       1.922   3.414   0.462  1.00  0.00    +0.4054 HD
ATOM     16 H13  23C L   1       1.844   4.556   3.196  1.00  0.00    +0.1017  H
ATOM     17 H14  23C L   1       2.948   5.041   1.910  1.00  0.00    +0.1017  H
ENDBRANCH 1 13
TORSDOF 1
ENDMDL
MODEL 9
REMARK VINA RESULT:    -4.997      9.391     10.343
REMARK INTER + INTRA:          -5.294
REMARK INTER:                  -5.258
REMARK INTRA:                  -0.036
REMARK UNBOUND:                -0.005
ROOT
ATOM      1  C3  23C L   1       5.095  -0.155   4.416  1.00  0.00    +0.0311  A
ATOM      2  C4  23C L   1       3.704  -0.377   4.424  1.00  0.00    -0.0516  A
ATOM      3  C5  23C L   1       3.185  -1.647   4.173  1.00  0.00    -0.0598  A
ATOM      4  C6  23C L   1       4.042  -2.714   3.910  1.00  0.00    -0.0419  A
ATOM      5  C7  23C L   1       5.424  -2.518   3.896  1.00  0.00    +0.0597  A
ATOM      6 CL8  23C L   1       6.421  -3.887   3.554  1.00  0.00    -0.0820 Cl
ATOM      7  C9  23C L   1       5.954  -1.243   4.148  1.00  0.00    +0.0679  A
ATOM      8 CL10 23C L   1       7.670  -0.980   4.124  1.00  0.00    -0.0816 Cl
ATOM      9 H15  23C L   1       3.001   0.428   4.637  1.00  0.00    +0.0623  H
ATOM     10 H16  23C L   1       2.109  -1.814   4.188  1.00  0.00    +0.0618  H
ATOM     11 H17  23C L   1       3.624  -3.702   3.717  1.00  0.00    +0.0633  H
ENDROOT
BRANCH 1 13
ATOM     12  N1  23C L   1       6.065   1.406   6.084  1.00  0.00    -0.1914  N
ATOM     13  C2  23C L   1       5.620   1.229   4.683  1.00  0.00    +0.1480  C
ATOM     14 H11  23C L   1       6.408   2.358   6.257  1.00  0.00    +0.4054 HD
ATOM     15 H12  23C L   1       6.806   0.741   6.336  1.00  0.00    +0.4054 HD
ATOM     16 H13  23C L   1       4.866   1.996   4.478  1.00  0.00    +0.1017  H
ATOM     17 H14  23C L   1       6.489   1.453   4.057  1.00  0.00    +0.1017  H
ENDBRANCH 1 13
TORSDOF 1
ENDMDL
MODEL 10
REMARK VINA RESULT:    -4.926      6.422      7.782
REMARK INTER + INTRA:          -5.219
REMARK INTER:                  -5.190
REMARK INTRA:                  -0.029
REMARK UNBOUND:                -0.005
ROOT
ATOM      1  C3  23C L   1       5.953   3.159   1.019  1.00  0.00    +0.0311  A
ATOM      2  C4  23C L   1       6.833   2.211   1.575  1.00  0.00    -0.0516  A
ATOM      3  C5  23C L   1       6.629   1.722   2.865  1.00  0.00    -0.0598  A
ATOM      4  C6  23C L   1       5.547   2.169   3.621  1.00  0.00    -0.0419  A
ATOM      5  C7  23C L   1       4.662   3.110   3.091  1.00  0.00    +0.0597  A
ATOM      6 CL8  23C L   1       3.350   3.623   4.092  1.00  0.00    -0.0820 Cl
ATOM      7  C9  23C L   1       4.860   3.606   1.793  1.00  0.00    +0.0679  A
ATOM      8 CL10 23C L   1       3.774   4.783   1.124  1.00  0.00    -0.0816 Cl
ATOM      9 H15  23C L   1       7.683   1.826   1.012  1.00  0.00    +0.0623  H
ATOM     10 H16  23C L   1       7.309   0.983   3.287  1.00  0.00    +0.0618  H
ATOM     11 H17  23C L   1       5.398   1.778   4.627  1.00  0.00    +0.0633  H
ENDROOT
BRANCH 1 13
ATOM     12  N1  23C L   1       7.301   2.942  -1.053  1.00  0.00    -0.1914  N
ATOM     13  C2  23C L   1       6.207   3.671  -0.372  1.00  0.00    +0.1480  C
ATOM     14 H11  23C L   1       7.475   3.309  -1.996  1.00  0.00    +0.4054 HD
ATOM     15 H12  23C L   1       7.104   1.937  -1.125  1.00  0.00    +0.4054 HD
ATOM     16 H13  23C L   1       6.470   4.733  -0.372  1.00  0.00    +0.1017  H
ATOM     17 H14  23C L   1       5.324   3.555  -1.008  1.00  0.00    +0.1017  H
ENDBRANCH 1 13
TORSDOF 1
ENDMDL
MODEL 11
REMARK VINA RESULT:    -4.908      5.422      6.450
REMARK INTER + INTRA:          -5.199
REMARK INTER:                  -5.171
REMARK INTRA:                  -0.028
REMARK UNBOUND:                -0.005
ROOT
ATOM      1  C3  23C L   1       5.504   3.289   1.634  1.00  0.00    +0.0311  A
ATOM      2  C4  23C L   1       5.678   3.710   0.302  1.00  0.00    -0.0516  A
ATOM      3  C5  23C L   1       4.921   4.760  -0.217  1.00  0.00    -0.0598  A
ATOM      4  C6  23C L   1       3.979   5.406   0.582  1.00  0.00    -0.0419  A
ATOM      5  C7  23C L   1       3.788   5.005   1.906  1.00  0.00    +0.0597  A
ATOM      6 CL8  23C L   1       2.596   5.847   2.830  1.00  0.00    -0.0820 Cl
ATOM      7  C9  23C L   1       4.547   3.949   2.435  1.00  0.00    +0.0679  A
ATOM      8 CL10 23C L   1       4.314   3.432   4.076  1.00  0.00    -0.0816 Cl
ATOM      9 H15  23C L   1       6.413   3.240  -0.351  1.00  0.00    +0.0623  H
ATOM     10 H16  23C L   1       5.066   5.087  -1.246  1.00  0.00    +0.0618  H
ATOM     11 H17  23C L   1       3.395   6.226   0.166  1.00  0.00    +0.0633  H
ENDROOT
BRANCH 1 13
ATOM     12  N1  23C L   1       7.581   1.953   1.388  1.00  0.00    -0.1914  N
ATOM     13  C2  23C L   1       6.332   2.148   2.158  1.00  0.00    +0.1480  C
ATOM     14 H11  23C L   1       8.132   1.163   1.746  1.00  0.00    +0.4054 HD
ATOM     15 H12  23C L   1       8.171   2.794   1.398  1.00  0.00    +0.4054 HD
ATOM     16 H13  23C L   1       5.781   1.203   2.136  1.00  0.00    +0.1017  H
ATOM     17 H14  23C L   1       6.639   2.321   3.195  1.00  0.00    +0.1017  H
ENDBRANCH 1 13
TORSDOF 1
ENDMDL
MODEL 12
REMARK VINA RESULT:    -4.887      5.935      7.128
REMARK INTER + INTRA:          -5.178
REMARK INTER:                  -5.149
REMARK INTRA:                  -0.029
REMARK UNBOUND:                -0.005
ROOT
ATOM      1  C3  23C L   1       5.298   3.485   1.532  1.00  0.00    +0.0311  A
ATOM      2  C4  23C L   1       4.296   4.447   1.763  1.00  0.00    -0.0516  A
ATOM      3  C5  23C L   1       3.688   4.555   3.013  1.00  0.00    -0.0598  A
ATOM      4  C6  23C L   1       4.067   3.707   4.052  1.00  0.00    -0.0419  A
ATOM      5  C7  23C L   1       5.057   2.745   3.847  1.00  0.00    +0.0597  A
ATOM      6 CL8  23C L   1       5.467   1.724   5.179  1.00  0.00    -0.0820 Cl
ATOM      7  C9  23C L   1       5.674   2.630   2.591  1.00  0.00    +0.0679  A
ATOM      8 CL10 23C L   1       6.900   1.432   2.316  1.00  0.00    -0.0816 Cl
ATOM      9 H15  23C L   1       3.980   5.138   0.981  1.00  0.00    +0.0623  H
ATOM     10 H16  23C L   1       2.919   5.307   3.188  1.00  0.00    +0.0618  H
ATOM     11 H17  23C L   1       3.585   3.803   5.024  1.00  0.00    +0.0633  H
ENDROOT
BRANCH 1 13
ATOM     12  N1  23C L   1       5.123   4.068  -0.874  1.00  0.00    -0.1914  N
ATOM     13  C2  23C L   1       5.927   3.391   0.169  1.00  0.00    +0.1480  C
ATOM     14 H11  23C L   1       5.555   3.986  -1.802  1.00  0.00    +0.4054 HD
ATOM     15 H12  23C L   1       4.987   5.065  -0.664  1.00  0.00    +0.4054 HD
ATOM     16 H13  23C L   1       6.063   2.352  -0.144  1.00  0.00    +0.1017  H
ATOM     17 H14  23C L   1       6.912   3.868   0.151  1.00  0.00    +0.1017  H
ENDBRANCH 1 13
TORSDOF 1
ENDMDL
