MODEL 1
REMARK VINA RESULT:    -5.497      0.000      0.000
REMARK INTER + INTRA:          -5.967
REMARK INTER:                  -5.818
REMARK INTRA:                  -0.149
REMARK UNBOUND:                -0.149
ROOT
ATOM      1  C4  DCM L   1       5.258  -0.029   4.492  1.00  0.00    +0.0339  A
ATOM      2  C5  DCM L   1       3.854  -0.125   4.383  1.00  0.00    -0.0513  A
ATOM      3  C6  DCM L   1       3.238  -1.336   4.066  1.00  0.00    -0.0598  A
ATOM      4  C7  DCM L   1       4.010  -2.473   3.843  1.00  0.00    -0.0419  A
ATOM      5  C8  DCM L   1       5.401  -2.404   3.927  1.00  0.00    +0.0597  A
ATOM      6 CL9  DCM L   1       6.286  -3.858   3.631  1.00  0.00    -0.0820 Cl
ATOM      7 C10  DCM L   1       6.030  -1.188   4.245  1.00  0.00    +0.0682  A
ATOM      8 CL11 DCM L   1       7.762  -1.101   4.331  1.00  0.00    -0.0815 Cl
ATOM      9 H18  DCM L   1       3.212   0.745   4.526  1.00  0.00    +0.0623  H
ATOM     10 H19  DCM L   1       2.154  -1.397   3.981  1.00  0.00    +0.0618  H
ATOM     11 H20  DCM L   1       3.519  -3.413   3.593  1.00  0.00    +0.0633  H
ENDROOT
BRANCH 1 13
ATOM     12  C1  DCM L   1       5.002   2.476   4.420  1.00  0.00    -0.0030  C
ATOM     13  C2  DCM L   1       5.894   1.308   4.825  1.00  0.00    +0.1553  C
ATOM     14  N3  DCM L   1       6.185   1.440   6.283  1.00  0.00    -0.1890  N
ATOM     15 H12  DCM L   1       4.788   2.450   3.345  1.00  0.00    +0.0292  H
ATOM     16 H13  DCM L   1       5.489   3.434   4.637  1.00  0.00    +0.0292  H
ATOM     17 H14  DCM L   1       4.043   2.463   4.950  1.00  0.00    +0.0292  H
ATOM     18 H15  DCM L   1       6.875   1.422   4.360  1.00  0.00    +0.1051  H
ATOM     19 H16  DCM L   1       6.773   0.660   6.601  1.00  0.00    +0.4057 HD
ATOM     20 H17  DCM L   1       6.700   2.309   6.478  1.00  0.00    +0.4057 HD
ENDBRANCH 1 13
TORSDOF 1
ENDMDL
MODEL 2
REMARK VINA RESULT:    -5.458      9.094     10.276
REMARK INTER + INTRA:          -5.926
REMARK INTER:                  -5.780
REMARK INTRA:                  -0.146
REMARK UNBOUND:                -0.149
ROOT
ATOM      1  C4  DCM L   1      -0.173   6.738   1.066  1.00  0.00    +0.0339  A
ATOM      2  C5  DCM L   1      -1.064   7.476   0.257  1.00  0.00    -0.0513  A
ATOM      3  C6  DCM L   1      -0.602   8.221  -0.828  1.00  0.00    -0.0598  A
ATOM      4  C7  DCM L   1       0.758   8.254  -1.122  1.00  0.00    -0.0419  A
ATOM      5  C8  DCM L   1       1.664   7.549  -0.330  1.00  0.00    +0.0597  A
ATOM      6 CL9  DCM L   1       3.335   7.646  -0.758  1.00  0.00    -0.0820 Cl
ATOM      7 C10  DCM L   1       1.208   6.796   0.766  1.00  0.00    +0.0682  A
ATOM      8 CL11 DCM L   1       2.339   5.934   1.761  1.00  0.00    -0.0815 Cl
ATOM      9 H18  DCM L   1      -2.135   7.498   0.465  1.00  0.00    +0.0623  H
ATOM     10 H19  DCM L   1      -1.299   8.789  -1.443  1.00  0.00    +0.0618  H
ATOM     11 H20  DCM L   1       1.108   8.843  -1.969  1.00  0.00    +0.0633  H
ENDROOT
BRANCH 1 13
ATOM     12  C1  DCM L   1      -2.048   6.496   2.731  1.00  0.00    -0.0030  C
ATOM     13  C2  DCM L   1      -0.710   5.949   2.245  1.00  0.00    +0.1553  C
ATOM     14  N3  DCM L   1      -0.900   4.506   1.912  1.00  0.00    -0.1890  N
ATOM     15 H12  DCM L   1      -1.956   7.547   3.027  1.00  0.00    +0.0292  H
ATOM     16 H13  DCM L   1      -2.406   5.936   3.603  1.00  0.00    +0.0292  H
ATOM     17 H14  DCM L   1      -2.821   6.436   1.956  1.00  0.00    +0.0292  H
ATOM     18 H15  DCM L   1      -0.004   5.926   3.078  1.00  0.00    +0.1051  H
ATOM     19 H16  DCM L   1      -0.021   4.102   1.564  1.00  0.00    +0.4057 HD
ATOM     20 H17  DCM L   1      -1.173   3.969   2.745  1.00  0.00    +0.4057 HD
ENDBRANCH 1 13
TORSDOF 1
ENDMDL
MODEL 3
REMARK VINA RESULT:    -5.448      3.696      5.235
REMARK INTER + INTRA:          -5.915
REMARK INTER:                  -5.773
REMARK INTRA:                  -0.142
REMARK UNBOUND:                -0.149
ROOT
ATOM      1  C4  DCM L   1       5.443   2.099   3.466  1.00  0.00    +0.0339  A
ATOM      2  C5  DCM L   1       6.576   1.678   2.738  1.00  0.00    -0.0513  A
ATOM      3  C6  DCM L   1       6.890   2.246   1.503  1.00  0.00    -0.0598  A
ATOM      4  C7  DCM L   1       6.076   3.238   0.965  1.00  0.00    -0.0419  A
ATOM      5  C8  DCM L   1       4.939   3.663   1.655  1.00  0.00    +0.0597  A
ATOM      6 CL9  DCM L   1       3.977   4.894   0.916  1.00  0.00    -0.0820 Cl
ATOM      7 C10  DCM L   1       4.615   3.095   2.899  1.00  0.00    +0.0682  A
ATOM      8 CL11 DCM L   1       3.190   3.612   3.746  1.00  0.00    -0.0815 Cl
ATOM      9 H18  DCM L   1       7.229   0.887   3.109  1.00  0.00    +0.0623  H
ATOM     10 H19  DCM L   1       7.766   1.910   0.948  1.00  0.00    +0.0618  H
ATOM     11 H20  DCM L   1       6.327   3.673  -0.002  1.00  0.00    +0.0633  H
ENDROOT
BRANCH 1 13
ATOM     12  C1  DCM L   1       5.083  -0.071   4.693  1.00  0.00    -0.0030  C
ATOM     13  C2  DCM L   1       5.126   1.449   4.799  1.00  0.00    +0.1553  C
ATOM     14  N3  DCM L   1       6.128   1.806   5.847  1.00  0.00    -0.1890  N
ATOM     15 H12  DCM L   1       4.332  -0.391   3.962  1.00  0.00    +0.0292  H
ATOM     16 H13  DCM L   1       4.821  -0.524   5.657  1.00  0.00    +0.0292  H
ATOM     17 H14  DCM L   1       6.048  -0.487   4.381  1.00  0.00    +0.0292  H
ATOM     18 H15  DCM L   1       4.184   1.810   5.218  1.00  0.00    +0.1051  H
ATOM     19 H16  DCM L   1       6.199   2.827   5.939  1.00  0.00    +0.4057 HD
ATOM     20 H17  DCM L   1       5.848   1.436   6.765  1.00  0.00    +0.4057 HD
ENDBRANCH 1 13
TORSDOF 1
ENDMDL
MODEL 4
REMARK VINA RESULT:    -5.447      4.158      5.472
REMARK INTER + INTRA:          -5.914
REMARK INTER:                  -5.788
REMARK INTRA:                  -0.126
REMARK UNBOUND:                -0.149
ROOT
ATOM      1  C4  DCM L   1       4.818   3.592   1.779  1.00  0.00    +0.0339  A
ATOM      2  C5  DCM L   1       5.888   3.120   0.988  1.00  0.00    -0.0513  A
ATOM      3  C6  DCM L   1       6.815   2.213   1.500  1.00  0.00    -0.0598  A
ATOM      4  C7  DCM L   1       6.701   1.765   2.812  1.00  0.00    -0.0419  A
ATOM      5  C8  DCM L   1       5.664   2.227   3.624  1.00  0.00    +0.0597  A
ATOM      6 CL9  DCM L   1       5.596   1.627   5.242  1.00  0.00    -0.0820 Cl
ATOM      7 C10  DCM L   1       4.725   3.142   3.117  1.00  0.00    +0.0682  A
ATOM      8 CL11 DCM L   1       3.447   3.729   4.134  1.00  0.00    -0.0815 Cl
ATOM      9 H18  DCM L   1       6.030   3.463  -0.038  1.00  0.00    +0.0623  H
ATOM     10 H19  DCM L   1       7.639   1.859   0.880  1.00  0.00    +0.0618  H
ATOM     11 H20  DCM L   1       7.433   1.059   3.203  1.00  0.00    +0.0633  H
ENDROOT
BRANCH 1 13
ATOM     12  C1  DCM L   1       4.398   5.277  -0.046  1.00  0.00    -0.0030  C
ATOM     13  C2  DCM L   1       3.836   4.589   1.193  1.00  0.00    +0.1553  C
ATOM     14  N3  DCM L   1       2.545   3.943   0.812  1.00  0.00    -0.1890  N
ATOM     15 H12  DCM L   1       5.330   5.803   0.189  1.00  0.00    +0.0292  H
ATOM     16 H13  DCM L   1       3.690   6.017  -0.437  1.00  0.00    +0.0292  H
ATOM     17 H14  DCM L   1       4.612   4.563  -0.849  1.00  0.00    +0.0292  H
ATOM     18 H15  DCM L   1       3.535   5.344   1.922  1.00  0.00    +0.1051  H
ATOM     19 H16  DCM L   1       2.140   3.452   1.619  1.00  0.00    +0.4057 HD
ATOM     20 H17  DCM L   1       1.859   4.644   0.505  1.00  0.00    +0.4057 HD
ENDBRANCH 1 13
TORSDOF 1
ENDMDL
MODEL 5
REMARK VINA RESULT:    -5.337      3.711      5.662
REMARK INTER + INTRA:          -5.797
REMARK INTER:                  -5.656
REMARK INTRA:                  -0.142
REMARK UNBOUND:                -0.149
ROOT
ATOM      1  C4  DCM L   1       4.621   3.010   3.315  1.00  0.00    +0.0339  A
ATOM      2  C5  DCM L   1       3.942   4.006   4.049  1.00  0.00    -0.0513  A
ATOM      3  C6  DCM L   1       3.648   5.244   3.479  1.00  0.00    -0.0598  A
ATOM      4  C7  DCM L   1       4.032   5.519   2.170  1.00  0.00    -0.0419  A
ATOM      5  C8  DCM L   1       4.720   4.560   1.426  1.00  0.00    +0.0597  A
ATOM      6 CL9  DCM L   1       5.168   4.980  -0.189  1.00  0.00    -0.0820 Cl
ATOM      7 C10  DCM L   1       5.022   3.309   1.992  1.00  0.00    +0.0682  A
ATOM      8 CL11 DCM L   1       5.894   2.125   1.070  1.00  0.00    -0.0815 Cl
ATOM      9 H18  DCM L   1       3.643   3.844   5.086  1.00  0.00    +0.0623  H
ATOM     10 H19  DCM L   1       3.126   6.007   4.057  1.00  0.00    +0.0618  H
ATOM     11 H20  DCM L   1       3.801   6.491   1.736  1.00  0.00    +0.0633  H
ENDROOT
BRANCH 1 13
ATOM     12  C1  DCM L   1       5.695   1.859   5.281  1.00  0.00    -0.0030  C
ATOM     13  C2  DCM L   1       4.936   1.679   3.972  1.00  0.00    +0.1553  C
ATOM     14  N3  DCM L   1       3.700   0.894   4.265  1.00  0.00    -0.1890  N
ATOM     15 H12  DCM L   1       6.636   2.398   5.117  1.00  0.00    +0.0292  H
ATOM     16 H13  DCM L   1       5.944   0.888   5.726  1.00  0.00    +0.0292  H
ATOM     17 H14  DCM L   1       5.113   2.424   6.018  1.00  0.00    +0.0292  H
ATOM     18 H15  DCM L   1       5.503   1.020   3.311  1.00  0.00    +0.1051  H
ATOM     19 H16  DCM L   1       3.149   0.764   3.407  1.00  0.00    +0.4057 HD
ATOM     20 H17  DCM L   1       3.934  -0.041   4.621  1.00  0.00    +0.4057 HD
ENDBRANCH 1 13
TORSDOF 1
ENDMDL
MODEL 6
REMARK VINA RESULT:    -5.300      4.295      6.029
REMARK INTER + INTRA:          -5.758
REMARK INTER:                  -5.612
REMARK INTRA:                  -0.146
REMARK UNBOUND:                -0.149
ROOT
ATOM      1  C4  DCM L   1       5.414   2.537   2.254  1.00  0.00    +0.0339  A
ATOM      2  C5  DCM L   1       6.027   2.672   0.990  1.00  0.00    -0.0513  A
ATOM      3  C6  DCM L   1       5.829   3.812   0.212  1.00  0.00    -0.0598  A
ATOM      4  C7  DCM L   1       5.008   4.837   0.674  1.00  0.00    -0.0419  A
ATOM      5  C8  DCM L   1       4.374   4.724   1.912  1.00  0.00    +0.0597  A
ATOM      6 CL9  DCM L   1       3.367   6.037   2.410  1.00  0.00    -0.0820 Cl
ATOM      7 C10  DCM L   1       4.568   3.578   2.702  1.00  0.00    +0.0682  A
ATOM      8 CL11 DCM L   1       3.764   3.432   4.234  1.00  0.00    -0.0815 Cl
ATOM      9 H18  DCM L   1       6.659   1.884   0.578  1.00  0.00    +0.0623  H
ATOM     10 H19  DCM L   1       6.305   3.903  -0.764  1.00  0.00    +0.0618  H
ATOM     11 H20  DCM L   1       4.857   5.722   0.057  1.00  0.00    +0.0633  H
ENDROOT
BRANCH 1 13
ATOM     12  C1  DCM L   1       4.773   0.123   2.579  1.00  0.00    -0.0030  C
ATOM     13  C2  DCM L   1       5.642   1.276   3.066  1.00  0.00    +0.1553  C
ATOM     14  N3  DCM L   1       7.065   0.829   3.015  1.00  0.00    -0.1890  N
ATOM     15 H12  DCM L   1       3.710   0.385   2.633  1.00  0.00    +0.0292  H
ATOM     16 H13  DCM L   1       4.925  -0.770   3.196  1.00  0.00    +0.0292  H
ATOM     17 H14  DCM L   1       4.995  -0.148   1.540  1.00  0.00    +0.0292  H
ATOM     18 H15  DCM L   1       5.466   1.438   4.132  1.00  0.00    +0.1051  H
ATOM     19 H16  DCM L   1       7.689   1.586   3.322  1.00  0.00    +0.4057 HD
ATOM     20 H17  DCM L   1       7.223   0.031   3.644  1.00  0.00    +0.4057 HD
ENDBRANCH 1 13
TORSDOF 1
ENDMDL
MODEL 7
REMARK VINA RESULT:    -5.293      5.291      6.623
REMARK INTER + INTRA:          -5.751
REMARK INTER:                  -5.604
REMARK INTRA:                  -0.147
REMARK UNBOUND:                -0.149
ROOT
ATOM      1  C4  DCM L   1       4.907   3.347   1.984  1.00  0.00    +0.0339  A
ATOM      2  C5  DCM L   1       4.639   3.302   3.369  1.00  0.00    -0.0513  A
ATOM      3  C6  DCM L   1       3.860   4.283   3.983  1.00  0.00    -0.0598  A
ATOM      4  C7  DCM L   1       3.341   5.333   3.231  1.00  0.00    -0.0419  A
ATOM      5  C8  DCM L   1       3.603   5.412   1.863  1.00  0.00    +0.0597  A
ATOM      6 CL9  DCM L   1       2.927   6.749   1.002  1.00  0.00    -0.0820 Cl
ATOM      7 C10  DCM L   1       4.388   4.429   1.236  1.00  0.00    +0.0682  A
ATOM      8 CL11 DCM L   1       4.729   4.540  -0.463  1.00  0.00    -0.0815 Cl
ATOM      9 H18  DCM L   1       5.045   2.512   4.002  1.00  0.00    +0.0623  H
ATOM     10 H19  DCM L   1       3.663   4.240   5.054  1.00  0.00    +0.0618  H
ATOM     11 H20  DCM L   1       2.736   6.096   3.721  1.00  0.00    +0.0633  H
ENDROOT
BRANCH 1 13
ATOM     12  C1  DCM L   1       6.915   1.852   2.268  1.00  0.00    -0.0030  C
ATOM     13  C2  DCM L   1       5.770   2.270   1.353  1.00  0.00    +0.1553  C
ATOM     14  N3  DCM L   1       4.981   1.046   1.021  1.00  0.00    -0.1890  N
ATOM     15 H12  DCM L   1       7.552   2.710   2.513  1.00  0.00    +0.0292  H
ATOM     16 H13  DCM L   1       7.547   1.098   1.785  1.00  0.00    +0.0292  H
ATOM     17 H14  DCM L   1       6.552   1.428   3.212  1.00  0.00    +0.0292  H
ATOM     18 H15  DCM L   1       6.172   2.581   0.387  1.00  0.00    +0.1051  H
ATOM     19 H16  DCM L   1       4.186   1.288   0.415  1.00  0.00    +0.4057 HD
ATOM     20 H17  DCM L   1       5.557   0.365   0.510  1.00  0.00    +0.4057 HD
ENDBRANCH 1 13
TORSDOF 1
ENDMDL
MODEL 8
REMARK VINA RESULT:    -5.273      3.384      4.757
REMARK INTER + INTRA:          -5.730
REMARK INTER:                  -5.588
REMARK INTRA:                  -0.142
REMARK UNBOUND:                -0.149
ROOT
ATOM      1  C4  DCM L   1       5.977  -4.249   4.393  1.00  0.00    +0.0339  A
ATOM      2  C5  DCM L   1       4.672  -4.662   4.733  1.00  0.00    -0.0513  A
ATOM      3  C6  DCM L   1       3.577  -3.818   4.543  1.00  0.00    -0.0598  A
ATOM      4  C7  DCM L   1       3.764  -2.542   4.020  1.00  0.00    -0.0419  A
ATOM      5  C8  DCM L   1       5.046  -2.099   3.691  1.00  0.00    +0.0597  A
ATOM      6 CL9  DCM L   1       5.193  -0.500   3.054  1.00  0.00    -0.0820 Cl
ATOM      7 C10  DCM L   1       6.154  -2.943   3.880  1.00  0.00    +0.0682  A
ATOM      8 CL11 DCM L   1       7.750  -2.383   3.487  1.00  0.00    -0.0815 Cl
ATOM      9 H18  DCM L   1       4.481  -5.645   5.167  1.00  0.00    +0.0623  H
ATOM     10 H19  DCM L   1       2.574  -4.147   4.812  1.00  0.00    +0.0618  H
ATOM     11 H20  DCM L   1       2.903  -1.889   3.880  1.00  0.00    +0.0633  H
ENDROOT
BRANCH 1 13
ATOM     12  C1  DCM L   1       7.403  -5.416   6.111  1.00  0.00    -0.0030  C
ATOM     13  C2  DCM L   1       7.145  -5.189   4.626  1.00  0.00    +0.1553  C
ATOM     14  N3  DCM L   1       6.923  -6.522   3.992  1.00  0.00    -0.1890  N
ATOM     15 H12  DCM L   1       7.612  -4.468   6.620  1.00  0.00    +0.0292  H
ATOM     16 H13  DCM L   1       8.269  -6.070   6.262  1.00  0.00    +0.0292  H
ATOM     17 H14  DCM L   1       6.544  -5.878   6.610  1.00  0.00    +0.0292  H
ATOM     18 H15  DCM L   1       8.060  -4.832   4.149  1.00  0.00    +0.1051  H
ATOM     19 H16  DCM L   1       6.729  -6.412   2.989  1.00  0.00    +0.4057 HD
ATOM     20 H17  DCM L   1       7.759  -7.114   4.077  1.00  0.00    +0.4057 HD
ENDBRANCH 1 13
TORSDOF 1
ENDMDL
MODEL 9
REMARK VINA RESULT:    -5.209      8.082      9.634
REMARK INTER + INTRA:          -5.662
REMARK INTER:                  -5.517
REMARK INTRA:                  -0.145
REMARK UNBOUND:                -0.149
ROOT
ATOM      1  C4  DCM L   1       1.124   6.184   1.719  1.00  0.00    +0.0339  A
ATOM      2  C5  DCM L   1      -0.119   6.035   2.370  1.00  0.00    -0.0513  A
ATOM      3  C6  DCM L   1      -1.271   6.642   1.871  1.00  0.00    -0.0598  A
ATOM      4  C7  DCM L   1      -1.205   7.419   0.718  1.00  0.00    -0.0419  A
ATOM      5  C8  DCM L   1       0.014   7.599   0.062  1.00  0.00    +0.0597  A
ATOM      6 CL9  DCM L   1       0.012   8.582  -1.359  1.00  0.00    -0.0820 Cl
ATOM      7 C10  DCM L   1       1.179   6.991   0.559  1.00  0.00    +0.0682  A
ATOM      8 CL11 DCM L   1       2.697   7.232  -0.248  1.00  0.00    -0.0815 Cl
ATOM      9 H18  DCM L   1      -0.213   5.455   3.290  1.00  0.00    +0.0623  H
ATOM     10 H19  DCM L   1      -2.224   6.522   2.384  1.00  0.00    +0.0618  H
ATOM     11 H20  DCM L   1      -2.110   7.892   0.338  1.00  0.00    +0.0633  H
ENDROOT
BRANCH 1 13
ATOM     12  C1  DCM L   1       3.068   6.420   3.304  1.00  0.00    -0.0030  C
ATOM     13  C2  DCM L   1       2.358   5.520   2.299  1.00  0.00    +0.1553  C
ATOM     14  N3  DCM L   1       2.030   4.236   2.988  1.00  0.00    -0.1890  N
ATOM     15 H12  DCM L   1       3.368   7.365   2.838  1.00  0.00    +0.0292  H
ATOM     16 H13  DCM L   1       3.974   5.938   3.689  1.00  0.00    +0.0292  H
ATOM     17 H14  DCM L   1       2.429   6.661   4.161  1.00  0.00    +0.0292  H
ATOM     18 H15  DCM L   1       3.063   5.216   1.523  1.00  0.00    +0.1051  H
ATOM     19 H16  DCM L   1       1.534   3.604   2.347  1.00  0.00    +0.4057 HD
ATOM     20 H17  DCM L   1       2.884   3.752   3.292  1.00  0.00    +0.4057 HD
ENDBRANCH 1 13
TORSDOF 1
ENDMDL
MODEL 10
REMARK VINA RESULT:    -5.207      6.593      7.692
REMARK INTER + INTRA:          -5.659
REMARK INTER:                  -5.515
REMARK INTRA:                  -0.145
REMARK UNBOUND:                -0.149
ROOT
ATOM      1  C4  DCM L   1       1.950   5.523   1.673  1.00  0.00    +0.0339  A
ATOM      2  C5  DCM L   1       2.070   6.399   0.573  1.00  0.00    -0.0513  A
ATOM      3  C6  DCM L   1       3.200   6.376  -0.245  1.00  0.00    -0.0598  A
ATOM      4  C7  DCM L   1       4.237   5.487   0.024  1.00  0.00    -0.0419  A
ATOM      5  C8  DCM L   1       4.154   4.621   1.115  1.00  0.00    +0.0597  A
ATOM      6 CL9  DCM L   1       5.485   3.553   1.383  1.00  0.00    -0.0820 Cl
ATOM      7 C10  DCM L   1       3.019   4.638   1.945  1.00  0.00    +0.0682  A
ATOM      8 CL11 DCM L   1       2.926   3.573   3.312  1.00  0.00    -0.0815 Cl
ATOM      9 H18  DCM L   1       1.294   7.128   0.339  1.00  0.00    +0.0623  H
ATOM     10 H19  DCM L   1       3.283   7.059  -1.089  1.00  0.00    +0.0618  H
ATOM     11 H20  DCM L   1       5.117   5.479  -0.619  1.00  0.00    +0.0633  H
ENDROOT
BRANCH 1 13
ATOM     12  C1  DCM L   1       0.329   7.022   2.887  1.00  0.00    -0.0030  C
ATOM     13  C2  DCM L   1       0.712   5.586   2.548  1.00  0.00    +0.1553  C
ATOM     14  N3  DCM L   1      -0.466   4.940   1.896  1.00  0.00    -0.1890  N
ATOM     15 H12  DCM L   1       1.149   7.533   3.405  1.00  0.00    +0.0292  H
ATOM     16 H13  DCM L   1      -0.547   7.048   3.546  1.00  0.00    +0.0292  H
ATOM     17 H14  DCM L   1       0.090   7.605   1.990  1.00  0.00    +0.0292  H
ATOM     18 H15  DCM L   1       0.834   5.015   3.471  1.00  0.00    +0.1051  H
ATOM     19 H16  DCM L   1      -0.243   3.971   1.636  1.00  0.00    +0.4057 HD
ATOM     20 H17  DCM L   1      -1.269   4.907   2.537  1.00  0.00    +0.4057 HD
ENDBRANCH 1 13
TORSDOF 1
ENDMDL
MODEL 11
REMARK VINA RESULT:    -5.142      5.525      6.778
REMARK INTER + INTRA:          -5.592
REMARK INTER:                  -5.447
REMARK INTRA:                  -0.145
REMARK UNBOUND:                -0.149
ROOT
ATOM      1  C4  DCM L   1       5.516   4.028   0.064  1.00  0.00    +0.0339  A
ATOM      2  C5  DCM L   1       4.621   5.064  -0.279  1.00  0.00    -0.0513  A
ATOM      3  C6  DCM L   1       3.728   5.584   0.658  1.00  0.00    -0.0598  A
ATOM      4  C7  DCM L   1       3.702   5.075   1.953  1.00  0.00    -0.0419  A
ATOM      5  C8  DCM L   1       4.563   4.038   2.317  1.00  0.00    +0.0597  A
ATOM      6 CL9  DCM L   1       4.464   3.458   3.941  1.00  0.00    -0.0820 Cl
ATOM      7 C10  DCM L   1       5.465   3.508   1.378  1.00  0.00    +0.0682  A
ATOM      8 CL11 DCM L   1       6.522   2.206   1.828  1.00  0.00    -0.0815 Cl
ATOM      9 H18  DCM L   1       4.590   5.478  -1.288  1.00  0.00    +0.0623  H
ATOM     10 H19  DCM L   1       3.040   6.382   0.380  1.00  0.00    +0.0618  H
ATOM     11 H20  DCM L   1       2.998   5.485   2.677  1.00  0.00    +0.0633  H
ENDROOT
BRANCH 1 13
ATOM     12  C1  DCM L   1       5.958   3.740  -2.399  1.00  0.00    -0.0030  C
ATOM     13  C2  DCM L   1       6.464   3.479  -0.985  1.00  0.00    +0.1553  C
ATOM     14  N3  DCM L   1       7.828   4.073  -0.871  1.00  0.00    -0.1890  N
ATOM     15 H12  DCM L   1       4.970   3.289  -2.550  1.00  0.00    +0.0292  H
ATOM     16 H13  DCM L   1       6.637   3.309  -3.144  1.00  0.00    +0.0292  H
ATOM     17 H14  DCM L   1       5.868   4.812  -2.610  1.00  0.00    +0.0292  H
ATOM     18 H15  DCM L   1       6.643   2.409  -0.856  1.00  0.00    +0.1051  H
ATOM     19 H16  DCM L   1       8.201   3.932   0.077  1.00  0.00    +0.4057 HD
ATOM     20 H17  DCM L   1       8.482   3.624  -1.525  1.00  0.00    +0.4057 HD
ENDBRANCH 1 13
TORSDOF 1
ENDMDL
MODEL 12
REMARK VINA RESULT:    -5.091      5.091      6.187
REMARK INTER + INTRA:          -5.537
REMARK INTER:                  -5.389
REMARK INTRA:                  -0.148
REMARK UNBOUND:                -0.149
ROOT
ATOM      1  C4  DCM L   1       3.871   4.422   1.517  1.00  0.00    +0.0339  A
ATOM      2  C5  DCM L   1       4.216   4.899   0.235  1.00  0.00    -0.0513  A
ATOM      3  C6  DCM L   1       5.347   4.424  -0.429  1.00  0.00    -0.0598  A
ATOM      4  C7  DCM L   1       6.162   3.471   0.176  1.00  0.00    -0.0419  A
ATOM      5  C8  DCM L   1       5.855   2.993   1.451  1.00  0.00    +0.0597  A
ATOM      6 CL9  DCM L   1       6.919   1.817   2.134  1.00  0.00    -0.0820 Cl
ATOM      7 C10  DCM L   1       4.717   3.467   2.127  1.00  0.00    +0.0682  A
ATOM      8 CL11 DCM L   1       4.348   2.885   3.720  1.00  0.00    -0.0815 Cl
ATOM      9 H18  DCM L   1       3.621   5.663  -0.267  1.00  0.00    +0.0623  H
ATOM     10 H19  DCM L   1       5.606   4.803  -1.418  1.00  0.00    +0.0618  H
ATOM     11 H20  DCM L   1       7.045   3.109  -0.350  1.00  0.00    +0.0633  H
ENDROOT
BRANCH 1 13
ATOM     12  C1  DCM L   1       2.455   6.461   1.947  1.00  0.00    -0.0030  C
ATOM     13  C2  DCM L   1       2.641   4.972   2.214  1.00  0.00    +0.1553  C
ATOM     14  N3  DCM L   1       1.395   4.271   1.783  1.00  0.00    -0.1890  N
ATOM     15 H12  DCM L   1       3.330   7.030   2.283  1.00  0.00    +0.0292  H
ATOM     16 H13  DCM L   1       1.581   6.849   2.483  1.00  0.00    +0.0292  H
ATOM     17 H14  DCM L   1       2.312   6.671   0.880  1.00  0.00    +0.0292  H
ATOM     18 H15  DCM L   1       2.668   4.797   3.292  1.00  0.00    +0.1051  H
ATOM     19 H16  DCM L   1       1.485   3.258   1.932  1.00  0.00    +0.4057 HD
ATOM     20 H17  DCM L   1       0.585   4.589   2.331  1.00  0.00    +0.4057 HD
ENDBRANCH 1 13
TORSDOF 1
ENDMDL
