MODEL 1
REMARK VINA RESULT:    -4.713      0.000      0.000
REMARK INTER + INTRA:          -5.005
REMARK INTER:                  -4.989
REMARK INTRA:                  -0.016
REMARK UNBOUND:                -0.016
ROOT
ATOM      1  C3  BA  L   1       6.680   3.931  -1.412  1.00  0.00    +0.0114  A
ATOM      2  C4  BA  L   1       7.912   4.596  -1.510  1.00  0.00    -0.0531  A
ATOM      3  C5  BA  L   1       8.297   5.193  -2.711  1.00  0.00    -0.0613  A
ATOM      4  C6  BA  L   1       7.456   5.137  -3.820  1.00  0.00    -0.0617  A
ATOM      5  C7  BA  L   1       6.232   4.479  -3.735  1.00  0.00    -0.0613  A
ATOM      6  C8  BA  L   1       5.841   3.879  -2.537  1.00  0.00    -0.0531  A
ATOM      7 H13  BA  L   1       8.601   4.648  -0.667  1.00  0.00    +0.0622  H
ATOM      8 H14  BA  L   1       9.259   5.698  -2.791  1.00  0.00    +0.0618  H
ATOM      9 H15  BA  L   1       7.762   5.597  -4.759  1.00  0.00    +0.0618  H
ATOM     10 H16  BA  L   1       5.587   4.429  -4.611  1.00  0.00    +0.0618  H
ATOM     11 H17  BA  L   1       4.883   3.362  -2.511  1.00  0.00    +0.0622  H
ENDROOT
BRANCH 1 13
ATOM     12  N1  BA  L   1       7.336   2.570   0.521  1.00  0.00    -0.1914  N
ATOM     13  C2  BA  L   1       6.238   3.339  -0.107  1.00  0.00    +0.1466  C
ATOM     14  H9  BA  L   1       7.647   1.825  -0.115  1.00  0.00    +0.4054 HD
ATOM     15 H10  BA  L   1       8.148   3.181   0.670  1.00  0.00    +0.4054 HD
ATOM     16 H11  BA  L   1       5.940   4.113   0.607  1.00  0.00    +0.1017  H
ATOM     17 H12  BA  L   1       5.398   2.650  -0.239  1.00  0.00    +0.1017  H
ENDBRANCH 1 13
TORSDOF 1
ENDMDL
MODEL 2
REMARK VINA RESULT:    -4.676      6.375      7.346
REMARK INTER + INTRA:          -4.965
REMARK INTER:                  -4.943
REMARK INTRA:                  -0.023
REMARK UNBOUND:                -0.016
ROOT
ATOM      1  C3  BA  L   1       3.666   2.647   3.362  1.00  0.00    +0.0114  A
ATOM      2  C4  BA  L   1       4.727   3.032   4.196  1.00  0.00    -0.0531  A
ATOM      3  C5  BA  L   1       5.430   2.076   4.931  1.00  0.00    -0.0613  A
ATOM      4  C6  BA  L   1       5.084   0.730   4.835  1.00  0.00    -0.0617  A
ATOM      5  C7  BA  L   1       4.034   0.335   4.011  1.00  0.00    -0.0613  A
ATOM      6  C8  BA  L   1       3.327   1.286   3.274  1.00  0.00    -0.0531  A
ATOM      7 H13  BA  L   1       5.016   4.077   4.306  1.00  0.00    +0.0622  H
ATOM      8 H14  BA  L   1       6.243   2.377   5.588  1.00  0.00    +0.0618  H
ATOM      9 H15  BA  L   1       5.629  -0.014   5.415  1.00  0.00    +0.0618  H
ATOM     10 H16  BA  L   1       3.762  -0.718   3.952  1.00  0.00    +0.0618  H
ATOM     11 H17  BA  L   1       2.502   0.944   2.650  1.00  0.00    +0.0622  H
ENDROOT
BRANCH 1 13
ATOM     12  N1  BA  L   1       1.983   3.010   1.614  1.00  0.00    -0.1914  N
ATOM     13  C2  BA  L   1       2.948   3.664   2.527  1.00  0.00    +0.1466  C
ATOM     14  H9  BA  L   1       2.476   2.342   1.008  1.00  0.00    +0.4054 HD
ATOM     15 H10  BA  L   1       1.306   2.462   2.159  1.00  0.00    +0.4054 HD
ATOM     16 H11  BA  L   1       2.379   4.366   3.144  1.00  0.00    +0.1017  H
ATOM     17 H12  BA  L   1       3.641   4.238   1.903  1.00  0.00    +0.1017  H
ENDBRANCH 1 13
TORSDOF 1
ENDMDL
MODEL 3
REMARK VINA RESULT:    -4.601      7.293      8.131
REMARK INTER + INTRA:          -4.885
REMARK INTER:                  -4.876
REMARK INTRA:                  -0.010
REMARK UNBOUND:                -0.016
ROOT
ATOM      1  C3  BA  L   1      -0.228   6.399   2.031  1.00  0.00    +0.0114  A
ATOM      2  C4  BA  L   1       0.797   6.641   2.959  1.00  0.00    -0.0531  A
ATOM      3  C5  BA  L   1       2.111   6.830   2.527  1.00  0.00    -0.0613  A
ATOM      4  C6  BA  L   1       2.411   6.784   1.167  1.00  0.00    -0.0617  A
ATOM      5  C7  BA  L   1       1.403   6.544   0.237  1.00  0.00    -0.0613  A
ATOM      6  C8  BA  L   1       0.088   6.354   0.663  1.00  0.00    -0.0531  A
ATOM      7 H13  BA  L   1       0.601   6.671   4.031  1.00  0.00    +0.0622  H
ATOM      8 H14  BA  L   1       2.907   7.004   3.248  1.00  0.00    +0.0618  H
ATOM      9 H15  BA  L   1       3.438   6.923   0.833  1.00  0.00    +0.0618  H
ATOM     10 H16  BA  L   1       1.649   6.497  -0.823  1.00  0.00    +0.0618  H
ATOM     11 H17  BA  L   1      -0.673   6.156  -0.091  1.00  0.00    +0.0622  H
ENDROOT
BRANCH 1 13
ATOM     12  N1  BA  L   1      -1.979   4.834   2.740  1.00  0.00    -0.1914  N
ATOM     13  C2  BA  L   1      -1.648   6.255   2.488  1.00  0.00    +0.1466  C
ATOM     14  H9  BA  L   1      -1.828   4.285   1.885  1.00  0.00    +0.4054 HD
ATOM     15 H10  BA  L   1      -1.341   4.449   3.448  1.00  0.00    +0.4054 HD
ATOM     16 H11  BA  L   1      -1.830   6.796   3.422  1.00  0.00    +0.1017  H
ATOM     17 H12  BA  L   1      -2.354   6.620   1.736  1.00  0.00    +0.1017  H
ENDBRANCH 1 13
TORSDOF 1
ENDMDL
MODEL 4
REMARK VINA RESULT:    -4.558      6.570      7.026
REMARK INTER + INTRA:          -4.840
REMARK INTER:                  -4.818
REMARK INTRA:                  -0.022
REMARK UNBOUND:                -0.016
ROOT
ATOM      1  C3  BA  L   1       4.800   1.360   4.254  1.00  0.00    +0.0114  A
ATOM      2  C4  BA  L   1       4.941   2.743   4.448  1.00  0.00    -0.0531  A
ATOM      3  C5  BA  L   1       4.142   3.640   3.739  1.00  0.00    -0.0613  A
ATOM      4  C6  BA  L   1       3.194   3.167   2.835  1.00  0.00    -0.0617  A
ATOM      5  C7  BA  L   1       3.044   1.798   2.634  1.00  0.00    -0.0613  A
ATOM      6  C8  BA  L   1       3.840   0.895   3.340  1.00  0.00    -0.0531  A
ATOM      7 H13  BA  L   1       5.682   3.149   5.137  1.00  0.00    +0.0622  H
ATOM      8 H14  BA  L   1       4.262   4.713   3.880  1.00  0.00    +0.0618  H
ATOM      9 H15  BA  L   1       2.577   3.869   2.277  1.00  0.00    +0.0618  H
ATOM     10 H16  BA  L   1       2.309   1.437   1.916  1.00  0.00    +0.0618  H
ATOM     11 H17  BA  L   1       3.705  -0.169   3.148  1.00  0.00    +0.0622  H
ENDROOT
BRANCH 1 13
ATOM     12  N1  BA  L   1       6.220   1.061   6.232  1.00  0.00    -0.1914  N
ATOM     13  C2  BA  L   1       5.615   0.392   5.058  1.00  0.00    +0.1466  C
ATOM     14  H9  BA  L   1       6.809   1.844   5.922  1.00  0.00    +0.4054 HD
ATOM     15 H10  BA  L   1       5.482   1.470   6.819  1.00  0.00    +0.4054 HD
ATOM     16 H11  BA  L   1       5.005  -0.433   5.439  1.00  0.00    +0.1017  H
ATOM     17 H12  BA  L   1       6.437  -0.030   4.471  1.00  0.00    +0.1017  H
ENDBRANCH 1 13
TORSDOF 1
ENDMDL
MODEL 5
REMARK VINA RESULT:    -4.528      4.382      5.652
REMARK INTER + INTRA:          -4.809
REMARK INTER:                  -4.790
REMARK INTRA:                  -0.019
REMARK UNBOUND:                -0.016
ROOT
ATOM      1  C3  BA  L   1       5.562   2.659   2.696  1.00  0.00    +0.0114  A
ATOM      2  C4  BA  L   1       4.933   2.820   3.941  1.00  0.00    -0.0531  A
ATOM      3  C5  BA  L   1       3.935   3.781   4.108  1.00  0.00    -0.0613  A
ATOM      4  C6  BA  L   1       3.553   4.584   3.036  1.00  0.00    -0.0617  A
ATOM      5  C7  BA  L   1       4.170   4.435   1.797  1.00  0.00    -0.0613  A
ATOM      6  C8  BA  L   1       5.169   3.476   1.623  1.00  0.00    -0.0531  A
ATOM      7 H13  BA  L   1       5.216   2.218   4.804  1.00  0.00    +0.0622  H
ATOM      8 H14  BA  L   1       3.457   3.914   5.077  1.00  0.00    +0.0618  H
ATOM      9 H15  BA  L   1       2.780   5.339   3.171  1.00  0.00    +0.0618  H
ATOM     10 H16  BA  L   1       3.874   5.076   0.968  1.00  0.00    +0.0618  H
ATOM     11 H17  BA  L   1       5.639   3.395   0.644  1.00  0.00    +0.0622  H
ENDROOT
BRANCH 1 13
ATOM     12  N1  BA  L   1       7.534   1.957   1.417  1.00  0.00    -0.1914  N
ATOM     13  C2  BA  L   1       6.593   1.588   2.498  1.00  0.00    +0.1466  C
ATOM     14  H9  BA  L   1       7.017   2.113   0.543  1.00  0.00    +0.4054 HD
ATOM     15 H10  BA  L   1       7.993   2.848   1.644  1.00  0.00    +0.4054 HD
ATOM     16 H11  BA  L   1       7.189   1.429   3.401  1.00  0.00    +0.1017  H
ATOM     17 H12  BA  L   1       6.136   0.635   2.214  1.00  0.00    +0.1017  H
ENDBRANCH 1 13
TORSDOF 1
ENDMDL
MODEL 6
REMARK VINA RESULT:    -4.520      4.278      6.925
REMARK INTER + INTRA:          -4.800
REMARK INTER:                  -4.789
REMARK INTRA:                  -0.011
REMARK UNBOUND:                -0.016
ROOT
ATOM      1  C3  BA  L   1       5.539   1.592   2.496  1.00  0.00    +0.0114  A
ATOM      2  C4  BA  L   1       4.535   0.685   2.124  1.00  0.00    -0.0531  A
ATOM      3  C5  BA  L   1       3.894  -0.093   3.089  1.00  0.00    -0.0613  A
ATOM      4  C6  BA  L   1       4.245   0.032   4.431  1.00  0.00    -0.0617  A
ATOM      5  C7  BA  L   1       5.239   0.928   4.813  1.00  0.00    -0.0613  A
ATOM      6  C8  BA  L   1       5.885   1.708   3.853  1.00  0.00    -0.0531  A
ATOM      7 H13  BA  L   1       4.244   0.552   1.082  1.00  0.00    +0.0622  H
ATOM      8 H14  BA  L   1       3.125  -0.806   2.798  1.00  0.00    +0.0618  H
ATOM      9 H15  BA  L   1       3.749  -0.582   5.182  1.00  0.00    +0.0618  H
ATOM     10 H16  BA  L   1       5.516   1.009   5.863  1.00  0.00    +0.0618  H
ATOM     11 H17  BA  L   1       6.667   2.389   4.185  1.00  0.00    +0.0622  H
ENDROOT
BRANCH 1 13
ATOM     12  N1  BA  L   1       7.594   2.066   1.242  1.00  0.00    -0.1914  N
ATOM     13  C2  BA  L   1       6.188   2.471   1.469  1.00  0.00    +0.1466  C
ATOM     14  H9  BA  L   1       8.116   2.114   2.125  1.00  0.00    +0.4054 HD
ATOM     15 H10  BA  L   1       7.628   1.086   0.937  1.00  0.00    +0.4054 HD
ATOM     16 H11  BA  L   1       5.677   2.409   0.503  1.00  0.00    +0.1017  H
ATOM     17 H12  BA  L   1       6.202   3.519   1.784  1.00  0.00    +0.1017  H
ENDBRANCH 1 13
TORSDOF 1
ENDMDL
MODEL 7
REMARK VINA RESULT:    -4.465      8.021      8.590
REMARK INTER + INTRA:          -4.742
REMARK INTER:                  -4.725
REMARK INTRA:                  -0.016
REMARK UNBOUND:                -0.016
ROOT
ATOM      1  C3  BA  L   1       5.625  -0.318   4.364  1.00  0.00    +0.0114  A
ATOM      2  C4  BA  L   1       4.504  -1.077   3.993  1.00  0.00    -0.0531  A
ATOM      3  C5  BA  L   1       4.662  -2.363   3.475  1.00  0.00    -0.0613  A
ATOM      4  C6  BA  L   1       5.937  -2.904   3.328  1.00  0.00    -0.0617  A
ATOM      5  C7  BA  L   1       7.057  -2.161   3.691  1.00  0.00    -0.0613  A
ATOM      6  C8  BA  L   1       6.906  -0.874   4.209  1.00  0.00    -0.0531  A
ATOM      7 H13  BA  L   1       3.492  -0.681   4.083  1.00  0.00    +0.0622  H
ATOM      8 H14  BA  L   1       3.793  -2.946   3.176  1.00  0.00    +0.0618  H
ATOM      9 H15  BA  L   1       6.059  -3.904   2.916  1.00  0.00    +0.0618  H
ATOM     10 H16  BA  L   1       8.051  -2.586   3.560  1.00  0.00    +0.0618  H
ATOM     11 H17  BA  L   1       7.804  -0.316   4.471  1.00  0.00    +0.0622  H
ENDROOT
BRANCH 1 13
ATOM     12  N1  BA  L   1       6.203   1.142   6.249  1.00  0.00    -0.1914  N
ATOM     13  C2  BA  L   1       5.454   1.040   4.975  1.00  0.00    +0.1466  C
ATOM     14  H9  BA  L   1       5.877   0.420   6.902  1.00  0.00    +0.4054 HD
ATOM     15 H10  BA  L   1       7.199   0.954   6.082  1.00  0.00    +0.4054 HD
ATOM     16 H11  BA  L   1       5.832   1.830   4.318  1.00  0.00    +0.1017  H
ATOM     17 H12  BA  L   1       4.405   1.253   5.202  1.00  0.00    +0.1017  H
ENDBRANCH 1 13
TORSDOF 1
ENDMDL
MODEL 8
REMARK VINA RESULT:    -4.380      7.568      8.268
REMARK INTER + INTRA:          -4.652
REMARK INTER:                  -4.632
REMARK INTRA:                  -0.020
REMARK UNBOUND:                -0.016
ROOT
ATOM      1  C3  BA  L   1      -0.003   6.526   1.338  1.00  0.00    +0.0114  A
ATOM      2  C4  BA  L   1      -1.105   7.256   0.866  1.00  0.00    -0.0531  A
ATOM      3  C5  BA  L   1      -0.979   8.079  -0.255  1.00  0.00    -0.0613  A
ATOM      4  C6  BA  L   1       0.243   8.175  -0.916  1.00  0.00    -0.0617  A
ATOM      5  C7  BA  L   1       1.343   7.456  -0.458  1.00  0.00    -0.0613  A
ATOM      6  C8  BA  L   1       1.225   6.632   0.662  1.00  0.00    -0.0531  A
ATOM      7 H13  BA  L   1      -2.072   7.215   1.367  1.00  0.00    +0.0622  H
ATOM      8 H14  BA  L   1      -1.831   8.655  -0.611  1.00  0.00    +0.0618  H
ATOM      9 H15  BA  L   1       0.341   8.823  -1.785  1.00  0.00    +0.0618  H
ATOM     10 H16  BA  L   1       2.298   7.547  -0.973  1.00  0.00    +0.0618  H
ATOM     11 H17  BA  L   1       2.110   6.094   1.001  1.00  0.00    +0.0622  H
ENDROOT
BRANCH 1 13
ATOM     12  N1  BA  L   1      -1.512   5.018   2.549  1.00  0.00    -0.1914  N
ATOM     13  C2  BA  L   1      -0.150   5.597   2.505  1.00  0.00    +0.1466  C
ATOM     14  H9  BA  L   1      -2.208   5.772   2.610  1.00  0.00    +0.4054 HD
ATOM     15 H10  BA  L   1      -1.705   4.516   1.674  1.00  0.00    +0.4054 HD
ATOM     16 H11  BA  L   1       0.552   4.760   2.447  1.00  0.00    +0.1017  H
ATOM     17 H12  BA  L   1       0.010   6.115   3.456  1.00  0.00    +0.1017  H
ENDBRANCH 1 13
TORSDOF 1
ENDMDL
MODEL 9
REMARK VINA RESULT:    -4.343      3.212      5.611
REMARK INTER + INTRA:          -4.613
REMARK INTER:                  -4.591
REMARK INTRA:                  -0.022
REMARK UNBOUND:                -0.016
ROOT
ATOM      1  C3  BA  L   1       5.135   3.897   1.486  1.00  0.00    +0.0114  A
ATOM      2  C4  BA  L   1       5.355   2.735   2.242  1.00  0.00    -0.0531  A
ATOM      3  C5  BA  L   1       4.884   2.645   3.552  1.00  0.00    -0.0613  A
ATOM      4  C6  BA  L   1       4.186   3.710   4.117  1.00  0.00    -0.0617  A
ATOM      5  C7  BA  L   1       3.961   4.868   3.378  1.00  0.00    -0.0613  A
ATOM      6  C8  BA  L   1       4.430   4.965   2.068  1.00  0.00    -0.0531  A
ATOM      7 H13  BA  L   1       5.909   1.889   1.836  1.00  0.00    +0.0622  H
ATOM      8 H14  BA  L   1       5.068   1.749   4.141  1.00  0.00    +0.0618  H
ATOM      9 H15  BA  L   1       3.826   3.640   5.143  1.00  0.00    +0.0618  H
ATOM     10 H16  BA  L   1       3.425   5.700   3.833  1.00  0.00    +0.0618  H
ATOM     11 H17  BA  L   1       4.247   5.891   1.524  1.00  0.00    +0.0622  H
ENDROOT
BRANCH 1 13
ATOM     12  N1  BA  L   1       5.987   2.638  -0.439  1.00  0.00    -0.1914  N
ATOM     13  C2  BA  L   1       5.588   3.974   0.059  1.00  0.00    +0.1466  C
ATOM     14  H9  BA  L   1       6.739   2.258   0.148  1.00  0.00    +0.4054 HD
ATOM     15 H10  BA  L   1       5.197   1.986  -0.356  1.00  0.00    +0.4054 HD
ATOM     16 H11  BA  L   1       4.793   4.337  -0.599  1.00  0.00    +0.1017  H
ATOM     17 H12  BA  L   1       6.456   4.631  -0.055  1.00  0.00    +0.1017  H
ENDBRANCH 1 13
TORSDOF 1
ENDMDL
MODEL 10
REMARK VINA RESULT:    -4.337      6.876      7.835
REMARK INTER + INTRA:          -4.606
REMARK INTER:                  -4.596
REMARK INTRA:                  -0.010
REMARK UNBOUND:                -0.016
ROOT
ATOM      1  C3  BA  L   1       0.853   5.617   1.444  1.00  0.00    +0.0114  A
ATOM      2  C4  BA  L   1       0.972   6.306   0.227  1.00  0.00    -0.0531  A
ATOM      3  C5  BA  L   1      -0.031   7.184  -0.187  1.00  0.00    -0.0613  A
ATOM      4  C6  BA  L   1      -1.155   7.385   0.610  1.00  0.00    -0.0617  A
ATOM      5  C7  BA  L   1      -1.284   6.708   1.820  1.00  0.00    -0.0613  A
ATOM      6  C8  BA  L   1      -0.286   5.828   2.239  1.00  0.00    -0.0531  A
ATOM      7 H13  BA  L   1       1.831   6.163  -0.428  1.00  0.00    +0.0622  H
ATOM      8 H14  BA  L   1       0.055   7.708  -1.137  1.00  0.00    +0.0618  H
ATOM      9 H15  BA  L   1      -1.940   8.065   0.281  1.00  0.00    +0.0618  H
ATOM     10 H16  BA  L   1      -2.173   6.862   2.430  1.00  0.00    +0.0618  H
ATOM     11 H17  BA  L   1      -0.426   5.305   3.185  1.00  0.00    +0.0622  H
ENDROOT
BRANCH 1 13
ATOM     12  N1  BA  L   1       1.747   3.332   1.444  1.00  0.00    -0.1914  N
ATOM     13  C2  BA  L   1       1.956   4.719   1.920  1.00  0.00    +0.1466  C
ATOM     14  H9  BA  L   1       0.841   2.983   1.778  1.00  0.00    +0.4054 HD
ATOM     15 H10  BA  L   1       1.702   3.320   0.418  1.00  0.00    +0.4054 HD
ATOM     16 H11  BA  L   1       2.932   5.043   1.544  1.00  0.00    +0.1017  H
ATOM     17 H12  BA  L   1       2.003   4.680   3.012  1.00  0.00    +0.1017  H
ENDBRANCH 1 13
TORSDOF 1
ENDMDL
MODEL 11
REMARK VINA RESULT:    -4.301      4.658      5.974
REMARK INTER + INTRA:          -4.568
REMARK INTER:                  -4.557
REMARK INTRA:                  -0.010
REMARK UNBOUND:                -0.016
ROOT
ATOM      1  C3  BA  L   1       4.871   2.628   3.580  1.00  0.00    +0.0114  A
ATOM      2  C4  BA  L   1       5.323   2.661   2.252  1.00  0.00    -0.0531  A
ATOM      3  C5  BA  L   1       5.112   3.792   1.462  1.00  0.00    -0.0613  A
ATOM      4  C6  BA  L   1       4.454   4.899   1.991  1.00  0.00    -0.0617  A
ATOM      5  C7  BA  L   1       4.000   4.879   3.307  1.00  0.00    -0.0613  A
ATOM      6  C8  BA  L   1       4.208   3.751   4.103  1.00  0.00    -0.0531  A
ATOM      7 H13  BA  L   1       5.830   1.807   1.801  1.00  0.00    +0.0622  H
ATOM      8 H14  BA  L   1       5.451   3.811   0.428  1.00  0.00    +0.0618  H
ATOM      9 H15  BA  L   1       4.282   5.778   1.371  1.00  0.00    +0.0618  H
ATOM     10 H16  BA  L   1       3.475   5.745   3.709  1.00  0.00    +0.0618  H
ATOM     11 H17  BA  L   1       3.829   3.765   5.124  1.00  0.00    +0.0622  H
ENDROOT
BRANCH 1 13
ATOM     12  N1  BA  L   1       3.959   0.562   4.539  1.00  0.00    -0.1914  N
ATOM     13  C2  BA  L   1       5.149   1.438   4.449  1.00  0.00    +0.1466  C
ATOM     14  H9  BA  L   1       3.164   1.094   4.915  1.00  0.00    +0.4054 HD
ATOM     15 H10  BA  L   1       3.682   0.254   3.599  1.00  0.00    +0.4054 HD
ATOM     16 H11  BA  L   1       5.966   0.828   4.050  1.00  0.00    +0.1017  H
ATOM     17 H12  BA  L   1       5.407   1.734   5.470  1.00  0.00    +0.1017  H
ENDBRANCH 1 13
TORSDOF 1
ENDMDL
MODEL 12
REMARK VINA RESULT:    -4.285      8.929     10.318
REMARK INTER + INTRA:          -4.552
REMARK INTER:                  -4.529
REMARK INTRA:                  -0.022
REMARK UNBOUND:                -0.016
ROOT
ATOM      1  C3  BA  L   1       6.038  -4.027   4.021  1.00  0.00    +0.0114  A
ATOM      2  C4  BA  L   1       4.770  -4.416   4.478  1.00  0.00    -0.0531  A
ATOM      3  C5  BA  L   1       3.704  -3.515   4.456  1.00  0.00    -0.0613  A
ATOM      4  C6  BA  L   1       3.894  -2.223   3.973  1.00  0.00    -0.0617  A
ATOM      5  C7  BA  L   1       5.147  -1.825   3.516  1.00  0.00    -0.0613  A
ATOM      6  C8  BA  L   1       6.217  -2.720   3.536  1.00  0.00    -0.0531  A
ATOM      7 H13  BA  L   1       4.589  -5.415   4.875  1.00  0.00    +0.0622  H
ATOM      8 H14  BA  L   1       2.724  -3.814   4.824  1.00  0.00    +0.0618  H
ATOM      9 H15  BA  L   1       3.063  -1.519   3.964  1.00  0.00    +0.0618  H
ATOM     10 H16  BA  L   1       5.289  -0.808   3.152  1.00  0.00    +0.0618  H
ATOM     11 H17  BA  L   1       7.186  -2.371   3.184  1.00  0.00    +0.0622  H
ENDROOT
BRANCH 1 13
ATOM     12  N1  BA  L   1       6.673  -6.391   4.187  1.00  0.00    -0.1914  N
ATOM     13  C2  BA  L   1       7.169  -5.010   3.989  1.00  0.00    +0.1466  C
ATOM     14  H9  BA  L   1       6.176  -6.456   5.085  1.00  0.00    +0.4054 HD
ATOM     15 H10  BA  L   1       5.986  -6.622   3.459  1.00  0.00    +0.4054 HD
ATOM     16 H11  BA  L   1       7.693  -4.994   3.028  1.00  0.00    +0.1017  H
ATOM     17 H12  BA  L   1       7.898  -4.814   4.781  1.00  0.00    +0.1017  H
ENDBRANCH 1 13
TORSDOF 1
ENDMDL
