MODEL 1
REMARK VINA RESULT:    -5.049      0.000      0.000
REMARK INTER + INTRA:          -5.425
REMARK INTER:                  -5.344
REMARK INTRA:                  -0.081
REMARK UNBOUND:                -0.081
ROOT
ATOM      1  C4  AMB L   1       6.702   4.060  -1.327  1.00  0.00    +0.0142  A
ATOM      2  C5  AMB L   1       5.805   3.951  -2.405  1.00  0.00    -0.0528  A
ATOM      3  C6  AMB L   1       6.150   4.429  -3.670  1.00  0.00    -0.0613  A
ATOM      4  C7  AMB L   1       7.390   5.027  -3.876  1.00  0.00    -0.0617  A
ATOM      5  C8  AMB L   1       8.289   5.145  -2.819  1.00  0.00    -0.0613  A
ATOM      6  C9  AMB L   1       7.949   4.668  -1.551  1.00  0.00    -0.0528  A
ATOM      7 H16  AMB L   1       4.829   3.480  -2.288  1.00  0.00    +0.0622  H
ATOM      8 H17  AMB L   1       5.456   4.329  -4.503  1.00  0.00    +0.0618  H
ATOM      9 H18  AMB L   1       7.661   5.392  -4.865  1.00  0.00    +0.0618  H
ATOM     10 H19  AMB L   1       9.261   5.604  -2.991  1.00  0.00    +0.0618  H
ATOM     11 H20  AMB L   1       8.690   4.777  -0.761  1.00  0.00    +0.0622  H
ENDROOT
BRANCH 1 13
ATOM     12  C1  AMB L   1       5.182   4.415   0.709  1.00  0.00    -0.0031  C
ATOM     13  C2  AMB L   1       6.273   3.584   0.042  1.00  0.00    +0.1539  C
ATOM     14  N3  AMB L   1       5.794   2.177  -0.038  1.00  0.00    -0.1890  N
ATOM     15 H10  AMB L   1       5.479   5.469   0.771  1.00  0.00    +0.0292  H
ATOM     16 H11  AMB L   1       4.231   4.366   0.169  1.00  0.00    +0.0292  H
ATOM     17 H12  AMB L   1       4.997   4.060   1.729  1.00  0.00    +0.0292  H
ATOM     18 H13  AMB L   1       7.139   3.559   0.713  1.00  0.00    +0.1051  H
ATOM     19 H14  AMB L   1       5.010   2.107  -0.698  1.00  0.00    +0.4057 HD
ATOM     20 H15  AMB L   1       6.542   1.582  -0.417  1.00  0.00    +0.4057 HD
ENDBRANCH 1 13
TORSDOF 1
ENDMDL
MODEL 2
REMARK VINA RESULT:    -5.041      4.898      6.764
REMARK INTER + INTRA:          -5.416
REMARK INTER:                  -5.327
REMARK INTRA:                  -0.090
REMARK UNBOUND:                -0.081
ROOT
ATOM      1  C4  AMB L   1       3.631   2.749   3.296  1.00  0.00    +0.0142  A
ATOM      2  C5  AMB L   1       3.279   1.390   3.217  1.00  0.00    -0.0528  A
ATOM      3  C6  AMB L   1       3.993   0.426   3.930  1.00  0.00    -0.0613  A
ATOM      4  C7  AMB L   1       5.069   0.803   4.727  1.00  0.00    -0.0617  A
ATOM      5  C8  AMB L   1       5.432   2.144   4.816  1.00  0.00    -0.0613  A
ATOM      6  C9  AMB L   1       4.721   3.113   4.104  1.00  0.00    -0.0528  A
ATOM      7 H16  AMB L   1       2.436   1.054   2.612  1.00  0.00    +0.0622  H
ATOM      8 H17  AMB L   1       3.707  -0.623   3.874  1.00  0.00    +0.0618  H
ATOM      9 H18  AMB L   1       5.620   0.051   5.290  1.00  0.00    +0.0618  H
ATOM     10 H19  AMB L   1       6.268   2.432   5.451  1.00  0.00    +0.0618  H
ATOM     11 H20  AMB L   1       5.040   4.148   4.214  1.00  0.00    +0.0622  H
ENDROOT
BRANCH 1 13
ATOM     12  C1  AMB L   1       3.737   4.682   1.614  1.00  0.00    -0.0031  C
ATOM     13  C2  AMB L   1       2.873   3.758   2.466  1.00  0.00    +0.1539  C
ATOM     14  N3  AMB L   1       1.922   3.057   1.560  1.00  0.00    -0.1890  N
ATOM     15 H10  AMB L   1       4.473   5.207   2.235  1.00  0.00    +0.0292  H
ATOM     16 H11  AMB L   1       4.282   4.143   0.833  1.00  0.00    +0.0292  H
ATOM     17 H12  AMB L   1       3.119   5.439   1.119  1.00  0.00    +0.0292  H
ATOM     18 H13  AMB L   1       2.250   4.381   3.117  1.00  0.00    +0.1051  H
ATOM     19 H14  AMB L   1       2.429   2.406   0.949  1.00  0.00    +0.4057 HD
ATOM     20 H15  AMB L   1       1.277   2.483   2.119  1.00  0.00    +0.4057 HD
ENDBRANCH 1 13
TORSDOF 1
ENDMDL
MODEL 3
REMARK VINA RESULT:    -4.994      6.186      7.080
REMARK INTER + INTRA:          -5.367
REMARK INTER:                  -5.280
REMARK INTRA:                  -0.087
REMARK UNBOUND:                -0.081
ROOT
ATOM      1  C4  AMB L   1       4.702   1.356   4.282  1.00  0.00    +0.0142  A
ATOM      2  C5  AMB L   1       4.942   2.735   4.413  1.00  0.00    -0.0528  A
ATOM      3  C6  AMB L   1       4.229   3.658   3.646  1.00  0.00    -0.0613  A
ATOM      4  C7  AMB L   1       3.273   3.218   2.736  1.00  0.00    -0.0617  A
ATOM      5  C8  AMB L   1       3.025   1.856   2.593  1.00  0.00    -0.0613  A
ATOM      6  C9  AMB L   1       3.735   0.928   3.357  1.00  0.00    -0.0528  A
ATOM      7 H16  AMB L   1       5.675   3.121   5.122  1.00  0.00    +0.0622  H
ATOM      8 H17  AMB L   1       4.411   4.725   3.762  1.00  0.00    +0.0618  H
ATOM      9 H18  AMB L   1       2.712   3.940   2.144  1.00  0.00    +0.0618  H
ATOM     10 H19  AMB L   1       2.267   1.521   1.886  1.00  0.00    +0.0618  H
ATOM     11 H20  AMB L   1       3.497  -0.125   3.214  1.00  0.00    +0.0622  H
ENDROOT
BRANCH 1 13
ATOM     12  C1  AMB L   1       6.584  -0.388   4.294  1.00  0.00    -0.0031  C
ATOM     13  C2  AMB L   1       5.532   0.382   5.086  1.00  0.00    +0.1539  C
ATOM     14  N3  AMB L   1       6.225   1.099   6.192  1.00  0.00    -0.1890  N
ATOM     15 H10  AMB L   1       6.125  -0.917   3.451  1.00  0.00    +0.0292  H
ATOM     16 H11  AMB L   1       7.366   0.265   3.894  1.00  0.00    +0.0292  H
ATOM     17 H12  AMB L   1       7.074  -1.134   4.929  1.00  0.00    +0.0292  H
ATOM     18 H13  AMB L   1       4.877  -0.346   5.577  1.00  0.00    +0.1051  H
ATOM     19 H14  AMB L   1       6.823   1.842   5.811  1.00  0.00    +0.4057 HD
ATOM     20 H15  AMB L   1       5.529   1.566   6.786  1.00  0.00    +0.4057 HD
ENDBRANCH 1 13
TORSDOF 1
ENDMDL
MODEL 4
REMARK VINA RESULT:    -4.963      6.393      7.680
REMARK INTER + INTRA:          -5.334
REMARK INTER:                  -5.250
REMARK INTRA:                  -0.084
REMARK UNBOUND:                -0.081
ROOT
ATOM      1  C4  AMB L   1      -0.112   6.656   1.070  1.00  0.00    +0.0142  A
ATOM      2  C5  AMB L   1      -0.946   7.489   0.303  1.00  0.00    -0.0528  A
ATOM      3  C6  AMB L   1      -0.422   8.257  -0.738  1.00  0.00    -0.0613  A
ATOM      4  C7  AMB L   1       0.939   8.208  -1.025  1.00  0.00    -0.0617  A
ATOM      5  C8  AMB L   1       1.778   7.389  -0.274  1.00  0.00    -0.0613  A
ATOM      6  C9  AMB L   1       1.260   6.619   0.770  1.00  0.00    -0.0528  A
ATOM      7 H16  AMB L   1      -2.018   7.548   0.489  1.00  0.00    +0.0622  H
ATOM      8 H17  AMB L   1      -1.075   8.890  -1.336  1.00  0.00    +0.0618  H
ATOM      9 H18  AMB L   1       1.345   8.801  -1.843  1.00  0.00    +0.0618  H
ATOM     10 H19  AMB L   1       2.840   7.348  -0.512  1.00  0.00    +0.0618  H
ATOM     11 H20  AMB L   1       1.956   5.990   1.320  1.00  0.00    +0.0622  H
ENDROOT
BRANCH 1 13
ATOM     12  C1  AMB L   1      -2.039   6.404   2.745  1.00  0.00    -0.0031  C
ATOM     13  C2  AMB L   1      -0.703   5.883   2.227  1.00  0.00    +0.1539  C
ATOM     14  N3  AMB L   1      -0.885   4.456   1.842  1.00  0.00    -0.1890  N
ATOM     15 H10  AMB L   1      -1.963   7.462   3.021  1.00  0.00    +0.0292  H
ATOM     16 H11  AMB L   1      -2.841   6.308   2.005  1.00  0.00    +0.0292  H
ATOM     17 H12  AMB L   1      -2.350   5.848   3.636  1.00  0.00    +0.0292  H
ATOM     18 H13  AMB L   1       0.004   5.870   3.064  1.00  0.00    +0.1051  H
ATOM     19 H14  AMB L   1      -1.498   4.387   1.021  1.00  0.00    +0.4057 HD
ATOM     20 H15  AMB L   1       0.020   4.060   1.559  1.00  0.00    +0.4057 HD
ENDBRANCH 1 13
TORSDOF 1
ENDMDL
MODEL 5
REMARK VINA RESULT:    -4.955      4.398      5.876
REMARK INTER + INTRA:          -5.326
REMARK INTER:                  -5.239
REMARK INTRA:                  -0.087
REMARK UNBOUND:                -0.081
ROOT
ATOM      1  C4  AMB L   1       4.966   2.635   3.588  1.00  0.00    +0.0142  A
ATOM      2  C5  AMB L   1       5.382   2.668   2.245  1.00  0.00    -0.0528  A
ATOM      3  C6  AMB L   1       5.119   3.781   1.445  1.00  0.00    -0.0613  A
ATOM      4  C7  AMB L   1       4.433   4.872   1.970  1.00  0.00    -0.0617  A
ATOM      5  C8  AMB L   1       4.013   4.855   3.297  1.00  0.00    -0.0613  A
ATOM      6  C9  AMB L   1       4.273   3.744   4.103  1.00  0.00    -0.0528  A
ATOM      7 H16  AMB L   1       5.931   1.838   1.799  1.00  0.00    +0.0622  H
ATOM      8 H17  AMB L   1       5.455   3.804   0.410  1.00  0.00    +0.0618  H
ATOM      9 H18  AMB L   1       4.236   5.742   1.347  1.00  0.00    +0.0618  H
ATOM     10 H19  AMB L   1       3.487   5.717   3.704  1.00  0.00    +0.0618  H
ATOM     11 H20  AMB L   1       3.931   3.785   5.135  1.00  0.00    +0.0622  H
ENDROOT
BRANCH 1 13
ATOM     12  C1  AMB L   1       6.186   0.389   3.794  1.00  0.00    -0.0031  C
ATOM     13  C2  AMB L   1       5.216   1.392   4.409  1.00  0.00    +0.1539  C
ATOM     14  N3  AMB L   1       5.737   1.768   5.752  1.00  0.00    -0.1890  N
ATOM     15 H10  AMB L   1       5.858   0.096   2.790  1.00  0.00    +0.0292  H
ATOM     16 H11  AMB L   1       7.203   0.787   3.711  1.00  0.00    +0.0292  H
ATOM     17 H12  AMB L   1       6.240  -0.519   4.405  1.00  0.00    +0.0292  H
ATOM     18 H13  AMB L   1       4.269   0.876   4.599  1.00  0.00    +0.1051  H
ATOM     19 H14  AMB L   1       6.605   2.310   5.656  1.00  0.00    +0.4057 HD
ATOM     20 H15  AMB L   1       5.062   2.388   6.220  1.00  0.00    +0.4057 HD
ENDBRANCH 1 13
TORSDOF 1
ENDMDL
MODEL 6
REMARK VINA RESULT:    -4.755      4.823      5.967
REMARK INTER + INTRA:          -5.114
REMARK INTER:                  -5.042
REMARK INTRA:                  -0.072
REMARK UNBOUND:                -0.081
ROOT
ATOM      1  C4  AMB L   1       4.002   3.348   2.805  1.00  0.00    +0.0142  A
ATOM      2  C5  AMB L   1       4.313   3.206   4.169  1.00  0.00    -0.0528  A
ATOM      3  C6  AMB L   1       5.434   2.479   4.572  1.00  0.00    -0.0613  A
ATOM      4  C7  AMB L   1       6.256   1.881   3.622  1.00  0.00    -0.0617  A
ATOM      5  C8  AMB L   1       5.961   2.010   2.267  1.00  0.00    -0.0613  A
ATOM      6  C9  AMB L   1       4.840   2.736   1.858  1.00  0.00    -0.0528  A
ATOM      7 H16  AMB L   1       3.701   3.667   4.944  1.00  0.00    +0.0622  H
ATOM      8 H17  AMB L   1       5.677   2.384   5.629  1.00  0.00    +0.0618  H
ATOM      9 H18  AMB L   1       7.135   1.321   3.937  1.00  0.00    +0.0618  H
ATOM     10 H19  AMB L   1       6.616   1.548   1.530  1.00  0.00    +0.0618  H
ATOM     11 H20  AMB L   1       4.659   2.814   0.788  1.00  0.00    +0.0622  H
ENDROOT
BRANCH 1 13
ATOM     12  C1  AMB L   1       2.978   5.417   1.688  1.00  0.00    -0.0031  C
ATOM     13  C2  AMB L   1       2.749   4.092   2.407  1.00  0.00    +0.1539  C
ATOM     14  N3  AMB L   1       1.907   3.234   1.529  1.00  0.00    -0.1890  N
ATOM     15 H10  AMB L   1       3.615   6.079   2.286  1.00  0.00    +0.0292  H
ATOM     16 H11  AMB L   1       3.456   5.285   0.712  1.00  0.00    +0.0292  H
ATOM     17 H12  AMB L   1       2.026   5.933   1.519  1.00  0.00    +0.0292  H
ATOM     18 H13  AMB L   1       2.136   4.289   3.295  1.00  0.00    +0.1051  H
ATOM     19 H14  AMB L   1       2.435   2.958   0.693  1.00  0.00    +0.4057 HD
ATOM     20 H15  AMB L   1       1.675   2.362   2.023  1.00  0.00    +0.4057 HD
ENDBRANCH 1 13
TORSDOF 1
ENDMDL
MODEL 7
REMARK VINA RESULT:    -4.717      5.858      7.249
REMARK INTER + INTRA:          -5.074
REMARK INTER:                  -4.993
REMARK INTRA:                  -0.081
REMARK UNBOUND:                -0.081
ROOT
ATOM      1  C4  AMB L   1       0.999   5.686   1.168  1.00  0.00    +0.0142  A
ATOM      2  C5  AMB L   1      -0.062   5.842   2.078  1.00  0.00    -0.0528  A
ATOM      3  C6  AMB L   1      -1.122   6.705   1.795  1.00  0.00    -0.0613  A
ATOM      4  C7  AMB L   1      -1.136   7.426   0.605  1.00  0.00    -0.0617  A
ATOM      5  C8  AMB L   1      -0.093   7.284  -0.306  1.00  0.00    -0.0613  A
ATOM      6  C9  AMB L   1       0.971   6.422  -0.029  1.00  0.00    -0.0528  A
ATOM      7 H16  AMB L   1      -0.093   5.288   3.016  1.00  0.00    +0.0622  H
ATOM      8 H17  AMB L   1      -1.946   6.811   2.498  1.00  0.00    +0.0618  H
ATOM      9 H18  AMB L   1      -1.967   8.092   0.381  1.00  0.00    +0.0618  H
ATOM     10 H19  AMB L   1      -0.117   7.843  -1.240  1.00  0.00    +0.0618  H
ATOM     11 H20  AMB L   1       1.757   6.341  -0.777  1.00  0.00    +0.0622  H
ENDROOT
BRANCH 1 13
ATOM     12  C1  AMB L   1       2.752   5.019   2.917  1.00  0.00    -0.0031  C
ATOM     13  C2  AMB L   1       2.158   4.788   1.532  1.00  0.00    +0.1539  C
ATOM     14  N3  AMB L   1       1.742   3.361   1.443  1.00  0.00    -0.1890  N
ATOM     15 H10  AMB L   1       3.055   6.065   3.041  1.00  0.00    +0.0292  H
ATOM     16 H11  AMB L   1       2.047   4.777   3.720  1.00  0.00    +0.0292  H
ATOM     17 H12  AMB L   1       3.641   4.395   3.064  1.00  0.00    +0.0292  H
ATOM     18 H13  AMB L   1       2.962   4.903   0.795  1.00  0.00    +0.1051  H
ATOM     19 H14  AMB L   1       0.948   3.185   2.070  1.00  0.00    +0.4057 HD
ATOM     20 H15  AMB L   1       1.407   3.161   0.492  1.00  0.00    +0.4057 HD
ENDBRANCH 1 13
TORSDOF 1
ENDMDL
MODEL 8
REMARK VINA RESULT:    -4.711      6.278      8.149
REMARK INTER + INTRA:          -5.068
REMARK INTER:                  -4.981
REMARK INTRA:                  -0.087
REMARK UNBOUND:                -0.081
ROOT
ATOM      1  C4  AMB L   1       5.246  -0.354   4.104  1.00  0.00    +0.0142  A
ATOM      2  C5  AMB L   1       6.578  -0.779   3.959  1.00  0.00    -0.0528  A
ATOM      3  C6  AMB L   1       6.874  -2.115   3.684  1.00  0.00    -0.0613  A
ATOM      4  C7  AMB L   1       5.847  -3.044   3.555  1.00  0.00    -0.0617  A
ATOM      5  C8  AMB L   1       4.522  -2.641   3.698  1.00  0.00    -0.0613  A
ATOM      6  C9  AMB L   1       4.220  -1.305   3.973  1.00  0.00    -0.0528  A
ATOM      7 H16  AMB L   1       7.411  -0.080   4.042  1.00  0.00    +0.0622  H
ATOM      8 H17  AMB L   1       7.908  -2.434   3.560  1.00  0.00    +0.0618  H
ATOM      9 H18  AMB L   1       6.079  -4.085   3.332  1.00  0.00    +0.0618  H
ATOM     10 H19  AMB L   1       3.723  -3.372   3.584  1.00  0.00    +0.0618  H
ATOM     11 H20  AMB L   1       3.169  -1.040   4.067  1.00  0.00    +0.0622  H
ENDROOT
BRANCH 1 13
ATOM     12  C1  AMB L   1       5.864   2.114   3.779  1.00  0.00    -0.0031  C
ATOM     13  C2  AMB L   1       4.964   1.088   4.459  1.00  0.00    +0.1539  C
ATOM     14  N3  AMB L   1       3.552   1.424   4.128  1.00  0.00    -0.1890  N
ATOM     15 H10  AMB L   1       6.920   1.896   3.974  1.00  0.00    +0.0292  H
ATOM     16 H11  AMB L   1       5.722   2.140   2.693  1.00  0.00    +0.0292  H
ATOM     17 H12  AMB L   1       5.656   3.120   4.159  1.00  0.00    +0.0292  H
ATOM     18 H13  AMB L   1       5.050   1.227   5.543  1.00  0.00    +0.1051  H
ATOM     19 H14  AMB L   1       3.375   1.265   3.129  1.00  0.00    +0.4057 HD
ATOM     20 H15  AMB L   1       2.921   0.791   4.636  1.00  0.00    +0.4057 HD
ENDBRANCH 1 13
TORSDOF 1
ENDMDL
MODEL 9
REMARK VINA RESULT:    -4.644      7.826      9.596
REMARK INTER + INTRA:          -4.997
REMARK INTER:                  -4.910
REMARK INTRA:                  -0.087
REMARK UNBOUND:                -0.081
ROOT
ATOM      1  C4  AMB L   1       5.119  -2.641   3.711  1.00  0.00    +0.0142  A
ATOM      2  C5  AMB L   1       4.249  -3.545   4.346  1.00  0.00    -0.0528  A
ATOM      3  C6  AMB L   1       4.703  -4.799   4.759  1.00  0.00    -0.0613  A
ATOM      4  C7  AMB L   1       6.026  -5.169   4.541  1.00  0.00    -0.0617  A
ATOM      5  C8  AMB L   1       6.900  -4.287   3.912  1.00  0.00    -0.0613  A
ATOM      6  C9  AMB L   1       6.452  -3.031   3.496  1.00  0.00    -0.0528  A
ATOM      7 H16  AMB L   1       3.208  -3.290   4.545  1.00  0.00    +0.0622  H
ATOM      8 H17  AMB L   1       4.027  -5.489   5.262  1.00  0.00    +0.0618  H
ATOM      9 H18  AMB L   1       6.380  -6.145   4.871  1.00  0.00    +0.0618  H
ATOM     10 H19  AMB L   1       7.937  -4.580   3.754  1.00  0.00    +0.0618  H
ATOM     11 H20  AMB L   1       7.176  -2.375   3.017  1.00  0.00    +0.0622  H
ENDROOT
BRANCH 1 13
ATOM     12  C1  AMB L   1       3.495  -0.694   4.097  1.00  0.00    -0.0031  C
ATOM     13  C2  AMB L   1       4.581  -1.316   3.225  1.00  0.00    +0.1539  C
ATOM     14  N3  AMB L   1       5.691  -0.332   3.103  1.00  0.00    -0.1890  N
ATOM     15 H10  AMB L   1       2.661  -1.391   4.236  1.00  0.00    +0.0292  H
ATOM     16 H11  AMB L   1       3.865  -0.412   5.088  1.00  0.00    +0.0292  H
ATOM     17 H12  AMB L   1       3.097   0.213   3.628  1.00  0.00    +0.0292  H
ATOM     18 H13  AMB L   1       4.179  -1.428   2.211  1.00  0.00    +0.1051  H
ATOM     19 H14  AMB L   1       6.159  -0.212   4.010  1.00  0.00    +0.4057 HD
ATOM     20 H15  AMB L   1       6.404  -0.697   2.459  1.00  0.00    +0.4057 HD
ENDBRANCH 1 13
TORSDOF 1
ENDMDL
MODEL 10
REMARK VINA RESULT:    -4.612      6.086      7.711
REMARK INTER + INTRA:          -4.962
REMARK INTER:                  -4.884
REMARK INTRA:                  -0.079
REMARK UNBOUND:                -0.081
ROOT
ATOM      1  C4  AMB L   1       0.537   7.079   0.814  1.00  0.00    +0.0142  A
ATOM      2  C5  AMB L   1       0.483   6.945   2.212  1.00  0.00    -0.0528  A
ATOM      3  C6  AMB L   1       1.332   6.058   2.876  1.00  0.00    -0.0613  A
ATOM      4  C7  AMB L   1       2.240   5.290   2.156  1.00  0.00    -0.0617  A
ATOM      5  C8  AMB L   1       2.306   5.409   0.770  1.00  0.00    -0.0613  A
ATOM      6  C9  AMB L   1       1.459   6.295   0.100  1.00  0.00    -0.0528  A
ATOM      7 H16  AMB L   1      -0.208   7.536   2.815  1.00  0.00    +0.0622  H
ATOM      8 H17  AMB L   1       1.293   5.969   3.961  1.00  0.00    +0.0618  H
ATOM      9 H18  AMB L   1       2.908   4.605   2.676  1.00  0.00    +0.0618  H
ATOM     10 H19  AMB L   1       3.028   4.813   0.214  1.00  0.00    +0.0618  H
ATOM     11 H20  AMB L   1       1.556   6.357  -0.982  1.00  0.00    +0.0622  H
ENDROOT
BRANCH 1 13
ATOM     12  C1  AMB L   1      -0.079   8.369  -1.316  1.00  0.00    -0.0031  C
ATOM     13  C2  AMB L   1      -0.435   8.006   0.122  1.00  0.00    +0.1539  C
ATOM     14  N3  AMB L   1      -1.796   7.402   0.119  1.00  0.00    -0.1890  N
ATOM     15 H10  AMB L   1       0.928   8.798  -1.371  1.00  0.00    +0.0292  H
ATOM     16 H11  AMB L   1      -0.111   7.503  -1.986  1.00  0.00    +0.0292  H
ATOM     17 H12  AMB L   1      -0.781   9.112  -1.710  1.00  0.00    +0.0292  H
ATOM     18 H13  AMB L   1      -0.531   8.936   0.693  1.00  0.00    +0.1051  H
ATOM     19 H14  AMB L   1      -1.778   6.491  -0.355  1.00  0.00    +0.4057 HD
ATOM     20 H15  AMB L   1      -2.090   7.217   1.086  1.00  0.00    +0.4057 HD
ENDBRANCH 1 13
TORSDOF 1
ENDMDL
MODEL 11
REMARK VINA RESULT:    -4.603      6.126      7.658
REMARK INTER + INTRA:          -4.953
REMARK INTER:                  -4.868
REMARK INTRA:                  -0.085
REMARK UNBOUND:                -0.081
ROOT
ATOM      1  C4  AMB L   1       6.092  -1.187   3.500  1.00  0.00    +0.0142  A
ATOM      2  C5  AMB L   1       6.696   0.081   3.570  1.00  0.00    -0.0528  A
ATOM      3  C6  AMB L   1       6.028   1.215   3.106  1.00  0.00    -0.0613  A
ATOM      4  C7  AMB L   1       4.753   1.100   2.562  1.00  0.00    -0.0617  A
ATOM      5  C8  AMB L   1       4.141  -0.148   2.482  1.00  0.00    -0.0613  A
ATOM      6  C9  AMB L   1       4.804  -1.286   2.945  1.00  0.00    -0.0528  A
ATOM      7 H16  AMB L   1       7.689   0.215   3.999  1.00  0.00    +0.0622  H
ATOM      8 H17  AMB L   1       6.497   2.195   3.176  1.00  0.00    +0.0618  H
ATOM      9 H18  AMB L   1       4.230   1.987   2.208  1.00  0.00    +0.0618  H
ATOM     10 H19  AMB L   1       3.138  -0.228   2.065  1.00  0.00    +0.0618  H
ATOM     11 H20  AMB L   1       4.279  -2.236   2.868  1.00  0.00    +0.0622  H
ENDROOT
BRANCH 1 13
ATOM     12  C1  AMB L   1       6.185  -3.742   3.704  1.00  0.00    -0.0031  C
ATOM     13  C2  AMB L   1       6.865  -2.401   3.958  1.00  0.00    +0.1539  C
ATOM     14  N3  AMB L   1       8.199  -2.431   3.297  1.00  0.00    -0.1890  N
ATOM     15 H10  AMB L   1       5.185  -3.762   4.153  1.00  0.00    +0.0292  H
ATOM     16 H11  AMB L   1       6.077  -3.960   2.636  1.00  0.00    +0.0292  H
ATOM     17 H12  AMB L   1       6.766  -4.558   4.146  1.00  0.00    +0.0292  H
ATOM     18 H13  AMB L   1       7.074  -2.324   5.031  1.00  0.00    +0.1051  H
ATOM     19 H14  AMB L   1       8.087  -2.447   2.276  1.00  0.00    +0.4057 HD
ATOM     20 H15  AMB L   1       8.710  -1.566   3.516  1.00  0.00    +0.4057 HD
ENDBRANCH 1 13
TORSDOF 1
ENDMDL
MODEL 12
REMARK VINA RESULT:    -4.557      6.674      7.414
REMARK INTER + INTRA:          -4.904
REMARK INTER:                  -4.820
REMARK INTRA:                  -0.084
REMARK UNBOUND:                -0.081
ROOT
ATOM      1  C4  AMB L   1       4.231   0.627   3.741  1.00  0.00    +0.0142  A
ATOM      2  C5  AMB L   1       5.276   1.167   4.510  1.00  0.00    -0.0528  A
ATOM      3  C6  AMB L   1       5.352   2.541   4.745  1.00  0.00    -0.0613  A
ATOM      4  C7  AMB L   1       4.390   3.394   4.213  1.00  0.00    -0.0617  A
ATOM      5  C8  AMB L   1       3.349   2.875   3.447  1.00  0.00    -0.0613  A
ATOM      6  C9  AMB L   1       3.268   1.502   3.208  1.00  0.00    -0.0528  A
ATOM      7 H16  AMB L   1       6.044   0.532   4.954  1.00  0.00    +0.0622  H
ATOM      8 H17  AMB L   1       6.157   2.951   5.353  1.00  0.00    +0.0618  H
ATOM      9 H18  AMB L   1       4.445   4.464   4.404  1.00  0.00    +0.0618  H
ATOM     10 H19  AMB L   1       2.594   3.548   3.043  1.00  0.00    +0.0618  H
ATOM     11 H20  AMB L   1       2.431   1.146   2.611  1.00  0.00    +0.0622  H
ENDROOT
BRANCH 1 13
ATOM     12  C1  AMB L   1       5.540  -1.577   3.665  1.00  0.00    -0.0031  C
ATOM     13  C2  AMB L   1       4.212  -0.857   3.458  1.00  0.00    +0.1539  C
ATOM     14  N3  AMB L   1       3.191  -1.523   4.313  1.00  0.00    -0.1890  N
ATOM     15 H10  AMB L   1       6.334  -1.108   3.072  1.00  0.00    +0.0292  H
ATOM     16 H11  AMB L   1       5.859  -1.574   4.713  1.00  0.00    +0.0292  H
ATOM     17 H12  AMB L   1       5.463  -2.624   3.352  1.00  0.00    +0.0292  H
ATOM     18 H13  AMB L   1       3.887  -1.034   2.426  1.00  0.00    +0.1051  H
ATOM     19 H14  AMB L   1       3.396  -1.355   5.305  1.00  0.00    +0.4057 HD
ATOM     20 H15  AMB L   1       2.269  -1.104   4.135  1.00  0.00    +0.4057 HD
ENDBRANCH 1 13
TORSDOF 1
ENDMDL
