MODEL 1
REMARK VINA RESULT:    -5.656      0.000      0.000
REMARK INTER + INTRA:          -6.069
REMARK INTER:                  -5.986
REMARK INTRA:                  -0.083
REMARK UNBOUND:                -0.083
ROOT
ATOM      1  C4  34D L   1       5.284   2.805   2.399  1.00  0.00    +0.0156  A
ATOM      2  C5  34D L   1       4.816   3.180   3.668  1.00  0.00    -0.0513  A
ATOM      3  C6  34D L   1       4.072   4.355   3.839  1.00  0.00    -0.0415  A
ATOM      4  C7  34D L   1       3.786   5.183   2.752  1.00  0.00    +0.0593  A
ATOM      5 CL8  34D L   1       2.872   6.615   3.045  1.00  0.00    -0.0820 Cl
ATOM      6  C9  34D L   1       4.248   4.831   1.483  1.00  0.00    +0.0597  A
ATOM      7 CL10 34D L   1       3.953   5.797   0.083  1.00  0.00    -0.0820 Cl
ATOM      8 C11  34D L   1       4.992   3.653   1.312  1.00  0.00    -0.0330  A
ATOM      9 H18  34D L   1       4.999   2.574   4.556  1.00  0.00    +0.0623  H
ATOM     10 H19  34D L   1       3.711   4.621   4.833  1.00  0.00    +0.0633  H
ATOM     11 H20  34D L   1       5.337   3.403   0.309  1.00  0.00    +0.0637  H
ENDROOT
BRANCH 1 13
ATOM     12  C1  34D L   1       6.439   0.714   3.380  1.00  0.00    -0.0031  C
ATOM     13  C2  34D L   1       6.115   1.561   2.151  1.00  0.00    +0.1539  C
ATOM     14  N3  34D L   1       7.401   1.925   1.497  1.00  0.00    -0.1890  N
ATOM     15 H12  34D L   1       5.524   0.426   3.909  1.00  0.00    +0.0292  H
ATOM     16 H13  34D L   1       6.956  -0.207   3.088  1.00  0.00    +0.0292  H
ATOM     17 H14  34D L   1       7.088   1.243   4.085  1.00  0.00    +0.0292  H
ATOM     18 H15  34D L   1       5.587   0.924   1.431  1.00  0.00    +0.1051  H
ATOM     19 H16  34D L   1       7.929   2.604   2.060  1.00  0.00    +0.4057 HD
ATOM     20 H17  34D L   1       7.999   1.107   1.332  1.00  0.00    +0.4057 HD
ENDBRANCH 1 13
TORSDOF 1
ENDMDL
MODEL 2
REMARK VINA RESULT:    -5.604      3.764      5.029
REMARK INTER + INTRA:          -6.015
REMARK INTER:                  -5.930
REMARK INTRA:                  -0.085
REMARK UNBOUND:                -0.083
ROOT
ATOM      1  C4  34D L   1       2.159   4.889   2.172  1.00  0.00    +0.0156  A
ATOM      2  C5  34D L   1       3.077   5.539   3.011  1.00  0.00    -0.0513  A
ATOM      3  C6  34D L   1       4.090   4.820   3.658  1.00  0.00    -0.0415  A
ATOM      4  C7  34D L   1       4.205   3.438   3.488  1.00  0.00    +0.0593  A
ATOM      5 CL8  34D L   1       5.474   2.624   4.324  1.00  0.00    -0.0820 Cl
ATOM      6  C9  34D L   1       3.298   2.773   2.663  1.00  0.00    +0.0597  A
ATOM      7 CL10 34D L   1       3.354   1.067   2.401  1.00  0.00    -0.0820 Cl
ATOM      8 C11  34D L   1       2.284   3.494   2.014  1.00  0.00    -0.0330  A
ATOM      9 H18  34D L   1       3.046   6.616   3.181  1.00  0.00    +0.0623  H
ATOM     10 H19  34D L   1       4.797   5.347   4.298  1.00  0.00    +0.0633  H
ATOM     11 H20  34D L   1       1.592   2.947   1.374  1.00  0.00    +0.0637  H
ENDROOT
BRANCH 1 13
ATOM     12  C1  34D L   1       0.771   7.048   1.892  1.00  0.00    -0.0031  C
ATOM     13  C2  34D L   1       1.025   5.605   1.464  1.00  0.00    +0.1539  C
ATOM     14  N3  34D L   1      -0.245   4.849   1.635  1.00  0.00    -0.1890  N
ATOM     15 H12  34D L   1       1.681   7.651   1.798  1.00  0.00    +0.0292  H
ATOM     16 H13  34D L   1       0.002   7.508   1.262  1.00  0.00    +0.0292  H
ATOM     17 H14  34D L   1       0.425   7.115   2.929  1.00  0.00    +0.0292  H
ATOM     18 H15  34D L   1       1.227   5.603   0.386  1.00  0.00    +0.1051  H
ATOM     19 H16  34D L   1      -0.471   4.713   2.628  1.00  0.00    +0.4057 HD
ATOM     20 H17  34D L   1      -1.041   5.316   1.184  1.00  0.00    +0.4057 HD
ENDBRANCH 1 13
TORSDOF 1
ENDMDL
MODEL 3
REMARK VINA RESULT:    -5.574      3.881      4.818
REMARK INTER + INTRA:          -5.983
REMARK INTER:                  -5.898
REMARK INTRA:                  -0.086
REMARK UNBOUND:                -0.083
ROOT
ATOM      1  C4  34D L   1       3.697   3.030   2.853  1.00  0.00    +0.0156  A
ATOM      2  C5  34D L   1       4.469   3.427   3.956  1.00  0.00    -0.0513  A
ATOM      3  C6  34D L   1       5.245   2.496   4.659  1.00  0.00    -0.0415  A
ATOM      4  C7  34D L   1       5.261   1.151   4.282  1.00  0.00    +0.0593  A
ATOM      5 CL8  34D L   1       6.235   0.066   5.203  1.00  0.00    -0.0820 Cl
ATOM      6  C9  34D L   1       4.495   0.736   3.193  1.00  0.00    +0.0597  A
ATOM      7 CL10 34D L   1       4.444  -0.906   2.661  1.00  0.00    -0.0820 Cl
ATOM      8 C11  34D L   1       3.720   1.669   2.488  1.00  0.00    -0.0330  A
ATOM      9 H18  34D L   1       4.505   4.462   4.297  1.00  0.00    +0.0623  H
ATOM     10 H19  34D L   1       5.844   2.828   5.507  1.00  0.00    +0.0633  H
ATOM     11 H20  34D L   1       3.133   1.315   1.640  1.00  0.00    +0.0637  H
ENDROOT
BRANCH 1 13
ATOM     12  C1  34D L   1       2.201   5.135   2.856  1.00  0.00    -0.0031  C
ATOM     13  C2  34D L   1       2.817   3.982   2.067  1.00  0.00    +0.1539  C
ATOM     14  N3  34D L   1       1.709   3.234   1.413  1.00  0.00    -0.1890  N
ATOM     15 H12  34D L   1       2.975   5.715   3.370  1.00  0.00    +0.0292  H
ATOM     16 H13  34D L   1       1.665   5.817   2.187  1.00  0.00    +0.0292  H
ATOM     17 H14  34D L   1       1.484   4.783   3.606  1.00  0.00    +0.0292  H
ATOM     18 H15  34D L   1       3.408   4.411   1.248  1.00  0.00    +0.1051  H
ATOM     19 H16  34D L   1       1.150   2.714   2.100  1.00  0.00    +0.4057 HD
ATOM     20 H17  34D L   1       1.080   3.852   0.886  1.00  0.00    +0.4057 HD
ENDBRANCH 1 13
TORSDOF 1
ENDMDL
MODEL 4
REMARK VINA RESULT:    -5.558      4.706      6.326
REMARK INTER + INTRA:          -5.966
REMARK INTER:                  -5.900
REMARK INTRA:                  -0.066
REMARK UNBOUND:                -0.083
ROOT
ATOM      1  C4  34D L   1       0.680   6.914   0.610  1.00  0.00    +0.0156  A
ATOM      2  C5  34D L   1       0.591   7.192   1.984  1.00  0.00    -0.0513  A
ATOM      3  C6  34D L   1       1.600   6.781   2.864  1.00  0.00    -0.0415  A
ATOM      4  C7  34D L   1       2.714   6.080   2.396  1.00  0.00    +0.0593  A
ATOM      5 CL8  34D L   1       3.909   5.602   3.544  1.00  0.00    -0.0820 Cl
ATOM      6  C9  34D L   1       2.817   5.789   1.036  1.00  0.00    +0.0597  A
ATOM      7 CL10 34D L   1       4.150   4.918   0.368  1.00  0.00    -0.0820 Cl
ATOM      8 C11  34D L   1       1.807   6.202   0.154  1.00  0.00    -0.0330  A
ATOM      9 H18  34D L   1      -0.248   7.740   2.412  1.00  0.00    +0.0623  H
ATOM     10 H19  34D L   1       1.515   7.015   3.925  1.00  0.00    +0.0633  H
ATOM     11 H20  34D L   1       1.916   5.962  -0.904  1.00  0.00    +0.0637  H
ENDROOT
BRANCH 1 13
ATOM     12  C1  34D L   1      -0.196   8.654  -1.084  1.00  0.00    -0.0031  C
ATOM     13  C2  34D L   1      -0.389   7.308  -0.390  1.00  0.00    +0.1539  C
ATOM     14  N3  34D L   1      -1.725   7.321   0.266  1.00  0.00    -0.1890  N
ATOM     15 H12  34D L   1       0.781   8.704  -1.576  1.00  0.00    +0.0292  H
ATOM     16 H13  34D L   1      -0.962   8.805  -1.853  1.00  0.00    +0.0292  H
ATOM     17 H14  34D L   1      -0.268   9.493  -0.383  1.00  0.00    +0.0292  H
ATOM     18 H15  34D L   1      -0.448   6.534  -1.165  1.00  0.00    +0.1051  H
ATOM     19 H16  34D L   1      -1.740   7.954   1.075  1.00  0.00    +0.4057 HD
ATOM     20 H17  34D L   1      -2.473   7.604  -0.380  1.00  0.00    +0.4057 HD
ENDBRANCH 1 13
TORSDOF 1
ENDMDL
MODEL 5
REMARK VINA RESULT:    -5.506      1.850      2.866
REMARK INTER + INTRA:          -5.910
REMARK INTER:                  -5.844
REMARK INTRA:                  -0.067
REMARK UNBOUND:                -0.083
ROOT
ATOM      1  C4  34D L   1       5.444   2.013   3.496  1.00  0.00    +0.0156  A
ATOM      2  C5  34D L   1       5.958   1.871   2.197  1.00  0.00    -0.0513  A
ATOM      3  C6  34D L   1       5.735   2.857   1.227  1.00  0.00    -0.0415  A
ATOM      4  C7  34D L   1       4.991   4.000   1.529  1.00  0.00    +0.0593  A
ATOM      5 CL8  34D L   1       4.754   5.164   0.279  1.00  0.00    -0.0820 Cl
ATOM      6  C9  34D L   1       4.466   4.156   2.813  1.00  0.00    +0.0597  A
ATOM      7 CL10 34D L   1       3.526   5.528   3.274  1.00  0.00    -0.0820 Cl
ATOM      8 C11  34D L   1       4.691   3.169   3.784  1.00  0.00    -0.0330  A
ATOM      9 H18  34D L   1       6.552   1.007   1.899  1.00  0.00    +0.0623  H
ATOM     10 H19  34D L   1       6.151   2.730   0.228  1.00  0.00    +0.0633  H
ATOM     11 H20  34D L   1       4.271   3.320   4.779  1.00  0.00    +0.0637  H
ENDROOT
BRANCH 1 13
ATOM     12  C1  34D L   1       4.510  -0.060   4.721  1.00  0.00    -0.0031  C
ATOM     13  C2  34D L   1       5.628   0.972   4.582  1.00  0.00    +0.1539  C
ATOM     14  N3  34D L   1       5.801   1.635   5.904  1.00  0.00    -0.1890  N
ATOM     15 H12  34D L   1       4.331  -0.572   3.769  1.00  0.00    +0.0292  H
ATOM     16 H13  34D L   1       4.777  -0.821   5.462  1.00  0.00    +0.0292  H
ATOM     17 H14  34D L   1       3.568   0.395   5.045  1.00  0.00    +0.0292  H
ATOM     18 H15  34D L   1       6.565   0.432   4.398  1.00  0.00    +0.1051  H
ATOM     19 H16  34D L   1       5.006   2.247   6.124  1.00  0.00    +0.4057 HD
ATOM     20 H17  34D L   1       5.909   0.957   6.668  1.00  0.00    +0.4057 HD
ENDBRANCH 1 13
TORSDOF 1
ENDMDL
MODEL 6
REMARK VINA RESULT:    -5.484      2.618      3.875
REMARK INTER + INTRA:          -5.888
REMARK INTER:                  -5.827
REMARK INTRA:                  -0.061
REMARK UNBOUND:                -0.083
ROOT
ATOM      1  C4  34D L   1       5.996   3.176   1.027  1.00  0.00    +0.0156  A
ATOM      2  C5  34D L   1       6.894   2.221   1.529  1.00  0.00    -0.0513  A
ATOM      3  C6  34D L   1       6.728   1.688   2.814  1.00  0.00    -0.0415  A
ATOM      4  C7  34D L   1       5.671   2.102   3.628  1.00  0.00    +0.0593  A
ATOM      5 CL8  34D L   1       5.541   1.406   5.199  1.00  0.00    -0.0820 Cl
ATOM      6  C9  34D L   1       4.772   3.056   3.149  1.00  0.00    +0.0597  A
ATOM      7 CL10 34D L   1       3.443   3.635   4.086  1.00  0.00    -0.0820 Cl
ATOM      8 C11  34D L   1       4.937   3.588   1.861  1.00  0.00    -0.0330  A
ATOM      9 H18  34D L   1       7.735   1.851   0.943  1.00  0.00    +0.0623  H
ATOM     10 H19  34D L   1       7.433   0.941   3.180  1.00  0.00    +0.0633  H
ATOM     11 H20  34D L   1       4.217   4.329   1.514  1.00  0.00    +0.0637  H
ENDROOT
BRANCH 1 13
ATOM     12  C1  34D L   1       5.052   4.815  -0.731  1.00  0.00    -0.0031  C
ATOM     13  C2  34D L   1       6.133   3.809  -0.344  1.00  0.00    +0.1539  C
ATOM     14  N3  34D L   1       6.171   2.755  -1.394  1.00  0.00    -0.1890  N
ATOM     15 H12  34D L   1       4.972   5.612   0.018  1.00  0.00    +0.0292  H
ATOM     16 H13  34D L   1       5.288   5.286  -1.691  1.00  0.00    +0.0292  H
ATOM     17 H14  34D L   1       4.068   4.344  -0.832  1.00  0.00    +0.0292  H
ATOM     18 H15  34D L   1       7.104   4.317  -0.401  1.00  0.00    +0.1051  H
ATOM     19 H16  34D L   1       5.335   2.157  -1.356  1.00  0.00    +0.4057 HD
ATOM     20 H17  34D L   1       6.243   3.150  -2.339  1.00  0.00    +0.4057 HD
ENDBRANCH 1 13
TORSDOF 1
ENDMDL
MODEL 7
REMARK VINA RESULT:    -5.481      5.259      6.756
REMARK INTER + INTRA:          -5.885
REMARK INTER:                  -5.803
REMARK INTRA:                  -0.081
REMARK UNBOUND:                -0.083
ROOT
ATOM      1  C4  34D L   1       5.162  -0.060   3.785  1.00  0.00    +0.0156  A
ATOM      2  C5  34D L   1       6.474  -0.535   3.632  1.00  0.00    -0.0513  A
ATOM      3  C6  34D L   1       6.747  -1.908   3.665  1.00  0.00    -0.0415  A
ATOM      4  C7  34D L   1       5.721  -2.835   3.860  1.00  0.00    +0.0593  A
ATOM      5 CL8  34D L   1       6.139  -4.508   3.897  1.00  0.00    -0.0820 Cl
ATOM      6  C9  34D L   1       4.411  -2.382   4.021  1.00  0.00    +0.0597  A
ATOM      7 CL10 34D L   1       3.080  -3.452   4.277  1.00  0.00    -0.0820 Cl
ATOM      8 C11  34D L   1       4.138  -1.007   3.985  1.00  0.00    -0.0330  A
ATOM      9 H18  34D L   1       7.319   0.136   3.470  1.00  0.00    +0.0623  H
ATOM     10 H19  34D L   1       7.773  -2.255   3.535  1.00  0.00    +0.0633  H
ATOM     11 H20  34D L   1       3.105  -0.683   4.112  1.00  0.00    +0.0637  H
ENDROOT
BRANCH 1 13
ATOM     12  C1  34D L   1       5.544   2.286   4.795  1.00  0.00    -0.0031  C
ATOM     13  C2  34D L   1       4.804   1.413   3.784  1.00  0.00    +0.1539  C
ATOM     14  N3  34D L   1       3.344   1.587   4.015  1.00  0.00    -0.1890  N
ATOM     15 H12  34D L   1       6.629   2.188   4.677  1.00  0.00    +0.0292  H
ATOM     16 H13  34D L   1       5.290   3.342   4.653  1.00  0.00    +0.0292  H
ATOM     17 H14  34D L   1       5.289   2.025   5.828  1.00  0.00    +0.0292  H
ATOM     18 H15  34D L   1       4.995   1.821   2.783  1.00  0.00    +0.1051  H
ATOM     19 H16  34D L   1       3.049   1.146   4.895  1.00  0.00    +0.4057 HD
ATOM     20 H17  34D L   1       3.069   2.576   4.040  1.00  0.00    +0.4057 HD
ENDBRANCH 1 13
TORSDOF 1
ENDMDL
MODEL 8
REMARK VINA RESULT:    -5.462      3.868      5.029
REMARK INTER + INTRA:          -5.864
REMARK INTER:                  -5.784
REMARK INTRA:                  -0.080
REMARK UNBOUND:                -0.083
ROOT
ATOM      1  C4  34D L   1       1.863   5.285   1.416  1.00  0.00    +0.0156  A
ATOM      2  C5  34D L   1       2.299   6.113   0.369  1.00  0.00    -0.0513  A
ATOM      3  C6  34D L   1       1.485   7.146  -0.113  1.00  0.00    -0.0415  A
ATOM      4  C7  34D L   1       0.219   7.371   0.432  1.00  0.00    +0.0593  A
ATOM      5 CL8  34D L   1      -0.725   8.658  -0.222  1.00  0.00    -0.0820 Cl
ATOM      6  C9  34D L   1      -0.235   6.555   1.468  1.00  0.00    +0.0597  A
ATOM      7 CL10 34D L   1      -1.788   6.751   2.196  1.00  0.00    -0.0820 Cl
ATOM      8 C11  34D L   1       0.581   5.521   1.952  1.00  0.00    -0.0330  A
ATOM      9 H18  34D L   1       3.278   5.994  -0.095  1.00  0.00    +0.0623  H
ATOM     10 H19  34D L   1       1.848   7.782  -0.921  1.00  0.00    +0.0633  H
ATOM     11 H20  34D L   1       0.200   4.902   2.764  1.00  0.00    +0.0637  H
ENDROOT
BRANCH 1 13
ATOM     12  C1  34D L   1       4.142   4.076   1.517  1.00  0.00    -0.0031  C
ATOM     13  C2  34D L   1       2.683   4.135   1.965  1.00  0.00    +0.1539  C
ATOM     14  N3  34D L   1       2.046   2.837   1.615  1.00  0.00    -0.1890  N
ATOM     15 H12  34D L   1       4.659   5.015   1.742  1.00  0.00    +0.0292  H
ATOM     16 H13  34D L   1       4.674   3.273   2.039  1.00  0.00    +0.0292  H
ATOM     17 H14  34D L   1       4.235   3.884   0.443  1.00  0.00    +0.0292  H
ATOM     18 H15  34D L   1       2.669   4.185   3.061  1.00  0.00    +0.1051  H
ATOM     19 H16  34D L   1       1.927   2.739   0.599  1.00  0.00    +0.4057 HD
ATOM     20 H17  34D L   1       2.587   2.032   1.955  1.00  0.00    +0.4057 HD
ENDBRANCH 1 13
TORSDOF 1
ENDMDL
MODEL 9
REMARK VINA RESULT:    -5.414      2.007      2.426
REMARK INTER + INTRA:          -5.813
REMARK INTER:                  -5.747
REMARK INTRA:                  -0.066
REMARK UNBOUND:                -0.083
ROOT
ATOM      1  C4  34D L   1       5.247   2.267   3.606  1.00  0.00    +0.0156  A
ATOM      2  C5  34D L   1       4.362   3.294   3.969  1.00  0.00    -0.0513  A
ATOM      3  C6  34D L   1       4.027   4.306   3.060  1.00  0.00    -0.0415  A
ATOM      4  C7  34D L   1       4.572   4.320   1.774  1.00  0.00    +0.0593  A
ATOM      5 CL8  34D L   1       4.117   5.603   0.717  1.00  0.00    -0.0820 Cl
ATOM      6  C9  34D L   1       5.459   3.311   1.397  1.00  0.00    +0.0597  A
ATOM      7 CL10 34D L   1       6.191   3.251  -0.166  1.00  0.00    -0.0820 Cl
ATOM      8 C11  34D L   1       5.793   2.297   2.307  1.00  0.00    -0.0330  A
ATOM      9 H18  34D L   1       3.897   3.338   4.954  1.00  0.00    +0.0623  H
ATOM     10 H19  34D L   1       3.330   5.089   3.361  1.00  0.00    +0.0633  H
ATOM     11 H20  34D L   1       6.486   1.521   1.982  1.00  0.00    +0.0637  H
ENDROOT
BRANCH 1 13
ATOM     12  C1  34D L   1       4.671   0.017   4.734  1.00  0.00    -0.0031  C
ATOM     13  C2  34D L   1       5.669   1.158   4.549  1.00  0.00    +0.1539  C
ATOM     14  N3  34D L   1       5.974   1.718   5.894  1.00  0.00    -0.1890  N
ATOM     15 H12  34D L   1       4.401  -0.426   3.770  1.00  0.00    +0.0292  H
ATOM     16 H13  34D L   1       5.103  -0.776   5.354  1.00  0.00    +0.0292  H
ATOM     17 H14  34D L   1       3.751   0.350   5.226  1.00  0.00    +0.0292  H
ATOM     18 H15  34D L   1       6.611   0.728   4.187  1.00  0.00    +0.1051  H
ATOM     19 H16  34D L   1       5.171   2.231   6.279  1.00  0.00    +0.4057 HD
ATOM     20 H17  34D L   1       6.246   0.990   6.567  1.00  0.00    +0.4057 HD
ENDBRANCH 1 13
TORSDOF 1
ENDMDL
MODEL 10
REMARK VINA RESULT:    -5.400      4.131      5.258
REMARK INTER + INTRA:          -5.799
REMARK INTER:                  -5.728
REMARK INTRA:                  -0.070
REMARK UNBOUND:                -0.083
ROOT
ATOM      1  C4  34D L   1       4.282   2.204   2.560  1.00  0.00    +0.0156  A
ATOM      2  C5  34D L   1       5.681   2.306   2.515  1.00  0.00    -0.0513  A
ATOM      3  C6  34D L   1       6.491   1.242   2.932  1.00  0.00    -0.0415  A
ATOM      4  C7  34D L   1       5.923   0.058   3.408  1.00  0.00    +0.0593  A
ATOM      5 CL8  34D L   1       6.987  -1.203   3.910  1.00  0.00    -0.0820 Cl
ATOM      6  C9  34D L   1       4.535  -0.061   3.467  1.00  0.00    +0.0597  A
ATOM      7 CL10 34D L   1       3.744  -1.480   4.050  1.00  0.00    -0.0820 Cl
ATOM      8 C11  34D L   1       3.724   1.005   3.047  1.00  0.00    -0.0330  A
ATOM      9 H18  34D L   1       6.186   3.200   2.147  1.00  0.00    +0.0623  H
ATOM     10 H19  34D L   1       7.575   1.340   2.880  1.00  0.00    +0.0633  H
ATOM     11 H20  34D L   1       2.642   0.883   3.102  1.00  0.00    +0.0637  H
ENDROOT
BRANCH 1 13
ATOM     12  C1  34D L   1       3.060   4.384   3.211  1.00  0.00    -0.0031  C
ATOM     13  C2  34D L   1       3.351   3.327   2.147  1.00  0.00    +0.1539  C
ATOM     14  N3  34D L   1       2.048   2.772   1.690  1.00  0.00    -0.1890  N
ATOM     15 H12  34D L   1       3.990   4.820   3.594  1.00  0.00    +0.0292  H
ATOM     16 H13  34D L   1       2.460   5.199   2.792  1.00  0.00    +0.0292  H
ATOM     17 H14  34D L   1       2.503   3.972   4.059  1.00  0.00    +0.0292  H
ATOM     18 H15  34D L   1       3.779   3.836   1.275  1.00  0.00    +0.1051  H
ATOM     19 H16  34D L   1       1.611   2.192   2.416  1.00  0.00    +0.4057 HD
ATOM     20 H17  34D L   1       1.384   3.508   1.421  1.00  0.00    +0.4057 HD
ENDBRANCH 1 13
TORSDOF 1
ENDMDL
MODEL 11
REMARK VINA RESULT:    -5.398      4.798      6.253
REMARK INTER + INTRA:          -5.796
REMARK INTER:                  -5.731
REMARK INTRA:                  -0.065
REMARK UNBOUND:                -0.083
ROOT
ATOM      1  C4  34D L   1       5.259   0.479   3.005  1.00  0.00    +0.0156  A
ATOM      2  C5  34D L   1       4.411  -0.552   2.569  1.00  0.00    -0.0513  A
ATOM      3  C6  34D L   1       4.727  -1.893   2.821  1.00  0.00    -0.0415  A
ATOM      4  C7  34D L   1       5.896  -2.235   3.504  1.00  0.00    +0.0593  A
ATOM      5 CL8  34D L   1       6.218  -3.908   3.768  1.00  0.00    -0.0820 Cl
ATOM      6  C9  34D L   1       6.755  -1.225   3.940  1.00  0.00    +0.0597  A
ATOM      7 CL10 34D L   1       8.226  -1.552   4.782  1.00  0.00    -0.0820 Cl
ATOM      8 C11  34D L   1       6.437   0.118   3.689  1.00  0.00    -0.0330  A
ATOM      9 H18  34D L   1       3.481  -0.352   2.037  1.00  0.00    +0.0623  H
ATOM     10 H19  34D L   1       4.050  -2.677   2.481  1.00  0.00    +0.0633  H
ATOM     11 H20  34D L   1       7.126   0.885   4.043  1.00  0.00    +0.0637  H
ENDROOT
BRANCH 1 13
ATOM     12  C1  34D L   1       4.773   2.822   3.976  1.00  0.00    -0.0031  C
ATOM     13  C2  34D L   1       4.988   1.947   2.743  1.00  0.00    +0.1539  C
ATOM     14  N3  34D L   1       3.797   2.100   1.864  1.00  0.00    -0.1890  N
ATOM     15 H12  34D L   1       5.619   2.738   4.667  1.00  0.00    +0.0292  H
ATOM     16 H13  34D L   1       4.681   3.875   3.691  1.00  0.00    +0.0292  H
ATOM     17 H14  34D L   1       3.862   2.550   4.520  1.00  0.00    +0.0292  H
ATOM     18 H15  34D L   1       5.829   2.364   2.176  1.00  0.00    +0.1051  H
ATOM     19 H16  34D L   1       2.969   1.649   2.272  1.00  0.00    +0.4057 HD
ATOM     20 H17  34D L   1       3.571   3.085   1.681  1.00  0.00    +0.4057 HD
ENDBRANCH 1 13
TORSDOF 1
ENDMDL
MODEL 12
REMARK VINA RESULT:    -5.312      2.430      2.808
REMARK INTER + INTRA:          -5.706
REMARK INTER:                  -5.620
REMARK INTRA:                  -0.086
REMARK UNBOUND:                -0.083
ROOT
ATOM      1  C4  34D L   1       4.452   0.634   3.618  1.00  0.00    +0.0156  A
ATOM      2  C5  34D L   1       5.243   1.429   4.463  1.00  0.00    -0.0513  A
ATOM      3  C6  34D L   1       5.104   2.823   4.471  1.00  0.00    -0.0415  A
ATOM      4  C7  34D L   1       4.180   3.454   3.634  1.00  0.00    +0.0593  A
ATOM      5 CL8  34D L   1       4.075   5.173   3.698  1.00  0.00    -0.0820 Cl
ATOM      6  C9  34D L   1       3.390   2.681   2.783  1.00  0.00    +0.0597  A
ATOM      7 CL10 34D L   1       2.230   3.372   1.706  1.00  0.00    -0.0820 Cl
ATOM      8 C11  34D L   1       3.528   1.285   2.776  1.00  0.00    -0.0330  A
ATOM      9 H18  34D L   1       5.977   0.999   5.145  1.00  0.00    +0.0623  H
ATOM     10 H19  34D L   1       5.722   3.420   5.142  1.00  0.00    +0.0633  H
ATOM     11 H20  34D L   1       2.895   0.708   2.101  1.00  0.00    +0.0637  H
ENDROOT
BRANCH 1 13
ATOM     12  C1  34D L   1       5.868  -1.475   4.082  1.00  0.00    -0.0031  C
ATOM     13  C2  34D L   1       4.571  -0.875   3.543  1.00  0.00    +0.1539  C
ATOM     14  N3  34D L   1       4.408  -1.333   2.136  1.00  0.00    -0.1890  N
ATOM     15 H12  34D L   1       6.044  -1.159   5.116  1.00  0.00    +0.0292  H
ATOM     16 H13  34D L   1       5.820  -2.569   4.073  1.00  0.00    +0.0292  H
ATOM     17 H14  34D L   1       6.737  -1.181   3.484  1.00  0.00    +0.0292  H
ATOM     18 H15  34D L   1       3.736  -1.321   4.097  1.00  0.00    +0.1051  H
ATOM     19 H16  34D L   1       5.095  -0.887   1.514  1.00  0.00    +0.4057 HD
ATOM     20 H17  34D L   1       4.503  -2.352   2.044  1.00  0.00    +0.4057 HD
ENDBRANCH 1 13
TORSDOF 1
ENDMDL
