MODEL 1
REMARK VINA RESULT:    -5.437      0.000      0.000
REMARK INTER + INTRA:          -5.669
REMARK INTER:                  -5.755
REMARK INTRA:                   0.086
REMARK UNBOUND:                 0.086
ROOT
ATOM      1  C4  26D L   1       4.889   3.313   2.087  1.00  0.00    +0.0507  A
ATOM      2  C5  26D L   1       4.517   4.445   1.327  1.00  0.00    +0.0513  A
ATOM      3 CL6  26D L   1       4.864   4.569  -0.364  1.00  0.00    -0.0830 Cl
ATOM      4  C7  26D L   1       3.852   5.532   1.907  1.00  0.00    -0.0428  A
ATOM      5  C8  26D L   1       3.549   5.525   3.262  1.00  0.00    -0.0590  A
ATOM      6  C9  26D L   1       3.918   4.434   4.042  1.00  0.00    -0.0428  A
ATOM      7 C10  26D L   1       4.584   3.345   3.465  1.00  0.00    +0.0513  A
ATOM      8 CL11 26D L   1       5.004   2.057   4.540  1.00  0.00    -0.0830 Cl
ATOM      9 H18  26D L   1       3.570   6.396   1.305  1.00  0.00    +0.0632  H
ATOM     10 H19  26D L   1       3.036   6.371   3.714  1.00  0.00    +0.0618  H
ATOM     11 H20  26D L   1       3.688   4.444   5.107  1.00  0.00    +0.0632  H
ENDROOT
BRANCH 1 13
ATOM     12  C1  26D L   1       6.972   1.877   2.096  1.00  0.00    -0.0030  C
ATOM     13  C2  26D L   1       5.628   2.163   1.431  1.00  0.00    +0.1566  C
ATOM     14  N3  26D L   1       4.852   0.892   1.375  1.00  0.00    -0.1889  N
ATOM     15 H12  26D L   1       7.512   1.088   1.561  1.00  0.00    +0.0292  H
ATOM     16 H13  26D L   1       6.864   1.556   3.137  1.00  0.00    +0.0292  H
ATOM     17 H14  26D L   1       7.605   2.772   2.092  1.00  0.00    +0.0292  H
ATOM     18 H15  26D L   1       5.810   2.369   0.374  1.00  0.00    +0.1052  H
ATOM     19 H16  26D L   1       3.927   1.033   0.952  1.00  0.00    +0.4057 HD
ATOM     20 H17  26D L   1       5.342   0.167   0.835  1.00  0.00    +0.4057 HD
ENDBRANCH 1 13
TORSDOF 1
ENDMDL
MODEL 2
REMARK VINA RESULT:    -5.409      1.526      4.222
REMARK INTER + INTRA:          -5.639
REMARK INTER:                  -5.677
REMARK INTRA:                   0.038
REMARK UNBOUND:                 0.086
ROOT
ATOM      1  C4  26D L   1       4.717   3.415   2.622  1.00  0.00    +0.0507  A
ATOM      2  C5  26D L   1       5.549   2.530   3.344  1.00  0.00    +0.0513  A
ATOM      3 CL6  26D L   1       5.250   2.135   5.002  1.00  0.00    -0.0830 Cl
ATOM      4  C7  26D L   1       6.668   1.931   2.754  1.00  0.00    -0.0428  A
ATOM      5  C8  26D L   1       6.994   2.205   1.432  1.00  0.00    -0.0590  A
ATOM      6  C9  26D L   1       6.205   3.087   0.700  1.00  0.00    -0.0428  A
ATOM      7 C10  26D L   1       5.085   3.688   1.287  1.00  0.00    +0.0513  A
ATOM      8 CL11 26D L   1       4.194   4.777   0.281  1.00  0.00    -0.0830 Cl
ATOM      9 H18  26D L   1       7.298   1.248   3.324  1.00  0.00    +0.0632  H
ATOM     10 H19  26D L   1       7.866   1.742   0.975  1.00  0.00    +0.0618  H
ATOM     11 H20  26D L   1       6.478   3.306  -0.332  1.00  0.00    +0.0632  H
ENDROOT
BRANCH 1 13
ATOM     12  C1  26D L   1       3.688   5.575   3.448  1.00  0.00    -0.0030  C
ATOM     13  C2  26D L   1       3.525   4.065   3.299  1.00  0.00    +0.1566  C
ATOM     14  N3  26D L   1       2.221   3.797   2.628  1.00  0.00    -0.1889  N
ATOM     15 H12  26D L   1       2.845   6.006   3.998  1.00  0.00    +0.0292  H
ATOM     16 H13  26D L   1       3.748   6.086   2.482  1.00  0.00    +0.0292  H
ATOM     17 H14  26D L   1       4.603   5.814   4.003  1.00  0.00    +0.0292  H
ATOM     18 H15  26D L   1       3.363   3.642   4.293  1.00  0.00    +0.1052  H
ATOM     19 H16  26D L   1       2.070   2.791   2.486  1.00  0.00    +0.4057 HD
ATOM     20 H17  26D L   1       1.429   4.164   3.170  1.00  0.00    +0.4057 HD
ENDBRANCH 1 13
TORSDOF 1
ENDMDL
MODEL 3
REMARK VINA RESULT:    -5.334      3.059      5.147
REMARK INTER + INTRA:          -5.559
REMARK INTER:                  -5.618
REMARK INTRA:                   0.059
REMARK UNBOUND:                 0.086
ROOT
ATOM      1  C4  26D L   1       2.202   5.345   1.690  1.00  0.00    +0.0507  A
ATOM      2  C5  26D L   1       3.295   4.591   2.175  1.00  0.00    +0.0513  A
ATOM      3 CL6  26D L   1       3.217   3.718   3.668  1.00  0.00    -0.0830 Cl
ATOM      4  C7  26D L   1       4.503   4.517   1.474  1.00  0.00    -0.0428  A
ATOM      5  C8  26D L   1       4.661   5.201   0.275  1.00  0.00    -0.0590  A
ATOM      6  C9  26D L   1       3.610   5.967  -0.219  1.00  0.00    -0.0428  A
ATOM      7 C10  26D L   1       2.399   6.043   0.480  1.00  0.00    +0.0513  A
ATOM      8 CL11 26D L   1       1.176   7.039  -0.229  1.00  0.00    -0.0830 Cl
ATOM      9 H18  26D L   1       5.336   3.929   1.862  1.00  0.00    +0.0632  H
ATOM     10 H19  26D L   1       5.602   5.147  -0.268  1.00  0.00    +0.0618  H
ATOM     11 H20  26D L   1       3.749   6.511  -1.153  1.00  0.00    +0.0632  H
ENDROOT
BRANCH 1 13
ATOM     12  C1  26D L   1       0.577   6.846   2.919  1.00  0.00    -0.0030  C
ATOM     13  C2  26D L   1       0.914   5.421   2.487  1.00  0.00    +0.1566  C
ATOM     14  N3  26D L   1      -0.272   4.850   1.787  1.00  0.00    -0.1889  N
ATOM     15 H12  26D L   1      -0.320   6.861   3.548  1.00  0.00    +0.0292  H
ATOM     16 H13  26D L   1       0.395   7.509   2.068  1.00  0.00    +0.0292  H
ATOM     17 H14  26D L   1       1.397   7.279   3.503  1.00  0.00    +0.0292  H
ATOM     18 H15  26D L   1       0.973   4.799   3.384  1.00  0.00    +0.1052  H
ATOM     19 H16  26D L   1      -0.091   3.894   1.457  1.00  0.00    +0.4057 HD
ATOM     20 H17  26D L   1      -1.100   4.825   2.394  1.00  0.00    +0.4057 HD
ENDBRANCH 1 13
TORSDOF 1
ENDMDL
MODEL 4
REMARK VINA RESULT:    -5.284      0.090      2.761
REMARK INTER + INTRA:          -5.507
REMARK INTER:                  -5.743
REMARK INTRA:                   0.236
REMARK UNBOUND:                 0.086
ROOT
ATOM      1  C4  26D L   1       4.952   3.357   2.019  1.00  0.00    +0.0507  A
ATOM      2  C5  26D L   1       4.588   3.321   3.384  1.00  0.00    +0.0513  A
ATOM      3 CL6  26D L   1       4.956   1.966   4.396  1.00  0.00    -0.0830 Cl
ATOM      4  C7  26D L   1       3.902   4.380   3.988  1.00  0.00    -0.0428  A
ATOM      5  C8  26D L   1       3.550   5.501   3.246  1.00  0.00    -0.0590  A
ATOM      6  C9  26D L   1       3.878   5.559   1.896  1.00  0.00    -0.0428  A
ATOM      7 C10  26D L   1       4.564   4.500   1.288  1.00  0.00    +0.0513  A
ATOM      8 CL11 26D L   1       4.900   4.684  -0.399  1.00  0.00    -0.0830 Cl
ATOM      9 H18  26D L   1       3.630   4.337   5.043  1.00  0.00    +0.0632  H
ATOM     10 H19  26D L   1       3.013   6.323   3.715  1.00  0.00    +0.0618  H
ATOM     11 H20  26D L   1       3.585   6.436   1.320  1.00  0.00    +0.0632  H
ENDROOT
BRANCH 1 13
ATOM     12  C1  26D L   1       6.999   1.870   2.087  1.00  0.00    -0.0030  C
ATOM     13  C2  26D L   1       5.676   2.181   1.391  1.00  0.00    +0.1566  C
ATOM     14  N3  26D L   1       4.871   0.929   1.333  1.00  0.00    -0.1889  N
ATOM     15 H12  26D L   1       7.530   1.062   1.572  1.00  0.00    +0.0292  H
ATOM     16 H13  26D L   1       6.861   1.564   3.129  1.00  0.00    +0.0292  H
ATOM     17 H14  26D L   1       7.654   2.749   2.087  1.00  0.00    +0.0292  H
ATOM     18 H15  26D L   1       5.885   2.371   0.336  1.00  0.00    +0.1052  H
ATOM     19 H16  26D L   1       3.958   1.088   0.888  1.00  0.00    +0.4057 HD
ATOM     20 H17  26D L   1       5.353   0.187   0.810  1.00  0.00    +0.4057 HD
ENDBRANCH 1 13
TORSDOF 1
ENDMDL
MODEL 5
REMARK VINA RESULT:    -5.243      3.098      4.472
REMARK INTER + INTRA:          -5.463
REMARK INTER:                  -5.670
REMARK INTRA:                   0.207
REMARK UNBOUND:                 0.086
ROOT
ATOM      1  C4  26D L   1       2.152   5.402   1.787  1.00  0.00    +0.0507  A
ATOM      2  C5  26D L   1       2.324   6.052   0.544  1.00  0.00    +0.0513  A
ATOM      3 CL6  26D L   1       1.065   6.993  -0.180  1.00  0.00    -0.0830 Cl
ATOM      4  C7  26D L   1       3.523   5.962  -0.171  1.00  0.00    -0.0428  A
ATOM      5  C8  26D L   1       4.582   5.213   0.327  1.00  0.00    -0.0590  A
ATOM      6  C9  26D L   1       4.438   4.546   1.539  1.00  0.00    -0.0428  A
ATOM      7 C10  26D L   1       3.239   4.633   2.258  1.00  0.00    +0.0513  A
ATOM      8 CL11 26D L   1       3.178   3.747   3.741  1.00  0.00    -0.0830 Cl
ATOM      9 H18  26D L   1       3.639   6.472  -1.128  1.00  0.00    +0.0632  H
ATOM     10 H19  26D L   1       5.513   5.140  -0.231  1.00  0.00    +0.0618  H
ATOM     11 H20  26D L   1       5.269   3.950   1.914  1.00  0.00    +0.0632  H
ENDROOT
BRANCH 1 13
ATOM     12  C1  26D L   1       0.502   6.933   2.943  1.00  0.00    -0.0030  C
ATOM     13  C2  26D L   1       0.831   5.502   2.525  1.00  0.00    +0.1566  C
ATOM     14  N3  26D L   1      -0.332   4.954   1.771  1.00  0.00    -0.1889  N
ATOM     15 H12  26D L   1      -0.422   6.965   3.531  1.00  0.00    +0.0292  H
ATOM     16 H13  26D L   1       0.372   7.600   2.085  1.00  0.00    +0.0292  H
ATOM     17 H14  26D L   1       1.304   7.350   3.564  1.00  0.00    +0.0292  H
ATOM     18 H15  26D L   1       0.838   4.879   3.423  1.00  0.00    +0.1052  H
ATOM     19 H16  26D L   1      -0.155   3.995   1.449  1.00  0.00    +0.4057 HD
ATOM     20 H17  26D L   1      -1.188   4.945   2.341  1.00  0.00    +0.4057 HD
ENDBRANCH 1 13
TORSDOF 1
ENDMDL
MODEL 6
REMARK VINA RESULT:    -5.242      5.516      7.408
REMARK INTER + INTRA:          -5.462
REMARK INTER:                  -5.500
REMARK INTRA:                   0.038
REMARK UNBOUND:                 0.086
ROOT
ATOM      1  C4  26D L   1       4.672  -2.401   3.976  1.00  0.00    +0.0507  A
ATOM      2  C5  26D L   1       3.835  -3.445   4.431  1.00  0.00    +0.0513  A
ATOM      3 CL6  26D L   1       2.133  -3.224   4.654  1.00  0.00    -0.0830 Cl
ATOM      4  C7  26D L   1       4.342  -4.714   4.732  1.00  0.00    -0.0428  A
ATOM      5  C8  26D L   1       5.700  -4.975   4.599  1.00  0.00    -0.0590  A
ATOM      6  C9  26D L   1       6.553  -3.964   4.172  1.00  0.00    -0.0428  A
ATOM      7 C10  26D L   1       6.049  -2.693   3.869  1.00  0.00    +0.0513  A
ATOM      8 CL11 26D L   1       7.212  -1.516   3.364  1.00  0.00    -0.0830 Cl
ATOM      9 H18  26D L   1       3.681  -5.509   5.080  1.00  0.00    +0.0632  H
ATOM     10 H19  26D L   1       6.095  -5.961   4.838  1.00  0.00    +0.0618  H
ATOM     11 H20  26D L   1       7.619  -4.175   4.084  1.00  0.00    +0.0632  H
ENDROOT
BRANCH 1 13
ATOM     12  C1  26D L   1       4.567   0.030   4.668  1.00  0.00    -0.0030  C
ATOM     13  C2  26D L   1       4.092  -1.032   3.679  1.00  0.00    +0.1566  C
ATOM     14  N3  26D L   1       4.361  -0.541   2.298  1.00  0.00    -0.1889  N
ATOM     15 H12  26D L   1       4.081   0.992   4.470  1.00  0.00    +0.0292  H
ATOM     16 H13  26D L   1       5.649   0.191   4.621  1.00  0.00    +0.0292  H
ATOM     17 H14  26D L   1       4.322  -0.259   5.696  1.00  0.00    +0.0292  H
ATOM     18 H15  26D L   1       3.001  -1.056   3.707  1.00  0.00    +0.1052  H
ATOM     19 H16  26D L   1       4.076  -1.230   1.591  1.00  0.00    +0.4057 HD
ATOM     20 H17  26D L   1       3.868   0.339   2.101  1.00  0.00    +0.4057 HD
ENDBRANCH 1 13
TORSDOF 1
ENDMDL
MODEL 7
REMARK VINA RESULT:    -5.158      2.084      3.960
REMARK INTER + INTRA:          -5.374
REMARK INTER:                  -5.411
REMARK INTRA:                   0.038
REMARK UNBOUND:                 0.086
ROOT
ATOM      1  C4  26D L   1       4.738   3.835   1.378  1.00  0.00    +0.0507  A
ATOM      2  C5  26D L   1       5.923   3.115   1.103  1.00  0.00    +0.0513  A
ATOM      3 CL6  26D L   1       6.578   1.966   2.219  1.00  0.00    -0.0830 Cl
ATOM      4  C7  26D L   1       6.634   3.300  -0.088  1.00  0.00    -0.0428  A
ATOM      5  C8  26D L   1       6.191   4.217  -1.033  1.00  0.00    -0.0590  A
ATOM      6  C9  26D L   1       5.039   4.955  -0.784  1.00  0.00    -0.0428  A
ATOM      7 C10  26D L   1       4.324   4.772   0.407  1.00  0.00    +0.0513  A
ATOM      8 CL11 26D L   1       2.918   5.759   0.607  1.00  0.00    -0.0830 Cl
ATOM      9 H18  26D L   1       7.545   2.735  -0.285  1.00  0.00    +0.0632  H
ATOM     10 H19  26D L   1       6.746   4.364  -1.957  1.00  0.00    +0.0618  H
ATOM     11 H20  26D L   1       4.707   5.681  -1.526  1.00  0.00    +0.0632  H
ENDROOT
BRANCH 1 13
ATOM     12  C1  26D L   1       4.033   4.866   3.579  1.00  0.00    -0.0030  C
ATOM     13  C2  26D L   1       4.004   3.626   2.689  1.00  0.00    +0.1566  C
ATOM     14  N3  26D L   1       2.587   3.193   2.532  1.00  0.00    -0.1889  N
ATOM     15 H12  26D L   1       3.554   4.663   4.544  1.00  0.00    +0.0292  H
ATOM     16 H13  26D L   1       3.516   5.718   3.126  1.00  0.00    +0.0292  H
ATOM     17 H14  26D L   1       5.065   5.176   3.780  1.00  0.00    +0.0292  H
ATOM     18 H15  26D L   1       4.439   2.795   3.250  1.00  0.00    +0.1052  H
ATOM     19 H16  26D L   1       2.510   2.368   1.923  1.00  0.00    +0.4057 HD
ATOM     20 H17  26D L   1       2.155   2.961   3.435  1.00  0.00    +0.4057 HD
ENDBRANCH 1 13
TORSDOF 1
ENDMDL
MODEL 8
REMARK VINA RESULT:    -5.088      2.035      3.081
REMARK INTER + INTRA:          -5.300
REMARK INTER:                  -5.335
REMARK INTRA:                   0.035
REMARK UNBOUND:                 0.086
ROOT
ATOM      1  C4  26D L   1       4.669   3.208   1.938  1.00  0.00    +0.0507  A
ATOM      2  C5  26D L   1       4.266   4.249   1.071  1.00  0.00    +0.0513  A
ATOM      3 CL6  26D L   1       2.760   5.077   1.270  1.00  0.00    -0.0830 Cl
ATOM      4  C7  26D L   1       5.065   4.660  -0.002  1.00  0.00    -0.0428  A
ATOM      5  C8  26D L   1       6.282   4.038  -0.247  1.00  0.00    -0.0590  A
ATOM      6  C9  26D L   1       6.698   2.997   0.576  1.00  0.00    -0.0428  A
ATOM      7 C10  26D L   1       5.902   2.583   1.651  1.00  0.00    +0.0513  A
ATOM      8 CL11 26D L   1       6.520   1.270   2.592  1.00  0.00    -0.0830 Cl
ATOM      9 H18  26D L   1       4.740   5.466  -0.660  1.00  0.00    +0.0632  H
ATOM     10 H19  26D L   1       6.902   4.355  -1.084  1.00  0.00    +0.0618  H
ATOM     11 H20  26D L   1       7.649   2.507   0.367  1.00  0.00    +0.0632  H
ENDROOT
BRANCH 1 13
ATOM     12  C1  26D L   1       3.197   1.372   2.870  1.00  0.00    -0.0030  C
ATOM     13  C2  26D L   1       3.768   2.772   3.078  1.00  0.00    +0.1566  C
ATOM     14  N3  26D L   1       4.415   2.821   4.419  1.00  0.00    -0.1889  N
ATOM     15 H12  26D L   1       2.500   1.112   3.674  1.00  0.00    +0.0292  H
ATOM     16 H13  26D L   1       3.976   0.603   2.846  1.00  0.00    +0.0292  H
ATOM     17 H14  26D L   1       2.648   1.313   1.923  1.00  0.00    +0.0292  H
ATOM     18 H15  26D L   1       2.932   3.465   3.200  1.00  0.00    +0.1052  H
ATOM     19 H16  26D L   1       4.834   3.742   4.603  1.00  0.00    +0.4057 HD
ATOM     20 H17  26D L   1       3.747   2.620   5.175  1.00  0.00    +0.4057 HD
ENDBRANCH 1 13
TORSDOF 1
ENDMDL
MODEL 9
REMARK VINA RESULT:    -5.071      6.176      7.403
REMARK INTER + INTRA:          -5.282
REMARK INTER:                  -5.337
REMARK INTRA:                   0.056
REMARK UNBOUND:                 0.086
ROOT
ATOM      1  C4  26D L   1       6.491  -2.859   4.091  1.00  0.00    +0.0507  A
ATOM      2  C5  26D L   1       5.247  -2.244   3.822  1.00  0.00    +0.0513  A
ATOM      3 CL6  26D L   1       5.136  -0.620   3.233  1.00  0.00    -0.0830 Cl
ATOM      4  C7  26D L   1       4.037  -2.916   4.025  1.00  0.00    -0.0428  A
ATOM      5  C8  26D L   1       4.032  -4.216   4.513  1.00  0.00    -0.0590  A
ATOM      6  C9  26D L   1       5.238  -4.843   4.805  1.00  0.00    -0.0428  A
ATOM      7 C10  26D L   1       6.451  -4.174   4.603  1.00  0.00    +0.0513  A
ATOM      8 CL11 26D L   1       7.881  -5.054   5.018  1.00  0.00    -0.0830 Cl
ATOM      9 H18  26D L   1       3.087  -2.426   3.810  1.00  0.00    +0.0632  H
ATOM     10 H19  26D L   1       3.090  -4.737   4.675  1.00  0.00    +0.0618  H
ATOM     11 H20  26D L   1       5.222  -5.859   5.201  1.00  0.00    +0.0632  H
ENDROOT
BRANCH 1 13
ATOM     12  C1  26D L   1       8.418  -1.644   5.193  1.00  0.00    -0.0030  C
ATOM     13  C2  26D L   1       7.783  -2.094   3.879  1.00  0.00    +0.1566  C
ATOM     14  N3  26D L   1       8.809  -2.834   3.092  1.00  0.00    -0.1889  N
ATOM     15 H12  26D L   1       9.311  -1.038   5.007  1.00  0.00    +0.0292  H
ATOM     16 H13  26D L   1       8.716  -2.488   5.824  1.00  0.00    +0.0292  H
ATOM     17 H14  26D L   1       7.717  -1.032   5.773  1.00  0.00    +0.0292  H
ATOM     18 H15  26D L   1       7.615  -1.208   3.263  1.00  0.00    +0.1052  H
ATOM     19 H16  26D L   1       8.426  -3.177   2.202  1.00  0.00    +0.4057 HD
ATOM     20 H17  26D L   1       9.627  -2.249   2.881  1.00  0.00    +0.4057 HD
ENDBRANCH 1 13
TORSDOF 1
ENDMDL
MODEL 10
REMARK VINA RESULT:    -5.053      4.653      6.098
REMARK INTER + INTRA:          -5.262
REMARK INTER:                  -5.296
REMARK INTRA:                   0.034
REMARK UNBOUND:                 0.086
ROOT
ATOM      1  C4  26D L   1       0.818   6.528   1.219  1.00  0.00    +0.0507  A
ATOM      2  C5  26D L   1      -0.576   6.747   1.302  1.00  0.00    +0.0513  A
ATOM      3 CL6  26D L   1      -1.536   6.071   2.573  1.00  0.00    -0.0830 Cl
ATOM      4  C7  26D L   1      -1.255   7.518   0.353  1.00  0.00    -0.0428  A
ATOM      5  C8  26D L   1      -0.566   8.085  -0.712  1.00  0.00    -0.0590  A
ATOM      6  C9  26D L   1       0.803   7.872  -0.833  1.00  0.00    -0.0428  A
ATOM      7 C10  26D L   1       1.487   7.101   0.115  1.00  0.00    +0.0513  A
ATOM      8 CL11 26D L   1       3.183   6.897  -0.153  1.00  0.00    -0.0830 Cl
ATOM      9 H18  26D L   1      -2.330   7.679   0.433  1.00  0.00    +0.0632  H
ATOM     10 H19  26D L   1      -1.095   8.681  -1.453  1.00  0.00    +0.0618  H
ATOM     11 H20  26D L   1       1.332   8.310  -1.680  1.00  0.00    +0.0632  H
ENDROOT
BRANCH 1 13
ATOM     12  C1  26D L   1       2.046   4.360   1.666  1.00  0.00    -0.0030  C
ATOM     13  C2  26D L   1       1.519   5.668   2.253  1.00  0.00    +0.1566  C
ATOM     14  N3  26D L   1       2.640   6.351   2.957  1.00  0.00    -0.1889  N
ATOM     15 H12  26D L   1       2.486   3.732   2.448  1.00  0.00    +0.0292  H
ATOM     16 H13  26D L   1       2.812   4.524   0.902  1.00  0.00    +0.0292  H
ATOM     17 H14  26D L   1       1.234   3.789   1.200  1.00  0.00    +0.0292  H
ATOM     18 H15  26D L   1       0.845   5.422   3.077  1.00  0.00    +0.1052  H
ATOM     19 H16  26D L   1       2.342   7.251   3.356  1.00  0.00    +0.4057 HD
ATOM     20 H17  26D L   1       3.022   5.777   3.719  1.00  0.00    +0.4057 HD
ENDBRANCH 1 13
TORSDOF 1
ENDMDL
MODEL 11
REMARK VINA RESULT:    -4.991      3.945      5.768
REMARK INTER + INTRA:          -5.197
REMARK INTER:                  -5.409
REMARK INTRA:                   0.212
REMARK UNBOUND:                 0.086
ROOT
ATOM      1  C4  26D L   1       6.043  -0.536   3.918  1.00  0.00    +0.0507  A
ATOM      2  C5  26D L   1       4.936  -0.935   3.135  1.00  0.00    +0.0513  A
ATOM      3 CL6  26D L   1       3.730   0.190   2.611  1.00  0.00    -0.0830 Cl
ATOM      4  C7  26D L   1       4.753  -2.267   2.748  1.00  0.00    -0.0428  A
ATOM      5  C8  26D L   1       5.663  -3.241   3.139  1.00  0.00    -0.0590  A
ATOM      6  C9  26D L   1       6.753  -2.884   3.926  1.00  0.00    -0.0428  A
ATOM      7 C10  26D L   1       6.939  -1.552   4.315  1.00  0.00    +0.0513  A
ATOM      8 CL11 26D L   1       8.323  -1.237   5.304  1.00  0.00    -0.0830 Cl
ATOM      9 H18  26D L   1       3.894  -2.558   2.143  1.00  0.00    +0.0632  H
ATOM     10 H19  26D L   1       5.519  -4.278   2.842  1.00  0.00    +0.0618  H
ATOM     11 H20  26D L   1       7.454  -3.658   4.238  1.00  0.00    +0.0632  H
ENDROOT
BRANCH 1 13
ATOM     12  C1  26D L   1       6.342   1.855   3.145  1.00  0.00    -0.0030  C
ATOM     13  C2  26D L   1       6.199   0.913   4.338  1.00  0.00    +0.1566  C
ATOM     14  N3  26D L   1       5.097   1.418   5.205  1.00  0.00    -0.1889  N
ATOM     15 H12  26D L   1       6.519   2.883   3.479  1.00  0.00    +0.0292  H
ATOM     16 H13  26D L   1       5.451   1.863   2.509  1.00  0.00    +0.0292  H
ATOM     17 H14  26D L   1       7.190   1.560   2.517  1.00  0.00    +0.0292  H
ATOM     18 H15  26D L   1       7.074   1.041   4.978  1.00  0.00    +0.1052  H
ATOM     19 H16  26D L   1       4.946   0.806   6.017  1.00  0.00    +0.4057 HD
ATOM     20 H17  26D L   1       5.288   2.366   5.553  1.00  0.00    +0.4057 HD
ENDBRANCH 1 13
TORSDOF 1
ENDMDL
MODEL 12
REMARK VINA RESULT:    -4.893      6.053      6.927
REMARK INTER + INTRA:          -5.093
REMARK INTER:                  -5.130
REMARK INTRA:                   0.036
REMARK UNBOUND:                 0.086
ROOT
ATOM      1  C4  26D L   1       7.178   6.655  -2.845  1.00  0.00    +0.0507  A
ATOM      2  C5  26D L   1       7.426   7.852  -3.556  1.00  0.00    +0.0513  A
ATOM      3 CL6  26D L   1       6.366   8.413  -4.804  1.00  0.00    -0.0830 Cl
ATOM      4  C7  26D L   1       8.549   8.644  -3.291  1.00  0.00    -0.0428  A
ATOM      5  C8  26D L   1       9.462   8.260  -2.318  1.00  0.00    -0.0590  A
ATOM      6  C9  26D L   1       9.257   7.078  -1.614  1.00  0.00    -0.0428  A
ATOM      7 C10  26D L   1       8.135   6.283  -1.876  1.00  0.00    +0.0513  A
ATOM      8 CL11 26D L   1       7.999   4.831  -0.946  1.00  0.00    -0.0830 Cl
ATOM      9 H18  26D L   1       8.723   9.565  -3.848  1.00  0.00    +0.0632  H
ATOM     10 H19  26D L   1      10.338   8.873  -2.115  1.00  0.00    +0.0618  H
ATOM     11 H20  26D L   1       9.987   6.779  -0.862  1.00  0.00    +0.0632  H
ENDROOT
BRANCH 1 13
ATOM     12  C1  26D L   1       6.333   4.494  -3.855  1.00  0.00    -0.0030  C
ATOM     13  C2  26D L   1       5.963   5.810  -3.174  1.00  0.00    +0.1566  C
ATOM     14  N3  26D L   1       5.097   5.504  -2.000  1.00  0.00    -0.1889  N
ATOM     15 H12  26D L   1       5.434   3.937  -4.139  1.00  0.00    +0.0292  H
ATOM     16 H13  26D L   1       6.934   3.845  -3.211  1.00  0.00    +0.0292  H
ATOM     17 H14  26D L   1       6.911   4.679  -4.767  1.00  0.00    +0.0292  H
ATOM     18 H15  26D L   1       5.278   6.351  -3.831  1.00  0.00    +0.1052  H
ATOM     19 H16  26D L   1       4.834   6.358  -1.492  1.00  0.00    +0.4057 HD
ATOM     20 H17  26D L   1       4.234   5.020  -2.276  1.00  0.00    +0.4057 HD
ENDBRANCH 1 13
TORSDOF 1
ENDMDL
