MODEL 1
REMARK VINA RESULT:    -5.225      0.000      0.000
REMARK INTER + INTRA:          -5.677
REMARK INTER:                  -5.530
REMARK INTRA:                  -0.147
REMARK UNBOUND:                -0.147
ROOT
ATOM      1  C4  DCM L   1       6.007   7.294  -3.951  1.00  0.00    +0.0339  A
ATOM      2  C5  DCM L   1       5.122   6.219  -4.181  1.00  0.00    -0.0513  A
ATOM      3  C6  DCM L   1       5.471   4.913  -3.838  1.00  0.00    -0.0598  A
ATOM      4  C7  DCM L   1       6.714   4.650  -3.268  1.00  0.00    -0.0419  A
ATOM      5  C8  DCM L   1       7.617   5.691  -3.045  1.00  0.00    +0.0597  A
ATOM      6 CL9  DCM L   1       9.140   5.281  -2.339  1.00  0.00    -0.0820 Cl
ATOM      7 C10  DCM L   1       7.274   7.010  -3.388  1.00  0.00    +0.0682  A
ATOM      8 CL11 DCM L   1       8.406   8.299  -3.127  1.00  0.00    -0.0815 Cl
ATOM      9 H18  DCM L   1       4.148   6.374  -4.647  1.00  0.00    +0.0623  H
ATOM     10 H19  DCM L   1       4.780   4.091  -4.023  1.00  0.00    +0.0618  H
ATOM     11 H20  DCM L   1       6.978   3.626  -3.007  1.00  0.00    +0.0633  H
ENDROOT
BRANCH 1 13
ATOM     12  C1  DCM L   1       5.842   8.962  -5.832  1.00  0.00    -0.0030  C
ATOM     13  C2  DCM L   1       5.599   8.699  -4.350  1.00  0.00    +0.1553  C
ATOM     14  N3  DCM L   1       4.156   8.961  -4.071  1.00  0.00    -0.1890  N
ATOM     15 H12  DCM L   1       6.900   8.821  -6.084  1.00  0.00    +0.0292  H
ATOM     16 H13  DCM L   1       5.573   9.991  -6.096  1.00  0.00    +0.0292  H
ATOM     17 H14  DCM L   1       5.257   8.289  -6.469  1.00  0.00    +0.0292  H
ATOM     18 H15  DCM L   1       6.113   9.459  -3.757  1.00  0.00    +0.1051  H
ATOM     19 H16  DCM L   1       3.945   8.780  -3.081  1.00  0.00    +0.4057 HD
ATOM     20 H17  DCM L   1       3.917   9.944  -4.257  1.00  0.00    +0.4057 HD
ENDBRANCH 1 13
TORSDOF 1
ENDMDL
MODEL 2
REMARK VINA RESULT:    -5.125      1.866      2.718
REMARK INTER + INTRA:          -5.571
REMARK INTER:                  -5.428
REMARK INTRA:                  -0.144
REMARK UNBOUND:                -0.147
ROOT
ATOM      1  C4  DCM L   1       6.602   7.764  -3.957  1.00  0.00    +0.0339  A
ATOM      2  C5  DCM L   1       7.538   8.761  -3.610  1.00  0.00    -0.0513  A
ATOM      3  C6  DCM L   1       8.636   8.468  -2.801  1.00  0.00    -0.0598  A
ATOM      4  C7  DCM L   1       8.817   7.177  -2.313  1.00  0.00    -0.0419  A
ATOM      5  C8  DCM L   1       7.898   6.174  -2.625  1.00  0.00    +0.0597  A
ATOM      6 CL9  DCM L   1       8.191   4.600  -1.975  1.00  0.00    -0.0820 Cl
ATOM      7 C10  DCM L   1       6.789   6.461  -3.439  1.00  0.00    +0.0682  A
ATOM      8 CL11 DCM L   1       5.638   5.216  -3.811  1.00  0.00    -0.0815 Cl
ATOM      9 H18  DCM L   1       7.424   9.792  -3.950  1.00  0.00    +0.0623  H
ATOM     10 H19  DCM L   1       9.350   9.248  -2.537  1.00  0.00    +0.0618  H
ATOM     11 H20  DCM L   1       9.675   6.960  -1.678  1.00  0.00    +0.0633  H
ENDROOT
BRANCH 1 13
ATOM     12  C1  DCM L   1       4.389   8.962  -4.074  1.00  0.00    -0.0030  C
ATOM     13  C2  DCM L   1       5.414   8.123  -4.829  1.00  0.00    +0.1553  C
ATOM     14  N3  DCM L   1       5.823   8.887  -6.044  1.00  0.00    -0.1890  N
ATOM     15 H12  DCM L   1       4.024   8.428  -3.188  1.00  0.00    +0.0292  H
ATOM     16 H13  DCM L   1       3.523   9.185  -4.707  1.00  0.00    +0.0292  H
ATOM     17 H14  DCM L   1       4.810   9.916  -3.736  1.00  0.00    +0.0292  H
ATOM     18 H15  DCM L   1       4.925   7.237  -5.240  1.00  0.00    +0.1051  H
ATOM     19 H16  DCM L   1       6.528   8.361  -6.576  1.00  0.00    +0.4057 HD
ATOM     20 H17  DCM L   1       5.022   9.040  -6.670  1.00  0.00    +0.4057 HD
ENDBRANCH 1 13
TORSDOF 1
ENDMDL
MODEL 3
REMARK VINA RESULT:    -4.678      2.928      4.062
REMARK INTER + INTRA:          -5.098
REMARK INTER:                  -4.995
REMARK INTRA:                  -0.103
REMARK UNBOUND:                -0.147
ROOT
ATOM      1  C4  DCM L   1       8.424   7.533  -2.727  1.00  0.00    +0.0339  A
ATOM      2  C5  DCM L   1       7.754   8.735  -3.037  1.00  0.00    -0.0513  A
ATOM      3  C6  DCM L   1       6.467   8.725  -3.574  1.00  0.00    -0.0598  A
ATOM      4  C7  DCM L   1       5.826   7.515  -3.823  1.00  0.00    -0.0419  A
ATOM      5  C8  DCM L   1       6.470   6.309  -3.543  1.00  0.00    +0.0597  A
ATOM      6 CL9  DCM L   1       5.608   4.851  -3.886  1.00  0.00    -0.0820 Cl
ATOM      7 C10  DCM L   1       7.768   6.310  -3.002  1.00  0.00    +0.0682  A
ATOM      8 CL11 DCM L   1       8.574   4.809  -2.673  1.00  0.00    -0.0815 Cl
ATOM      9 H18  DCM L   1       8.227   9.706  -2.881  1.00  0.00    +0.0623  H
ATOM     10 H19  DCM L   1       5.962   9.660  -3.812  1.00  0.00    +0.0618  H
ATOM     11 H20  DCM L   1       4.822   7.517  -4.246  1.00  0.00    +0.0633  H
ENDROOT
BRANCH 1 13
ATOM     12  C1  DCM L   1      10.460   8.960  -2.324  1.00  0.00    -0.0030  C
ATOM     13  C2  DCM L   1       9.829   7.583  -2.157  1.00  0.00    +0.1553  C
ATOM     14  N3  DCM L   1       9.854   7.243  -0.703  1.00  0.00    -0.1890  N
ATOM     15 H12  DCM L   1      10.503   9.244  -3.382  1.00  0.00    +0.0292  H
ATOM     16 H13  DCM L   1      11.485   8.971  -1.936  1.00  0.00    +0.0292  H
ATOM     17 H14  DCM L   1       9.895   9.737  -1.795  1.00  0.00    +0.0292  H
ATOM     18 H15  DCM L   1      10.480   6.829  -2.603  1.00  0.00    +0.1051  H
ATOM     19 H16  DCM L   1       9.421   6.324  -0.544  1.00  0.00    +0.4057 HD
ATOM     20 H17  DCM L   1      10.819   7.189  -0.354  1.00  0.00    +0.4057 HD
ENDBRANCH 1 13
TORSDOF 1
ENDMDL
MODEL 4
REMARK VINA RESULT:    -4.522      2.544      3.885
REMARK INTER + INTRA:          -4.933
REMARK INTER:                  -4.993
REMARK INTRA:                   0.061
REMARK UNBOUND:                -0.147
ROOT
ATOM      1  C4  DCM L   1       7.542   6.111  -3.156  1.00  0.00    +0.0339  A
ATOM      2  C5  DCM L   1       6.520   5.138  -3.126  1.00  0.00    -0.0513  A
ATOM      3  C6  DCM L   1       5.310   5.345  -3.787  1.00  0.00    -0.0598  A
ATOM      4  C7  DCM L   1       5.089   6.530  -4.483  1.00  0.00    -0.0419  A
ATOM      5  C8  DCM L   1       6.075   7.518  -4.516  1.00  0.00    +0.0597  A
ATOM      6 CL9  DCM L   1       5.721   8.962  -5.396  1.00  0.00    -0.0820 Cl
ATOM      7 C10  DCM L   1       7.297   7.318  -3.851  1.00  0.00    +0.0682  A
ATOM      8 CL11 DCM L   1       8.514   8.556  -3.878  1.00  0.00    -0.0815 Cl
ATOM      9 H18  DCM L   1       6.639   4.205  -2.573  1.00  0.00    +0.0623  H
ATOM     10 H19  DCM L   1       4.527   4.588  -3.754  1.00  0.00    +0.0618  H
ATOM     11 H20  DCM L   1       4.139   6.683  -4.993  1.00  0.00    +0.0633  H
ENDROOT
BRANCH 1 13
ATOM     12  C1  DCM L   1       9.002   6.788  -1.218  1.00  0.00    -0.0030  C
ATOM     13  C2  DCM L   1       8.840   5.857  -2.414  1.00  0.00    +0.1553  C
ATOM     14  N3  DCM L   1       8.933   4.453  -1.915  1.00  0.00    -0.1890  N
ATOM     15 H12  DCM L   1       8.981   7.837  -1.535  1.00  0.00    +0.0292  H
ATOM     16 H13  DCM L   1       9.959   6.614  -0.712  1.00  0.00    +0.0292  H
ATOM     17 H14  DCM L   1       8.204   6.649  -0.479  1.00  0.00    +0.0292  H
ATOM     18 H15  DCM L   1       9.711   5.950  -3.066  1.00  0.00    +0.1051  H
ATOM     19 H16  DCM L   1       8.812   3.789  -2.691  1.00  0.00    +0.4057 HD
ATOM     20 H17  DCM L   1       9.854   4.270  -1.498  1.00  0.00    +0.4057 HD
ENDBRANCH 1 13
TORSDOF 1
ENDMDL
MODEL 5
REMARK VINA RESULT:    -4.321     13.911     15.610
REMARK INTER + INTRA:          -4.720
REMARK INTER:                  -4.579
REMARK INTRA:                  -0.141
REMARK UNBOUND:                -0.147
ROOT
ATOM      1  C4  DCM L   1       8.979  -4.429   5.496  1.00  0.00    +0.0339  A
ATOM      2  C5  DCM L   1       9.047  -4.215   6.889  1.00  0.00    -0.0513  A
ATOM      3  C6  DCM L   1       8.652  -5.204   7.789  1.00  0.00    -0.0598  A
ATOM      4  C7  DCM L   1       8.171  -6.423   7.319  1.00  0.00    -0.0419  A
ATOM      5  C8  DCM L   1       8.076  -6.657   5.946  1.00  0.00    +0.0597  A
ATOM      6 CL9  DCM L   1       7.464  -8.192   5.444  1.00  0.00    -0.0820 Cl
ATOM      7 C10  DCM L   1       8.471  -5.665   5.032  1.00  0.00    +0.0682  A
ATOM      8 CL11 DCM L   1       8.334  -5.951   3.325  1.00  0.00    -0.0815 Cl
ATOM      9 H18  DCM L   1       9.394  -3.267   7.303  1.00  0.00    +0.0623  H
ATOM     10 H19  DCM L   1       8.706  -5.026   8.863  1.00  0.00    +0.0618  H
ATOM     11 H20  DCM L   1       7.861  -7.188   8.030  1.00  0.00    +0.0633  H
ENDROOT
BRANCH 1 13
ATOM     12  C1  DCM L   1       9.368  -1.955   5.217  1.00  0.00    -0.0030  C
ATOM     13  C2  DCM L   1       9.405  -3.324   4.547  1.00  0.00    +0.1553  C
ATOM     14  N3  DCM L   1      10.786  -3.540   4.024  1.00  0.00    -0.1890  N
ATOM     15 H12  DCM L   1       8.361  -1.729   5.586  1.00  0.00    +0.0292  H
ATOM     16 H13  DCM L   1       9.647  -1.166   4.509  1.00  0.00    +0.0292  H
ATOM     17 H14  DCM L   1      10.055  -1.898   6.069  1.00  0.00    +0.0292  H
ATOM     18 H15  DCM L   1       8.793  -3.302   3.643  1.00  0.00    +0.1051  H
ATOM     19 H16  DCM L   1      10.859  -4.463   3.577  1.00  0.00    +0.4057 HD
ATOM     20 H17  DCM L   1      11.025  -2.837   3.312  1.00  0.00    +0.4057 HD
ENDBRANCH 1 13
TORSDOF 1
ENDMDL
MODEL 6
REMARK VINA RESULT:    -4.269     16.364     17.132
REMARK INTER + INTRA:          -4.665
REMARK INTER:                  -4.520
REMARK INTRA:                  -0.146
REMARK UNBOUND:                -0.147
ROOT
ATOM      1  C4  DCM L   1       6.489  -9.420  -9.198  1.00  0.00    +0.0339  A
ATOM      2  C5  DCM L   1       5.912 -10.098  -8.103  1.00  0.00    -0.0513  A
ATOM      3  C6  DCM L   1       6.518 -10.084  -6.847  1.00  0.00    -0.0598  A
ATOM      4  C7  DCM L   1       7.718  -9.403  -6.660  1.00  0.00    -0.0419  A
ATOM      5  C8  DCM L   1       8.322  -8.739  -7.728  1.00  0.00    +0.0597  A
ATOM      6 CL9  DCM L   1       9.812  -7.923  -7.415  1.00  0.00    -0.0820 Cl
ATOM      7 C10  DCM L   1       7.718  -8.748  -8.997  1.00  0.00    +0.0682  A
ATOM      8 CL11 DCM L   1       8.480  -7.937 -10.329  1.00  0.00    -0.0815 Cl
ATOM      9 H18  DCM L   1       4.985 -10.664  -8.209  1.00  0.00    +0.0623  H
ATOM     10 H19  DCM L   1       6.065 -10.614  -6.010  1.00  0.00    +0.0618  H
ATOM     11 H20  DCM L   1       8.186  -9.402  -5.676  1.00  0.00    +0.0633  H
ENDROOT
BRANCH 1 13
ATOM     12  C1  DCM L   1       6.257 -10.674 -11.371  1.00  0.00    -0.0030  C
ATOM     13  C2  DCM L   1       5.808  -9.468 -10.553  1.00  0.00    +0.1553  C
ATOM     14  N3  DCM L   1       4.321  -9.529 -10.428  1.00  0.00    -0.1890  N
ATOM     15 H12  DCM L   1       7.342 -10.658 -11.526  1.00  0.00    +0.0292  H
ATOM     16 H13  DCM L   1       5.781 -10.676 -12.358  1.00  0.00    +0.0292  H
ATOM     17 H14  DCM L   1       6.006 -11.620 -10.877  1.00  0.00    +0.0292  H
ATOM     18 H15  DCM L   1       5.976  -8.556 -11.129  1.00  0.00    +0.1051  H
ATOM     19 H16  DCM L   1       3.978  -8.738  -9.867  1.00  0.00    +0.4057 HD
ATOM     20 H17  DCM L   1       3.872  -9.466 -11.350  1.00  0.00    +0.4057 HD
ENDBRANCH 1 13
TORSDOF 1
ENDMDL
MODEL 7
REMARK VINA RESULT:    -4.258      2.814      4.508
REMARK INTER + INTRA:          -4.654
REMARK INTER:                  -4.688
REMARK INTRA:                   0.034
REMARK UNBOUND:                -0.147
ROOT
ATOM      1  C4  DCM L   1       7.583   6.525  -3.139  1.00  0.00    +0.0339  A
ATOM      2  C5  DCM L   1       8.223   7.769  -2.953  1.00  0.00    -0.0513  A
ATOM      3  C6  DCM L   1       7.655   8.949  -3.433  1.00  0.00    -0.0598  A
ATOM      4  C7  DCM L   1       6.443   8.911  -4.118  1.00  0.00    -0.0419  A
ATOM      5  C8  DCM L   1       5.796   7.693  -4.332  1.00  0.00    +0.0597  A
ATOM      6 CL9  DCM L   1       4.300   7.731  -5.195  1.00  0.00    -0.0820 Cl
ATOM      7 C10  DCM L   1       6.362   6.499  -3.852  1.00  0.00    +0.0682  A
ATOM      8 CL11 DCM L   1       5.565   4.984  -4.136  1.00  0.00    -0.0815 Cl
ATOM      9 H18  DCM L   1       9.185   7.844  -2.444  1.00  0.00    +0.0623  H
ATOM     10 H19  DCM L   1       8.159   9.903  -3.287  1.00  0.00    +0.0618  H
ATOM     11 H20  DCM L   1       6.010   9.838  -4.492  1.00  0.00    +0.0633  H
ENDROOT
BRANCH 1 13
ATOM     12  C1  DCM L   1       9.596   5.545  -1.984  1.00  0.00    -0.0030  C
ATOM     13  C2  DCM L   1       8.238   5.261  -2.614  1.00  0.00    +0.1553  C
ATOM     14  N3  DCM L   1       7.392   4.579  -1.589  1.00  0.00    -0.1890  N
ATOM     15 H12  DCM L   1      10.273   6.013  -2.709  1.00  0.00    +0.0292  H
ATOM     16 H13  DCM L   1      10.070   4.618  -1.640  1.00  0.00    +0.0292  H
ATOM     17 H14  DCM L   1       9.516   6.218  -1.123  1.00  0.00    +0.0292  H
ATOM     18 H15  DCM L   1       8.350   4.504  -3.393  1.00  0.00    +0.1051  H
ATOM     19 H16  DCM L   1       6.458   4.383  -1.971  1.00  0.00    +0.4057 HD
ATOM     20 H17  DCM L   1       7.804   3.678  -1.313  1.00  0.00    +0.4057 HD
ENDBRANCH 1 13
TORSDOF 1
ENDMDL
MODEL 8
REMARK VINA RESULT:    -4.131     16.401     17.326
REMARK INTER + INTRA:          -4.519
REMARK INTER:                  -4.370
REMARK INTRA:                  -0.149
REMARK UNBOUND:                -0.147
ROOT
ATOM      1  C4  DCM L   1       6.704  -9.393  -9.762  1.00  0.00    +0.0339  A
ATOM      2  C5  DCM L   1       7.137  -9.053 -11.062  1.00  0.00    -0.0513  A
ATOM      3  C6  DCM L   1       8.298  -8.306 -11.262  1.00  0.00    -0.0598  A
ATOM      4  C7  DCM L   1       9.046  -7.876 -10.170  1.00  0.00    -0.0419  A
ATOM      5  C8  DCM L   1       8.634  -8.182  -8.872  1.00  0.00    +0.0597  A
ATOM      6 CL9  DCM L   1       9.615  -7.606  -7.572  1.00  0.00    -0.0820 Cl
ATOM      7 C10  DCM L   1       7.465  -8.933  -8.662  1.00  0.00    +0.0682  A
ATOM      8 CL11 DCM L   1       6.944  -9.297  -7.046  1.00  0.00    -0.0815 Cl
ATOM      9 H18  DCM L   1       6.569  -9.348 -11.946  1.00  0.00    +0.0623  H
ATOM     10 H19  DCM L   1       8.620  -8.047 -12.270  1.00  0.00    +0.0618  H
ATOM     11 H20  DCM L   1       9.950  -7.290 -10.337  1.00  0.00    +0.0633  H
ENDROOT
BRANCH 1 13
ATOM     12  C1  DCM L   1       4.473 -10.010 -10.756  1.00  0.00    -0.0030  C
ATOM     13  C2  DCM L   1       5.429 -10.194  -9.583  1.00  0.00    +0.1553  C
ATOM     14  N3  DCM L   1       5.703 -11.656  -9.443  1.00  0.00    -0.1890  N
ATOM     15 H12  DCM L   1       4.207  -8.954 -10.880  1.00  0.00    +0.0292  H
ATOM     16 H13  DCM L   1       3.544 -10.569 -10.596  1.00  0.00    +0.0292  H
ATOM     17 H14  DCM L   1       4.911 -10.354 -11.700  1.00  0.00    +0.0292  H
ATOM     18 H15  DCM L   1       4.914  -9.944  -8.653  1.00  0.00    +0.1051  H
ATOM     19 H16  DCM L   1       6.359 -11.823  -8.669  1.00  0.00    +0.4057 HD
ATOM     20 H17  DCM L   1       4.840 -12.173  -9.228  1.00  0.00    +0.4057 HD
ENDBRANCH 1 13
TORSDOF 1
ENDMDL
MODEL 9
REMARK VINA RESULT:    -4.122     14.009     15.382
REMARK INTER + INTRA:          -4.510
REMARK INTER:                  -4.363
REMARK INTRA:                  -0.147
REMARK UNBOUND:                -0.147
ROOT
ATOM      1  C4  DCM L   1       9.177  -4.819   4.595  1.00  0.00    +0.0339  A
ATOM      2  C5  DCM L   1       8.398  -5.560   3.681  1.00  0.00    -0.0513  A
ATOM      3  C6  DCM L   1       7.840  -6.787   4.039  1.00  0.00    -0.0598  A
ATOM      4  C7  DCM L   1       8.056  -7.305   5.313  1.00  0.00    -0.0419  A
ATOM      5  C8  DCM L   1       8.836  -6.604   6.232  1.00  0.00    +0.0597  A
ATOM      6 CL9  DCM L   1       9.061  -7.318   7.789  1.00  0.00    -0.0820 Cl
ATOM      7 C10  DCM L   1       9.403  -5.367   5.879  1.00  0.00    +0.0682  A
ATOM      8 CL11 DCM L   1      10.389  -4.505   7.019  1.00  0.00    -0.0815 Cl
ATOM      9 H18  DCM L   1       8.222  -5.204   2.664  1.00  0.00    +0.0623  H
ATOM     10 H19  DCM L   1       7.243  -7.351   3.323  1.00  0.00    +0.0618  H
ATOM     11 H20  DCM L   1       7.619  -8.266   5.581  1.00  0.00    +0.0633  H
ENDROOT
BRANCH 1 13
ATOM     12  C1  DCM L   1      11.087  -3.685   3.407  1.00  0.00    -0.0030  C
ATOM     13  C2  DCM L   1       9.778  -3.494   4.166  1.00  0.00    +0.1553  C
ATOM     14  N3  DCM L   1       8.851  -2.718   3.290  1.00  0.00    -0.1890  N
ATOM     15 H12  DCM L   1      11.821  -4.218   4.022  1.00  0.00    +0.0292  H
ATOM     16 H13  DCM L   1      11.524  -2.718   3.132  1.00  0.00    +0.0292  H
ATOM     17 H14  DCM L   1      10.945  -4.261   2.485  1.00  0.00    +0.0292  H
ATOM     18 H15  DCM L   1       9.945  -2.826   5.013  1.00  0.00    +0.1051  H
ATOM     19 H16  DCM L   1       7.948  -2.581   3.760  1.00  0.00    +0.4057 HD
ATOM     20 H17  DCM L   1       9.233  -1.785   3.085  1.00  0.00    +0.4057 HD
ENDBRANCH 1 13
TORSDOF 1
ENDMDL
MODEL 10
REMARK VINA RESULT:    -4.090     13.651     14.224
REMARK INTER + INTRA:          -4.476
REMARK INTER:                  -4.334
REMARK INTRA:                  -0.142
REMARK UNBOUND:                -0.147
ROOT
ATOM      1  C4  DCM L   1      10.616  -3.309   4.116  1.00  0.00    +0.0339  A
ATOM      2  C5  DCM L   1      11.751  -2.473   4.190  1.00  0.00    -0.0513  A
ATOM      3  C6  DCM L   1      12.957  -2.842   3.595  1.00  0.00    -0.0598  A
ATOM      4  C7  DCM L   1      13.059  -4.056   2.922  1.00  0.00    -0.0419  A
ATOM      5  C8  DCM L   1      11.959  -4.911   2.846  1.00  0.00    +0.0597  A
ATOM      6 CL9  DCM L   1      12.169  -6.401   1.998  1.00  0.00    -0.0820 Cl
ATOM      7 C10  DCM L   1      10.740  -4.547   3.444  1.00  0.00    +0.0682  A
ATOM      8 CL11 DCM L   1       9.378  -5.621   3.365  1.00  0.00    -0.0815 Cl
ATOM      9 H18  DCM L   1      11.724  -1.524   4.728  1.00  0.00    +0.0623  H
ATOM     10 H19  DCM L   1      13.827  -2.190   3.662  1.00  0.00    +0.0618  H
ATOM     11 H20  DCM L   1      14.007  -4.337   2.463  1.00  0.00    +0.0633  H
ENDROOT
BRANCH 1 13
ATOM     12  C1  DCM L   1       9.241  -3.378   6.226  1.00  0.00    -0.0030  C
ATOM     13  C2  DCM L   1       9.325  -2.880   4.787  1.00  0.00    +0.1553  C
ATOM     14  N3  DCM L   1       9.173  -1.395   4.808  1.00  0.00    -0.1890  N
ATOM     15 H12  DCM L   1       9.309  -4.471   6.265  1.00  0.00    +0.0292  H
ATOM     16 H13  DCM L   1       8.289  -3.088   6.686  1.00  0.00    +0.0292  H
ATOM     17 H14  DCM L   1      10.049  -2.973   6.847  1.00  0.00    +0.0292  H
ATOM     18 H15  DCM L   1       8.445  -3.216   4.235  1.00  0.00    +0.1051  H
ATOM     19 H16  DCM L   1       9.239  -1.016   3.855  1.00  0.00    +0.4057 HD
ATOM     20 H17  DCM L   1       8.253  -1.125   5.180  1.00  0.00    +0.4057 HD
ENDBRANCH 1 13
TORSDOF 1
ENDMDL
