MODEL 1
REMARK VINA RESULT:    -5.285      0.000      0.000
REMARK INTER + INTRA:          -5.488
REMARK INTER:                  -5.593
REMARK INTRA:                   0.106
REMARK UNBOUND:                 0.106
ROOT
ATOM      1  C4  24D L   1       7.562   6.353  -2.991  1.00  0.00    +0.0325  A
ATOM      2  C5  24D L   1       7.632   7.743  -3.219  1.00  0.00    -0.0500  A
ATOM      3  C6  24D L   1       6.629   8.409  -3.929  1.00  0.00    -0.0428  A
ATOM      4  C7  24D L   1       5.538   7.699  -4.421  1.00  0.00    +0.0424  A
ATOM      5 CL8  24D L   1       4.309   8.521  -5.296  1.00  0.00    -0.0835 Cl
ATOM      6  C9  24D L   1       5.438   6.329  -4.206  1.00  0.00    -0.0246  A
ATOM      7 C10  24D L   1       6.441   5.661  -3.494  1.00  0.00    +0.0513  A
ATOM      8 CL11 24D L   1       6.241   3.958  -3.282  1.00  0.00    -0.0830 Cl
ATOM      9 H18  24D L   1       8.461   8.340  -2.837  1.00  0.00    +0.0623  H
ATOM     10 H19  24D L   1       6.700   9.484  -4.093  1.00  0.00    +0.0632  H
ATOM     11 H20  24D L   1       4.578   5.786  -4.591  1.00  0.00    +0.0647  H
ENDROOT
BRANCH 1 13
ATOM     12  C1  24D L   1       9.676   6.709  -1.635  1.00  0.00    -0.0030  C
ATOM     13  C2  24D L   1       8.676   5.703  -2.195  1.00  0.00    +0.1552  C
ATOM     14  N3  24D L   1       8.193   4.844  -1.082  1.00  0.00    -0.1890  N
ATOM     15 H12  24D L   1       9.225   7.389  -0.906  1.00  0.00    +0.0292  H
ATOM     16 H13  24D L   1      10.507   6.197  -1.139  1.00  0.00    +0.0292  H
ATOM     17 H14  24D L   1      10.098   7.324  -2.439  1.00  0.00    +0.0292  H
ATOM     18 H15  24D L   1       9.218   5.008  -2.846  1.00  0.00    +0.1051  H
ATOM     19 H16  24D L   1       7.462   4.194  -1.394  1.00  0.00    +0.4057 HD
ATOM     20 H17  24D L   1       8.951   4.298  -0.655  1.00  0.00    +0.4057 HD
ENDBRANCH 1 13
TORSDOF 1
ENDMDL
MODEL 2
REMARK VINA RESULT:    -5.276      1.664      2.283
REMARK INTER + INTRA:          -5.479
REMARK INTER:                  -5.568
REMARK INTRA:                   0.089
REMARK UNBOUND:                 0.106
ROOT
ATOM      1  C4  24D L   1       7.643   6.588  -3.138  1.00  0.00    +0.0325  A
ATOM      2  C5  24D L   1       6.463   5.846  -3.356  1.00  0.00    -0.0500  A
ATOM      3  C6  24D L   1       5.389   6.392  -4.065  1.00  0.00    -0.0428  A
ATOM      4  C7  24D L   1       5.476   7.685  -4.572  1.00  0.00    +0.0424  A
ATOM      5 CL8  24D L   1       4.154   8.353  -5.441  1.00  0.00    -0.0835 Cl
ATOM      6  C9  24D L   1       6.629   8.437  -4.379  1.00  0.00    -0.0246  A
ATOM      7 C10  24D L   1       7.706   7.892  -3.670  1.00  0.00    +0.0513  A
ATOM      8 CL11 24D L   1       9.095   8.900  -3.469  1.00  0.00    -0.0830 Cl
ATOM      9 H18  24D L   1       6.358   4.824  -2.990  1.00  0.00    +0.0623  H
ATOM     10 H19  24D L   1       4.487   5.802  -4.225  1.00  0.00    +0.0632  H
ATOM     11 H20  24D L   1       6.688   9.445  -4.784  1.00  0.00    +0.0647  H
ENDROOT
BRANCH 1 13
ATOM     12  C1  24D L   1       9.225   6.721  -1.159  1.00  0.00    -0.0030  C
ATOM     13  C2  24D L   1       8.772   5.923  -2.378  1.00  0.00    +0.1552  C
ATOM     14  N3  24D L   1       8.468   4.533  -1.948  1.00  0.00    -0.1890  N
ATOM     15 H12  24D L   1       8.443   6.807  -0.399  1.00  0.00    +0.0292  H
ATOM     16 H13  24D L   1      10.094   6.251  -0.687  1.00  0.00    +0.0292  H
ATOM     17 H14  24D L   1       9.515   7.738  -1.448  1.00  0.00    +0.0292  H
ATOM     18 H15  24D L   1       9.631   5.807  -3.049  1.00  0.00    +0.1051  H
ATOM     19 H16  24D L   1       8.089   3.971  -2.720  1.00  0.00    +0.4057 HD
ATOM     20 H17  24D L   1       9.293   4.052  -1.571  1.00  0.00    +0.4057 HD
ENDBRANCH 1 13
TORSDOF 1
ENDMDL
MODEL 3
REMARK VINA RESULT:    -5.265      2.830      4.288
REMARK INTER + INTRA:          -5.467
REMARK INTER:                  -5.320
REMARK INTRA:                  -0.147
REMARK UNBOUND:                 0.106
ROOT
ATOM      1  C4  24D L   1       6.459   7.863  -3.954  1.00  0.00    +0.0325  A
ATOM      2  C5  24D L   1       7.364   8.888  -3.609  1.00  0.00    -0.0500  A
ATOM      3  C6  24D L   1       8.439   8.642  -2.750  1.00  0.00    -0.0428  A
ATOM      4  C7  24D L   1       8.631   7.368  -2.225  1.00  0.00    +0.0424  A
ATOM      5 CL8  24D L   1       9.952   7.070  -1.168  1.00  0.00    -0.0835 Cl
ATOM      6  C9  24D L   1       7.759   6.336  -2.553  1.00  0.00    -0.0246  A
ATOM      7 C10  24D L   1       6.683   6.580  -3.413  1.00  0.00    +0.0513  A
ATOM      8 CL11 24D L   1       5.645   5.243  -3.759  1.00  0.00    -0.0830 Cl
ATOM      9 H18  24D L   1       7.260   9.897  -4.010  1.00  0.00    +0.0623  H
ATOM     10 H19  24D L   1       9.129   9.446  -2.496  1.00  0.00    +0.0632  H
ATOM     11 H20  24D L   1       7.922   5.342  -2.140  1.00  0.00    +0.0647  H
ENDROOT
BRANCH 1 13
ATOM     12  C1  24D L   1       4.189   8.960  -4.236  1.00  0.00    -0.0030  C
ATOM     13  C2  24D L   1       5.330   8.200  -4.906  1.00  0.00    +0.1552  C
ATOM     14  N3  24D L   1       5.766   8.960  -6.107  1.00  0.00    -0.1890  N
ATOM     15 H12  24D L   1       4.497   9.945  -3.872  1.00  0.00    +0.0292  H
ATOM     16 H13  24D L   1       3.359   9.111  -4.935  1.00  0.00    +0.0292  H
ATOM     17 H14  24D L   1       3.802   8.399  -3.378  1.00  0.00    +0.0292  H
ATOM     18 H15  24D L   1       4.924   7.269  -5.319  1.00  0.00    +0.1051  H
ATOM     19 H16  24D L   1       6.582   8.526  -6.555  1.00  0.00    +0.4057 HD
ATOM     20 H17  24D L   1       5.019   9.045  -6.806  1.00  0.00    +0.4057 HD
ENDBRANCH 1 13
TORSDOF 1
ENDMDL
MODEL 4
REMARK VINA RESULT:    -5.085      2.828      4.163
REMARK INTER + INTRA:          -5.277
REMARK INTER:                  -5.212
REMARK INTRA:                  -0.065
REMARK UNBOUND:                 0.106
ROOT
ATOM      1  C4  24D L   1       7.621   7.141  -2.684  1.00  0.00    +0.0325  A
ATOM      2  C5  24D L   1       8.034   8.381  -3.214  1.00  0.00    -0.0500  A
ATOM      3  C6  24D L   1       9.266   8.940  -2.863  1.00  0.00    -0.0428  A
ATOM      4  C7  24D L   1      10.108   8.270  -1.981  1.00  0.00    +0.0424  A
ATOM      5 CL8  24D L   1      11.620   8.961  -1.549  1.00  0.00    -0.0835 Cl
ATOM      6  C9  24D L   1       9.729   7.043  -1.448  1.00  0.00    -0.0246  A
ATOM      7 C10  24D L   1       8.497   6.480  -1.798  1.00  0.00    +0.0513  A
ATOM      8 CL11 24D L   1       8.104   4.959  -1.082  1.00  0.00    -0.0830 Cl
ATOM      9 H18  24D L   1       7.414   8.933  -3.921  1.00  0.00    +0.0623  H
ATOM     10 H19  24D L   1       9.570   9.898  -3.285  1.00  0.00    +0.0632  H
ATOM     11 H20  24D L   1      10.398   6.525  -0.762  1.00  0.00    +0.0647  H
ENDROOT
BRANCH 1 13
ATOM     12  C1  24D L   1       5.468   7.579  -3.955  1.00  0.00    -0.0030  C
ATOM     13  C2  24D L   1       6.281   6.589  -3.127  1.00  0.00    +0.1552  C
ATOM     14  N3  24D L   1       6.380   5.310  -3.879  1.00  0.00    -0.1890  N
ATOM     15 H12  24D L   1       5.951   7.827  -4.905  1.00  0.00    +0.0292  H
ATOM     16 H13  24D L   1       4.477   7.174  -4.184  1.00  0.00    +0.0292  H
ATOM     17 H14  24D L   1       5.325   8.517  -3.406  1.00  0.00    +0.0292  H
ATOM     18 H15  24D L   1       5.696   6.325  -2.238  1.00  0.00    +0.1051  H
ATOM     19 H16  24D L   1       6.979   4.630  -3.395  1.00  0.00    +0.4057 HD
ATOM     20 H17  24D L   1       5.462   4.878  -4.035  1.00  0.00    +0.4057 HD
ENDBRANCH 1 13
TORSDOF 1
ENDMDL
MODEL 5
REMARK VINA RESULT:    -4.783     13.309     14.977
REMARK INTER + INTRA:          -4.957
REMARK INTER:                  -4.799
REMARK INTRA:                  -0.158
REMARK UNBOUND:                 0.106
ROOT
ATOM      1  C4  24D L   1       8.878  -4.604   4.789  1.00  0.00    +0.0325  A
ATOM      2  C5  24D L   1       8.638  -5.519   3.742  1.00  0.00    -0.0500  A
ATOM      3  C6  24D L   1       8.171  -6.810   4.006  1.00  0.00    -0.0428  A
ATOM      4  C7  24D L   1       7.931  -7.208   5.317  1.00  0.00    +0.0424  A
ATOM      5 CL8  24D L   1       7.360  -8.796   5.637  1.00  0.00    -0.0835 Cl
ATOM      6  C9  24D L   1       8.152  -6.326   6.369  1.00  0.00    -0.0246  A
ATOM      7 C10  24D L   1       8.619  -5.032   6.107  1.00  0.00    +0.0513  A
ATOM      8 CL11 24D L   1       8.874  -4.006   7.473  1.00  0.00    -0.0830 Cl
ATOM      9 H18  24D L   1       8.797  -5.244   2.699  1.00  0.00    +0.0623  H
ATOM     10 H19  24D L   1       7.990  -7.502   3.184  1.00  0.00    +0.0632  H
ATOM     11 H20  24D L   1       7.956  -6.646   7.390  1.00  0.00    +0.0647  H
ENDROOT
BRANCH 1 13
ATOM     12  C1  24D L   1      10.879  -3.065   4.534  1.00  0.00    -0.0030  C
ATOM     13  C2  24D L   1       9.364  -3.216   4.425  1.00  0.00    +0.1552  C
ATOM     14  N3  24D L   1       8.939  -2.769   3.072  1.00  0.00    -0.1890  N
ATOM     15 H12  24D L   1      11.416  -3.702   3.824  1.00  0.00    +0.0292  H
ATOM     16 H13  24D L   1      11.181  -2.030   4.344  1.00  0.00    +0.0292  H
ATOM     17 H14  24D L   1      11.222  -3.332   5.539  1.00  0.00    +0.0292  H
ATOM     18 H15  24D L   1       8.899  -2.489   5.099  1.00  0.00    +0.1051  H
ATOM     19 H16  24D L   1       7.934  -2.917   2.922  1.00  0.00    +0.4057 HD
ATOM     20 H17  24D L   1       9.148  -1.777   2.907  1.00  0.00    +0.4057 HD
ENDBRANCH 1 13
TORSDOF 1
ENDMDL
MODEL 6
REMARK VINA RESULT:    -4.716      1.919      2.360
REMARK INTER + INTRA:          -4.886
REMARK INTER:                  -4.737
REMARK INTRA:                  -0.149
REMARK UNBOUND:                 0.106
ROOT
ATOM      1  C4  24D L   1       9.327   7.549  -2.313  1.00  0.00    +0.0325  A
ATOM      2  C5  24D L   1       8.915   8.810  -2.794  1.00  0.00    -0.0500  A
ATOM      3  C6  24D L   1       7.700   8.962  -3.468  1.00  0.00    -0.0428  A
ATOM      4  C7  24D L   1       6.874   7.860  -3.671  1.00  0.00    +0.0424  A
ATOM      5 CL8  24D L   1       5.384   8.052  -4.503  1.00  0.00    -0.0835 Cl
ATOM      6  C9  24D L   1       7.251   6.607  -3.203  1.00  0.00    -0.0246  A
ATOM      7 C10  24D L   1       8.467   6.452  -2.526  1.00  0.00    +0.0513  A
ATOM      8 CL11 24D L   1       8.859   4.858  -1.987  1.00  0.00    -0.0830 Cl
ATOM      9 H18  24D L   1       9.523   9.702  -2.642  1.00  0.00    +0.0623  H
ATOM     10 H19  24D L   1       7.398   9.945  -3.830  1.00  0.00    +0.0632  H
ATOM     11 H20  24D L   1       6.595   5.753  -3.363  1.00  0.00    +0.0647  H
ENDROOT
BRANCH 1 13
ATOM     12  C1  24D L   1      11.621   8.573  -1.959  1.00  0.00    -0.0030  C
ATOM     13  C2  24D L   1      10.646   7.465  -1.573  1.00  0.00    +0.1552  C
ATOM     14  N3  24D L   1      10.503   7.452  -0.094  1.00  0.00    -0.1890  N
ATOM     15 H12  24D L   1      11.255   9.568  -1.685  1.00  0.00    +0.0292  H
ATOM     16 H13  24D L   1      12.588   8.430  -1.467  1.00  0.00    +0.0292  H
ATOM     17 H14  24D L   1      11.796   8.576  -3.041  1.00  0.00    +0.0292  H
ATOM     18 H15  24D L   1      11.118   6.501  -1.799  1.00  0.00    +0.1051  H
ATOM     19 H16  24D L   1       9.801   6.768   0.214  1.00  0.00    +0.4057 HD
ATOM     20 H17  24D L   1      11.389   7.243   0.381  1.00  0.00    +0.4057 HD
ENDBRANCH 1 13
TORSDOF 1
ENDMDL
MODEL 7
REMARK VINA RESULT:    -4.705     12.789     14.465
REMARK INTER + INTRA:          -4.874
REMARK INTER:                  -4.765
REMARK INTRA:                  -0.109
REMARK UNBOUND:                 0.106
ROOT
ATOM      1  C4  24D L   1       9.204  -3.738   5.211  1.00  0.00    +0.0325  A
ATOM      2  C5  24D L   1       8.369  -4.185   6.256  1.00  0.00    -0.0500  A
ATOM      3  C6  24D L   1       7.961  -5.520   6.331  1.00  0.00    -0.0428  A
ATOM      4  C7  24D L   1       8.383  -6.431   5.369  1.00  0.00    +0.0424  A
ATOM      5 CL8  24D L   1       7.878  -8.070   5.464  1.00  0.00    -0.0835 Cl
ATOM      6  C9  24D L   1       9.212  -6.021   4.331  1.00  0.00    -0.0246  A
ATOM      7 C10  24D L   1       9.623  -4.685   4.254  1.00  0.00    +0.0513  A
ATOM      8 CL11 24D L   1      10.645  -4.261   2.927  1.00  0.00    -0.0830 Cl
ATOM      9 H18  24D L   1       8.027  -3.508   7.039  1.00  0.00    +0.0623  H
ATOM     10 H19  24D L   1       7.317  -5.847   7.148  1.00  0.00    +0.0632  H
ATOM     11 H20  24D L   1       9.541  -6.744   3.587  1.00  0.00    +0.0647  H
ENDROOT
BRANCH 1 13
ATOM     12  C1  24D L   1       8.804  -1.421   6.164  1.00  0.00    -0.0030  C
ATOM     13  C2  24D L   1       9.621  -2.281   5.206  1.00  0.00    +0.1552  C
ATOM     14  N3  24D L   1      11.065  -2.071   5.492  1.00  0.00    -0.1890  N
ATOM     15 H12  24D L   1       8.946  -1.707   7.211  1.00  0.00    +0.0292  H
ATOM     16 H13  24D L   1       9.078  -0.365   6.070  1.00  0.00    +0.0292  H
ATOM     17 H14  24D L   1       7.734  -1.506   5.944  1.00  0.00    +0.0292  H
ATOM     18 H15  24D L   1       9.494  -1.880   4.194  1.00  0.00    +0.1051  H
ATOM     19 H16  24D L   1      11.659  -2.683   4.920  1.00  0.00    +0.4057 HD
ATOM     20 H17  24D L   1      11.355  -1.099   5.336  1.00  0.00    +0.4057 HD
ENDBRANCH 1 13
TORSDOF 1
ENDMDL
MODEL 8
REMARK VINA RESULT:    -4.516      2.286      2.429
REMARK INTER + INTRA:          -4.674
REMARK INTER:                  -4.520
REMARK INTRA:                  -0.154
REMARK UNBOUND:                 0.106
ROOT
ATOM      1  C4  24D L   1       6.956   7.993  -3.000  1.00  0.00    +0.0325  A
ATOM      2  C5  24D L   1       7.637   8.203  -4.218  1.00  0.00    -0.0500  A
ATOM      3  C6  24D L   1       6.939   8.501  -5.391  1.00  0.00    -0.0428  A
ATOM      4  C7  24D L   1       5.551   8.598  -5.369  1.00  0.00    +0.0424  A
ATOM      5 CL8  24D L   1       4.697   8.961  -6.815  1.00  0.00    -0.0835 Cl
ATOM      6  C9  24D L   1       4.854   8.403  -4.182  1.00  0.00    -0.0246  A
ATOM      7 C10  24D L   1       5.551   8.105  -3.005  1.00  0.00    +0.0513  A
ATOM      8 CL11 24D L   1       4.604   7.869  -1.580  1.00  0.00    -0.0830 Cl
ATOM      9 H18  24D L   1       8.724   8.152  -4.276  1.00  0.00    +0.0623  H
ATOM     10 H19  24D L   1       7.483   8.662  -6.322  1.00  0.00    +0.0632  H
ATOM     11 H20  24D L   1       3.769   8.486  -4.176  1.00  0.00    +0.0647  H
ENDROOT
BRANCH 1 13
ATOM     12  C1  24D L   1       7.827   6.209  -1.420  1.00  0.00    -0.0030  C
ATOM     13  C2  24D L   1       7.781   7.694  -1.765  1.00  0.00    +0.1552  C
ATOM     14  N3  24D L   1       9.175   8.208  -1.837  1.00  0.00    -0.1890  N
ATOM     15 H12  24D L   1       8.327   5.614  -2.192  1.00  0.00    +0.0292  H
ATOM     16 H13  24D L   1       8.362   6.044  -0.479  1.00  0.00    +0.0292  H
ATOM     17 H14  24D L   1       6.815   5.807  -1.302  1.00  0.00    +0.0292  H
ATOM     18 H15  24D L   1       7.349   8.230  -0.912  1.00  0.00    +0.1051  H
ATOM     19 H16  24D L   1       9.202   9.190  -2.136  1.00  0.00    +0.4057 HD
ATOM     20 H17  24D L   1       9.665   8.130  -0.938  1.00  0.00    +0.4057 HD
ENDBRANCH 1 13
TORSDOF 1
ENDMDL
MODEL 9
REMARK VINA RESULT:    -4.465     16.485     17.497
REMARK INTER + INTRA:          -4.620
REMARK INTER:                  -4.461
REMARK INTRA:                  -0.159
REMARK UNBOUND:                 0.106
ROOT
ATOM      1  C4  24D L   1       6.471  -9.494  -9.180  1.00  0.00    +0.0325  A
ATOM      2  C5  24D L   1       5.841 -10.218  -8.147  1.00  0.00    -0.0500  A
ATOM      3  C6  24D L   1       6.411 -10.301  -6.873  1.00  0.00    -0.0428  A
ATOM      4  C7  24D L   1       7.617  -9.658  -6.608  1.00  0.00    +0.0424  A
ATOM      5 CL8  24D L   1       8.315  -9.763  -5.043  1.00  0.00    -0.0835 Cl
ATOM      6  C9  24D L   1       8.257  -8.931  -7.606  1.00  0.00    -0.0246  A
ATOM      7 C10  24D L   1       7.687  -8.846  -8.881  1.00  0.00    +0.0513  A
ATOM      8 CL11 24D L   1       8.555  -7.930 -10.061  1.00  0.00    -0.0830 Cl
ATOM      9 H18  24D L   1       4.888 -10.724  -8.306  1.00  0.00    +0.0623  H
ATOM     10 H19  24D L   1       5.909 -10.863  -6.087  1.00  0.00    +0.0632  H
ATOM     11 H20  24D L   1       9.197  -8.428  -7.386  1.00  0.00    +0.0647  H
ENDROOT
BRANCH 1 13
ATOM     12  C1  24D L   1       6.301 -10.477 -11.513  1.00  0.00    -0.0030  C
ATOM     13  C2  24D L   1       5.783  -9.433 -10.529  1.00  0.00    +0.1552  C
ATOM     14  N3  24D L   1       4.303  -9.546 -10.452  1.00  0.00    -0.1890  N
ATOM     15 H12  24D L   1       6.096 -11.501 -11.185  1.00  0.00    +0.0292  H
ATOM     16 H13  24D L   1       5.840 -10.346 -12.498  1.00  0.00    +0.0292  H
ATOM     17 H14  24D L   1       7.386 -10.385 -11.640  1.00  0.00    +0.0292  H
ATOM     18 H15  24D L   1       5.947  -8.441 -10.966  1.00  0.00    +0.1051  H
ATOM     19 H16  24D L   1       3.909  -8.911  -9.747  1.00  0.00    +0.4057 HD
ATOM     20 H17  24D L   1       3.850  -9.352 -11.352  1.00  0.00    +0.4057 HD
ENDBRANCH 1 13
TORSDOF 1
ENDMDL
MODEL 10
REMARK VINA RESULT:    -4.440     16.320     17.328
REMARK INTER + INTRA:          -4.594
REMARK INTER:                  -4.532
REMARK INTRA:                  -0.062
REMARK UNBOUND:                 0.106
ROOT
ATOM      1  C4  24D L   1       6.429  -9.373  -9.756  1.00  0.00    +0.0325  A
ATOM      2  C5  24D L   1       7.067  -9.012 -10.962  1.00  0.00    -0.0500  A
ATOM      3  C6  24D L   1       8.285  -8.326 -10.956  1.00  0.00    -0.0428  A
ATOM      4  C7  24D L   1       8.889  -7.993  -9.748  1.00  0.00    +0.0424  A
ATOM      5 CL8  24D L   1      10.385  -7.148  -9.745  1.00  0.00    -0.0835 Cl
ATOM      6  C9  24D L   1       8.287  -8.342  -8.544  1.00  0.00    -0.0246  A
ATOM      7 C10  24D L   1       7.068  -9.029  -8.547  1.00  0.00    +0.0513  A
ATOM      8 CL11 24D L   1       6.388  -9.413  -7.007  1.00  0.00    -0.0830 Cl
ATOM      9 H18  24D L   1       6.636  -9.267 -11.930  1.00  0.00    +0.0623  H
ATOM     10 H19  24D L   1       8.763  -8.058 -11.898  1.00  0.00    +0.0632  H
ATOM     11 H20  24D L   1       8.772  -8.080  -7.605  1.00  0.00    +0.0647  H
ENDROOT
BRANCH 1 13
ATOM     12  C1  24D L   1       4.577 -10.230 -11.263  1.00  0.00    -0.0030  C
ATOM     13  C2  24D L   1       5.121 -10.132  -9.841  1.00  0.00    +0.1552  C
ATOM     14  N3  24D L   1       5.184 -11.500  -9.262  1.00  0.00    -0.1890  N
ATOM     15 H12  24D L   1       5.232 -10.806 -11.924  1.00  0.00    +0.0292  H
ATOM     16 H13  24D L   1       3.593 -10.712 -11.271  1.00  0.00    +0.0292  H
ATOM     17 H14  24D L   1       4.461  -9.233 -11.703  1.00  0.00    +0.0292  H
ATOM     18 H15  24D L   1       4.373  -9.621  -9.224  1.00  0.00    +0.1051  H
ATOM     19 H16  24D L   1       5.612 -11.497  -8.328  1.00  0.00    +0.4057 HD
ATOM     20 H17  24D L   1       4.257 -11.936  -9.193  1.00  0.00    +0.4057 HD
ENDBRANCH 1 13
TORSDOF 1
ENDMDL
MODEL 11
REMARK VINA RESULT:    -4.301     12.836     14.520
REMARK INTER + INTRA:          -4.447
REMARK INTER:                  -4.291
REMARK INTRA:                  -0.156
REMARK UNBOUND:                 0.106
ROOT
ATOM      1  C4  24D L   1       9.945  -4.281   4.409  1.00  0.00    +0.0325  A
ATOM      2  C5  24D L   1       9.909  -5.687   4.513  1.00  0.00    -0.0500  A
ATOM      3  C6  24D L   1       9.221  -6.316   5.554  1.00  0.00    -0.0428  A
ATOM      4  C7  24D L   1       8.553  -5.552   6.507  1.00  0.00    +0.0424  A
ATOM      5 CL8  24D L   1       7.711  -6.329   7.787  1.00  0.00    -0.0835 Cl
ATOM      6  C9  24D L   1       8.566  -4.165   6.426  1.00  0.00    -0.0246  A
ATOM      7 C10  24D L   1       9.253  -3.533   5.384  1.00  0.00    +0.0513  A
ATOM      8 CL11 24D L   1       9.223  -1.806   5.366  1.00  0.00    -0.0830 Cl
ATOM      9 H18  24D L   1      10.405  -6.324   3.779  1.00  0.00    +0.0623  H
ATOM     10 H19  24D L   1       9.203  -7.404   5.616  1.00  0.00    +0.0632  H
ATOM     11 H20  24D L   1       8.036  -3.578   7.174  1.00  0.00    +0.0647  H
ENDROOT
BRANCH 1 13
ATOM     12  C1  24D L   1      12.097  -3.199   3.611  1.00  0.00    -0.0030  C
ATOM     13  C2  24D L   1      10.694  -3.672   3.241  1.00  0.00    +0.1552  C
ATOM     14  N3  24D L   1      10.791  -4.568   2.059  1.00  0.00    -0.1890  N
ATOM     15 H12  24D L   1      12.751  -4.023   3.912  1.00  0.00    +0.0292  H
ATOM     16 H13  24D L   1      12.572  -2.692   2.765  1.00  0.00    +0.0292  H
ATOM     17 H14  24D L   1      12.059  -2.489   4.445  1.00  0.00    +0.0292  H
ATOM     18 H15  24D L   1      10.129  -2.809   2.870  1.00  0.00    +0.1051  H
ATOM     19 H16  24D L   1       9.879  -4.971   1.812  1.00  0.00    +0.4057 HD
ATOM     20 H17  24D L   1      11.165  -4.084   1.234  1.00  0.00    +0.4057 HD
ENDBRANCH 1 13
TORSDOF 1
ENDMDL
MODEL 12
REMARK VINA RESULT:    -4.277     15.679     16.428
REMARK INTER + INTRA:          -4.421
REMARK INTER:                  -4.269
REMARK INTRA:                  -0.152
REMARK UNBOUND:                 0.106
ROOT
ATOM      1  C4  24D L   1       8.328  -8.485  -8.493  1.00  0.00    +0.0325  A
ATOM      2  C5  24D L   1       8.168  -8.252  -9.875  1.00  0.00    -0.0500  A
ATOM      3  C6  24D L   1       7.023  -8.684 -10.550  1.00  0.00    -0.0428  A
ATOM      4  C7  24D L   1       6.017  -9.350  -9.858  1.00  0.00    +0.0424  A
ATOM      5 CL8  24D L   1       4.612  -9.881 -10.692  1.00  0.00    -0.0835 Cl
ATOM      6  C9  24D L   1       6.144  -9.588  -8.494  1.00  0.00    -0.0246  A
ATOM      7 C10  24D L   1       7.289  -9.156  -7.815  1.00  0.00    +0.0513  A
ATOM      8 CL11 24D L   1       7.368  -9.501  -6.124  1.00  0.00    -0.0830 Cl
ATOM      9 H18  24D L   1       8.924  -7.720 -10.452  1.00  0.00    +0.0623  H
ATOM     10 H19  24D L   1       6.916  -8.493 -11.618  1.00  0.00    +0.0632  H
ATOM     11 H20  24D L   1       5.349 -10.106  -7.961  1.00  0.00    +0.0647  H
ENDROOT
BRANCH 1 13
ATOM     12  C1  24D L   1      10.778  -8.909  -7.988  1.00  0.00    -0.0030  C
ATOM     13  C2  24D L   1       9.587  -7.970  -7.825  1.00  0.00    +0.1552  C
ATOM     14  N3  24D L   1       9.989  -6.611  -8.272  1.00  0.00    -0.1890  N
ATOM     15 H12  24D L   1      11.088  -9.016  -9.033  1.00  0.00    +0.0292  H
ATOM     16 H13  24D L   1      11.642  -8.543  -7.424  1.00  0.00    +0.0292  H
ATOM     17 H14  24D L   1      10.537  -9.910  -7.614  1.00  0.00    +0.0292  H
ATOM     18 H15  24D L   1       9.394  -7.847  -6.753  1.00  0.00    +0.1051  H
ATOM     19 H16  24D L   1       9.199  -5.954  -8.248  1.00  0.00    +0.4057 HD
ATOM     20 H17  24D L   1      10.750  -6.222  -7.702  1.00  0.00    +0.4057 HD
ENDBRANCH 1 13
TORSDOF 1
ENDMDL
