MODEL 1
REMARK VINA RESULT:    -5.113      0.000      0.000
REMARK INTER + INTRA:          -5.533
REMARK INTER:                  -5.411
REMARK INTRA:                  -0.121
REMARK UNBOUND:                -0.121
ROOT
ATOM      1  C4  25D L   1       6.797   6.921  -3.300  1.00  0.00    +0.0338  A
ATOM      2  C5  25D L   1       7.871   7.587  -2.672  1.00  0.00    -0.0330  A
ATOM      3  C6  25D L   1       8.869   6.869  -2.006  1.00  0.00    +0.0415  A
ATOM      4 CL7  25D L   1      10.165   7.720  -1.262  1.00  0.00    -0.0835 Cl
ATOM      5  C8  25D L   1       8.819   5.482  -1.937  1.00  0.00    -0.0420  A
ATOM      6  C9  25D L   1       7.756   4.804  -2.534  1.00  0.00    -0.0415  A
ATOM      7 C10  25D L   1       6.754   5.515  -3.204  1.00  0.00    +0.0500  A
ATOM      8 CL11 25D L   1       5.460   4.598  -3.890  1.00  0.00    -0.0831 Cl
ATOM      9 H18  25D L   1       7.954   8.671  -2.681  1.00  0.00    +0.0637  H
ATOM     10 H19  25D L   1       9.594   4.924  -1.417  1.00  0.00    +0.0633  H
ATOM     11 H20  25D L   1       7.717   3.718  -2.469  1.00  0.00    +0.0633  H
ENDROOT
BRANCH 1 13
ATOM     12  C1  25D L   1       4.954   8.620  -3.058  1.00  0.00    -0.0030  C
ATOM     13  C2  25D L   1       5.702   7.692  -4.010  1.00  0.00    +0.1553  C
ATOM     14  N3  25D L   1       6.201   8.514  -5.152  1.00  0.00    -0.1890  N
ATOM     15 H12  25D L   1       4.151   9.153  -3.580  1.00  0.00    +0.0292  H
ATOM     16 H13  25D L   1       4.499   8.057  -2.235  1.00  0.00    +0.0292  H
ATOM     17 H14  25D L   1       5.622   9.368  -2.615  1.00  0.00    +0.0292  H
ATOM     18 H15  25D L   1       4.998   7.005  -4.488  1.00  0.00    +0.1051  H
ATOM     19 H16  25D L   1       6.659   9.378  -4.839  1.00  0.00    +0.4057 HD
ATOM     20 H17  25D L   1       5.431   8.781  -5.779  1.00  0.00    +0.4057 HD
ENDBRANCH 1 13
TORSDOF 1
ENDMDL
MODEL 2
REMARK VINA RESULT:    -4.861      2.395      3.346
REMARK INTER + INTRA:          -5.267
REMARK INTER:                  -5.372
REMARK INTRA:                   0.105
REMARK UNBOUND:                -0.121
ROOT
ATOM      1  C4  25D L   1       8.047   6.518  -2.409  1.00  0.00    +0.0338  A
ATOM      2  C5  25D L   1       9.310   6.706  -1.808  1.00  0.00    -0.0330  A
ATOM      3  C6  25D L   1      10.000   7.914  -1.951  1.00  0.00    +0.0415  A
ATOM      4 CL7  25D L   1      11.531   8.105  -1.194  1.00  0.00    -0.0835 Cl
ATOM      5  C8  25D L   1       9.461   8.953  -2.700  1.00  0.00    -0.0420  A
ATOM      6  C9  25D L   1       8.223   8.782  -3.320  1.00  0.00    -0.0415  A
ATOM      7 C10  25D L   1       7.526   7.577  -3.181  1.00  0.00    +0.0500  A
ATOM      8 CL11 25D L   1       6.014   7.440  -4.005  1.00  0.00    -0.0831 Cl
ATOM      9 H18  25D L   1       9.786   5.923  -1.223  1.00  0.00    +0.0637  H
ATOM     10 H19  25D L   1       9.999   9.892  -2.814  1.00  0.00    +0.0633  H
ATOM     11 H20  25D L   1       7.811   9.596  -3.914  1.00  0.00    +0.0633  H
ENDROOT
BRANCH 1 13
ATOM     12  C1  25D L   1       7.145   4.501  -3.618  1.00  0.00    -0.0030  C
ATOM     13  C2  25D L   1       7.301   5.206  -2.274  1.00  0.00    +0.1553  C
ATOM     14  N3  25D L   1       7.950   4.250  -1.329  1.00  0.00    -0.1890  N
ATOM     15 H12  25D L   1       6.583   3.566  -3.507  1.00  0.00    +0.0292  H
ATOM     16 H13  25D L   1       6.604   5.131  -4.333  1.00  0.00    +0.0292  H
ATOM     17 H14  25D L   1       8.117   4.259  -4.063  1.00  0.00    +0.0292  H
ATOM     18 H15  25D L   1       6.318   5.369  -1.824  1.00  0.00    +0.1051  H
ATOM     19 H16  25D L   1       8.767   3.786  -1.744  1.00  0.00    +0.4057 HD
ATOM     20 H17  25D L   1       7.293   3.516  -1.036  1.00  0.00    +0.4057 HD
ENDBRANCH 1 13
TORSDOF 1
ENDMDL
MODEL 3
REMARK VINA RESULT:    -4.736      2.272      4.456
REMARK INTER + INTRA:          -5.134
REMARK INTER:                  -5.357
REMARK INTRA:                   0.223
REMARK UNBOUND:                -0.121
ROOT
ATOM      1  C4  25D L   1       6.750   6.479  -3.211  1.00  0.00    +0.0338  A
ATOM      2  C5  25D L   1       5.637   6.615  -4.068  1.00  0.00    -0.0330  A
ATOM      3  C6  25D L   1       5.339   7.844  -4.667  1.00  0.00    +0.0415  A
ATOM      4 CL7  25D L   1       3.979   7.964  -5.712  1.00  0.00    -0.0835 Cl
ATOM      5  C8  25D L   1       6.126   8.962  -4.420  1.00  0.00    -0.0420  A
ATOM      6  C9  25D L   1       7.219   8.855  -3.560  1.00  0.00    -0.0415  A
ATOM      7 C10  25D L   1       7.525   7.630  -2.958  1.00  0.00    +0.0500  A
ATOM      8 CL11 25D L   1       8.879   7.594  -1.885  1.00  0.00    -0.0831 Cl
ATOM      9 H18  25D L   1       4.978   5.779  -4.286  1.00  0.00    +0.0637  H
ATOM     10 H19  25D L   1       5.892   9.918  -4.883  1.00  0.00    +0.0633  H
ATOM     11 H20  25D L   1       7.826   9.737  -3.363  1.00  0.00    +0.0633  H
ENDROOT
BRANCH 1 13
ATOM     12  C1  25D L   1       6.197   4.025  -3.080  1.00  0.00    -0.0030  C
ATOM     13  C2  25D L   1       7.071   5.156  -2.544  1.00  0.00    +0.1553  C
ATOM     14  N3  25D L   1       8.498   4.746  -2.700  1.00  0.00    -0.1890  N
ATOM     15 H12  25D L   1       6.425   3.081  -2.573  1.00  0.00    +0.0292  H
ATOM     16 H13  25D L   1       5.135   4.240  -2.922  1.00  0.00    +0.0292  H
ATOM     17 H14  25D L   1       6.346   3.875  -4.155  1.00  0.00    +0.0292  H
ATOM     18 H15  25D L   1       6.953   5.235  -1.460  1.00  0.00    +0.1051  H
ATOM     19 H16  25D L   1       8.694   4.366  -3.634  1.00  0.00    +0.4057 HD
ATOM     20 H17  25D L   1       8.751   4.024  -2.013  1.00  0.00    +0.4057 HD
ENDBRANCH 1 13
TORSDOF 1
ENDMDL
MODEL 4
REMARK VINA RESULT:    -4.354      2.650      3.337
REMARK INTER + INTRA:          -4.730
REMARK INTER:                  -4.672
REMARK INTRA:                  -0.058
REMARK UNBOUND:                -0.121
ROOT
ATOM      1  C4  25D L   1       7.314   6.661  -3.061  1.00  0.00    +0.0338  A
ATOM      2  C5  25D L   1       7.501   5.485  -2.304  1.00  0.00    -0.0330  A
ATOM      3  C6  25D L   1       6.697   4.360  -2.515  1.00  0.00    +0.0415  A
ATOM      4 CL7  25D L   1       6.965   2.945  -1.577  1.00  0.00    -0.0835 Cl
ATOM      5  C8  25D L   1       5.687   4.381  -3.468  1.00  0.00    -0.0420  A
ATOM      6  C9  25D L   1       5.471   5.539  -4.214  1.00  0.00    -0.0415  A
ATOM      7 C10  25D L   1       6.272   6.669  -4.010  1.00  0.00    +0.0500  A
ATOM      8 CL11 25D L   1       5.917   8.070  -4.957  1.00  0.00    -0.0831 Cl
ATOM      9 H18  25D L   1       8.267   5.416  -1.535  1.00  0.00    +0.0637  H
ATOM     10 H19  25D L   1       5.059   3.507  -3.631  1.00  0.00    +0.0633  H
ATOM     11 H20  25D L   1       4.671   5.553  -4.953  1.00  0.00    +0.0633  H
ENDROOT
BRANCH 1 13
ATOM     12  C1  25D L   1       7.419   8.962  -2.042  1.00  0.00    -0.0030  C
ATOM     13  C2  25D L   1       8.170   7.890  -2.827  1.00  0.00    +0.1553  C
ATOM     14  N3  25D L   1       9.441   7.597  -2.100  1.00  0.00    -0.1890  N
ATOM     15 H12  25D L   1       8.042   9.852  -1.901  1.00  0.00    +0.0292  H
ATOM     16 H13  25D L   1       6.511   9.272  -2.569  1.00  0.00    +0.0292  H
ATOM     17 H14  25D L   1       7.118   8.601  -1.052  1.00  0.00    +0.0292  H
ATOM     18 H15  25D L   1       8.518   8.302  -3.778  1.00  0.00    +0.1051  H
ATOM     19 H16  25D L   1       9.292   7.463  -1.093  1.00  0.00    +0.4057 HD
ATOM     20 H17  25D L   1      10.116   8.364  -2.213  1.00  0.00    +0.4057 HD
ENDBRANCH 1 13
TORSDOF 1
ENDMDL
MODEL 5
REMARK VINA RESULT:    -4.316     13.264     14.826
REMARK INTER + INTRA:          -4.690
REMARK INTER:                  -4.641
REMARK INTRA:                  -0.049
REMARK UNBOUND:                -0.121
ROOT
ATOM      1  C4  25D L   1       9.393  -4.775   4.713  1.00  0.00    +0.0338  A
ATOM      2  C5  25D L   1       8.992  -6.121   4.579  1.00  0.00    -0.0330  A
ATOM      3  C6  25D L   1       8.182  -6.729   5.544  1.00  0.00    +0.0415  A
ATOM      4 CL7  25D L   1       7.710  -8.368   5.337  1.00  0.00    -0.0835 Cl
ATOM      5  C8  25D L   1       7.764  -6.022   6.665  1.00  0.00    -0.0420  A
ATOM      6  C9  25D L   1       8.164  -4.696   6.828  1.00  0.00    -0.0415  A
ATOM      7 C10  25D L   1       8.973  -4.080   5.867  1.00  0.00    +0.0500  A
ATOM      8 CL11 25D L   1       9.446  -2.445   6.162  1.00  0.00    -0.0831 Cl
ATOM      9 H18  25D L   1       9.301  -6.727   3.731  1.00  0.00    +0.0637  H
ATOM     10 H19  25D L   1       7.136  -6.495   7.417  1.00  0.00    +0.0633  H
ATOM     11 H20  25D L   1       7.842  -4.150   7.713  1.00  0.00    +0.0633  H
ENDROOT
BRANCH 1 13
ATOM     12  C1  25D L   1      10.857  -5.127   2.695  1.00  0.00    -0.0030  C
ATOM     13  C2  25D L   1      10.284  -4.114   3.681  1.00  0.00    +0.1553  C
ATOM     14  N3  25D L   1       9.591  -3.051   2.893  1.00  0.00    -0.1890  N
ATOM     15 H12  25D L   1      11.517  -4.638   1.970  1.00  0.00    +0.0292  H
ATOM     16 H13  25D L   1      11.444  -5.893   3.214  1.00  0.00    +0.0292  H
ATOM     17 H14  25D L   1      10.066  -5.641   2.137  1.00  0.00    +0.0292  H
ATOM     18 H15  25D L   1      11.097  -3.570   4.169  1.00  0.00    +0.1051  H
ATOM     19 H16  25D L   1       8.977  -3.442   2.169  1.00  0.00    +0.4057 HD
ATOM     20 H17  25D L   1      10.269  -2.436   2.426  1.00  0.00    +0.4057 HD
ENDBRANCH 1 13
TORSDOF 1
ENDMDL
MODEL 6
REMARK VINA RESULT:    -4.261     16.441     17.325
REMARK INTER + INTRA:          -4.631
REMARK INTER:                  -4.492
REMARK INTRA:                  -0.139
REMARK UNBOUND:                -0.121
ROOT
ATOM      1  C4  25D L   1       6.870  -9.103  -9.806  1.00  0.00    +0.0338  A
ATOM      2  C5  25D L   1       6.670  -9.448  -8.452  1.00  0.00    -0.0330  A
ATOM      3  C6  25D L   1       7.622  -9.124  -7.480  1.00  0.00    +0.0415  A
ATOM      4 CL7  25D L   1       7.333  -9.554  -5.841  1.00  0.00    -0.0835 Cl
ATOM      5  C8  25D L   1       8.794  -8.465  -7.830  1.00  0.00    -0.0420  A
ATOM      6  C9  25D L   1       9.022  -8.132  -9.164  1.00  0.00    -0.0415  A
ATOM      7 C10  25D L   1       8.075  -8.451 -10.143  1.00  0.00    +0.0500  A
ATOM      8 CL11 25D L   1       8.451  -8.028 -11.775  1.00  0.00    -0.0831 Cl
ATOM      9 H18  25D L   1       5.778  -9.976  -8.124  1.00  0.00    +0.0637  H
ATOM     10 H19  25D L   1       9.536  -8.215  -7.074  1.00  0.00    +0.0633  H
ATOM     11 H20  25D L   1       9.947  -7.624  -9.433  1.00  0.00    +0.0633  H
ENDROOT
BRANCH 1 13
ATOM     12  C1  25D L   1       6.121 -10.843 -11.465  1.00  0.00    -0.0030  C
ATOM     13  C2  25D L   1       5.852  -9.465 -10.868  1.00  0.00    +0.1553  C
ATOM     14  N3  25D L   1       4.444  -9.450 -10.369  1.00  0.00    -0.1890  N
ATOM     15 H12  25D L   1       5.391 -11.081 -12.246  1.00  0.00    +0.0292  H
ATOM     16 H13  25D L   1       7.118 -10.889 -11.916  1.00  0.00    +0.0292  H
ATOM     17 H14  25D L   1       6.068 -11.631 -10.704  1.00  0.00    +0.0292  H
ATOM     18 H15  25D L   1       5.841  -8.713 -11.661  1.00  0.00    +0.1051  H
ATOM     19 H16  25D L   1       4.219 -10.284  -9.814  1.00  0.00    +0.4057 HD
ATOM     20 H17  25D L   1       3.776  -9.407 -11.149  1.00  0.00    +0.4057 HD
ENDBRANCH 1 13
TORSDOF 1
ENDMDL
MODEL 7
REMARK VINA RESULT:    -4.152     13.082     14.380
REMARK INTER + INTRA:          -4.516
REMARK INTER:                  -4.422
REMARK INTRA:                  -0.095
REMARK UNBOUND:                -0.121
ROOT
ATOM      1  C4  25D L   1       9.502  -3.790   5.291  1.00  0.00    +0.0338  A
ATOM      2  C5  25D L   1       8.803  -4.357   6.378  1.00  0.00    -0.0330  A
ATOM      3  C6  25D L   1       8.574  -5.736   6.443  1.00  0.00    +0.0415  A
ATOM      4 CL7  25D L   1       7.727  -6.387   7.789  1.00  0.00    -0.0835 Cl
ATOM      5  C8  25D L   1       9.019  -6.576   5.430  1.00  0.00    -0.0420  A
ATOM      6  C9  25D L   1       9.694  -6.034   4.336  1.00  0.00    -0.0415  A
ATOM      7 C10  25D L   1       9.929  -4.657   4.265  1.00  0.00    +0.0500  A
ATOM      8 CL11 25D L   1      10.747  -4.067   2.862  1.00  0.00    -0.0831 Cl
ATOM      9 H18  25D L   1       8.420  -3.747   7.192  1.00  0.00    +0.0637  H
ATOM     10 H19  25D L   1       8.838  -7.648   5.478  1.00  0.00    +0.0633  H
ATOM     11 H20  25D L   1      10.032  -6.696   3.541  1.00  0.00    +0.0633  H
ENDROOT
BRANCH 1 13
ATOM     12  C1  25D L   1       8.830  -1.521   6.154  1.00  0.00    -0.0030  C
ATOM     13  C2  25D L   1       9.740  -2.296   5.205  1.00  0.00    +0.1553  C
ATOM     14  N3  25D L   1      11.150  -1.902   5.501  1.00  0.00    -0.1890  N
ATOM     15 H12  25D L   1       8.998  -0.442   6.063  1.00  0.00    +0.0292  H
ATOM     16 H13  25D L   1       7.775  -1.713   5.932  1.00  0.00    +0.0292  H
ATOM     17 H14  25D L   1       9.002  -1.802   7.199  1.00  0.00    +0.0292  H
ATOM     18 H15  25D L   1       9.595  -1.943   4.181  1.00  0.00    +0.1051  H
ATOM     19 H16  25D L   1      11.355  -1.915   6.507  1.00  0.00    +0.4057 HD
ATOM     20 H17  25D L   1      11.349  -0.955   5.157  1.00  0.00    +0.4057 HD
ENDBRANCH 1 13
TORSDOF 1
ENDMDL
MODEL 8
REMARK VINA RESULT:    -4.136     16.805     17.768
REMARK INTER + INTRA:          -4.499
REMARK INTER:                  -4.437
REMARK INTRA:                  -0.062
REMARK UNBOUND:                -0.121
ROOT
ATOM      1  C4  25D L   1       6.456  -9.470  -9.861  1.00  0.00    +0.0338  A
ATOM      2  C5  25D L   1       7.093  -9.173 -11.084  1.00  0.00    -0.0330  A
ATOM      3  C6  25D L   1       8.333  -8.528 -11.109  1.00  0.00    +0.0415  A
ATOM      4 CL7  25D L   1       9.079  -8.194 -12.621  1.00  0.00    -0.0835 Cl
ATOM      5  C8  25D L   1       8.961  -8.154  -9.927  1.00  0.00    -0.0420  A
ATOM      6  C9  25D L   1       8.340  -8.420  -8.707  1.00  0.00    -0.0415  A
ATOM      7 C10  25D L   1       7.100  -9.066  -8.673  1.00  0.00    +0.0500  A
ATOM      8 CL11 25D L   1       6.389  -9.330  -7.120  1.00  0.00    -0.0831 Cl
ATOM      9 H18  25D L   1       6.642  -9.430 -12.040  1.00  0.00    +0.0637  H
ATOM     10 H19  25D L   1       9.925  -7.649  -9.946  1.00  0.00    +0.0633  H
ATOM     11 H20  25D L   1       8.832  -8.115  -7.785  1.00  0.00    +0.0633  H
ENDROOT
BRANCH 1 13
ATOM     12  C1  25D L   1       4.449 -10.188 -11.203  1.00  0.00    -0.0030  C
ATOM     13  C2  25D L   1       5.103 -10.154  -9.825  1.00  0.00    +0.1553  C
ATOM     14  N3  25D L   1       5.161 -11.555  -9.311  1.00  0.00    -0.1890  N
ATOM     15 H12  25D L   1       3.463 -10.664 -11.156  1.00  0.00    +0.0292  H
ATOM     16 H13  25D L   1       4.311  -9.176 -11.598  1.00  0.00    +0.0292  H
ATOM     17 H14  25D L   1       5.057 -10.743 -11.925  1.00  0.00    +0.0292  H
ATOM     18 H15  25D L   1       4.441  -9.656  -9.111  1.00  0.00    +0.1051  H
ATOM     19 H16  25D L   1       5.518 -12.213 -10.014  1.00  0.00    +0.4057 HD
ATOM     20 H17  25D L   1       4.230 -11.882  -9.025  1.00  0.00    +0.4057 HD
ENDBRANCH 1 13
TORSDOF 1
ENDMDL
MODEL 9
REMARK VINA RESULT:    -4.105     16.307     17.641
REMARK INTER + INTRA:          -4.466
REMARK INTER:                  -4.342
REMARK INTRA:                  -0.124
REMARK UNBOUND:                -0.121
ROOT
ATOM      1  C4  25D L   1       6.768  -9.682  -9.279  1.00  0.00    +0.0338  A
ATOM      2  C5  25D L   1       7.731  -8.966  -8.537  1.00  0.00    -0.0330  A
ATOM      3  C6  25D L   1       8.635  -8.109  -9.173  1.00  0.00    +0.0415  A
ATOM      4 CL7  25D L   1       9.786  -7.247  -8.229  1.00  0.00    -0.0835 Cl
ATOM      5  C8  25D L   1       8.613  -7.953 -10.553  1.00  0.00    -0.0420  A
ATOM      6  C9  25D L   1       7.682  -8.666 -11.309  1.00  0.00    -0.0415  A
ATOM      7 C10  25D L   1       6.774  -9.525 -10.681  1.00  0.00    +0.0500  A
ATOM      8 CL11 25D L   1       5.676 -10.392 -11.695  1.00  0.00    -0.0831 Cl
ATOM      9 H18  25D L   1       7.805  -9.059  -7.456  1.00  0.00    +0.0637  H
ATOM     10 H19  25D L   1       9.317  -7.288 -11.048  1.00  0.00    +0.0633  H
ATOM     11 H20  25D L   1       7.676  -8.548 -12.391  1.00  0.00    +0.0633  H
ENDROOT
BRANCH 1 13
ATOM     12  C1  25D L   1       6.303 -12.066  -8.610  1.00  0.00    -0.0030  C
ATOM     13  C2  25D L   1       5.796 -10.626  -8.600  1.00  0.00    +0.1553  C
ATOM     14  N3  25D L   1       5.501 -10.255  -7.184  1.00  0.00    -0.1890  N
ATOM     15 H12  25D L   1       5.580 -12.739  -8.137  1.00  0.00    +0.0292  H
ATOM     16 H13  25D L   1       6.466 -12.419  -9.634  1.00  0.00    +0.0292  H
ATOM     17 H14  25D L   1       7.255 -12.163  -8.074  1.00  0.00    +0.0292  H
ATOM     18 H15  25D L   1       4.815 -10.575  -9.079  1.00  0.00    +0.1051  H
ATOM     19 H16  25D L   1       6.261 -10.519  -6.546  1.00  0.00    +0.4057 HD
ATOM     20 H17  25D L   1       4.645 -10.717  -6.853  1.00  0.00    +0.4057 HD
ENDBRANCH 1 13
TORSDOF 1
ENDMDL
MODEL 10
REMARK VINA RESULT:    -4.040     16.198     16.842
REMARK INTER + INTRA:          -4.397
REMARK INTER:                  -4.283
REMARK INTRA:                  -0.114
REMARK UNBOUND:                -0.121
ROOT
ATOM      1  C4  25D L   1       8.823  -8.376  -8.999  1.00  0.00    +0.0338  A
ATOM      2  C5  25D L   1       7.689  -8.569  -9.815  1.00  0.00    -0.0330  A
ATOM      3  C6  25D L   1       6.496  -9.067  -9.280  1.00  0.00    +0.0415  A
ATOM      4 CL7  25D L   1       5.135  -9.278 -10.309  1.00  0.00    -0.0835 Cl
ATOM      5  C8  25D L   1       6.406  -9.394  -7.933  1.00  0.00    -0.0420  A
ATOM      6  C9  25D L   1       7.521  -9.230  -7.112  1.00  0.00    -0.0415  A
ATOM      7 C10  25D L   1       8.717  -8.731  -7.638  1.00  0.00    +0.0500  A
ATOM      8 CL11 25D L   1      10.057  -8.586  -6.557  1.00  0.00    -0.0831 Cl
ATOM      9 H18  25D L   1       7.705  -8.344 -10.879  1.00  0.00    +0.0637  H
ATOM     10 H19  25D L   1       5.479  -9.784  -7.517  1.00  0.00    +0.0633  H
ATOM     11 H20  25D L   1       7.448  -9.497  -6.059  1.00  0.00    +0.0633  H
ENDROOT
BRANCH 1 13
ATOM     12  C1  25D L   1      10.201  -8.060 -11.083  1.00  0.00    -0.0030  C
ATOM     13  C2  25D L   1      10.124  -7.853  -9.574  1.00  0.00    +0.1553  C
ATOM     14  N3  25D L   1      10.353  -6.403  -9.299  1.00  0.00    -0.1890  N
ATOM     15 H12  25D L   1      11.156  -7.698 -11.480  1.00  0.00    +0.0292  H
ATOM     16 H13  25D L   1      10.116  -9.122 -11.340  1.00  0.00    +0.0292  H
ATOM     17 H14  25D L   1       9.397  -7.530 -11.606  1.00  0.00    +0.0292  H
ATOM     18 H15  25D L   1      10.978  -8.334  -9.089  1.00  0.00    +0.1051  H
ATOM     19 H16  25D L   1       9.794  -5.798  -9.913  1.00  0.00    +0.4057 HD
ATOM     20 H17  25D L   1      11.341  -6.153  -9.433  1.00  0.00    +0.4057 HD
ENDBRANCH 1 13
TORSDOF 1
ENDMDL
MODEL 11
REMARK VINA RESULT:    -3.989     12.559     13.688
REMARK INTER + INTRA:          -4.344
REMARK INTER:                  -4.230
REMARK INTRA:                  -0.114
REMARK UNBOUND:                -0.121
ROOT
ATOM      1  C4  25D L   1      10.935  -3.541   4.671  1.00  0.00    +0.0338  A
ATOM      2  C5  25D L   1      11.831  -3.148   3.654  1.00  0.00    -0.0330  A
ATOM      3  C6  25D L   1      13.176  -3.531   3.695  1.00  0.00    +0.0415  A
ATOM      4 CL7  25D L   1      14.231  -3.038   2.431  1.00  0.00    -0.0835 Cl
ATOM      5  C8  25D L   1      13.662  -4.297   4.747  1.00  0.00    -0.0420  A
ATOM      6  C9  25D L   1      12.799  -4.681   5.772  1.00  0.00    -0.0415  A
ATOM      7 C10  25D L   1      11.452  -4.303   5.739  1.00  0.00    +0.0500  A
ATOM      8 CL11 25D L   1      10.460  -4.797   7.064  1.00  0.00    -0.0831 Cl
ATOM      9 H18  25D L   1      11.510  -2.536   2.815  1.00  0.00    +0.0637  H
ATOM     10 H19  25D L   1      14.709  -4.593   4.780  1.00  0.00    +0.0633  H
ATOM     11 H20  25D L   1      13.188  -5.273   6.599  1.00  0.00    +0.0633  H
ENDROOT
BRANCH 1 13
ATOM     12  C1  25D L   1       9.234  -1.881   5.504  1.00  0.00    -0.0030  C
ATOM     13  C2  25D L   1       9.481  -3.117   4.643  1.00  0.00    +0.1553  C
ATOM     14  N3  25D L   1       8.975  -2.825   3.269  1.00  0.00    -0.1890  N
ATOM     15 H12  25D L   1       8.175  -1.600   5.492  1.00  0.00    +0.0292  H
ATOM     16 H13  25D L   1       9.518  -2.064   6.546  1.00  0.00    +0.0292  H
ATOM     17 H14  25D L   1       9.815  -1.021   5.151  1.00  0.00    +0.0292  H
ATOM     18 H15  25D L   1       8.836  -3.935   4.975  1.00  0.00    +0.1051  H
ATOM     19 H16  25D L   1       9.288  -1.909   2.925  1.00  0.00    +0.4057 HD
ATOM     20 H17  25D L   1       7.947  -2.830   3.245  1.00  0.00    +0.4057 HD
ENDBRANCH 1 13
TORSDOF 1
ENDMDL
