MODEL 1
REMARK VINA RESULT:    -5.107      0.000      0.000
REMARK INTER + INTRA:          -5.336
REMARK INTER:                  -5.406
REMARK INTRA:                   0.070
REMARK UNBOUND:                 0.070
ROOT
ATOM      1  C4  26D L   1       6.600   6.679  -3.065  1.00  0.00    +0.0507  A
ATOM      2  C5  26D L   1       7.669   7.250  -2.341  1.00  0.00    +0.0513  A
ATOM      3 CL6  26D L   1       7.907   8.962  -2.253  1.00  0.00    -0.0830 Cl
ATOM      4  C7  26D L   1       8.592   6.457  -1.651  1.00  0.00    -0.0428  A
ATOM      5  C8  26D L   1       8.483   5.071  -1.674  1.00  0.00    -0.0590  A
ATOM      6  C9  26D L   1       7.453   4.478  -2.394  1.00  0.00    -0.0428  A
ATOM      7 C10  26D L   1       6.528   5.267  -3.086  1.00  0.00    +0.0513  A
ATOM      8 CL11 26D L   1       5.305   4.425  -3.972  1.00  0.00    -0.0830 Cl
ATOM      9 H18  26D L   1       9.413   6.911  -1.094  1.00  0.00    +0.0632  H
ATOM     10 H19  26D L   1       9.204   4.455  -1.141  1.00  0.00    +0.0618  H
ATOM     11 H20  26D L   1       7.383   3.390  -2.419  1.00  0.00    +0.0632  H
ENDROOT
BRANCH 1 13
ATOM     12  C1  26D L   1       6.259   8.358  -4.927  1.00  0.00    -0.0030  C
ATOM     13  C2  26D L   1       5.597   7.506  -3.848  1.00  0.00    +0.1566  C
ATOM     14  N3  26D L   1       4.741   8.399  -3.013  1.00  0.00    -0.1889  N
ATOM     15 H12  26D L   1       5.508   8.904  -5.508  1.00  0.00    +0.0292  H
ATOM     16 H13  26D L   1       6.827   7.731  -5.623  1.00  0.00    +0.0292  H
ATOM     17 H14  26D L   1       6.953   9.093  -4.507  1.00  0.00    +0.0292  H
ATOM     18 H15  26D L   1       4.854   6.864  -4.328  1.00  0.00    +0.1052  H
ATOM     19 H16  26D L   1       4.223   7.860  -2.308  1.00  0.00    +0.4057 HD
ATOM     20 H17  26D L   1       5.315   9.089  -2.507  1.00  0.00    +0.4057 HD
ENDBRANCH 1 13
TORSDOF 1
ENDMDL
MODEL 2
REMARK VINA RESULT:    -5.018      2.132      3.009
REMARK INTER + INTRA:          -5.242
REMARK INTER:                  -5.326
REMARK INTRA:                   0.084
REMARK UNBOUND:                 0.070
ROOT
ATOM      1  C4  26D L   1       6.964   6.635  -2.928  1.00  0.00    +0.0507  A
ATOM      2  C5  26D L   1       5.892   6.403  -3.817  1.00  0.00    +0.0513  A
ATOM      3 CL6  26D L   1       5.114   7.691  -4.673  1.00  0.00    -0.0830 Cl
ATOM      4  C7  26D L   1       5.404   5.114  -4.055  1.00  0.00    -0.0428  A
ATOM      5  C8  26D L   1       5.963   4.020  -3.404  1.00  0.00    -0.0590  A
ATOM      6  C9  26D L   1       7.007   4.217  -2.507  1.00  0.00    -0.0428  A
ATOM      7 C10  26D L   1       7.498   5.505  -2.267  1.00  0.00    +0.0513  A
ATOM      8 CL11 26D L   1       8.779   5.639  -1.113  1.00  0.00    -0.0830 Cl
ATOM      9 H18  26D L   1       4.576   4.948  -4.745  1.00  0.00    +0.0632  H
ATOM     10 H19  26D L   1       5.580   3.018  -3.585  1.00  0.00    +0.0618  H
ATOM     11 H20  26D L   1       7.431   3.356  -1.990  1.00  0.00    +0.0632  H
ENDROOT
BRANCH 1 13
ATOM     12  C1  26D L   1       6.424   8.959  -2.088  1.00  0.00    -0.0030  C
ATOM     13  C2  26D L   1       7.501   8.021  -2.625  1.00  0.00    +0.1566  C
ATOM     14  N3  26D L   1       8.170   8.695  -3.776  1.00  0.00    -0.1889  N
ATOM     15 H12  26D L   1       6.850   9.935  -1.830  1.00  0.00    +0.0292  H
ATOM     16 H13  26D L   1       5.965   8.546  -1.182  1.00  0.00    +0.0292  H
ATOM     17 H14  26D L   1       5.622   9.128  -2.814  1.00  0.00    +0.0292  H
ATOM     18 H15  26D L   1       8.309   7.973  -1.890  1.00  0.00    +0.1052  H
ATOM     19 H16  26D L   1       8.948   8.128  -4.135  1.00  0.00    +0.4057 HD
ATOM     20 H17  26D L   1       7.509   8.833  -4.555  1.00  0.00    +0.4057 HD
ENDBRANCH 1 13
TORSDOF 1
ENDMDL
MODEL 3
REMARK VINA RESULT:    -5.008      0.091      2.760
REMARK INTER + INTRA:          -5.231
REMARK INTER:                  -5.442
REMARK INTRA:                   0.211
REMARK UNBOUND:                 0.070
ROOT
ATOM      1  C4  26D L   1       6.628   6.639  -3.118  1.00  0.00    +0.0507  A
ATOM      2  C5  26D L   1       6.543   5.231  -3.070  1.00  0.00    +0.0513  A
ATOM      3 CL6  26D L   1       5.341   4.353  -3.954  1.00  0.00    -0.0830 Cl
ATOM      4  C7  26D L   1       7.433   4.468  -2.306  1.00  0.00    -0.0428  A
ATOM      5  C8  26D L   1       8.426   5.090  -1.558  1.00  0.00    -0.0590  A
ATOM      6  C9  26D L   1       8.523   6.477  -1.567  1.00  0.00    -0.0428  A
ATOM      7 C10  26D L   1       7.635   7.242  -2.330  1.00  0.00    +0.0513  A
ATOM      8 CL11 26D L   1       7.829   8.959  -2.247  1.00  0.00    -0.0830 Cl
ATOM      9 H18  26D L   1       7.357   3.381  -2.279  1.00  0.00    +0.0632  H
ATOM     10 H19  26D L   1       9.115   4.497  -0.959  1.00  0.00    +0.0618  H
ATOM     11 H20  26D L   1       9.296   6.958  -0.967  1.00  0.00    +0.0632  H
ENDROOT
BRANCH 1 13
ATOM     12  C1  26D L   1       6.370   8.347  -4.966  1.00  0.00    -0.0030  C
ATOM     13  C2  26D L   1       5.663   7.499  -3.913  1.00  0.00    +0.1566  C
ATOM     14  N3  26D L   1       4.811   8.402  -3.087  1.00  0.00    -0.1889  N
ATOM     15 H12  26D L   1       5.646   8.918  -5.557  1.00  0.00    +0.0292  H
ATOM     16 H13  26D L   1       6.940   7.715  -5.657  1.00  0.00    +0.0292  H
ATOM     17 H14  26D L   1       7.072   9.061  -4.522  1.00  0.00    +0.0292  H
ATOM     18 H15  26D L   1       4.916   6.881  -4.418  1.00  0.00    +0.1052  H
ATOM     19 H16  26D L   1       4.263   7.868  -2.401  1.00  0.00    +0.4057 HD
ATOM     20 H17  26D L   1       5.389   9.073  -2.560  1.00  0.00    +0.4057 HD
ENDBRANCH 1 13
TORSDOF 1
ENDMDL
MODEL 4
REMARK VINA RESULT:    -4.834      1.843      2.364
REMARK INTER + INTRA:          -5.047
REMARK INTER:                  -5.179
REMARK INTRA:                   0.132
REMARK UNBOUND:                 0.070
ROOT
ATOM      1  C4  26D L   1       6.824   6.765  -3.086  1.00  0.00    +0.0507  A
ATOM      2  C5  26D L   1       7.571   5.818  -2.352  1.00  0.00    +0.0513  A
ATOM      3 CL6  26D L   1       8.918   6.275  -1.367  1.00  0.00    -0.0830 Cl
ATOM      4  C7  26D L   1       7.255   4.455  -2.382  1.00  0.00    -0.0428  A
ATOM      5  C8  26D L   1       6.193   3.997  -3.154  1.00  0.00    -0.0590  A
ATOM      6  C9  26D L   1       5.452   4.902  -3.904  1.00  0.00    -0.0428  A
ATOM      7 C10  26D L   1       5.764   6.266  -3.877  1.00  0.00    +0.0513  A
ATOM      8 CL11 26D L   1       4.795   7.298  -4.869  1.00  0.00    -0.0830 Cl
ATOM      9 H18  26D L   1       7.839   3.734  -1.809  1.00  0.00    +0.0632  H
ATOM     10 H19  26D L   1       5.951   2.937  -3.180  1.00  0.00    +0.0618  H
ATOM     11 H20  26D L   1       4.629   4.533  -4.517  1.00  0.00    +0.0632  H
ENDROOT
BRANCH 1 13
ATOM     12  C1  26D L   1       8.612   8.515  -3.466  1.00  0.00    -0.0030  C
ATOM     13  C2  26D L   1       7.155   8.246  -3.100  1.00  0.00    +0.1566  C
ATOM     14  N3  26D L   1       6.857   8.961  -1.825  1.00  0.00    -0.1889  N
ATOM     15 H12  26D L   1       8.808   9.591  -3.518  1.00  0.00    +0.0292  H
ATOM     16 H13  26D L   1       8.853   8.085  -4.445  1.00  0.00    +0.0292  H
ATOM     17 H14  26D L   1       9.308   8.085  -2.738  1.00  0.00    +0.0292  H
ATOM     18 H15  26D L   1       6.520   8.780  -3.813  1.00  0.00    +0.1052  H
ATOM     19 H16  26D L   1       5.868   8.863  -1.568  1.00  0.00    +0.4057 HD
ATOM     20 H17  26D L   1       7.414   8.574  -1.049  1.00  0.00    +0.4057 HD
ENDBRANCH 1 13
TORSDOF 1
ENDMDL
MODEL 5
REMARK VINA RESULT:    -4.635      1.655      4.295
REMARK INTER + INTRA:          -4.836
REMARK INTER:                  -4.928
REMARK INTRA:                   0.092
REMARK UNBOUND:                 0.070
ROOT
ATOM      1  C4  26D L   1       7.303   6.951  -3.135  1.00  0.00    +0.0507  A
ATOM      2  C5  26D L   1       6.085   6.439  -3.632  1.00  0.00    +0.0513  A
ATOM      3 CL6  26D L   1       5.493   4.877  -3.181  1.00  0.00    -0.0830 Cl
ATOM      4  C7  26D L   1       5.288   7.174  -4.516  1.00  0.00    -0.0428  A
ATOM      5  C8  26D L   1       5.690   8.436  -4.939  1.00  0.00    -0.0590  A
ATOM      6  C9  26D L   1       6.894   8.960  -4.484  1.00  0.00    -0.0428  A
ATOM      7 C10  26D L   1       7.694   8.228  -3.599  1.00  0.00    +0.0513  A
ATOM      8 CL11 26D L   1       9.184   8.962  -3.119  1.00  0.00    -0.0830 Cl
ATOM      9 H18  26D L   1       4.349   6.768  -4.892  1.00  0.00    +0.0632  H
ATOM     10 H19  26D L   1       5.072   9.006  -5.631  1.00  0.00    +0.0618  H
ATOM     11 H20  26D L   1       7.209   9.945  -4.831  1.00  0.00    +0.0632  H
ENDROOT
BRANCH 1 13
ATOM     12  C1  26D L   1       8.617   4.819  -2.774  1.00  0.00    -0.0030  C
ATOM     13  C2  26D L   1       8.206   6.171  -2.197  1.00  0.00    +0.1566  C
ATOM     14  N3  26D L   1       7.639   5.941  -0.837  1.00  0.00    -0.1889  N
ATOM     15 H12  26D L   1       9.307   4.301  -2.099  1.00  0.00    +0.0292  H
ATOM     16 H13  26D L   1       9.124   4.945  -3.738  1.00  0.00    +0.0292  H
ATOM     17 H14  26D L   1       7.758   4.161  -2.939  1.00  0.00    +0.0292  H
ATOM     18 H15  26D L   1       9.114   6.736  -1.972  1.00  0.00    +0.1052  H
ATOM     19 H16  26D L   1       7.405   6.831  -0.379  1.00  0.00    +0.4057 HD
ATOM     20 H17  26D L   1       6.771   5.387  -0.889  1.00  0.00    +0.4057 HD
ENDBRANCH 1 13
TORSDOF 1
ENDMDL
MODEL 6
REMARK VINA RESULT:    -4.569      2.440      3.403
REMARK INTER + INTRA:          -4.767
REMARK INTER:                  -4.859
REMARK INTRA:                   0.092
REMARK UNBOUND:                 0.070
ROOT
ATOM      1  C4  26D L   1       7.732   6.769  -3.207  1.00  0.00    +0.0507  A
ATOM      2  C5  26D L   1       8.487   6.397  -2.074  1.00  0.00    +0.0513  A
ATOM      3 CL6  26D L   1       8.297   4.856  -1.310  1.00  0.00    -0.0830 Cl
ATOM      4  C7  26D L   1       9.435   7.258  -1.510  1.00  0.00    -0.0428  A
ATOM      5  C8  26D L   1       9.647   8.520  -2.054  1.00  0.00    -0.0590  A
ATOM      6  C9  26D L   1       8.905   8.924  -3.158  1.00  0.00    -0.0428  A
ATOM      7 C10  26D L   1       7.957   8.066  -3.724  1.00  0.00    +0.0513  A
ATOM      8 CL11 26D L   1       7.071   8.680  -5.076  1.00  0.00    -0.0830 Cl
ATOM      9 H18  26D L   1      10.012   6.958  -0.636  1.00  0.00    +0.0632  H
ATOM     10 H19  26D L   1      10.381   9.191  -1.612  1.00  0.00    +0.0618  H
ATOM     11 H20  26D L   1       9.068   9.920  -3.570  1.00  0.00    +0.0632  H
ENDROOT
BRANCH 1 13
ATOM     12  C1  26D L   1       5.384   5.846  -3.017  1.00  0.00    -0.0030  C
ATOM     13  C2  26D L   1       6.676   5.872  -3.828  1.00  0.00    +0.1566  C
ATOM     14  N3  26D L   1       7.112   4.463  -4.051  1.00  0.00    -0.1889  N
ATOM     15 H12  26D L   1       4.625   5.232  -3.513  1.00  0.00    +0.0292  H
ATOM     16 H13  26D L   1       4.974   6.856  -2.904  1.00  0.00    +0.0292  H
ATOM     17 H14  26D L   1       5.534   5.439  -2.011  1.00  0.00    +0.0292  H
ATOM     18 H15  26D L   1       6.436   6.199  -4.843  1.00  0.00    +0.1052  H
ATOM     19 H16  26D L   1       7.947   4.425  -4.649  1.00  0.00    +0.4057 HD
ATOM     20 H17  26D L   1       7.354   4.007  -3.159  1.00  0.00    +0.4057 HD
ENDBRANCH 1 13
TORSDOF 1
ENDMDL
MODEL 7
REMARK VINA RESULT:    -4.532      2.072      2.954
REMARK INTER + INTRA:          -4.727
REMARK INTER:                  -4.941
REMARK INTRA:                   0.213
REMARK UNBOUND:                 0.070
ROOT
ATOM      1  C4  26D L   1       7.559   6.875  -2.828  1.00  0.00    +0.0507  A
ATOM      2  C5  26D L   1       7.804   8.030  -3.602  1.00  0.00    +0.0513  A
ATOM      3 CL6  26D L   1       6.769   8.496  -4.909  1.00  0.00    -0.0830 Cl
ATOM      4  C7  26D L   1       8.898   8.864  -3.347  1.00  0.00    -0.0428  A
ATOM      5  C8  26D L   1       9.786   8.562  -2.321  1.00  0.00    -0.0590  A
ATOM      6  C9  26D L   1       9.584   7.421  -1.554  1.00  0.00    -0.0428  A
ATOM      7 C10  26D L   1       8.491   6.585  -1.806  1.00  0.00    +0.0513  A
ATOM      8 CL11 26D L   1       8.351   5.178  -0.810  1.00  0.00    -0.0830 Cl
ATOM      9 H18  26D L   1       9.075   9.754  -3.951  1.00  0.00    +0.0632  H
ATOM     10 H19  26D L   1      10.640   9.208  -2.127  1.00  0.00    +0.0618  H
ATOM     11 H20  26D L   1      10.293   7.184  -0.761  1.00  0.00    +0.0632  H
ENDROOT
BRANCH 1 13
ATOM     12  C1  26D L   1       6.729   4.885  -4.152  1.00  0.00    -0.0030  C
ATOM     13  C2  26D L   1       6.399   5.933  -3.093  1.00  0.00    +0.1566  C
ATOM     14  N3  26D L   1       5.129   6.609  -3.490  1.00  0.00    -0.1889  N
ATOM     15 H12  26D L   1       5.893   4.190  -4.286  1.00  0.00    +0.0292  H
ATOM     16 H13  26D L   1       7.607   4.298  -3.858  1.00  0.00    +0.0292  H
ATOM     17 H14  26D L   1       6.947   5.334  -5.126  1.00  0.00    +0.0292  H
ATOM     18 H15  26D L   1       6.103   5.414  -2.178  1.00  0.00    +0.1052  H
ATOM     19 H16  26D L   1       4.829   7.282  -2.774  1.00  0.00    +0.4057 HD
ATOM     20 H17  26D L   1       5.250   7.132  -4.370  1.00  0.00    +0.4057 HD
ENDBRANCH 1 13
TORSDOF 1
ENDMDL
MODEL 8
REMARK VINA RESULT:    -4.198     13.654     13.903
REMARK INTER + INTRA:          -4.374
REMARK INTER:                  -4.432
REMARK INTRA:                   0.058
REMARK UNBOUND:                 0.070
ROOT
ATOM      1  C4  26D L   1      11.966  -5.356   1.002  1.00  0.00    +0.0507  A
ATOM      2  C5  26D L   1      13.173  -4.893   0.435  1.00  0.00    +0.0513  A
ATOM      3 CL6  26D L   1      13.603  -5.228  -1.208  1.00  0.00    -0.0830 Cl
ATOM      4  C7  26D L   1      14.085  -4.133   1.174  1.00  0.00    -0.0428  A
ATOM      5  C8  26D L   1      13.825  -3.824   2.505  1.00  0.00    -0.0590  A
ATOM      6  C9  26D L   1      12.655  -4.282   3.098  1.00  0.00    -0.0428  A
ATOM      7 C10  26D L   1      11.740  -5.042   2.362  1.00  0.00    +0.0513  A
ATOM      8 CL11 26D L   1      10.332  -5.584   3.206  1.00  0.00    -0.0830 Cl
ATOM      9 H18  26D L   1      15.013  -3.781   0.724  1.00  0.00    +0.0632  H
ATOM     10 H19  26D L   1      14.538  -3.237   3.081  1.00  0.00    +0.0618  H
ATOM     11 H20  26D L   1      12.466  -4.047   4.146  1.00  0.00    +0.0632  H
ENDROOT
BRANCH 1 13
ATOM     12  C1  26D L   1      11.560  -7.535  -0.218  1.00  0.00    -0.0030  C
ATOM     13  C2  26D L   1      10.966  -6.205   0.239  1.00  0.00    +0.1566  C
ATOM     14  N3  26D L   1      10.360  -5.536  -0.949  1.00  0.00    -0.1889  N
ATOM     15 H12  26D L   1      10.803  -8.147  -0.721  1.00  0.00    +0.0292  H
ATOM     16 H13  26D L   1      11.937  -8.107   0.637  1.00  0.00    +0.0292  H
ATOM     17 H14  26D L   1      12.393  -7.399  -0.915  1.00  0.00    +0.0292  H
ATOM     18 H15  26D L   1      10.087  -6.417   0.853  1.00  0.00    +0.1052  H
ATOM     19 H16  26D L   1       9.890  -4.663  -0.681  1.00  0.00    +0.4057 HD
ATOM     20 H17  26D L   1      11.083  -5.293  -1.642  1.00  0.00    +0.4057 HD
ENDBRANCH 1 13
TORSDOF 1
ENDMDL
MODEL 9
REMARK VINA RESULT:    -4.161     12.641     14.144
REMARK INTER + INTRA:          -4.335
REMARK INTER:                  -4.381
REMARK INTRA:                   0.046
REMARK UNBOUND:                 0.070
ROOT
ATOM      1  C4  26D L   1       9.914  -4.229   5.041  1.00  0.00    +0.0507  A
ATOM      2  C5  26D L   1       9.195  -3.772   6.167  1.00  0.00    +0.0513  A
ATOM      3 CL6  26D L   1       8.674  -2.129   6.319  1.00  0.00    -0.0830 Cl
ATOM      4  C7  26D L   1       8.861  -4.630   7.220  1.00  0.00    -0.0428  A
ATOM      5  C8  26D L   1       9.245  -5.966   7.186  1.00  0.00    -0.0590  A
ATOM      6  C9  26D L   1       9.972  -6.442   6.101  1.00  0.00    -0.0428  A
ATOM      7 C10  26D L   1      10.308  -5.587   5.046  1.00  0.00    +0.0513  A
ATOM      8 CL11 26D L   1      11.238  -6.276   3.761  1.00  0.00    -0.0830 Cl
ATOM      9 H18  26D L   1       8.303  -4.265   8.083  1.00  0.00    +0.0632  H
ATOM     10 H19  26D L   1       8.990  -6.632   8.008  1.00  0.00    +0.0618  H
ATOM     11 H20  26D L   1      10.282  -7.487   6.089  1.00  0.00    +0.0632  H
ENDROOT
BRANCH 1 13
ATOM     12  C1  26D L   1      11.338  -2.268   4.315  1.00  0.00    -0.0030  C
ATOM     13  C2  26D L   1      10.318  -3.321   3.894  1.00  0.00    +0.1566  C
ATOM     14  N3  26D L   1       9.181  -2.623   3.225  1.00  0.00    -0.1889  N
ATOM     15 H12  26D L   1      11.649  -1.661   3.458  1.00  0.00    +0.0292  H
ATOM     16 H13  26D L   1      12.236  -2.741   4.731  1.00  0.00    +0.0292  H
ATOM     17 H14  26D L   1      10.943  -1.589   5.078  1.00  0.00    +0.0292  H
ATOM     18 H15  26D L   1      10.744  -3.900   3.071  1.00  0.00    +0.1052  H
ATOM     19 H16  26D L   1       8.494  -3.297   2.865  1.00  0.00    +0.4057 HD
ATOM     20 H17  26D L   1       8.687  -2.007   3.887  1.00  0.00    +0.4057 HD
ENDBRANCH 1 13
TORSDOF 1
ENDMDL
MODEL 10
REMARK VINA RESULT:    -4.123     12.659     13.633
REMARK INTER + INTRA:          -4.295
REMARK INTER:                  -4.355
REMARK INTRA:                   0.061
REMARK UNBOUND:                 0.070
ROOT
ATOM      1  C4  26D L   1      10.152  -3.871   4.336  1.00  0.00    +0.0507  A
ATOM      2  C5  26D L   1      11.214  -4.391   3.564  1.00  0.00    +0.0513  A
ATOM      3 CL6  26D L   1      11.123  -5.942   2.802  1.00  0.00    -0.0830 Cl
ATOM      4  C7  26D L   1      12.399  -3.672   3.372  1.00  0.00    -0.0428  A
ATOM      5  C8  26D L   1      12.563  -2.420   3.954  1.00  0.00    -0.0590  A
ATOM      6  C9  26D L   1      11.544  -1.890   4.736  1.00  0.00    -0.0428  A
ATOM      7 C10  26D L   1      10.358  -2.605   4.931  1.00  0.00    +0.0513  A
ATOM      8 CL11 26D L   1       9.168  -1.865   5.944  1.00  0.00    -0.0830 Cl
ATOM      9 H18  26D L   1      13.212  -4.084   2.772  1.00  0.00    +0.0632  H
ATOM     10 H19  26D L   1      13.487  -1.864   3.808  1.00  0.00    +0.0618  H
ATOM     11 H20  26D L   1      11.686  -0.914   5.201  1.00  0.00    +0.0632  H
ENDROOT
BRANCH 1 13
ATOM     12  C1  26D L   1       9.102  -5.951   5.320  1.00  0.00    -0.0030  C
ATOM     13  C2  26D L   1       8.865  -4.634   4.589  1.00  0.00    +0.1566  C
ATOM     14  N3  26D L   1       8.063  -4.921   3.364  1.00  0.00    -0.1889  N
ATOM     15 H12  26D L   1       8.153  -6.455   5.534  1.00  0.00    +0.0292  H
ATOM     16 H13  26D L   1       9.610  -5.780   6.276  1.00  0.00    +0.0292  H
ATOM     17 H14  26D L   1       9.721  -6.643   4.739  1.00  0.00    +0.0292  H
ATOM     18 H15  26D L   1       8.168  -4.035   5.181  1.00  0.00    +0.1052  H
ATOM     19 H16  26D L   1       7.822  -4.055   2.868  1.00  0.00    +0.4057 HD
ATOM     20 H17  26D L   1       8.594  -5.512   2.707  1.00  0.00    +0.4057 HD
ENDBRANCH 1 13
TORSDOF 1
ENDMDL
MODEL 11
REMARK VINA RESULT:    -4.108     13.191     14.002
REMARK INTER + INTRA:          -4.278
REMARK INTER:                  -4.327
REMARK INTRA:                   0.049
REMARK UNBOUND:                 0.070
ROOT
ATOM      1  C4  26D L   1      10.016  -4.692   4.235  1.00  0.00    +0.0507  A
ATOM      2  C5  26D L   1      10.514  -3.434   4.638  1.00  0.00    +0.0513  A
ATOM      3 CL6  26D L   1      11.893  -2.708   3.885  1.00  0.00    -0.0830 Cl
ATOM      4  C7  26D L   1       9.911  -2.703   5.668  1.00  0.00    -0.0428  A
ATOM      5  C8  26D L   1       8.803  -3.213   6.334  1.00  0.00    -0.0590  A
ATOM      6  C9  26D L   1       8.301  -4.459   5.975  1.00  0.00    -0.0428  A
ATOM      7 C10  26D L   1       8.901  -5.192   4.946  1.00  0.00    +0.0513  A
ATOM      8 CL11 26D L   1       8.213  -6.741   4.600  1.00  0.00    -0.0830 Cl
ATOM      9 H18  26D L   1      10.305  -1.732   5.968  1.00  0.00    +0.0632  H
ATOM     10 H19  26D L   1       8.338  -2.647   7.139  1.00  0.00    +0.0618  H
ATOM     11 H20  26D L   1       7.440  -4.858   6.512  1.00  0.00    +0.0632  H
ENDROOT
BRANCH 1 13
ATOM     12  C1  26D L   1      12.021  -6.076   3.554  1.00  0.00    -0.0030  C
ATOM     13  C2  26D L   1      10.660  -5.524   3.141  1.00  0.00    +0.1566  C
ATOM     14  N3  26D L   1      10.823  -4.817   1.838  1.00  0.00    -0.1889  N
ATOM     15 H12  26D L   1      12.439  -6.713   2.767  1.00  0.00    +0.0292  H
ATOM     16 H13  26D L   1      11.935  -6.684   4.463  1.00  0.00    +0.0292  H
ATOM     17 H14  26D L   1      12.747  -5.282   3.759  1.00  0.00    +0.0292  H
ATOM     18 H15  26D L   1      10.019  -6.365   2.864  1.00  0.00    +0.1052  H
ATOM     19 H16  26D L   1       9.920  -4.480   1.485  1.00  0.00    +0.4057 HD
ATOM     20 H17  26D L   1      11.437  -3.995   1.940  1.00  0.00    +0.4057 HD
ENDBRANCH 1 13
TORSDOF 1
ENDMDL
