MODEL 1
REMARK VINA RESULT:    -5.543      0.000      0.000
REMARK INTER + INTRA:          -5.931
REMARK INTER:                  -5.868
REMARK INTRA:                  -0.063
REMARK UNBOUND:                -0.063
ROOT
ATOM      1  C4  34D L   1       6.003   7.888  -4.454  1.00  0.00    +0.0156  A
ATOM      2  C5  34D L   1       7.303   8.205  -4.022  1.00  0.00    -0.0513  A
ATOM      3  C6  34D L   1       8.102   7.249  -3.385  1.00  0.00    -0.0415  A
ATOM      4  C7  34D L   1       7.620   5.959  -3.158  1.00  0.00    +0.0593  A
ATOM      5 CL8  34D L   1       8.658   4.836  -2.361  1.00  0.00    -0.0820 Cl
ATOM      6  C9  34D L   1       6.328   5.628  -3.572  1.00  0.00    +0.0597  A
ATOM      7 CL10 34D L   1       5.645   4.063  -3.321  1.00  0.00    -0.0820 Cl
ATOM      8 C11  34D L   1       5.526   6.588  -4.212  1.00  0.00    -0.0330  A
ATOM      9 H18  34D L   1       7.723   9.200  -4.177  1.00  0.00    +0.0623  H
ATOM     10 H19  34D L   1       9.109   7.517  -3.065  1.00  0.00    +0.0633  H
ATOM     11 H20  34D L   1       4.527   6.284  -4.521  1.00  0.00    +0.0637  H
ENDROOT
BRANCH 1 13
ATOM     12  C1  34D L   1       5.135   8.936  -6.639  1.00  0.00    -0.0031  C
ATOM     13  C2  34D L   1       5.162   8.962  -5.113  1.00  0.00    +0.1539  C
ATOM     14  N3  34D L   1       3.758   8.890  -4.626  1.00  0.00    -0.1890  N
ATOM     15 H12  34D L   1       4.630   8.045  -7.030  1.00  0.00    +0.0292  H
ATOM     16 H13  34D L   1       4.602   9.810  -7.031  1.00  0.00    +0.0292  H
ATOM     17 H14  34D L   1       6.151   8.956  -7.049  1.00  0.00    +0.0292  H
ATOM     18 H15  34D L   1       5.529   9.948  -4.801  1.00  0.00    +0.1051  H
ATOM     19 H16  34D L   1       3.351   7.959  -4.784  1.00  0.00    +0.4057 HD
ATOM     20 H17  34D L   1       3.153   9.588  -5.076  1.00  0.00    +0.4057 HD
ENDBRANCH 1 13
TORSDOF 1
ENDMDL
MODEL 2
REMARK VINA RESULT:    -4.975      2.904      4.332
REMARK INTER + INTRA:          -5.329
REMARK INTER:                  -5.241
REMARK INTRA:                  -0.088
REMARK UNBOUND:                -0.063
ROOT
ATOM      1  C4  34D L   1       8.524   7.152  -2.159  1.00  0.00    +0.0156  A
ATOM      2  C5  34D L   1       8.639   5.788  -1.836  1.00  0.00    -0.0513  A
ATOM      3  C6  34D L   1       7.696   4.859  -2.293  1.00  0.00    -0.0415  A
ATOM      4  C7  34D L   1       6.615   5.271  -3.074  1.00  0.00    +0.0593  A
ATOM      5 CL8  34D L   1       5.490   4.074  -3.594  1.00  0.00    -0.0820 Cl
ATOM      6  C9  34D L   1       6.480   6.623  -3.396  1.00  0.00    +0.0597  A
ATOM      7 CL10 34D L   1       5.169   7.225  -4.344  1.00  0.00    -0.0820 Cl
ATOM      8 C11  34D L   1       7.426   7.555  -2.939  1.00  0.00    -0.0330  A
ATOM      9 H18  34D L   1       9.466   5.418  -1.229  1.00  0.00    +0.0623  H
ATOM     10 H19  34D L   1       7.810   3.806  -2.035  1.00  0.00    +0.0633  H
ATOM     11 H20  34D L   1       7.282   8.598  -3.218  1.00  0.00    +0.0637  H
ENDROOT
BRANCH 1 13
ATOM     12  C1  34D L   1      10.724   7.500  -0.869  1.00  0.00    -0.0031  C
ATOM     13  C2  34D L   1       9.550   8.126  -1.618  1.00  0.00    +0.1539  C
ATOM     14  N3  34D L   1      10.100   8.961  -2.720  1.00  0.00    -0.1890  N
ATOM     15 H12  34D L   1      11.367   6.906  -1.528  1.00  0.00    +0.0292  H
ATOM     16 H13  34D L   1      11.351   8.276  -0.415  1.00  0.00    +0.0292  H
ATOM     17 H14  34D L   1      10.370   6.847  -0.063  1.00  0.00    +0.0292  H
ATOM     18 H15  34D L   1       9.055   8.829  -0.937  1.00  0.00    +0.1051  H
ATOM     19 H16  34D L   1      10.504   8.382  -3.467  1.00  0.00    +0.4057 HD
ATOM     20 H17  34D L   1      10.822   9.615  -2.390  1.00  0.00    +0.4057 HD
ENDBRANCH 1 13
TORSDOF 1
ENDMDL
MODEL 3
REMARK VINA RESULT:    -4.969      2.773      4.229
REMARK INTER + INTRA:          -5.323
REMARK INTER:                  -5.255
REMARK INTRA:                  -0.068
REMARK UNBOUND:                -0.063
ROOT
ATOM      1  C4  34D L   1       8.539   7.044  -2.174  1.00  0.00    +0.0156  A
ATOM      2  C5  34D L   1       7.746   7.307  -3.304  1.00  0.00    -0.0513  A
ATOM      3  C6  34D L   1       6.829   6.360  -3.775  1.00  0.00    -0.0415  A
ATOM      4  C7  34D L   1       6.691   5.127  -3.135  1.00  0.00    +0.0593  A
ATOM      5 CL8  34D L   1       5.549   4.006  -3.775  1.00  0.00    -0.0820 Cl
ATOM      6  C9  34D L   1       7.478   4.844  -2.017  1.00  0.00    +0.0597  A
ATOM      7 CL10 34D L   1       7.385   3.342  -1.171  1.00  0.00    -0.0820 Cl
ATOM      8 C11  34D L   1       8.397   5.796  -1.543  1.00  0.00    -0.0330  A
ATOM      9 H18  34D L   1       7.818   8.256  -3.837  1.00  0.00    +0.0623  H
ATOM     10 H19  34D L   1       6.220   6.589  -4.649  1.00  0.00    +0.0633  H
ATOM     11 H20  34D L   1       8.987   5.533  -0.666  1.00  0.00    +0.0637  H
ENDROOT
BRANCH 1 13
ATOM     12  C1  34D L   1      10.814   7.542  -1.077  1.00  0.00    -0.0031  C
ATOM     13  C2  34D L   1       9.539   8.087  -1.716  1.00  0.00    +0.1539  C
ATOM     14  N3  34D L   1       9.932   8.961  -2.854  1.00  0.00    -0.1890  N
ATOM     15 H12  34D L   1      11.437   6.996  -1.794  1.00  0.00    +0.0292  H
ATOM     16 H13  34D L   1      11.424   8.359  -0.673  1.00  0.00    +0.0292  H
ATOM     17 H14  34D L   1      10.578   6.864  -0.248  1.00  0.00    +0.0292  H
ATOM     18 H15  34D L   1       9.057   8.752  -0.989  1.00  0.00    +0.1051  H
ATOM     19 H16  34D L   1      10.308   8.413  -3.638  1.00  0.00    +0.4057 HD
ATOM     20 H17  34D L   1      10.632   9.662  -2.583  1.00  0.00    +0.4057 HD
ENDBRANCH 1 13
TORSDOF 1
ENDMDL
MODEL 4
REMARK VINA RESULT:    -4.871      2.881      4.252
REMARK INTER + INTRA:          -5.219
REMARK INTER:                  -5.131
REMARK INTRA:                  -0.089
REMARK UNBOUND:                -0.063
ROOT
ATOM      1  C4  34D L   1       8.333   7.586  -2.823  1.00  0.00    +0.0156  A
ATOM      2  C5  34D L   1       7.910   8.798  -3.397  1.00  0.00    -0.0513  A
ATOM      3  C6  34D L   1       6.716   8.870  -4.125  1.00  0.00    -0.0415  A
ATOM      4  C7  34D L   1       5.924   7.735  -4.302  1.00  0.00    +0.0593  A
ATOM      5 CL8  34D L   1       4.471   7.896  -5.216  1.00  0.00    -0.0820 Cl
ATOM      6  C9  34D L   1       6.333   6.521  -3.746  1.00  0.00    +0.0597  A
ATOM      7 CL10 34D L   1       5.425   5.064  -3.926  1.00  0.00    -0.0820 Cl
ATOM      8 C11  34D L   1       7.531   6.448  -3.015  1.00  0.00    -0.0330  A
ATOM      9 H18  34D L   1       8.495   9.711  -3.286  1.00  0.00    +0.0623  H
ATOM     10 H19  34D L   1       6.405   9.822  -4.555  1.00  0.00    +0.0633  H
ATOM     11 H20  34D L   1       7.808   5.482  -2.598  1.00  0.00    +0.0637  H
ENDROOT
BRANCH 1 13
ATOM     12  C1  34D L   1      10.197   8.903  -1.632  1.00  0.00    -0.0031  C
ATOM     13  C2  34D L   1       9.647   7.547  -2.069  1.00  0.00    +0.1539  C
ATOM     14  N3  34D L   1       9.523   6.689  -0.859  1.00  0.00    -0.1890  N
ATOM     15 H12  34D L   1       9.567   9.382  -0.874  1.00  0.00    +0.0292  H
ATOM     16 H13  34D L   1      11.199   8.792  -1.200  1.00  0.00    +0.0292  H
ATOM     17 H14  34D L   1      10.279   9.586  -2.486  1.00  0.00    +0.0292  H
ATOM     18 H15  34D L   1      10.406   7.063  -2.695  1.00  0.00    +0.1051  H
ATOM     19 H16  34D L   1       8.760   7.007  -0.248  1.00  0.00    +0.4057 HD
ATOM     20 H17  34D L   1      10.390   6.665  -0.309  1.00  0.00    +0.4057 HD
ENDBRANCH 1 13
TORSDOF 1
ENDMDL
MODEL 5
REMARK VINA RESULT:    -4.845      3.569      4.627
REMARK INTER + INTRA:          -5.191
REMARK INTER:                  -5.119
REMARK INTRA:                  -0.073
REMARK UNBOUND:                -0.063
ROOT
ATOM      1  C4  34D L   1       7.229   8.410  -2.808  1.00  0.00    +0.0156  A
ATOM      2  C5  34D L   1       7.257   8.386  -4.214  1.00  0.00    -0.0513  A
ATOM      3  C6  34D L   1       6.084   8.550  -4.960  1.00  0.00    -0.0415  A
ATOM      4  C7  34D L   1       4.857   8.734  -4.320  1.00  0.00    +0.0593  A
ATOM      5 CL8  34D L   1       3.453   8.922  -5.302  1.00  0.00    -0.0820 Cl
ATOM      6  C9  34D L   1       4.808   8.750  -2.924  1.00  0.00    +0.0597  A
ATOM      7 CL10 34D L   1       3.335   8.956  -2.049  1.00  0.00    -0.0820 Cl
ATOM      8 C11  34D L   1       5.986   8.586  -2.176  1.00  0.00    -0.0330  A
ATOM      9 H18  34D L   1       8.192   8.246  -4.758  1.00  0.00    +0.0623  H
ATOM     10 H19  34D L   1       6.132   8.535  -6.048  1.00  0.00    +0.0633  H
ATOM     11 H20  34D L   1       5.900   8.610  -1.091  1.00  0.00    +0.0637  H
ENDROOT
BRANCH 1 13
ATOM     12  C1  34D L   1       8.933   6.743  -1.838  1.00  0.00    -0.0031  C
ATOM     13  C2  34D L   1       8.518   8.198  -2.041  1.00  0.00    +0.1539  C
ATOM     14  N3  34D L   1       9.640   8.908  -2.711  1.00  0.00    -0.1890  N
ATOM     15 H12  34D L   1       9.200   6.252  -2.780  1.00  0.00    +0.0292  H
ATOM     16 H13  34D L   1       9.807   6.679  -1.178  1.00  0.00    +0.0292  H
ATOM     17 H14  34D L   1       8.125   6.166  -1.373  1.00  0.00    +0.0292  H
ATOM     18 H15  34D L   1       8.427   8.662  -1.051  1.00  0.00    +0.1051  H
ATOM     19 H16  34D L   1       9.744   8.611  -3.690  1.00  0.00    +0.4057 HD
ATOM     20 H17  34D L   1      10.537   8.760  -2.231  1.00  0.00    +0.4057 HD
ENDBRANCH 1 13
TORSDOF 1
ENDMDL
MODEL 6
REMARK VINA RESULT:    -4.819      3.430      4.691
REMARK INTER + INTRA:          -5.164
REMARK INTER:                  -5.087
REMARK INTRA:                  -0.077
REMARK UNBOUND:                -0.063
ROOT
ATOM      1  C4  34D L   1       7.468   7.197  -3.049  1.00  0.00    +0.0156  A
ATOM      2  C5  34D L   1       6.442   7.220  -2.089  1.00  0.00    -0.0513  A
ATOM      3  C6  34D L   1       5.187   7.763  -2.389  1.00  0.00    -0.0415  A
ATOM      4  C7  34D L   1       4.932   8.303  -3.651  1.00  0.00    +0.0593  A
ATOM      5 CL8  34D L   1       3.367   8.962  -3.948  1.00  0.00    -0.0820 Cl
ATOM      6  C9  34D L   1       5.943   8.299  -4.615  1.00  0.00    +0.0597  A
ATOM      7 CL10 34D L   1       5.722   8.957  -6.195  1.00  0.00    -0.0820 Cl
ATOM      8 C11  34D L   1       7.202   7.752  -4.313  1.00  0.00    -0.0330  A
ATOM      9 H18  34D L   1       6.593   6.809  -1.090  1.00  0.00    +0.0623  H
ATOM     10 H19  34D L   1       4.405   7.763  -1.630  1.00  0.00    +0.0633  H
ATOM     11 H20  34D L   1       7.958   7.767  -5.096  1.00  0.00    +0.0637  H
ENDROOT
BRANCH 1 13
ATOM     12  C1  34D L   1       9.442   7.193  -1.396  1.00  0.00    -0.0031  C
ATOM     13  C2  34D L   1       8.820   6.627  -2.671  1.00  0.00    +0.1539  C
ATOM     14  N3  34D L   1       8.734   5.149  -2.524  1.00  0.00    -0.1890  N
ATOM     15 H12  34D L   1       8.873   6.920  -0.501  1.00  0.00    +0.0292  H
ATOM     16 H13  34D L   1      10.461   6.812  -1.262  1.00  0.00    +0.0292  H
ATOM     17 H14  34D L   1       9.499   8.286  -1.441  1.00  0.00    +0.0292  H
ATOM     18 H15  34D L   1       9.525   6.799  -3.493  1.00  0.00    +0.1051  H
ATOM     19 H16  34D L   1       8.018   4.879  -1.838  1.00  0.00    +0.4057 HD
ATOM     20 H17  34D L   1       9.629   4.733  -2.239  1.00  0.00    +0.4057 HD
ENDBRANCH 1 13
TORSDOF 1
ENDMDL
MODEL 7
REMARK VINA RESULT:    -4.440     16.458     17.328
REMARK INTER + INTRA:          -4.763
REMARK INTER:                  -4.695
REMARK INTRA:                  -0.068
REMARK UNBOUND:                -0.063
ROOT
ATOM      1  C4  34D L   1       6.266  -9.371 -10.327  1.00  0.00    +0.0156  A
ATOM      2  C5  34D L   1       7.361  -8.682 -10.877  1.00  0.00    -0.0513  A
ATOM      3  C6  34D L   1       8.403  -8.221 -10.063  1.00  0.00    -0.0415  A
ATOM      4  C7  34D L   1       8.370  -8.430  -8.683  1.00  0.00    +0.0593  A
ATOM      5 CL8  34D L   1       9.683  -7.828  -7.742  1.00  0.00    -0.0820 Cl
ATOM      6  C9  34D L   1       7.285  -9.104  -8.118  1.00  0.00    +0.0597  A
ATOM      7 CL10 34D L   1       7.154  -9.395  -6.422  1.00  0.00    -0.0820 Cl
ATOM      8 C11  34D L   1       6.241  -9.568  -8.935  1.00  0.00    -0.0330  A
ATOM      9 H18  34D L   1       7.431  -8.496 -11.949  1.00  0.00    +0.0623  H
ATOM     10 H19  34D L   1       9.245  -7.696 -10.513  1.00  0.00    +0.0633  H
ATOM     11 H20  34D L   1       5.417 -10.091  -8.452  1.00  0.00    +0.0637  H
ENDROOT
BRANCH 1 13
ATOM     12  C1  34D L   1       5.362 -11.174 -11.928  1.00  0.00    -0.0031  C
ATOM     13  C2  34D L   1       5.147  -9.826 -11.242  1.00  0.00    +0.1539  C
ATOM     14  N3  34D L   1       3.862  -9.890 -10.494  1.00  0.00    -0.1890  N
ATOM     15 H12  34D L   1       5.364 -12.006 -11.215  1.00  0.00    +0.0292  H
ATOM     16 H13  34D L   1       4.564 -11.369 -12.654  1.00  0.00    +0.0292  H
ATOM     17 H14  34D L   1       6.315 -11.189 -12.469  1.00  0.00    +0.0292  H
ATOM     18 H15  34D L   1       4.993  -9.073 -12.024  1.00  0.00    +0.1051  H
ATOM     19 H16  34D L   1       3.934 -10.503  -9.672  1.00  0.00    +0.4057 HD
ATOM     20 H17  34D L   1       3.087 -10.224 -11.080  1.00  0.00    +0.4057 HD
ENDBRANCH 1 13
TORSDOF 1
ENDMDL
MODEL 8
REMARK VINA RESULT:    -4.272     16.621     17.404
REMARK INTER + INTRA:          -4.585
REMARK INTER:                  -4.513
REMARK INTRA:                  -0.072
REMARK UNBOUND:                -0.063
ROOT
ATOM      1  C4  34D L   1       6.141  -9.412 -10.053  1.00  0.00    +0.0156  A
ATOM      2  C5  34D L   1       5.992  -9.926  -8.753  1.00  0.00    -0.0513  A
ATOM      3  C6  34D L   1       6.953  -9.676  -7.766  1.00  0.00    -0.0415  A
ATOM      4  C7  34D L   1       8.086  -8.913  -8.057  1.00  0.00    +0.0593  A
ATOM      5 CL8  34D L   1       9.230  -8.652  -6.795  1.00  0.00    -0.0820 Cl
ATOM      6  C9  34D L   1       8.255  -8.402  -9.345  1.00  0.00    +0.0597  A
ATOM      7 CL10 34D L   1       9.630  -7.463  -9.798  1.00  0.00    -0.0820 Cl
ATOM      8 C11  34D L   1       7.290  -8.653 -10.335  1.00  0.00    -0.0330  A
ATOM      9 H18  34D L   1       5.124 -10.527  -8.479  1.00  0.00    +0.0623  H
ATOM     10 H19  34D L   1       6.812 -10.079  -6.764  1.00  0.00    +0.0633  H
ATOM     11 H20  34D L   1       7.462  -8.232 -11.324  1.00  0.00    +0.0637  H
ENDROOT
BRANCH 1 13
ATOM     12  C1  34D L   1       5.355 -10.982 -11.935  1.00  0.00    -0.0031  C
ATOM     13  C2  34D L   1       5.091  -9.733 -11.098  1.00  0.00    +0.1539  C
ATOM     14  N3  34D L   1       3.756  -9.880 -10.460  1.00  0.00    -0.1890  N
ATOM     15 H12  34D L   1       5.304 -11.900 -11.339  1.00  0.00    +0.0292  H
ATOM     16 H13  34D L   1       4.613 -11.073 -12.737  1.00  0.00    +0.0292  H
ATOM     17 H14  34D L   1       6.345 -10.937 -12.404  1.00  0.00    +0.0292  H
ATOM     18 H15  34D L   1       4.996  -8.883 -11.784  1.00  0.00    +0.1051  H
ATOM     19 H16  34D L   1       3.767 -10.595  -9.721  1.00  0.00    +0.4057 HD
ATOM     20 H17  34D L   1       3.025 -10.128 -11.139  1.00  0.00    +0.4057 HD
ENDBRANCH 1 13
TORSDOF 1
ENDMDL
MODEL 9
REMARK VINA RESULT:    -4.216     16.371     17.415
REMARK INTER + INTRA:          -4.525
REMARK INTER:                  -4.438
REMARK INTRA:                  -0.087
REMARK UNBOUND:                -0.063
ROOT
ATOM      1  C4  34D L   1       6.847  -9.035 -10.301  1.00  0.00    +0.0156  A
ATOM      2  C5  34D L   1       7.343  -9.408 -11.563  1.00  0.00    -0.0513  A
ATOM      3  C6  34D L   1       8.633  -9.044 -11.966  1.00  0.00    -0.0415  A
ATOM      4  C7  34D L   1       9.454  -8.293 -11.121  1.00  0.00    +0.0593  A
ATOM      5 CL8  34D L   1      11.028  -7.875 -11.686  1.00  0.00    -0.0820 Cl
ATOM      6  C9  34D L   1       8.975  -7.906  -9.868  1.00  0.00    +0.0597  A
ATOM      7 CL10 34D L   1       9.914  -6.966  -8.766  1.00  0.00    -0.0820 Cl
ATOM      8 C11  34D L   1       7.680  -8.272  -9.464  1.00  0.00    -0.0330  A
ATOM      9 H18  34D L   1       6.739  -9.994 -12.256  1.00  0.00    +0.0623  H
ATOM     10 H19  34D L   1       8.997  -9.350 -12.946  1.00  0.00    +0.0633  H
ATOM     11 H20  34D L   1       7.351  -7.951  -8.477  1.00  0.00    +0.0637  H
ENDROOT
BRANCH 1 13
ATOM     12  C1  34D L   1       4.628 -10.130 -11.007  1.00  0.00    -0.0031  C
ATOM     13  C2  34D L   1       5.434  -9.426  -9.919  1.00  0.00    +0.1539  C
ATOM     14  N3  34D L   1       5.448 -10.301  -8.716  1.00  0.00    -0.1890  N
ATOM     15 H12  34D L   1       5.031 -11.121 -11.246  1.00  0.00    +0.0292  H
ATOM     16 H13  34D L   1       3.588 -10.271 -10.687  1.00  0.00    +0.0292  H
ATOM     17 H14  34D L   1       4.613  -9.538 -11.929  1.00  0.00    +0.0292  H
ATOM     18 H15  34D L   1       4.881  -8.526  -9.621  1.00  0.00    +0.1051  H
ATOM     19 H16  34D L   1       6.030 -11.135  -8.862  1.00  0.00    +0.4057 HD
ATOM     20 H17  34D L   1       4.504 -10.608  -8.447  1.00  0.00    +0.4057 HD
ENDBRANCH 1 13
TORSDOF 1
ENDMDL
MODEL 10
REMARK VINA RESULT:    -4.212     14.828     16.446
REMARK INTER + INTRA:          -4.522
REMARK INTER:                  -4.438
REMARK INTRA:                  -0.084
REMARK UNBOUND:                -0.063
ROOT
ATOM      1  C4  34D L   1       8.726  -6.335   5.701  1.00  0.00    +0.0156  A
ATOM      2  C5  34D L   1       8.227  -5.322   6.538  1.00  0.00    -0.0513  A
ATOM      3  C6  34D L   1       8.507  -3.974   6.281  1.00  0.00    -0.0415  A
ATOM      4  C7  34D L   1       9.297  -3.610   5.189  1.00  0.00    +0.0593  A
ATOM      5 CL8  34D L   1       9.607  -1.933   4.939  1.00  0.00    -0.0820 Cl
ATOM      6  C9  34D L   1       9.809  -4.604   4.353  1.00  0.00    +0.0597  A
ATOM      7 CL10 34D L   1      10.806  -4.247   2.989  1.00  0.00    -0.0820 Cl
ATOM      8 C11  34D L   1       9.527  -5.956   4.610  1.00  0.00    -0.0330  A
ATOM      9 H18  34D L   1       7.605  -5.557   7.403  1.00  0.00    +0.0623  H
ATOM     10 H19  34D L   1       8.104  -3.206   6.940  1.00  0.00    +0.0633  H
ATOM     11 H20  34D L   1       9.945  -6.696   3.930  1.00  0.00    +0.0637  H
ENDROOT
BRANCH 1 13
ATOM     12  C1  34D L   1       8.102  -8.068   7.500  1.00  0.00    -0.0031  C
ATOM     13  C2  34D L   1       8.423  -7.782   6.034  1.00  0.00    +0.1539  C
ATOM     14  N3  34D L   1       7.287  -8.275   5.210  1.00  0.00    -0.1890  N
ATOM     15 H12  34D L   1       7.160  -7.608   7.816  1.00  0.00    +0.0292  H
ATOM     16 H13  34D L   1       8.011  -9.147   7.671  1.00  0.00    +0.0292  H
ATOM     17 H14  34D L   1       8.898  -7.695   8.155  1.00  0.00    +0.0292  H
ATOM     18 H15  34D L   1       9.281  -8.403   5.751  1.00  0.00    +0.1051  H
ATOM     19 H16  34D L   1       6.451  -7.689   5.330  1.00  0.00    +0.4057 HD
ATOM     20 H17  34D L   1       7.036  -9.246   5.433  1.00  0.00    +0.4057 HD
ENDBRANCH 1 13
TORSDOF 1
ENDMDL
