MODEL 1
REMARK VINA RESULT:    -5.323      0.000      0.000
REMARK INTER + INTRA:          -5.771
REMARK INTER:                  -5.634
REMARK INTRA:                  -0.137
REMARK UNBOUND:                -0.137
ROOT
ATOM      1  C4  DCM L   1       6.490   7.726  -3.906  1.00  0.00    +0.0339  A
ATOM      2  C5  DCM L   1       7.432   8.722  -3.571  1.00  0.00    -0.0513  A
ATOM      3  C6  DCM L   1       8.532   8.433  -2.764  1.00  0.00    -0.0598  A
ATOM      4  C7  DCM L   1       8.716   7.146  -2.269  1.00  0.00    -0.0419  A
ATOM      5  C8  DCM L   1       7.797   6.141  -2.575  1.00  0.00    +0.0597  A
ATOM      6 CL9  DCM L   1       8.099   4.569  -1.925  1.00  0.00    -0.0820 Cl
ATOM      7 C10  DCM L   1       6.683   6.423  -3.388  1.00  0.00    +0.0682  A
ATOM      8 CL11 DCM L   1       5.556   5.157  -3.766  1.00  0.00    -0.0815 Cl
ATOM      9 H18  DCM L   1       7.321   9.748  -3.923  1.00  0.00    +0.0623  H
ATOM     10 H19  DCM L   1       9.249   9.214  -2.511  1.00  0.00    +0.0618  H
ATOM     11 H20  DCM L   1       9.577   6.932  -1.637  1.00  0.00    +0.0633  H
ENDROOT
BRANCH 1 13
ATOM     12  C1  DCM L   1       5.724   8.957  -5.992  1.00  0.00    -0.0030  C
ATOM     13  C2  DCM L   1       5.314   8.136  -4.773  1.00  0.00    +0.1553  C
ATOM     14  N3  DCM L   1       4.251   8.869  -4.039  1.00  0.00    -0.1890  N
ATOM     15 H12  DCM L   1       6.163   9.922  -5.721  1.00  0.00    +0.0292  H
ATOM     16 H13  DCM L   1       4.859   9.158  -6.634  1.00  0.00    +0.0292  H
ATOM     17 H14  DCM L   1       6.463   8.416  -6.592  1.00  0.00    +0.0292  H
ATOM     18 H15  DCM L   1       4.805   7.232  -5.130  1.00  0.00    +0.1051  H
ATOM     19 H16  DCM L   1       3.981   8.387  -3.173  1.00  0.00    +0.4057 HD
ATOM     20 H17  DCM L   1       3.407   9.010  -4.608  1.00  0.00    +0.4057 HD
ENDBRANCH 1 13
TORSDOF 1
ENDMDL
MODEL 2
REMARK VINA RESULT:    -5.091      1.850      2.712
REMARK INTER + INTRA:          -5.526
REMARK INTER:                  -5.385
REMARK INTRA:                  -0.141
REMARK UNBOUND:                -0.137
ROOT
ATOM      1  C4  DCM L   1       6.048   7.230  -3.959  1.00  0.00    +0.0339  A
ATOM      2  C5  DCM L   1       5.122   6.189  -4.181  1.00  0.00    -0.0513  A
ATOM      3  C6  DCM L   1       5.417   4.872  -3.827  1.00  0.00    -0.0598  A
ATOM      4  C7  DCM L   1       6.644   4.563  -3.248  1.00  0.00    -0.0419  A
ATOM      5  C8  DCM L   1       7.584   5.569  -3.025  1.00  0.00    +0.0597  A
ATOM      6 CL9  DCM L   1       9.082   5.104  -2.299  1.00  0.00    -0.0820 Cl
ATOM      7 C10  DCM L   1       7.296   6.901  -3.380  1.00  0.00    +0.0682  A
ATOM      8 CL11 DCM L   1       8.476   8.141  -3.085  1.00  0.00    -0.0815 Cl
ATOM      9 H18  DCM L   1       4.154   6.381  -4.645  1.00  0.00    +0.0623  H
ATOM     10 H19  DCM L   1       4.692   4.078  -4.007  1.00  0.00    +0.0618  H
ATOM     11 H20  DCM L   1       6.865   3.531  -2.979  1.00  0.00    +0.0633  H
ENDROOT
BRANCH 1 13
ATOM     12  C1  DCM L   1       4.193   8.962  -4.082  1.00  0.00    -0.0030  C
ATOM     13  C2  DCM L   1       5.649   8.627  -4.395  1.00  0.00    +0.1553  C
ATOM     14  N3  DCM L   1       5.906   8.908  -5.831  1.00  0.00    -0.1890  N
ATOM     15 H12  DCM L   1       3.489   8.333  -4.637  1.00  0.00    +0.0292  H
ATOM     16 H13  DCM L   1       3.970  10.005  -4.333  1.00  0.00    +0.0292  H
ATOM     17 H14  DCM L   1       3.984   8.825  -3.016  1.00  0.00    +0.0292  H
ATOM     18 H15  DCM L   1       6.281   9.355  -3.872  1.00  0.00    +0.1051  H
ATOM     19 H16  DCM L   1       6.858   8.643  -6.108  1.00  0.00    +0.4057 HD
ATOM     20 H17  DCM L   1       5.763   9.898  -6.068  1.00  0.00    +0.4057 HD
ENDBRANCH 1 13
TORSDOF 1
ENDMDL
MODEL 3
REMARK VINA RESULT:    -4.684      2.482      4.014
REMARK INTER + INTRA:          -5.094
REMARK INTER:                  -4.977
REMARK INTRA:                  -0.117
REMARK UNBOUND:                -0.137
ROOT
ATOM      1  C4  DCM L   1       8.683   7.351  -2.330  1.00  0.00    +0.0339  A
ATOM      2  C5  DCM L   1       8.444   8.392  -3.252  1.00  0.00    -0.0513  A
ATOM      3  C6  DCM L   1       7.406   8.312  -4.180  1.00  0.00    -0.0598  A
ATOM      4  C7  DCM L   1       6.586   7.189  -4.215  1.00  0.00    -0.0419  A
ATOM      5  C8  DCM L   1       6.803   6.138  -3.322  1.00  0.00    +0.0597  A
ATOM      6 CL9  DCM L   1       5.737   4.781  -3.427  1.00  0.00    -0.0820 Cl
ATOM      7 C10  DCM L   1       7.847   6.210  -2.382  1.00  0.00    +0.0682  A
ATOM      8 CL11 DCM L   1       8.095   4.896  -1.274  1.00  0.00    -0.0815 Cl
ATOM      9 H18  DCM L   1       9.070   9.285  -3.272  1.00  0.00    +0.0623  H
ATOM     10 H19  DCM L   1       7.237   9.124  -4.888  1.00  0.00    +0.0618  H
ATOM     11 H20  DCM L   1       5.781   7.134  -4.946  1.00  0.00    +0.0633  H
ENDROOT
BRANCH 1 13
ATOM     12  C1  DCM L   1      10.322   8.962  -1.247  1.00  0.00    -0.0030  C
ATOM     13  C2  DCM L   1       9.846   7.517  -1.371  1.00  0.00    +0.1553  C
ATOM     14  N3  DCM L   1      11.014   6.655  -1.684  1.00  0.00    -0.1890  N
ATOM     15 H12  DCM L   1      10.733   9.350  -2.184  1.00  0.00    +0.0292  H
ATOM     16 H13  DCM L   1      11.102   9.051  -0.483  1.00  0.00    +0.0292  H
ATOM     17 H14  DCM L   1       9.495   9.618  -0.955  1.00  0.00    +0.0292  H
ATOM     18 H15  DCM L   1       9.534   7.178  -0.375  1.00  0.00    +0.1051  H
ATOM     19 H16  DCM L   1      10.738   5.677  -1.837  1.00  0.00    +0.4057 HD
ATOM     20 H17  DCM L   1      11.728   6.677  -0.945  1.00  0.00    +0.4057 HD
ENDBRANCH 1 13
TORSDOF 1
ENDMDL
MODEL 4
REMARK VINA RESULT:    -4.649     13.717     15.328
REMARK INTER + INTRA:          -5.058
REMARK INTER:                  -4.936
REMARK INTRA:                  -0.121
REMARK UNBOUND:                -0.137
ROOT
ATOM      1  C4  DCM L   1       9.310  -4.306   5.147  1.00  0.00    +0.0339  A
ATOM      2  C5  DCM L   1       9.268  -3.898   6.497  1.00  0.00    -0.0513  A
ATOM      3  C6  DCM L   1       8.700  -4.709   7.479  1.00  0.00    -0.0598  A
ATOM      4  C7  DCM L   1       8.154  -5.942   7.137  1.00  0.00    -0.0419  A
ATOM      5  C8  DCM L   1       8.171  -6.369   5.809  1.00  0.00    +0.0597  A
ATOM      6 CL9  DCM L   1       7.478  -7.914   5.466  1.00  0.00    -0.0820 Cl
ATOM      7 C10  DCM L   1       8.743  -5.557   4.810  1.00  0.00    +0.0682  A
ATOM      8 CL11 DCM L   1       8.763  -6.110   3.164  1.00  0.00    -0.0815 Cl
ATOM      9 H18  DCM L   1       9.670  -2.934   6.810  1.00  0.00    +0.0623  H
ATOM     10 H19  DCM L   1       8.673  -4.378   8.518  1.00  0.00    +0.0618  H
ATOM     11 H20  DCM L   1       7.709  -6.566   7.911  1.00  0.00    +0.0633  H
ENDROOT
BRANCH 1 13
ATOM     12  C1  DCM L   1      10.817  -2.291   4.794  1.00  0.00    -0.0030  C
ATOM     13  C2  DCM L   1       9.930  -3.350   4.145  1.00  0.00    +0.1553  C
ATOM     14  N3  DCM L   1       8.942  -2.672   3.267  1.00  0.00    -0.1890  N
ATOM     15 H12  DCM L   1      10.256  -1.615   5.446  1.00  0.00    +0.0292  H
ATOM     16 H13  DCM L   1      11.312  -1.678   4.032  1.00  0.00    +0.0292  H
ATOM     17 H14  DCM L   1      11.599  -2.760   5.401  1.00  0.00    +0.0292  H
ATOM     18 H15  DCM L   1      10.548  -3.925   3.444  1.00  0.00    +0.1051  H
ATOM     19 H16  DCM L   1       8.280  -3.338   2.851  1.00  0.00    +0.4057 HD
ATOM     20 H17  DCM L   1       9.390  -2.144   2.507  1.00  0.00    +0.4057 HD
ENDBRANCH 1 13
TORSDOF 1
ENDMDL
MODEL 5
REMARK VINA RESULT:    -4.647      2.988      4.591
REMARK INTER + INTRA:          -5.056
REMARK INTER:                  -5.076
REMARK INTRA:                   0.021
REMARK UNBOUND:                -0.137
ROOT
ATOM      1  C4  DCM L   1       7.034   6.117  -2.458  1.00  0.00    +0.0339  A
ATOM      2  C5  DCM L   1       6.479   4.951  -3.028  1.00  0.00    -0.0513  A
ATOM      3  C6  DCM L   1       5.517   5.027  -4.035  1.00  0.00    -0.0598  A
ATOM      4  C7  DCM L   1       5.083   6.266  -4.494  1.00  0.00    -0.0419  A
ATOM      5  C8  DCM L   1       5.606   7.437  -3.945  1.00  0.00    +0.0597  A
ATOM      6 CL9  DCM L   1       5.018   8.936  -4.573  1.00  0.00    -0.0820 Cl
ATOM      7 C10  DCM L   1       6.576   7.371  -2.927  1.00  0.00    +0.0682  A
ATOM      8 CL11 DCM L   1       7.223   8.840  -2.262  1.00  0.00    -0.0815 Cl
ATOM      9 H18  DCM L   1       6.777   3.959  -2.690  1.00  0.00    +0.0623  H
ATOM     10 H19  DCM L   1       5.095   4.117  -4.462  1.00  0.00    +0.0618  H
ATOM     11 H20  DCM L   1       4.329   6.314  -5.279  1.00  0.00    +0.0633  H
ENDROOT
BRANCH 1 13
ATOM     12  C1  DCM L   1       9.440   6.471  -1.724  1.00  0.00    -0.0030  C
ATOM     13  C2  DCM L   1       8.059   5.938  -1.355  1.00  0.00    +0.1553  C
ATOM     14  N3  DCM L   1       8.198   4.536  -0.883  1.00  0.00    -0.1890  N
ATOM     15 H12  DCM L   1       9.893   5.923  -2.556  1.00  0.00    +0.0292  H
ATOM     16 H13  DCM L   1      10.125   6.401  -0.872  1.00  0.00    +0.0292  H
ATOM     17 H14  DCM L   1       9.383   7.525  -2.018  1.00  0.00    +0.0292  H
ATOM     18 H15  DCM L   1       7.717   6.478  -0.463  1.00  0.00    +0.1051  H
ATOM     19 H16  DCM L   1       7.287   4.110  -0.677  1.00  0.00    +0.4057 HD
ATOM     20 H17  DCM L   1       8.787   4.462  -0.044  1.00  0.00    +0.4057 HD
ENDBRANCH 1 13
TORSDOF 1
ENDMDL
MODEL 6
REMARK VINA RESULT:    -4.532      2.618      3.739
REMARK INTER + INTRA:          -4.934
REMARK INTER:                  -5.088
REMARK INTRA:                   0.154
REMARK UNBOUND:                -0.137
ROOT
ATOM      1  C4  DCM L   1       7.033   6.028  -3.361  1.00  0.00    +0.0339  A
ATOM      2  C5  DCM L   1       5.997   6.809  -3.915  1.00  0.00    -0.0513  A
ATOM      3  C6  DCM L   1       6.111   8.196  -4.012  1.00  0.00    -0.0598  A
ATOM      4  C7  DCM L   1       7.257   8.836  -3.553  1.00  0.00    -0.0419  A
ATOM      5  C8  DCM L   1       8.295   8.092  -2.991  1.00  0.00    +0.0597  A
ATOM      6 CL9  DCM L   1       9.687   8.962  -2.448  1.00  0.00    -0.0820 Cl
ATOM      7 C10  DCM L   1       8.190   6.692  -2.888  1.00  0.00    +0.0682  A
ATOM      8 CL11 DCM L   1       9.496   5.783  -2.194  1.00  0.00    -0.0815 Cl
ATOM      9 H18  DCM L   1       5.074   6.353  -4.275  1.00  0.00    +0.0623  H
ATOM     10 H19  DCM L   1       5.300   8.786  -4.440  1.00  0.00    +0.0618  H
ATOM     11 H20  DCM L   1       7.334   9.920  -3.630  1.00  0.00    +0.0633  H
ENDROOT
BRANCH 1 13
ATOM     12  C1  DCM L   1       5.414   4.102  -3.713  1.00  0.00    -0.0030  C
ATOM     13  C2  DCM L   1       6.813   4.529  -3.278  1.00  0.00    +0.1553  C
ATOM     14  N3  DCM L   1       7.095   3.951  -1.939  1.00  0.00    -0.1890  N
ATOM     15 H12  DCM L   1       4.632   4.491  -3.053  1.00  0.00    +0.0292  H
ATOM     16 H13  DCM L   1       5.326   3.010  -3.721  1.00  0.00    +0.0292  H
ATOM     17 H14  DCM L   1       5.197   4.460  -4.725  1.00  0.00    +0.0292  H
ATOM     18 H15  DCM L   1       7.537   4.029  -3.933  1.00  0.00    +0.1051  H
ATOM     19 H16  DCM L   1       8.004   4.259  -1.573  1.00  0.00    +0.4057 HD
ATOM     20 H17  DCM L   1       7.079   2.923  -1.945  1.00  0.00    +0.4057 HD
ENDBRANCH 1 13
TORSDOF 1
ENDMDL
MODEL 7
REMARK VINA RESULT:    -4.331     14.010     14.755
REMARK INTER + INTRA:          -4.721
REMARK INTER:                  -4.631
REMARK INTRA:                  -0.090
REMARK UNBOUND:                -0.137
ROOT
ATOM      1  C4  DCM L   1      10.743  -3.541   4.619  1.00  0.00    +0.0339  A
ATOM      2  C5  DCM L   1      10.165  -2.963   5.770  1.00  0.00    -0.0513  A
ATOM      3  C6  DCM L   1       8.982  -3.464   6.313  1.00  0.00    -0.0598  A
ATOM      4  C7  DCM L   1       8.345  -4.548   5.718  1.00  0.00    -0.0419  A
ATOM      5  C8  DCM L   1       8.886  -5.135   4.574  1.00  0.00    +0.0597  A
ATOM      6 CL9  DCM L   1       8.037  -6.479   3.897  1.00  0.00    -0.0820 Cl
ATOM      7 C10  DCM L   1      10.080  -4.636   4.018  1.00  0.00    +0.0682  A
ATOM      8 CL11 DCM L   1      10.743  -5.386   2.599  1.00  0.00    -0.0815 Cl
ATOM      9 H18  DCM L   1      10.621  -2.103   6.262  1.00  0.00    +0.0623  H
ATOM     10 H19  DCM L   1       8.547  -3.005   7.201  1.00  0.00    +0.0618  H
ATOM     11 H20  DCM L   1       7.419  -4.929   6.148  1.00  0.00    +0.0633  H
ENDROOT
BRANCH 1 13
ATOM     12  C1  DCM L   1      13.261  -3.762   4.362  1.00  0.00    -0.0030  C
ATOM     13  C2  DCM L   1      12.020  -2.917   4.088  1.00  0.00    +0.1553  C
ATOM     14  N3  DCM L   1      12.265  -1.536   4.577  1.00  0.00    -0.1890  N
ATOM     15 H12  DCM L   1      13.475  -3.860   5.431  1.00  0.00    +0.0292  H
ATOM     16 H13  DCM L   1      14.145  -3.320   3.889  1.00  0.00    +0.0292  H
ATOM     17 H14  DCM L   1      13.138  -4.772   3.958  1.00  0.00    +0.0292  H
ATOM     18 H15  DCM L   1      11.929  -2.794   3.002  1.00  0.00    +0.1051  H
ATOM     19 H16  DCM L   1      11.436  -0.940   4.471  1.00  0.00    +0.4057 HD
ATOM     20 H17  DCM L   1      13.053  -1.084   4.096  1.00  0.00    +0.4057 HD
ENDBRANCH 1 13
TORSDOF 1
ENDMDL
MODEL 8
REMARK VINA RESULT:    -4.321     14.309     14.585
REMARK INTER + INTRA:          -4.710
REMARK INTER:                  -4.577
REMARK INTRA:                  -0.133
REMARK UNBOUND:                -0.137
ROOT
ATOM      1  C4  DCM L   1      12.223  -5.368   0.481  1.00  0.00    +0.0339  A
ATOM      2  C5  DCM L   1      13.197  -4.971  -0.459  1.00  0.00    -0.0513  A
ATOM      3  C6  DCM L   1      14.298  -4.204  -0.079  1.00  0.00    -0.0598  A
ATOM      4  C7  DCM L   1      14.451  -3.811   1.246  1.00  0.00    -0.0419  A
ATOM      5  C8  DCM L   1      13.500  -4.180   2.198  1.00  0.00    +0.0597  A
ATOM      6 CL9  DCM L   1      13.765  -3.656   3.824  1.00  0.00    -0.0820 Cl
ATOM      7 C10  DCM L   1      12.386  -4.954   1.824  1.00  0.00    +0.0682  A
ATOM      8 CL11 DCM L   1      11.218  -5.411   3.026  1.00  0.00    -0.0815 Cl
ATOM      9 H18  DCM L   1      13.112  -5.242  -1.512  1.00  0.00    +0.0623  H
ATOM     10 H19  DCM L   1      15.040  -3.902  -0.819  1.00  0.00    +0.0618  H
ATOM     11 H20  DCM L   1      15.313  -3.209   1.532  1.00  0.00    +0.0633  H
ENDROOT
BRANCH 1 13
ATOM     12  C1  DCM L   1      11.455  -7.558  -0.552  1.00  0.00    -0.0030  C
ATOM     13  C2  DCM L   1      11.050  -6.184  -0.027  1.00  0.00    +0.1553  C
ATOM     14  N3  DCM L   1      10.241  -5.495  -1.066  1.00  0.00    -0.1890  N
ATOM     15 H12  DCM L   1      12.098  -7.498  -1.435  1.00  0.00    +0.0292  H
ATOM     16 H13  DCM L   1      10.572  -8.146  -0.827  1.00  0.00    +0.0292  H
ATOM     17 H14  DCM L   1      12.001  -8.120   0.214  1.00  0.00    +0.0292  H
ATOM     18 H15  DCM L   1      10.340  -6.333   0.796  1.00  0.00    +0.1051  H
ATOM     19 H16  DCM L   1       9.993  -4.539  -0.785  1.00  0.00    +0.4057 HD
ATOM     20 H17  DCM L   1       9.376  -6.003  -1.289  1.00  0.00    +0.4057 HD
ENDBRANCH 1 13
TORSDOF 1
ENDMDL
MODEL 9
REMARK VINA RESULT:    -4.302     17.180     17.979
REMARK INTER + INTRA:          -4.691
REMARK INTER:                  -4.546
REMARK INTRA:                  -0.145
REMARK UNBOUND:                -0.137
ROOT
ATOM      1  C4  DCM L   1       6.309  -9.741 -10.008  1.00  0.00    +0.0339  A
ATOM      2  C5  DCM L   1       7.070  -8.971 -10.913  1.00  0.00    -0.0513  A
ATOM      3  C6  DCM L   1       8.198  -8.267 -10.493  1.00  0.00    -0.0598  A
ATOM      4  C7  DCM L   1       8.591  -8.310  -9.159  1.00  0.00    -0.0419  A
ATOM      5  C8  DCM L   1       7.854  -9.055  -8.238  1.00  0.00    +0.0597  A
ATOM      6 CL9  DCM L   1       8.409  -9.060  -6.601  1.00  0.00    -0.0820 Cl
ATOM      7 C10  DCM L   1       6.713  -9.768  -8.652  1.00  0.00    +0.0682  A
ATOM      8 CL11 DCM L   1       5.814 -10.697  -7.492  1.00  0.00    -0.0815 Cl
ATOM      9 H18  DCM L   1       6.793  -8.896 -11.965  1.00  0.00    +0.0623  H
ATOM     10 H19  DCM L   1       8.774  -7.674 -11.205  1.00  0.00    +0.0618  H
ATOM     11 H20  DCM L   1       9.471  -7.753  -8.840  1.00  0.00    +0.0633  H
ENDROOT
BRANCH 1 13
ATOM     12  C1  DCM L   1       5.250 -10.911 -11.999  1.00  0.00    -0.0030  C
ATOM     13  C2  DCM L   1       5.087 -10.457 -10.551  1.00  0.00    +0.1553  C
ATOM     14  N3  DCM L   1       3.829  -9.677 -10.434  1.00  0.00    -0.1890  N
ATOM     15 H12  DCM L   1       5.358 -10.071 -12.693  1.00  0.00    +0.0292  H
ATOM     16 H13  DCM L   1       4.383 -11.497 -12.324  1.00  0.00    +0.0292  H
ATOM     17 H14  DCM L   1       6.138 -11.543 -12.110  1.00  0.00    +0.0292  H
ATOM     18 H15  DCM L   1       4.897 -11.348  -9.939  1.00  0.00    +0.1051  H
ATOM     19 H16  DCM L   1       3.702  -9.296  -9.488  1.00  0.00    +0.4057 HD
ATOM     20 H17  DCM L   1       2.999 -10.233 -10.673  1.00  0.00    +0.4057 HD
ENDBRANCH 1 13
TORSDOF 1
ENDMDL
MODEL 10
REMARK VINA RESULT:    -4.283      2.801      4.387
REMARK INTER + INTRA:          -4.670
REMARK INTER:                  -4.559
REMARK INTRA:                  -0.111
REMARK UNBOUND:                -0.137
ROOT
ATOM      1  C4  DCM L   1       6.145   8.637  -3.506  1.00  0.00    +0.0339  A
ATOM      2  C5  DCM L   1       6.679   8.726  -4.809  1.00  0.00    -0.0513  A
ATOM      3  C6  DCM L   1       5.850   8.887  -5.919  1.00  0.00    -0.0598  A
ATOM      4  C7  DCM L   1       4.470   8.957  -5.757  1.00  0.00    -0.0419  A
ATOM      5  C8  DCM L   1       3.912   8.862  -4.481  1.00  0.00    +0.0597  A
ATOM      6 CL9  DCM L   1       2.190   8.962  -4.363  1.00  0.00    -0.0820 Cl
ATOM      7 C10  DCM L   1       4.740   8.699  -3.355  1.00  0.00    +0.0682  A
ATOM      8 CL11 DCM L   1       4.026   8.593  -1.775  1.00  0.00    -0.0815 Cl
ATOM      9 H18  DCM L   1       7.753   8.662  -4.987  1.00  0.00    +0.0623  H
ATOM     10 H19  DCM L   1       6.278   8.951  -6.920  1.00  0.00    +0.0618  H
ATOM     11 H20  DCM L   1       3.832   9.079  -6.631  1.00  0.00    +0.0633  H
ENDROOT
BRANCH 1 13
ATOM     12  C1  DCM L   1       8.562   8.776  -2.736  1.00  0.00    -0.0030  C
ATOM     13  C2  DCM L   1       7.121   8.443  -2.361  1.00  0.00    +0.1553  C
ATOM     14  N3  DCM L   1       7.086   7.084  -1.761  1.00  0.00    -0.1890  N
ATOM     15 H12  DCM L   1       8.963   8.105  -3.502  1.00  0.00    +0.0292  H
ATOM     16 H13  DCM L   1       9.218   8.707  -1.861  1.00  0.00    +0.0292  H
ATOM     17 H14  DCM L   1       8.635   9.798  -3.125  1.00  0.00    +0.0292  H
ATOM     18 H15  DCM L   1       6.828   9.099  -1.531  1.00  0.00    +0.1051  H
ATOM     19 H16  DCM L   1       6.127   6.787  -1.545  1.00  0.00    +0.4057 HD
ATOM     20 H17  DCM L   1       7.646   7.020  -0.902  1.00  0.00    +0.4057 HD
ENDBRANCH 1 13
TORSDOF 1
ENDMDL
MODEL 11
REMARK VINA RESULT:    -4.087      1.959      2.868
REMARK INTER + INTRA:          -4.463
REMARK INTER:                  -4.409
REMARK INTRA:                  -0.053
REMARK UNBOUND:                -0.137
ROOT
ATOM      1  C4  DCM L   1       7.377   6.833  -2.966  1.00  0.00    +0.0339  A
ATOM      2  C5  DCM L   1       7.385   8.005  -3.753  1.00  0.00    -0.0513  A
ATOM      3  C6  DCM L   1       8.389   8.962  -3.613  1.00  0.00    -0.0598  A
ATOM      4  C7  DCM L   1       9.406   8.777  -2.681  1.00  0.00    -0.0419  A
ATOM      5  C8  DCM L   1       9.420   7.633  -1.882  1.00  0.00    +0.0597  A
ATOM      6 CL9  DCM L   1      10.719   7.475  -0.752  1.00  0.00    -0.0820 Cl
ATOM      7 C10  DCM L   1       8.411   6.662  -2.015  1.00  0.00    +0.0682  A
ATOM      8 CL11 DCM L   1       8.451   5.240  -1.017  1.00  0.00    -0.0815 Cl
ATOM      9 H18  DCM L   1       6.601   8.200  -4.485  1.00  0.00    +0.0623  H
ATOM     10 H19  DCM L   1       8.380   9.863  -4.226  1.00  0.00    +0.0618  H
ATOM     11 H20  DCM L   1      10.184   9.532  -2.577  1.00  0.00    +0.0633  H
ENDROOT
BRANCH 1 13
ATOM     12  C1  DCM L   1       6.669   4.553  -3.835  1.00  0.00    -0.0030  C
ATOM     13  C2  DCM L   1       6.234   5.858  -3.173  1.00  0.00    +0.1553  C
ATOM     14  N3  DCM L   1       5.090   6.422  -3.934  1.00  0.00    -0.1890  N
ATOM     15 H12  DCM L   1       7.038   4.703  -4.855  1.00  0.00    +0.0292  H
ATOM     16 H13  DCM L   1       5.834   3.846  -3.887  1.00  0.00    +0.0292  H
ATOM     17 H14  DCM L   1       7.472   4.077  -3.263  1.00  0.00    +0.0292  H
ATOM     18 H15  DCM L   1       5.798   5.611  -2.197  1.00  0.00    +0.1051  H
ATOM     19 H16  DCM L   1       4.797   7.333  -3.564  1.00  0.00    +0.4057 HD
ATOM     20 H17  DCM L   1       4.275   5.796  -3.938  1.00  0.00    +0.4057 HD
ENDBRANCH 1 13
TORSDOF 1
ENDMDL
