MODEL 1
REMARK VINA RESULT:    -5.183      0.000      0.000
REMARK INTER + INTRA:          -5.635
REMARK INTER:                  -5.486
REMARK INTRA:                  -0.149
REMARK UNBOUND:                -0.149
ROOT
ATOM      1  C4  24D L   1       6.297   7.941  -4.072  1.00  0.00    +0.0325  A
ATOM      2  C5  24D L   1       7.238   8.951  -3.787  1.00  0.00    -0.0500  A
ATOM      3  C6  24D L   1       8.332   8.696  -2.952  1.00  0.00    -0.0428  A
ATOM      4  C7  24D L   1       8.510   7.431  -2.399  1.00  0.00    +0.0424  A
ATOM      5 CL8  24D L   1       9.857   7.129  -1.377  1.00  0.00    -0.0835 Cl
ATOM      6  C9  24D L   1       7.607   6.412  -2.678  1.00  0.00    -0.0246  A
ATOM      7 C10  24D L   1       6.514   6.664  -3.510  1.00  0.00    +0.0513  A
ATOM      8 CL11 24D L   1       5.450   5.340  -3.835  1.00  0.00    -0.0830 Cl
ATOM      9 H18  24D L   1       7.158   9.952  -4.201  1.00  0.00    +0.0623  H
ATOM     10 H19  24D L   1       9.049   9.487  -2.737  1.00  0.00    +0.0632  H
ATOM     11 H20  24D L   1       7.760   5.423  -2.250  1.00  0.00    +0.0647  H
ENDROOT
BRANCH 1 13
ATOM     12  C1  24D L   1       5.531   8.962  -6.244  1.00  0.00    -0.0030  C
ATOM     13  C2  24D L   1       5.117   8.199  -4.989  1.00  0.00    +0.1552  C
ATOM     14  N3  24D L   1       4.013   8.962  -4.334  1.00  0.00    -0.1890  N
ATOM     15 H12  24D L   1       6.289   8.409  -6.810  1.00  0.00    +0.0292  H
ATOM     16 H13  24D L   1       4.673   9.121  -6.907  1.00  0.00    +0.0292  H
ATOM     17 H14  24D L   1       5.954   9.943  -6.000  1.00  0.00    +0.0292  H
ATOM     18 H15  24D L   1       4.635   7.258  -5.267  1.00  0.00    +0.1051  H
ATOM     19 H16  24D L   1       4.224   9.964  -4.265  1.00  0.00    +0.4057 HD
ATOM     20 H17  24D L   1       3.135   8.866  -4.862  1.00  0.00    +0.4057 HD
ENDBRANCH 1 13
TORSDOF 1
ENDMDL
MODEL 2
REMARK VINA RESULT:    -4.935      1.999      2.572
REMARK INTER + INTRA:          -5.372
REMARK INTER:                  -5.225
REMARK INTRA:                  -0.147
REMARK UNBOUND:                -0.149
ROOT
ATOM      1  C4  24D L   1       7.790   7.416  -2.456  1.00  0.00    +0.0325  A
ATOM      2  C5  24D L   1       8.347   8.634  -2.895  1.00  0.00    -0.0500  A
ATOM      3  C6  24D L   1       9.675   8.962  -2.602  1.00  0.00    -0.0428  A
ATOM      4  C7  24D L   1      10.471   8.078  -1.879  1.00  0.00    +0.0424  A
ATOM      5 CL8  24D L   1      12.100   8.490  -1.525  1.00  0.00    -0.0835 Cl
ATOM      6  C9  24D L   1       9.952   6.862  -1.448  1.00  0.00    -0.0246  A
ATOM      7 C10  24D L   1       8.626   6.532  -1.740  1.00  0.00    +0.0513  A
ATOM      8 CL11 24D L   1       8.061   4.990  -1.198  1.00  0.00    -0.0830 Cl
ATOM      9 H18  24D L   1       7.779   9.356  -3.475  1.00  0.00    +0.0623  H
ATOM     10 H19  24D L   1      10.091   9.909  -2.944  1.00  0.00    +0.0632  H
ATOM     11 H20  24D L   1      10.584   6.172  -0.893  1.00  0.00    +0.0647  H
ENDROOT
BRANCH 1 13
ATOM     12  C1  24D L   1       6.056   7.198  -4.270  1.00  0.00    -0.0030  C
ATOM     13  C2  24D L   1       6.358   7.041  -2.783  1.00  0.00    +0.1552  C
ATOM     14  N3  24D L   1       5.349   7.839  -2.025  1.00  0.00    -0.1890  N
ATOM     15 H12  24D L   1       6.719   6.572  -4.876  1.00  0.00    +0.0292  H
ATOM     16 H13  24D L   1       5.025   6.902  -4.494  1.00  0.00    +0.0292  H
ATOM     17 H14  24D L   1       6.188   8.234  -4.603  1.00  0.00    +0.0292  H
ATOM     18 H15  24D L   1       6.149   6.015  -2.467  1.00  0.00    +0.1051  H
ATOM     19 H16  24D L   1       5.229   8.781  -2.415  1.00  0.00    +0.4057 HD
ATOM     20 H17  24D L   1       4.429   7.379  -2.039  1.00  0.00    +0.4057 HD
ENDBRANCH 1 13
TORSDOF 1
ENDMDL
MODEL 3
REMARK VINA RESULT:    -4.850      2.718      4.208
REMARK INTER + INTRA:          -5.282
REMARK INTER:                  -5.342
REMARK INTRA:                   0.060
REMARK UNBOUND:                -0.149
ROOT
ATOM      1  C4  24D L   1       7.367   6.704  -2.797  1.00  0.00    +0.0325  A
ATOM      2  C5  24D L   1       7.598   8.062  -3.096  1.00  0.00    -0.0500  A
ATOM      3  C6  24D L   1       6.788   8.743  -4.011  1.00  0.00    -0.0428  A
ATOM      4  C7  24D L   1       5.729   8.086  -4.631  1.00  0.00    +0.0424  A
ATOM      5 CL8  24D L   1       4.739   8.932  -5.752  1.00  0.00    -0.0835 Cl
ATOM      6  C9  24D L   1       5.467   6.752  -4.342  1.00  0.00    -0.0246  A
ATOM      7 C10  24D L   1       6.275   6.070  -3.430  1.00  0.00    +0.0513  A
ATOM      8 CL11 24D L   1       5.870   4.422  -3.098  1.00  0.00    -0.0830 Cl
ATOM      9 H18  24D L   1       8.401   8.630  -2.632  1.00  0.00    +0.0623  H
ATOM     10 H19  24D L   1       6.981   9.791  -4.235  1.00  0.00    +0.0632  H
ATOM     11 H20  24D L   1       4.631   6.249  -4.824  1.00  0.00    +0.0647  H
ENDROOT
BRANCH 1 13
ATOM     12  C1  24D L   1       9.313   6.854  -1.204  1.00  0.00    -0.0030  C
ATOM     13  C2  24D L   1       8.227   5.960  -1.794  1.00  0.00    +0.1552  C
ATOM     14  N3  24D L   1       8.891   4.751  -2.366  1.00  0.00    -0.1890  N
ATOM     15 H12  24D L   1       8.878   7.725  -0.701  1.00  0.00    +0.0292  H
ATOM     16 H13  24D L   1       9.911   6.309  -0.466  1.00  0.00    +0.0292  H
ATOM     17 H14  24D L   1       9.994   7.229  -1.978  1.00  0.00    +0.0292  H
ATOM     18 H15  24D L   1       7.609   5.546  -0.993  1.00  0.00    +0.1051  H
ATOM     19 H16  24D L   1       9.707   4.993  -2.939  1.00  0.00    +0.4057 HD
ATOM     20 H17  24D L   1       9.213   4.120  -1.620  1.00  0.00    +0.4057 HD
ENDBRANCH 1 13
TORSDOF 1
ENDMDL
MODEL 4
REMARK VINA RESULT:    -4.566     14.481     15.974
REMARK INTER + INTRA:          -4.982
REMARK INTER:                  -4.855
REMARK INTRA:                  -0.127
REMARK UNBOUND:                -0.149
ROOT
ATOM      1  C4  24D L   1       9.149  -4.358   5.138  1.00  0.00    +0.0325  A
ATOM      2  C5  24D L   1       8.245  -4.402   6.219  1.00  0.00    -0.0500  A
ATOM      3  C6  24D L   1       7.868  -5.623   6.788  1.00  0.00    -0.0428  A
ATOM      4  C7  24D L   1       8.394  -6.816   6.299  1.00  0.00    +0.0424  A
ATOM      5 CL8  24D L   1       7.925  -8.309   7.006  1.00  0.00    -0.0835 Cl
ATOM      6  C9  24D L   1       9.301  -6.800   5.246  1.00  0.00    -0.0246  A
ATOM      7 C10  24D L   1       9.679  -5.582   4.675  1.00  0.00    +0.0513  A
ATOM      8 CL11 24D L   1      10.833  -5.640   3.390  1.00  0.00    -0.0830 Cl
ATOM      9 H18  24D L   1       7.813  -3.504   6.651  1.00  0.00    +0.0623  H
ATOM     10 H19  24D L   1       7.165  -5.643   7.620  1.00  0.00    +0.0632  H
ATOM     11 H20  24D L   1       9.715  -7.736   4.877  1.00  0.00    +0.0647  H
ENDROOT
BRANCH 1 13
ATOM     12  C1  24D L   1       9.272  -1.860   5.441  1.00  0.00    -0.0030  C
ATOM     13  C2  24D L   1       9.579  -3.040   4.524  1.00  0.00    +0.1552  C
ATOM     14  N3  24D L   1       8.944  -2.768   3.201  1.00  0.00    -0.1890  N
ATOM     15 H12  24D L   1       9.778  -1.968   6.407  1.00  0.00    +0.0292  H
ATOM     16 H13  24D L   1       9.610  -0.918   4.994  1.00  0.00    +0.0292  H
ATOM     17 H14  24D L   1       8.198  -1.772   5.642  1.00  0.00    +0.0292  H
ATOM     18 H15  24D L   1      10.646  -3.059   4.286  1.00  0.00    +0.1051  H
ATOM     19 H16  24D L   1       7.974  -2.447   3.296  1.00  0.00    +0.4057 HD
ATOM     20 H17  24D L   1       9.461  -2.042   2.686  1.00  0.00    +0.4057 HD
ENDBRANCH 1 13
TORSDOF 1
ENDMDL
MODEL 5
REMARK VINA RESULT:    -4.521      2.028      2.873
REMARK INTER + INTRA:          -4.934
REMARK INTER:                  -4.813
REMARK INTRA:                  -0.121
REMARK UNBOUND:                -0.149
ROOT
ATOM      1  C4  24D L   1       5.879   7.151  -3.940  1.00  0.00    +0.0325  A
ATOM      2  C5  24D L   1       5.479   5.823  -4.190  1.00  0.00    -0.0500  A
ATOM      3  C6  24D L   1       6.024   4.761  -3.462  1.00  0.00    -0.0428  A
ATOM      4  C7  24D L   1       6.966   5.006  -2.466  1.00  0.00    +0.0424  A
ATOM      5 CL8  24D L   1       7.628   3.694  -1.577  1.00  0.00    -0.0835 Cl
ATOM      6  C9  24D L   1       7.365   6.307  -2.186  1.00  0.00    -0.0246  A
ATOM      7 C10  24D L   1       6.823   7.370  -2.913  1.00  0.00    +0.0513  A
ATOM      8 CL11 24D L   1       7.346   8.962  -2.488  1.00  0.00    -0.0830 Cl
ATOM      9 H18  24D L   1       4.738   5.573  -4.945  1.00  0.00    +0.0623  H
ATOM     10 H19  24D L   1       5.708   3.739  -3.669  1.00  0.00    +0.0632  H
ATOM     11 H20  24D L   1       8.094   6.490  -1.399  1.00  0.00    +0.0647  H
ENDROOT
BRANCH 1 13
ATOM     12  C1  24D L   1       3.999   7.915  -5.433  1.00  0.00    -0.0030  C
ATOM     13  C2  24D L   1       5.282   8.313  -4.710  1.00  0.00    +0.1552  C
ATOM     14  N3  24D L   1       6.215   8.894  -5.721  1.00  0.00    -0.1890  N
ATOM     15 H12  24D L   1       3.245   7.551  -4.727  1.00  0.00    +0.0292  H
ATOM     16 H13  24D L   1       3.568   8.770  -5.966  1.00  0.00    +0.0292  H
ATOM     17 H14  24D L   1       4.177   7.118  -6.164  1.00  0.00    +0.0292  H
ATOM     18 H15  24D L   1       5.087   9.156  -4.042  1.00  0.00    +0.1051  H
ATOM     19 H16  24D L   1       6.275   8.318  -6.568  1.00  0.00    +0.4057 HD
ATOM     20 H17  24D L   1       5.909   9.834  -6.008  1.00  0.00    +0.4057 HD
ENDBRANCH 1 13
TORSDOF 1
ENDMDL
MODEL 6
REMARK VINA RESULT:    -4.381     17.250     18.153
REMARK INTER + INTRA:          -4.786
REMARK INTER:                  -4.636
REMARK INTRA:                  -0.150
REMARK UNBOUND:                -0.149
ROOT
ATOM      1  C4  24D L   1       6.439  -9.582 -10.234  1.00  0.00    +0.0325  A
ATOM      2  C5  24D L   1       7.211  -9.014 -11.268  1.00  0.00    -0.0500  A
ATOM      3  C6  24D L   1       8.335  -8.233 -10.977  1.00  0.00    -0.0428  A
ATOM      4  C7  24D L   1       8.714  -8.017  -9.655  1.00  0.00    +0.0424  A
ATOM      5 CL8  24D L   1      10.096  -7.057  -9.309  1.00  0.00    -0.0835 Cl
ATOM      6  C9  24D L   1       7.982  -8.580  -8.616  1.00  0.00    -0.0246  A
ATOM      7 C10  24D L   1       6.859  -9.360  -8.904  1.00  0.00    +0.0513  A
ATOM      8 CL11 24D L   1       6.016 -10.051  -7.562  1.00  0.00    -0.0830 Cl
ATOM      9 H18  24D L   1       6.972  -9.160 -12.317  1.00  0.00    +0.0623  H
ATOM     10 H19  24D L   1       8.919  -7.797 -11.786  1.00  0.00    +0.0632  H
ATOM     11 H20  24D L   1       8.291  -8.415  -7.586  1.00  0.00    +0.0647  H
ENDROOT
BRANCH 1 13
ATOM     12  C1  24D L   1       5.304 -11.056 -11.932  1.00  0.00    -0.0030  C
ATOM     13  C2  24D L   1       5.230 -10.446 -10.536  1.00  0.00    +0.1552  C
ATOM     14  N3  24D L   1       3.935  -9.710 -10.426  1.00  0.00    -0.1890  N
ATOM     15 H12  24D L   1       6.201 -11.674 -12.046  1.00  0.00    +0.0292  H
ATOM     16 H13  24D L   1       4.435 -11.694 -12.127  1.00  0.00    +0.0292  H
ATOM     17 H14  24D L   1       5.335 -10.284 -12.710  1.00  0.00    +0.0292  H
ATOM     18 H15  24D L   1       5.128 -11.237  -9.788  1.00  0.00    +0.1051  H
ATOM     19 H16  24D L   1       3.759  -9.114 -11.244  1.00  0.00    +0.4057 HD
ATOM     20 H17  24D L   1       3.145 -10.364 -10.344  1.00  0.00    +0.4057 HD
ENDBRANCH 1 13
TORSDOF 1
ENDMDL
MODEL 7
REMARK VINA RESULT:    -4.319      2.511      3.128
REMARK INTER + INTRA:          -4.720
REMARK INTER:                  -4.659
REMARK INTRA:                  -0.061
REMARK UNBOUND:                -0.149
ROOT
ATOM      1  C4  24D L   1       6.969   6.002  -2.705  1.00  0.00    +0.0325  A
ATOM      2  C5  24D L   1       8.112   5.180  -2.630  1.00  0.00    -0.0500  A
ATOM      3  C6  24D L   1       9.323   5.679  -2.139  1.00  0.00    -0.0428  A
ATOM      4  C7  24D L   1       9.411   6.998  -1.703  1.00  0.00    +0.0424  A
ATOM      5 CL8  24D L   1      10.903   7.600  -1.100  1.00  0.00    -0.0835 Cl
ATOM      6  C9  24D L   1       8.296   7.826  -1.748  1.00  0.00    -0.0246  A
ATOM      7 C10  24D L   1       7.085   7.331  -2.239  1.00  0.00    +0.0513  A
ATOM      8 CL11 24D L   1       5.734   8.409  -2.237  1.00  0.00    -0.0830 Cl
ATOM      9 H18  24D L   1       8.099   4.140  -2.943  1.00  0.00    +0.0623  H
ATOM     10 H19  24D L   1      10.199   5.033  -2.091  1.00  0.00    +0.0632  H
ATOM     11 H20  24D L   1       8.370   8.853  -1.396  1.00  0.00    +0.0647  H
ENDROOT
BRANCH 1 13
ATOM     12  C1  24D L   1       5.679   3.955  -3.404  1.00  0.00    -0.0030  C
ATOM     13  C2  24D L   1       5.646   5.469  -3.218  1.00  0.00    +0.1552  C
ATOM     14  N3  24D L   1       5.225   6.080  -4.514  1.00  0.00    -0.1890  N
ATOM     15 H12  24D L   1       5.909   3.446  -2.462  1.00  0.00    +0.0292  H
ATOM     16 H13  24D L   1       4.710   3.582  -3.754  1.00  0.00    +0.0292  H
ATOM     17 H14  24D L   1       6.439   3.653  -4.135  1.00  0.00    +0.0292  H
ATOM     18 H15  24D L   1       4.833   5.744  -2.540  1.00  0.00    +0.1051  H
ATOM     19 H16  24D L   1       5.734   5.684  -5.312  1.00  0.00    +0.4057 HD
ATOM     20 H17  24D L   1       4.221   5.930  -4.683  1.00  0.00    +0.4057 HD
ENDBRANCH 1 13
TORSDOF 1
ENDMDL
MODEL 8
REMARK VINA RESULT:    -4.301      2.866      4.558
REMARK INTER + INTRA:          -4.701
REMARK INTER:                  -4.550
REMARK INTRA:                  -0.151
REMARK UNBOUND:                -0.149
ROOT
ATOM      1  C4  24D L   1       8.860   7.539  -2.179  1.00  0.00    +0.0325  A
ATOM      2  C5  24D L   1       8.556   8.616  -3.036  1.00  0.00    -0.0500  A
ATOM      3  C6  24D L   1       7.395   8.607  -3.816  1.00  0.00    -0.0428  A
ATOM      4  C7  24D L   1       6.513   7.532  -3.745  1.00  0.00    +0.0424  A
ATOM      5 CL8  24D L   1       5.090   7.531  -4.707  1.00  0.00    -0.0835 Cl
ATOM      6  C9  24D L   1       6.778   6.464  -2.896  1.00  0.00    -0.0246  A
ATOM      7 C10  24D L   1       7.937   6.471  -2.116  1.00  0.00    +0.0513  A
ATOM      8 CL11 24D L   1       8.184   5.123  -1.062  1.00  0.00    -0.0830 Cl
ATOM      9 H18  24D L   1       9.200   9.487  -3.122  1.00  0.00    +0.0623  H
ATOM     10 H19  24D L   1       7.176   9.445  -4.477  1.00  0.00    +0.0632  H
ATOM     11 H20  24D L   1       6.078   5.633  -2.839  1.00  0.00    +0.0647  H
ENDROOT
BRANCH 1 13
ATOM     12  C1  24D L   1      10.599   8.962  -1.042  1.00  0.00    -0.0030  C
ATOM     13  C2  24D L   1      10.105   7.545  -1.315  1.00  0.00    +0.1552  C
ATOM     14  N3  24D L   1      11.239   6.771  -1.905  1.00  0.00    -0.1890  N
ATOM     15 H12  24D L   1       9.831   9.557  -0.536  1.00  0.00    +0.0292  H
ATOM     16 H13  24D L   1      11.486   8.950  -0.398  1.00  0.00    +0.0292  H
ATOM     17 H14  24D L   1      10.863   9.485  -1.968  1.00  0.00    +0.0292  H
ATOM     18 H15  24D L   1       9.919   7.026  -0.370  1.00  0.00    +0.1051  H
ATOM     19 H16  24D L   1      11.712   7.290  -2.653  1.00  0.00    +0.4057 HD
ATOM     20 H17  24D L   1      11.944   6.547  -1.190  1.00  0.00    +0.4057 HD
ENDBRANCH 1 13
TORSDOF 1
ENDMDL
MODEL 9
REMARK VINA RESULT:    -4.131     14.044     14.802
REMARK INTER + INTRA:          -4.521
REMARK INTER:                  -4.374
REMARK INTRA:                  -0.146
REMARK UNBOUND:                -0.149
ROOT
ATOM      1  C4  24D L   1      10.308  -3.599   4.365  1.00  0.00    +0.0325  A
ATOM      2  C5  24D L   1       9.586  -4.772   4.062  1.00  0.00    -0.0500  A
ATOM      3  C6  24D L   1      10.058  -5.677   3.106  1.00  0.00    -0.0428  A
ATOM      4  C7  24D L   1      11.261  -5.435   2.447  1.00  0.00    +0.0424  A
ATOM      5 CL8  24D L   1      11.831  -6.554   1.275  1.00  0.00    -0.0835 Cl
ATOM      6  C9  24D L   1      12.002  -4.297   2.739  1.00  0.00    -0.0246  A
ATOM      7 C10  24D L   1      11.532  -3.390   3.693  1.00  0.00    +0.0513  A
ATOM      8 CL11 24D L   1      12.523  -2.013   4.025  1.00  0.00    -0.0830 Cl
ATOM      9 H18  24D L   1       8.649  -5.019   4.554  1.00  0.00    +0.0623  H
ATOM     10 H19  24D L   1       9.487  -6.576   2.878  1.00  0.00    +0.0632  H
ATOM     11 H20  24D L   1      12.946  -4.121   2.227  1.00  0.00    +0.0647  H
ENDROOT
BRANCH 1 13
ATOM     12  C1  24D L   1       8.850  -3.276   6.394  1.00  0.00    -0.0030  C
ATOM     13  C2  24D L   1       9.816  -2.620   5.413  1.00  0.00    +0.1552  C
ATOM     14  N3  24D L   1       9.136  -1.424   4.831  1.00  0.00    -0.1890  N
ATOM     15 H12  24D L   1       9.323  -4.118   6.910  1.00  0.00    +0.0292  H
ATOM     16 H13  24D L   1       8.522  -2.561   7.157  1.00  0.00    +0.0292  H
ATOM     17 H14  24D L   1       7.958  -3.661   5.887  1.00  0.00    +0.0292  H
ATOM     18 H15  24D L   1      10.660  -2.184   5.955  1.00  0.00    +0.1051  H
ATOM     19 H16  24D L   1       8.179  -1.634   4.527  1.00  0.00    +0.4057 HD
ATOM     20 H17  24D L   1       9.082  -0.660   5.519  1.00  0.00    +0.4057 HD
ENDBRANCH 1 13
TORSDOF 1
ENDMDL
MODEL 10
REMARK VINA RESULT:    -4.081     16.714     17.946
REMARK INTER + INTRA:          -4.469
REMARK INTER:                  -4.316
REMARK INTRA:                  -0.153
REMARK UNBOUND:                -0.149
ROOT
ATOM      1  C4  24D L   1       8.161  -8.568  -8.790  1.00  0.00    +0.0325  A
ATOM      2  C5  24D L   1       8.161  -8.404 -10.190  1.00  0.00    -0.0500  A
ATOM      3  C6  24D L   1       7.116  -8.908 -10.970  1.00  0.00    -0.0428  A
ATOM      4  C7  24D L   1       6.050  -9.572 -10.369  1.00  0.00    +0.0424  A
ATOM      5 CL8  24D L   1       4.772 -10.187 -11.337  1.00  0.00    -0.0835 Cl
ATOM      6  C9  24D L   1       6.016  -9.733  -8.989  1.00  0.00    -0.0246  A
ATOM      7 C10  24D L   1       7.058  -9.231  -8.207  1.00  0.00    +0.0513  A
ATOM      8 CL11 24D L   1       6.931  -9.442  -6.495  1.00  0.00    -0.0830 Cl
ATOM      9 H18  24D L   1       8.958  -7.883 -10.712  1.00  0.00    +0.0623  H
ATOM     10 H19  24D L   1       7.132  -8.778 -12.052  1.00  0.00    +0.0632  H
ATOM     11 H20  24D L   1       5.174 -10.244  -8.526  1.00  0.00    +0.0647  H
ENDROOT
BRANCH 1 13
ATOM     12  C1  24D L   1       9.948  -6.805  -8.583  1.00  0.00    -0.0030  C
ATOM     13  C2  24D L   1       9.278  -8.010  -7.930  1.00  0.00    +0.1552  C
ATOM     14  N3  24D L   1      10.342  -9.011  -7.619  1.00  0.00    -0.1890  N
ATOM     15 H12  24D L   1       9.225  -6.002  -8.766  1.00  0.00    +0.0292  H
ATOM     16 H13  24D L   1      10.738  -6.400  -7.940  1.00  0.00    +0.0292  H
ATOM     17 H14  24D L   1      10.400  -7.066  -9.547  1.00  0.00    +0.0292  H
ATOM     18 H15  24D L   1       8.901  -7.736  -6.941  1.00  0.00    +0.1051  H
ATOM     19 H16  24D L   1      10.977  -9.159  -8.411  1.00  0.00    +0.4057 HD
ATOM     20 H17  24D L   1      10.912  -8.707  -6.818  1.00  0.00    +0.4057 HD
ENDBRANCH 1 13
TORSDOF 1
ENDMDL
MODEL 11
REMARK VINA RESULT:    -4.061     17.582     18.297
REMARK INTER + INTRA:          -4.447
REMARK INTER:                  -4.328
REMARK INTRA:                  -0.119
REMARK UNBOUND:                -0.149
ROOT
ATOM      1  C4  24D L   1       6.401  -9.647  -9.512  1.00  0.00    +0.0325  A
ATOM      2  C5  24D L   1       5.764 -10.387  -8.495  1.00  0.00    -0.0500  A
ATOM      3  C6  24D L   1       6.273 -10.399  -7.192  1.00  0.00    -0.0428  A
ATOM      4  C7  24D L   1       7.414  -9.665  -6.879  1.00  0.00    +0.0424  A
ATOM      5 CL8  24D L   1       8.030  -9.687  -5.276  1.00  0.00    -0.0835 Cl
ATOM      6  C9  24D L   1       8.052  -8.913  -7.858  1.00  0.00    -0.0246  A
ATOM      7 C10  24D L   1       7.546  -8.900  -9.161  1.00  0.00    +0.0513  A
ATOM      8 CL11 24D L   1       8.375  -7.917 -10.317  1.00  0.00    -0.0830 Cl
ATOM      9 H18  24D L   1       4.863 -10.967  -8.676  1.00  0.00    +0.0623  H
ATOM     10 H19  24D L   1       5.773 -10.979  -6.417  1.00  0.00    +0.0632  H
ATOM     11 H20  24D L   1       8.937  -8.334  -7.603  1.00  0.00    +0.0647  H
ENDROOT
BRANCH 1 13
ATOM     12  C1  24D L   1       4.408 -10.108 -10.982  1.00  0.00    -0.0030  C
ATOM     13  C2  24D L   1       5.849  -9.611 -10.923  1.00  0.00    +0.1552  C
ATOM     14  N3  24D L   1       6.650 -10.417 -11.893  1.00  0.00    -0.1890  N
ATOM     15 H12  24D L   1       3.755  -9.502 -10.345  1.00  0.00    +0.0292  H
ATOM     16 H13  24D L   1       4.016 -10.055 -12.004  1.00  0.00    +0.0292  H
ATOM     17 H14  24D L   1       4.324 -11.148 -10.643  1.00  0.00    +0.0292  H
ATOM     18 H15  24D L   1       5.911  -8.599 -11.333  1.00  0.00    +0.1051  H
ATOM     19 H16  24D L   1       6.463 -11.422 -11.807  1.00  0.00    +0.4057 HD
ATOM     20 H17  24D L   1       6.439 -10.144 -12.862  1.00  0.00    +0.4057 HD
ENDBRANCH 1 13
TORSDOF 1
ENDMDL
MODEL 12
REMARK VINA RESULT:    -4.026     16.694     17.321
REMARK INTER + INTRA:          -4.410
REMARK INTER:                  -4.254
REMARK INTRA:                  -0.155
REMARK UNBOUND:                -0.149
ROOT
ATOM      1  C4  24D L   1       9.243  -7.935  -8.893  1.00  0.00    +0.0325  A
ATOM      2  C5  24D L   1       9.255  -8.261  -7.521  1.00  0.00    -0.0500  A
ATOM      3  C6  24D L   1       8.215  -9.004  -6.953  1.00  0.00    -0.0428  A
ATOM      4  C7  24D L   1       7.156  -9.444  -7.742  1.00  0.00    +0.0424  A
ATOM      5 CL8  24D L   1       5.885 -10.357  -7.033  1.00  0.00    -0.0835 Cl
ATOM      6  C9  24D L   1       7.128  -9.152  -9.100  1.00  0.00    -0.0246  A
ATOM      7 C10  24D L   1       8.164  -8.409  -9.671  1.00  0.00    +0.0513  A
ATOM      8 CL11 24D L   1       8.076  -8.112 -11.372  1.00  0.00    -0.0830 Cl
ATOM      9 H18  24D L   1      10.061  -7.957  -6.860  1.00  0.00    +0.0623  H
ATOM     10 H19  24D L   1       8.235  -9.245  -5.890  1.00  0.00    +0.0632  H
ATOM     11 H20  24D L   1       6.302  -9.509  -9.712  1.00  0.00    +0.0647  H
ENDROOT
BRANCH 1 13
ATOM     12  C1  24D L   1      11.619  -8.002  -9.728  1.00  0.00    -0.0030  C
ATOM     13  C2  24D L   1      10.373  -7.145  -9.525  1.00  0.00    +0.1552  C
ATOM     14  N3  24D L   1      10.769  -5.942  -8.734  1.00  0.00    -0.1890  N
ATOM     15 H12  24D L   1      11.405  -8.864 -10.369  1.00  0.00    +0.0292  H
ATOM     16 H13  24D L   1      12.418  -7.424 -10.206  1.00  0.00    +0.0292  H
ATOM     17 H14  24D L   1      12.005  -8.387  -8.777  1.00  0.00    +0.0292  H
ATOM     18 H15  24D L   1      10.054  -6.719 -10.480  1.00  0.00    +0.1051  H
ATOM     19 H16  24D L   1      11.347  -6.187  -7.922  1.00  0.00    +0.4057 HD
ATOM     20 H17  24D L   1      11.309  -5.283  -9.312  1.00  0.00    +0.4057 HD
ENDBRANCH 1 13
TORSDOF 1
ENDMDL
