MODEL 1
REMARK VINA RESULT:    -4.772      0.000      0.000
REMARK INTER + INTRA:          -5.074
REMARK INTER:                  -5.051
REMARK INTRA:                  -0.023
REMARK UNBOUND:                -0.023
ROOT
ATOM      1  C3  4CL L   1       7.698   5.824  -3.058  1.00  0.00    +0.0114  A
ATOM      2  C4  4CL L   1       6.413   5.300  -3.277  1.00  0.00    -0.0517  A
ATOM      3  C5  4CL L   1       5.439   6.065  -3.927  1.00  0.00    -0.0429  A
ATOM      4  C6  4CL L   1       5.740   7.355  -4.358  1.00  0.00    +0.0410  A
ATOM      5 CL7  4CL L   1       4.542   8.294  -5.152  1.00  0.00    -0.0835 Cl
ATOM      6  C8  4CL L   1       7.010   7.886  -4.146  1.00  0.00    -0.0429  A
ATOM      7  C9  4CL L   1       7.986   7.126  -3.497  1.00  0.00    -0.0517  A
ATOM      8 H14  4CL L   1       6.147   4.290  -2.966  1.00  0.00    +0.0623  H
ATOM      9 H15  4CL L   1       4.448   5.650  -4.103  1.00  0.00    +0.0632  H
ATOM     10 H16  4CL L   1       7.244   8.892  -4.493  1.00  0.00    +0.0632  H
ATOM     11 H17  4CL L   1       8.974   7.568  -3.360  1.00  0.00    +0.0623  H
ENDROOT
BRANCH 1 13
ATOM     12  N1  4CL L   1       8.123   4.271  -1.196  1.00  0.00    -0.1914  N
ATOM     13  C2  4CL L   1       8.730   5.022  -2.319  1.00  0.00    +0.1466  C
ATOM     14 H10  4CL L   1       7.392   3.638  -1.545  1.00  0.00    +0.4054 HD
ATOM     15 H11  4CL L   1       7.666   4.917  -0.541  1.00  0.00    +0.4054 HD
ATOM     16 H12  4CL L   1       9.508   5.663  -1.891  1.00  0.00    +0.1017  H
ATOM     17 H13  4CL L   1       9.213   4.287  -2.971  1.00  0.00    +0.1017  H
ENDBRANCH 1 13
TORSDOF 1
ENDMDL
MODEL 2
REMARK VINA RESULT:    -4.594      2.553      3.328
REMARK INTER + INTRA:          -4.886
REMARK INTER:                  -4.860
REMARK INTRA:                  -0.026
REMARK UNBOUND:                -0.023
ROOT
ATOM      1  C3  4CL L   1       8.938   7.186  -2.014  1.00  0.00    +0.0114  A
ATOM      2  C4  4CL L   1       8.140   7.431  -3.144  1.00  0.00    -0.0517  A
ATOM      3  C5  4CL L   1       7.236   6.465  -3.596  1.00  0.00    -0.0429  A
ATOM      4  C6  4CL L   1       7.126   5.249  -2.925  1.00  0.00    +0.0410  A
ATOM      5 CL7  4CL L   1       6.019   4.061  -3.484  1.00  0.00    -0.0835 Cl
ATOM      6  C8  4CL L   1       7.911   4.992  -1.804  1.00  0.00    -0.0429  A
ATOM      7  C9  4CL L   1       8.816   5.955  -1.349  1.00  0.00    -0.0517  A
ATOM      8 H14  4CL L   1       8.190   8.377  -3.684  1.00  0.00    +0.0623  H
ATOM      9 H15  4CL L   1       6.614   6.664  -4.466  1.00  0.00    +0.0632  H
ATOM     10 H16  4CL L   1       7.814   4.044  -1.278  1.00  0.00    +0.0632  H
ATOM     11 H17  4CL L   1       9.404   5.727  -0.460  1.00  0.00    +0.0623  H
ENDROOT
BRANCH 1 13
ATOM     12  N1  4CL L   1      10.953   7.596  -0.663  1.00  0.00    -0.1914  N
ATOM     13  C2  4CL L   1       9.941   8.205  -1.556  1.00  0.00    +0.1466  C
ATOM     14 H10  4CL L   1      11.445   6.835  -1.149  1.00  0.00    +0.4054 HD
ATOM     15 H11  4CL L   1      10.499   7.177   0.158  1.00  0.00    +0.4054 HD
ATOM     16 H12  4CL L   1       9.465   9.015  -0.993  1.00  0.00    +0.1017  H
ATOM     17 H13  4CL L   1      10.482   8.646  -2.398  1.00  0.00    +0.1017  H
ENDBRANCH 1 13
TORSDOF 1
ENDMDL
MODEL 3
REMARK VINA RESULT:    -4.426     12.072     12.665
REMARK INTER + INTRA:          -4.707
REMARK INTER:                  -4.687
REMARK INTRA:                  -0.021
REMARK UNBOUND:                -0.023
ROOT
ATOM      1  C3  4CL L   1      10.457   7.207 -14.717  1.00  0.00    +0.0114  A
ATOM      2  C4  4CL L   1      11.458   6.325 -15.157  1.00  0.00    -0.0517  A
ATOM      3  C5  4CL L   1      12.794   6.735 -15.201  1.00  0.00    -0.0429  A
ATOM      4  C6  4CL L   1      13.138   8.026 -14.808  1.00  0.00    +0.0410  A
ATOM      5 CL7  4CL L   1      14.779   8.529 -14.865  1.00  0.00    -0.0835 Cl
ATOM      6  C8  4CL L   1      12.157   8.911 -14.369  1.00  0.00    -0.0429  A
ATOM      7  C9  4CL L   1      10.820   8.506 -14.325  1.00  0.00    -0.0517  A
ATOM      8 H14  4CL L   1      11.226   5.303 -15.459  1.00  0.00    +0.0623  H
ATOM      9 H15  4CL L   1      13.566   6.044 -15.534  1.00  0.00    +0.0632  H
ATOM     10 H16  4CL L   1      12.432   9.916 -14.054  1.00  0.00    +0.0632  H
ATOM     11 H17  4CL L   1      10.079   9.219 -13.962  1.00  0.00    +0.0623  H
ENDROOT
BRANCH 1 13
ATOM     12  N1  4CL L   1       8.857   5.432 -14.130  1.00  0.00    -0.1914  N
ATOM     13  C2  4CL L   1       9.017   6.783 -14.713  1.00  0.00    +0.1466  C
ATOM     14 H10  4CL L   1       9.214   5.415 -13.166  1.00  0.00    +0.4054 HD
ATOM     15 H11  4CL L   1       9.409   4.747 -14.661  1.00  0.00    +0.4054 HD
ATOM     16 H12  4CL L   1       8.606   6.744 -15.728  1.00  0.00    +0.1017  H
ATOM     17 H13  4CL L   1       8.397   7.462 -14.120  1.00  0.00    +0.1017  H
ENDBRANCH 1 13
TORSDOF 1
ENDMDL
MODEL 4
REMARK VINA RESULT:    -4.267     13.596     15.096
REMARK INTER + INTRA:          -4.540
REMARK INTER:                  -4.514
REMARK INTRA:                  -0.026
REMARK UNBOUND:                -0.023
ROOT
ATOM      1  C3  4CL L   1       8.777  -4.535   4.950  1.00  0.00    +0.0114  A
ATOM      2  C4  4CL L   1       8.535  -5.401   3.870  1.00  0.00    -0.0517  A
ATOM      3  C5  4CL L   1       8.109  -6.713   4.097  1.00  0.00    -0.0429  A
ATOM      4  C6  4CL L   1       7.925  -7.169   5.400  1.00  0.00    +0.0410  A
ATOM      5 CL7  4CL L   1       7.405  -8.783   5.677  1.00  0.00    -0.0835 Cl
ATOM      6  C8  4CL L   1       8.162  -6.322   6.480  1.00  0.00    -0.0429  A
ATOM      7  C9  4CL L   1       8.589  -5.010   6.258  1.00  0.00    -0.0517  A
ATOM      8 H14  4CL L   1       8.655  -5.072   2.838  1.00  0.00    +0.0623  H
ATOM      9 H15  4CL L   1       7.913  -7.376   3.256  1.00  0.00    +0.0632  H
ATOM     10 H16  4CL L   1       8.008  -6.681   7.496  1.00  0.00    +0.0632  H
ATOM     11 H17  4CL L   1       8.751  -4.370   7.126  1.00  0.00    +0.0623  H
ENDROOT
BRANCH 1 13
ATOM     12  N1  4CL L   1       9.102  -2.744   3.294  1.00  0.00    -0.1914  N
ATOM     13  C2  4CL L   1       9.279  -3.140   4.710  1.00  0.00    +0.1466  C
ATOM     14 H10  4CL L   1       8.109  -2.794   3.032  1.00  0.00    +0.4054 HD
ATOM     15 H11  4CL L   1       9.603  -3.394   2.676  1.00  0.00    +0.4054 HD
ATOM     16 H12  4CL L   1      10.347  -3.053   4.935  1.00  0.00    +0.1017  H
ATOM     17 H13  4CL L   1       8.740  -2.407   5.317  1.00  0.00    +0.1017  H
ENDBRANCH 1 13
TORSDOF 1
ENDMDL
MODEL 5
REMARK VINA RESULT:    -4.246     13.596     15.101
REMARK INTER + INTRA:          -4.517
REMARK INTER:                  -4.491
REMARK INTRA:                  -0.026
REMARK UNBOUND:                -0.023
ROOT
ATOM      1  C3  4CL L   1       8.814  -4.546   4.945  1.00  0.00    +0.0114  A
ATOM      2  C4  4CL L   1       8.568  -4.994   6.253  1.00  0.00    -0.0517  A
ATOM      3  C5  4CL L   1       8.127  -6.301   6.483  1.00  0.00    -0.0429  A
ATOM      4  C6  4CL L   1       7.927  -7.166   5.410  1.00  0.00    +0.0410  A
ATOM      5 CL7  4CL L   1       7.381  -8.770   5.693  1.00  0.00    -0.0835 Cl
ATOM      6  C8  4CL L   1       8.166  -6.735   4.107  1.00  0.00    -0.0429  A
ATOM      7  C9  4CL L   1       8.606  -5.430   3.873  1.00  0.00    -0.0517  A
ATOM      8 H14  4CL L   1       8.729  -4.349   7.117  1.00  0.00    +0.0623  H
ATOM      9 H15  4CL L   1       7.948  -6.645   7.500  1.00  0.00    +0.0632  H
ATOM     10 H16  4CL L   1       8.016  -7.418   3.272  1.00  0.00    +0.0632  H
ATOM     11 H17  4CL L   1       8.798  -5.130   2.842  1.00  0.00    +0.0623  H
ENDROOT
BRANCH 1 13
ATOM     12  N1  4CL L   1       9.071  -2.762   3.269  1.00  0.00    -0.1914  N
ATOM     13  C2  4CL L   1       9.243  -3.129   4.693  1.00  0.00    +0.1466  C
ATOM     14 H10  4CL L   1       8.087  -2.870   2.990  1.00  0.00    +0.4054 HD
ATOM     15 H11  4CL L   1       9.618  -3.392   2.670  1.00  0.00    +0.4054 HD
ATOM     16 H12  4CL L   1      10.300  -2.980   4.936  1.00  0.00    +0.1017  H
ATOM     17 H13  4CL L   1       8.654  -2.419   5.280  1.00  0.00    +0.1017  H
ENDBRANCH 1 13
TORSDOF 1
ENDMDL
MODEL 6
REMARK VINA RESULT:    -4.212      2.602      3.318
REMARK INTER + INTRA:          -4.481
REMARK INTER:                  -4.455
REMARK INTRA:                  -0.027
REMARK UNBOUND:                -0.023
ROOT
ATOM      1  C3  4CL L   1       6.814   5.967  -3.222  1.00  0.00    +0.0114  A
ATOM      2  C4  4CL L   1       7.584   5.597  -2.106  1.00  0.00    -0.0517  A
ATOM      3  C5  4CL L   1       8.604   6.433  -1.641  1.00  0.00    -0.0429  A
ATOM      4  C6  4CL L   1       8.862   7.640  -2.287  1.00  0.00    +0.0410  A
ATOM      5 CL7  4CL L   1      10.118   8.664  -1.716  1.00  0.00    -0.0835 Cl
ATOM      6  C8  4CL L   1       8.107   8.019  -3.394  1.00  0.00    -0.0429  A
ATOM      7  C9  4CL L   1       7.087   7.186  -3.862  1.00  0.00    -0.0517  A
ATOM      8 H14  4CL L   1       7.400   4.667  -1.569  1.00  0.00    +0.0623  H
ATOM      9 H15  4CL L   1       9.190   6.145  -0.771  1.00  0.00    +0.0632  H
ATOM     10 H16  4CL L   1       8.307   8.968  -3.889  1.00  0.00    +0.0632  H
ATOM     11 H17  4CL L   1       6.506   7.521  -4.723  1.00  0.00    +0.0623  H
ENDROOT
BRANCH 1 13
ATOM     12  N1  4CL L   1       5.783   3.738  -3.062  1.00  0.00    -0.1914  N
ATOM     13  C2  4CL L   1       5.750   5.049  -3.750  1.00  0.00    +0.1466  C
ATOM     14 H10  4CL L   1       5.647   3.864  -2.051  1.00  0.00    +0.4054 HD
ATOM     15 H11  4CL L   1       6.702   3.295  -3.184  1.00  0.00    +0.4054 HD
ATOM     16 H12  4CL L   1       5.883   4.852  -4.819  1.00  0.00    +0.1017  H
ATOM     17 H13  4CL L   1       4.748   5.463  -3.601  1.00  0.00    +0.1017  H
ENDBRANCH 1 13
TORSDOF 1
ENDMDL
MODEL 7
REMARK VINA RESULT:    -3.774     13.835     14.995
REMARK INTER + INTRA:          -4.017
REMARK INTER:                  -3.996
REMARK INTRA:                  -0.021
REMARK UNBOUND:                -0.023
ROOT
ATOM      1  C3  4CL L   1       8.480  -6.251   5.879  1.00  0.00    +0.0114  A
ATOM      2  C4  4CL L   1       8.464  -5.314   6.926  1.00  0.00    -0.0517  A
ATOM      3  C5  4CL L   1       8.755  -3.969   6.677  1.00  0.00    -0.0429  A
ATOM      4  C6  4CL L   1       9.067  -3.553   5.385  1.00  0.00    +0.0410  A
ATOM      5 CL7  4CL L   1       9.430  -1.902   5.081  1.00  0.00    -0.0835 Cl
ATOM      6  C8  4CL L   1       9.088  -4.471   4.338  1.00  0.00    -0.0429  A
ATOM      7  C9  4CL L   1       8.798  -5.816   4.582  1.00  0.00    -0.0517  A
ATOM      8 H14  4CL L   1       8.210  -5.602   7.946  1.00  0.00    +0.0623  H
ATOM      9 H15  4CL L   1       8.731  -3.246   7.490  1.00  0.00    +0.0632  H
ATOM     10 H16  4CL L   1       9.323  -4.139   3.328  1.00  0.00    +0.0632  H
ATOM     11 H17  4CL L   1       8.809  -6.505   3.737  1.00  0.00    +0.0623  H
ENDROOT
BRANCH 1 13
ATOM     12  N1  4CL L   1       7.331  -8.289   5.118  1.00  0.00    -0.1914  N
ATOM     13  C2  4CL L   1       8.212  -7.703   6.153  1.00  0.00    +0.1466  C
ATOM     14 H10  4CL L   1       7.761  -8.196   4.189  1.00  0.00    +0.4054 HD
ATOM     15 H11  4CL L   1       6.438  -7.783   5.081  1.00  0.00    +0.4054 HD
ATOM     16 H12  4CL L   1       7.712  -7.845   7.117  1.00  0.00    +0.1017  H
ATOM     17 H13  4CL L   1       9.135  -8.290   6.157  1.00  0.00    +0.1017  H
ENDBRANCH 1 13
TORSDOF 1
ENDMDL
MODEL 8
REMARK VINA RESULT:    -3.701     13.279     14.179
REMARK INTER + INTRA:          -3.940
REMARK INTER:                  -3.915
REMARK INTRA:                  -0.026
REMARK UNBOUND:                -0.023
ROOT
ATOM      1  C3  4CL L   1      10.704  -3.441   4.718  1.00  0.00    +0.0114  A
ATOM      2  C4  4CL L   1      10.567  -4.825   4.519  1.00  0.00    -0.0517  A
ATOM      3  C5  4CL L   1       9.573  -5.542   5.192  1.00  0.00    -0.0429  A
ATOM      4  C6  4CL L   1       8.713  -4.884   6.068  1.00  0.00    +0.0410  A
ATOM      5 CL7  4CL L   1       7.495  -5.766   6.897  1.00  0.00    -0.0835 Cl
ATOM      6  C8  4CL L   1       8.838  -3.512   6.275  1.00  0.00    -0.0429  A
ATOM      7  C9  4CL L   1       9.830  -2.792   5.605  1.00  0.00    -0.0517  A
ATOM      8 H14  4CL L   1      11.213  -5.369   3.830  1.00  0.00    +0.0623  H
ATOM      9 H15  4CL L   1       9.466  -6.612   5.026  1.00  0.00    +0.0632  H
ATOM     10 H16  4CL L   1       8.158  -3.000   6.954  1.00  0.00    +0.0632  H
ATOM     11 H17  4CL L   1       9.891  -1.717   5.780  1.00  0.00    +0.0623  H
ENDROOT
BRANCH 1 13
ATOM     12  N1  4CL L   1      12.124  -1.432   4.762  1.00  0.00    -0.1914  N
ATOM     13  C2  4CL L   1      11.800  -2.678   4.031  1.00  0.00    +0.1466  C
ATOM     14 H10  4CL L   1      12.417  -1.648   5.724  1.00  0.00    +0.4054 HD
ATOM     15 H11  4CL L   1      11.292  -0.834   4.835  1.00  0.00    +0.4054 HD
ATOM     16 H12  4CL L   1      11.513  -2.387   3.016  1.00  0.00    +0.1017  H
ATOM     17 H13  4CL L   1      12.723  -3.263   3.972  1.00  0.00    +0.1017  H
ENDBRANCH 1 13
TORSDOF 1
ENDMDL
MODEL 9
REMARK VINA RESULT:    -3.694     16.145     16.947
REMARK INTER + INTRA:          -3.933
REMARK INTER:                  -3.912
REMARK INTRA:                  -0.021
REMARK UNBOUND:                -0.023
ROOT
ATOM      1  C3  4CL L   1       6.319  -9.509 -10.276  1.00  0.00    +0.0114  A
ATOM      2  C4  4CL L   1       7.314  -8.772 -10.940  1.00  0.00    -0.0517  A
ATOM      3  C5  4CL L   1       8.343  -8.161 -10.216  1.00  0.00    -0.0429  A
ATOM      4  C6  4CL L   1       8.382  -8.278  -8.829  1.00  0.00    +0.0410  A
ATOM      5 CL7  4CL L   1       9.644  -7.522  -7.941  1.00  0.00    -0.0835 Cl
ATOM      6  C8  4CL L   1       7.402  -9.004  -8.158  1.00  0.00    -0.0429  A
ATOM      7  C9  4CL L   1       6.372  -9.617  -8.877  1.00  0.00    -0.0517  A
ATOM      8 H14  4CL L   1       7.322  -8.672 -12.025  1.00  0.00    +0.0623  H
ATOM      9 H15  4CL L   1       9.117  -7.600 -10.737  1.00  0.00    +0.0632  H
ATOM     10 H16  4CL L   1       7.442  -9.101  -7.074  1.00  0.00    +0.0632  H
ATOM     11 H17  4CL L   1       5.629 -10.190  -8.321  1.00  0.00    +0.0623  H
ENDROOT
BRANCH 1 13
ATOM     12  N1  4CL L   1       3.878  -9.763 -10.461  1.00  0.00    -0.1914  N
ATOM     13  C2  4CL L   1       5.188 -10.127 -11.047  1.00  0.00    +0.1466  C
ATOM     14 H10  4CL L   1       3.762  -8.742 -10.455  1.00  0.00    +0.4054 HD
ATOM     15 H11  4CL L   1       3.827 -10.072  -9.482  1.00  0.00    +0.4054 HD
ATOM     16 H12  4CL L   1       5.248 -11.220 -11.042  1.00  0.00    +0.1017  H
ATOM     17 H13  4CL L   1       5.177  -9.790 -12.088  1.00  0.00    +0.1017  H
ENDBRANCH 1 13
TORSDOF 1
ENDMDL
MODEL 10
REMARK VINA RESULT:    -3.691     16.130     16.884
REMARK INTER + INTRA:          -3.929
REMARK INTER:                  -3.910
REMARK INTRA:                  -0.020
REMARK UNBOUND:                -0.023
ROOT
ATOM      1  C3  4CL L   1       6.398  -9.397 -10.315  1.00  0.00    +0.0114  A
ATOM      2  C4  4CL L   1       6.392  -9.579  -8.922  1.00  0.00    -0.0517  A
ATOM      3  C5  4CL L   1       7.412  -9.040  -8.133  1.00  0.00    -0.0429  A
ATOM      4  C6  4CL L   1       8.445  -8.320  -8.729  1.00  0.00    +0.0410  A
ATOM      5 CL7  4CL L   1       9.700  -7.661  -7.758  1.00  0.00    -0.0835 Cl
ATOM      6  C8  4CL L   1       8.464  -8.132 -10.108  1.00  0.00    -0.0429  A
ATOM      7  C9  4CL L   1       7.447  -8.670 -10.901  1.00  0.00    -0.0517  A
ATOM      8 H14  4CL L   1       5.592 -10.124  -8.421  1.00  0.00    +0.0623  H
ATOM      9 H15  4CL L   1       7.396  -9.175  -7.053  1.00  0.00    +0.0632  H
ATOM     10 H16  4CL L   1       9.269  -7.561 -10.568  1.00  0.00    +0.0632  H
ATOM     11 H17  4CL L   1       7.485  -8.492 -11.976  1.00  0.00    +0.0623  H
ENDROOT
BRANCH 1 13
ATOM     12  N1  4CL L   1       3.979  -9.709 -10.640  1.00  0.00    -0.1914  N
ATOM     13  C2  4CL L   1       5.328 -10.015 -11.168  1.00  0.00    +0.1466  C
ATOM     14 H10  4CL L   1       3.833  -8.692 -10.602  1.00  0.00    +0.4054 HD
ATOM     15 H11  4CL L   1       3.885 -10.057  -9.677  1.00  0.00    +0.4054 HD
ATOM     16 H12  4CL L   1       5.419 -11.105 -11.201  1.00  0.00    +0.1017  H
ATOM     17 H13  4CL L   1       5.362  -9.638 -12.194  1.00  0.00    +0.1017  H
ENDBRANCH 1 13
TORSDOF 1
ENDMDL
MODEL 11
REMARK VINA RESULT:    -3.632     16.225     16.706
REMARK INTER + INTRA:          -3.867
REMARK INTER:                  -3.842
REMARK INTRA:                  -0.025
REMARK UNBOUND:                -0.023
ROOT
ATOM      1  C3  4CL L   1       7.053  -9.087  -8.423  1.00  0.00    +0.0114  A
ATOM      2  C4  4CL L   1       8.352  -8.555  -8.470  1.00  0.00    -0.0517  A
ATOM      3  C5  4CL L   1       8.954  -8.266  -9.699  1.00  0.00    -0.0429  A
ATOM      4  C6  4CL L   1       8.265  -8.508 -10.885  1.00  0.00    +0.0410  A
ATOM      5 CL7  4CL L   1       9.007  -8.156 -12.393  1.00  0.00    -0.0835 Cl
ATOM      6  C8  4CL L   1       6.977  -9.035 -10.852  1.00  0.00    -0.0429  A
ATOM      7  C9  4CL L   1       6.371  -9.326  -9.627  1.00  0.00    -0.0517  A
ATOM      8 H14  4CL L   1       8.915  -8.340  -7.562  1.00  0.00    +0.0623  H
ATOM      9 H15  4CL L   1       9.957  -7.845  -9.729  1.00  0.00    +0.0632  H
ATOM     10 H16  4CL L   1       6.438  -9.214 -11.782  1.00  0.00    +0.0632  H
ATOM     11 H17  4CL L   1       5.356  -9.724  -9.638  1.00  0.00    +0.0623  H
ENDROOT
BRANCH 1 13
ATOM     12  N1  4CL L   1       5.449 -10.546  -7.258  1.00  0.00    -0.1914  N
ATOM     13  C2  4CL L   1       6.423  -9.441  -7.106  1.00  0.00    +0.1466  C
ATOM     14 H10  4CL L   1       5.913 -11.378  -7.644  1.00  0.00    +0.4054 HD
ATOM     15 H11  4CL L   1       4.713 -10.283  -7.924  1.00  0.00    +0.4054 HD
ATOM     16 H12  4CL L   1       5.879  -8.592  -6.679  1.00  0.00    +0.1017  H
ATOM     17 H13  4CL L   1       7.169  -9.770  -6.377  1.00  0.00    +0.1017  H
ENDBRANCH 1 13
TORSDOF 1
ENDMDL
MODEL 12
REMARK VINA RESULT:    -2.767      3.468      4.568
REMARK INTER + INTRA:          -2.951
REMARK INTER:                  -2.927
REMARK INTRA:                  -0.024
REMARK UNBOUND:                -0.023
ROOT
ATOM      1  C3  4CL L   1       7.531   7.917  -3.641  1.00  0.00    +0.0114  A
ATOM      2  C4  4CL L   1       8.457   8.962  -3.486  1.00  0.00    -0.0517  A
ATOM      3  C5  4CL L   1       9.484   8.863  -2.543  1.00  0.00    -0.0429  A
ATOM      4  C6  4CL L   1       9.592   7.724  -1.749  1.00  0.00    +0.0410  A
ATOM      5 CL7  4CL L   1      10.852   7.606  -0.588  1.00  0.00    -0.0835 Cl
ATOM      6  C8  4CL L   1       8.681   6.681  -1.891  1.00  0.00    -0.0429  A
ATOM      7  C9  4CL L   1       7.652   6.775  -2.832  1.00  0.00    -0.0517  A
ATOM      8 H14  4CL L   1       8.411   9.861  -4.101  1.00  0.00    +0.0623  H
ATOM      9 H15  4CL L   1      10.204   9.672  -2.435  1.00  0.00    +0.0632  H
ATOM     10 H16  4CL L   1       8.774   5.788  -1.275  1.00  0.00    +0.0632  H
ATOM     11 H17  4CL L   1       6.964   5.934  -2.928  1.00  0.00    +0.0623  H
ENDROOT
BRANCH 1 13
ATOM     12  N1  4CL L   1       5.194   7.327  -4.141  1.00  0.00    -0.1914  N
ATOM     13  C2  4CL L   1       6.400   8.041  -4.621  1.00  0.00    +0.1466  C
ATOM     14 H10  4CL L   1       4.895   7.705  -3.233  1.00  0.00    +0.4054 HD
ATOM     15 H11  4CL L   1       5.404   6.333  -3.993  1.00  0.00    +0.4054 HD
ATOM     16 H12  4CL L   1       6.660   7.611  -5.593  1.00  0.00    +0.1017  H
ATOM     17 H13  4CL L   1       6.112   9.085  -4.776  1.00  0.00    +0.1017  H
ENDBRANCH 1 13
TORSDOF 1
ENDMDL
