MODEL 1
REMARK VINA RESULT:    -4.729      0.000      0.000
REMARK INTER + INTRA:          -5.087
REMARK INTER:                  -5.005
REMARK INTRA:                  -0.082
REMARK UNBOUND:                -0.082
ROOT
ATOM      1  C4  AMB L   1       6.313   7.129  -3.860  1.00  0.00    +0.0142  A
ATOM      2  C5  AMB L   1       5.294   6.161  -3.867  1.00  0.00    -0.0528  A
ATOM      3  C6  AMB L   1       5.594   4.809  -3.690  1.00  0.00    -0.0613  A
ATOM      4  C7  AMB L   1       6.914   4.406  -3.511  1.00  0.00    -0.0617  A
ATOM      5  C8  AMB L   1       7.935   5.352  -3.503  1.00  0.00    -0.0613  A
ATOM      6  C9  AMB L   1       7.640   6.705  -3.679  1.00  0.00    -0.0528  A
ATOM      7 H16  AMB L   1       4.247   6.437  -3.994  1.00  0.00    +0.0622  H
ATOM      8 H17  AMB L   1       4.799   4.066  -3.684  1.00  0.00    +0.0618  H
ATOM      9 H18  AMB L   1       7.146   3.352  -3.365  1.00  0.00    +0.0618  H
ATOM     10 H19  AMB L   1       8.964   5.029  -3.350  1.00  0.00    +0.0618  H
ATOM     11 H20  AMB L   1       8.473   7.405  -3.656  1.00  0.00    +0.0622  H
ENDROOT
BRANCH 1 13
ATOM     12  C1  AMB L   1       5.681   8.937  -5.567  1.00  0.00    -0.0031  C
ATOM     13  C2  AMB L   1       5.959   8.577  -4.111  1.00  0.00    +0.1539  C
ATOM     14  N3  AMB L   1       4.761   8.952  -3.310  1.00  0.00    -0.1890  N
ATOM     15 H10  AMB L   1       6.528   8.658  -6.205  1.00  0.00    +0.0292  H
ATOM     16 H11  AMB L   1       4.789   8.438  -5.958  1.00  0.00    +0.0292  H
ATOM     17 H12  AMB L   1       5.524  10.016  -5.673  1.00  0.00    +0.0292  H
ATOM     18 H13  AMB L   1       6.765   9.224  -3.749  1.00  0.00    +0.1051  H
ATOM     19 H14  AMB L   1       3.969   8.346  -3.554  1.00  0.00    +0.4057 HD
ATOM     20 H15  AMB L   1       4.952   8.788  -2.313  1.00  0.00    +0.4057 HD
ENDBRANCH 1 13
TORSDOF 1
ENDMDL
MODEL 2
REMARK VINA RESULT:    -4.680      2.412      3.685
REMARK INTER + INTRA:          -5.036
REMARK INTER:                  -4.945
REMARK INTRA:                  -0.091
REMARK UNBOUND:                -0.082
ROOT
ATOM      1  C4  AMB L   1       7.715   6.430  -2.956  1.00  0.00    +0.0142  A
ATOM      2  C5  AMB L   1       6.570   5.631  -3.122  1.00  0.00    -0.0528  A
ATOM      3  C6  AMB L   1       5.467   6.106  -3.834  1.00  0.00    -0.0613  A
ATOM      4  C7  AMB L   1       5.490   7.384  -4.384  1.00  0.00    -0.0617  A
ATOM      5  C8  AMB L   1       6.615   8.188  -4.227  1.00  0.00    -0.0613  A
ATOM      6  C9  AMB L   1       7.721   7.718  -3.516  1.00  0.00    -0.0528  A
ATOM      7 H16  AMB L   1       6.516   4.621  -2.716  1.00  0.00    +0.0622  H
ATOM      8 H17  AMB L   1       4.589   5.478  -3.970  1.00  0.00    +0.0618  H
ATOM      9 H18  AMB L   1       4.632   7.750  -4.946  1.00  0.00    +0.0618  H
ATOM     10 H19  AMB L   1       6.630   9.183  -4.670  1.00  0.00    +0.0618  H
ATOM     11 H20  AMB L   1       8.579   8.383  -3.429  1.00  0.00    +0.0622  H
ENDROOT
BRANCH 1 13
ATOM     12  C1  AMB L   1       9.583   6.947  -1.275  1.00  0.00    -0.0031  C
ATOM     13  C2  AMB L   1       8.867   5.906  -2.130  1.00  0.00    +0.1539  C
ATOM     14  N3  AMB L   1       8.393   4.820  -1.229  1.00  0.00    -0.1890  N
ATOM     15 H10  AMB L   1       9.933   7.782  -1.892  1.00  0.00    +0.0292  H
ATOM     16 H11  AMB L   1       8.939   7.356  -0.490  1.00  0.00    +0.0292  H
ATOM     17 H12  AMB L   1      10.457   6.506  -0.784  1.00  0.00    +0.0292  H
ATOM     18 H13  AMB L   1       9.610   5.437  -2.786  1.00  0.00    +0.1051  H
ATOM     19 H14  AMB L   1       7.648   5.170  -0.615  1.00  0.00    +0.4057 HD
ATOM     20 H15  AMB L   1       7.972   4.068  -1.791  1.00  0.00    +0.4057 HD
ENDBRANCH 1 13
TORSDOF 1
ENDMDL
MODEL 3
REMARK VINA RESULT:    -4.655      0.256      1.624
REMARK INTER + INTRA:          -5.009
REMARK INTER:                  -4.936
REMARK INTRA:                  -0.073
REMARK UNBOUND:                -0.082
ROOT
ATOM      1  C4  AMB L   1       6.386   7.172  -3.847  1.00  0.00    +0.0142  A
ATOM      2  C5  AMB L   1       7.718   6.877  -3.503  1.00  0.00    -0.0528  A
ATOM      3  C6  AMB L   1       8.095   5.575  -3.170  1.00  0.00    -0.0613  A
ATOM      4  C7  AMB L   1       7.151   4.553  -3.170  1.00  0.00    -0.0617  A
ATOM      5  C8  AMB L   1       5.828   4.829  -3.507  1.00  0.00    -0.0613  A
ATOM      6  C9  AMB L   1       5.445   6.129  -3.840  1.00  0.00    -0.0528  A
ATOM      7 H16  AMB L   1       8.489   7.647  -3.501  1.00  0.00    +0.0622  H
ATOM      8 H17  AMB L   1       9.130   5.351  -2.918  1.00  0.00    +0.0618  H
ATOM      9 H18  AMB L   1       7.449   3.536  -2.919  1.00  0.00    +0.0618  H
ATOM     10 H19  AMB L   1       5.098   4.021  -3.516  1.00  0.00    +0.0618  H
ATOM     11 H20  AMB L   1       4.401   6.290  -4.104  1.00  0.00    +0.0622  H
ENDROOT
BRANCH 1 13
ATOM     12  C1  AMB L   1       5.766   8.920  -5.618  1.00  0.00    -0.0031  C
ATOM     13  C2  AMB L   1       6.000   8.602  -4.145  1.00  0.00    +0.1539  C
ATOM     14  N3  AMB L   1       4.764   8.960  -3.397  1.00  0.00    -0.1890  N
ATOM     15 H10  AMB L   1       6.644   8.652  -6.218  1.00  0.00    +0.0292  H
ATOM     16 H11  AMB L   1       4.904   8.386  -6.029  1.00  0.00    +0.0292  H
ATOM     17 H12  AMB L   1       5.583   9.992  -5.756  1.00  0.00    +0.0292  H
ATOM     18 H13  AMB L   1       6.774   9.281  -3.770  1.00  0.00    +0.1051  H
ATOM     19 H14  AMB L   1       3.999   8.326  -3.655  1.00  0.00    +0.4057 HD
ATOM     20 H15  AMB L   1       4.922   8.825  -2.390  1.00  0.00    +0.4057 HD
ENDBRANCH 1 13
TORSDOF 1
ENDMDL
MODEL 4
REMARK VINA RESULT:    -4.649      2.036      4.047
REMARK INTER + INTRA:          -5.003
REMARK INTER:                  -4.919
REMARK INTRA:                  -0.084
REMARK UNBOUND:                -0.082
ROOT
ATOM      1  C4  AMB L   1       6.918   6.155  -3.532  1.00  0.00    +0.0142  A
ATOM      2  C5  AMB L   1       7.884   7.178  -3.544  1.00  0.00    -0.0528  A
ATOM      3  C6  AMB L   1       7.563   8.454  -4.010  1.00  0.00    -0.0613  A
ATOM      4  C7  AMB L   1       6.280   8.726  -4.474  1.00  0.00    -0.0617  A
ATOM      5  C8  AMB L   1       5.313   7.724  -4.470  1.00  0.00    -0.0613  A
ATOM      6  C9  AMB L   1       5.628   6.446  -4.005  1.00  0.00    -0.0528  A
ATOM      7 H16  AMB L   1       8.897   7.009  -3.180  1.00  0.00    +0.0622  H
ATOM      8 H17  AMB L   1       8.312   9.245  -4.005  1.00  0.00    +0.0618  H
ATOM      9 H18  AMB L   1       6.029   9.724  -4.829  1.00  0.00    +0.0618  H
ATOM     10 H19  AMB L   1       4.308   7.948  -4.824  1.00  0.00    +0.0618  H
ATOM     11 H20  AMB L   1       4.834   5.701  -4.015  1.00  0.00    +0.0622  H
ENDROOT
BRANCH 1 13
ATOM     12  C1  AMB L   1       7.959   4.699  -1.695  1.00  0.00    -0.0031  C
ATOM     13  C2  AMB L   1       7.315   4.771  -3.075  1.00  0.00    +0.1539  C
ATOM     14  N3  AMB L   1       6.124   3.878  -3.073  1.00  0.00    -0.1890  N
ATOM     15 H10  AMB L   1       8.832   5.360  -1.638  1.00  0.00    +0.0292  H
ATOM     16 H11  AMB L   1       7.268   4.987  -0.896  1.00  0.00    +0.0292  H
ATOM     17 H12  AMB L   1       8.298   3.679  -1.481  1.00  0.00    +0.0292  H
ATOM     18 H13  AMB L   1       8.010   4.327  -3.797  1.00  0.00    +0.1051  H
ATOM     19 H14  AMB L   1       5.397   4.259  -2.455  1.00  0.00    +0.4057 HD
ATOM     20 H15  AMB L   1       5.714   3.850  -4.015  1.00  0.00    +0.4057 HD
ENDBRANCH 1 13
TORSDOF 1
ENDMDL
MODEL 5
REMARK VINA RESULT:    -4.464      2.246      3.731
REMARK INTER + INTRA:          -4.807
REMARK INTER:                  -4.723
REMARK INTRA:                  -0.083
REMARK UNBOUND:                -0.082
ROOT
ATOM      1  C4  AMB L   1       7.935   7.087  -3.050  1.00  0.00    +0.0142  A
ATOM      2  C5  AMB L   1       8.587   6.449  -1.980  1.00  0.00    -0.0528  A
ATOM      3  C6  AMB L   1       9.659   7.063  -1.330  1.00  0.00    -0.0613  A
ATOM      4  C7  AMB L   1      10.099   8.317  -1.743  1.00  0.00    -0.0617  A
ATOM      5  C8  AMB L   1       9.466   8.962  -2.802  1.00  0.00    -0.0613  A
ATOM      6  C9  AMB L   1       8.393   8.352  -3.455  1.00  0.00    -0.0528  A
ATOM      7 H16  AMB L   1       8.267   5.471  -1.620  1.00  0.00    +0.0622  H
ATOM      8 H17  AMB L   1      10.151   6.569  -0.494  1.00  0.00    +0.0618  H
ATOM      9 H18  AMB L   1      10.930   8.799  -1.230  1.00  0.00    +0.0618  H
ATOM     10 H19  AMB L   1       9.808   9.948  -3.111  1.00  0.00    +0.0618  H
ATOM     11 H20  AMB L   1       7.927   8.902  -4.271  1.00  0.00    +0.0622  H
ENDROOT
BRANCH 1 13
ATOM     12  C1  AMB L   1       6.881   4.846  -3.719  1.00  0.00    -0.0031  C
ATOM     13  C2  AMB L   1       6.816   6.369  -3.767  1.00  0.00    +0.1539  C
ATOM     14  N3  AMB L   1       5.503   6.790  -3.206  1.00  0.00    -0.1890  N
ATOM     15 H10  AMB L   1       7.843   4.486  -4.102  1.00  0.00    +0.0292  H
ATOM     16 H11  AMB L   1       6.757   4.455  -2.704  1.00  0.00    +0.0292  H
ATOM     17 H12  AMB L   1       6.091   4.407  -4.337  1.00  0.00    +0.0292  H
ATOM     18 H13  AMB L   1       6.794   6.674  -4.820  1.00  0.00    +0.1051  H
ATOM     19 H14  AMB L   1       5.466   6.586  -2.200  1.00  0.00    +0.4057 HD
ATOM     20 H15  AMB L   1       5.402   7.809  -3.296  1.00  0.00    +0.4057 HD
ENDBRANCH 1 13
TORSDOF 1
ENDMDL
MODEL 6
REMARK VINA RESULT:    -4.459      1.506      2.280
REMARK INTER + INTRA:          -4.801
REMARK INTER:                  -4.714
REMARK INTRA:                  -0.087
REMARK UNBOUND:                -0.082
ROOT
ATOM      1  C4  AMB L   1       6.885   6.777  -3.118  1.00  0.00    +0.0142  A
ATOM      2  C5  AMB L   1       7.669   5.867  -2.386  1.00  0.00    -0.0528  A
ATOM      3  C6  AMB L   1       7.360   4.506  -2.378  1.00  0.00    -0.0613  A
ATOM      4  C7  AMB L   1       6.264   4.035  -3.094  1.00  0.00    -0.0617  A
ATOM      5  C8  AMB L   1       5.476   4.923  -3.823  1.00  0.00    -0.0613  A
ATOM      6  C9  AMB L   1       5.781   6.285  -3.835  1.00  0.00    -0.0528  A
ATOM      7 H16  AMB L   1       8.541   6.194  -1.820  1.00  0.00    +0.0622  H
ATOM      8 H17  AMB L   1       7.978   3.806  -1.819  1.00  0.00    +0.0618  H
ATOM      9 H18  AMB L   1       6.029   2.972  -3.094  1.00  0.00    +0.0618  H
ATOM     10 H19  AMB L   1       4.627   4.544  -4.391  1.00  0.00    +0.0618  H
ATOM     11 H20  AMB L   1       5.140   6.936  -4.428  1.00  0.00    +0.0622  H
ENDROOT
BRANCH 1 13
ATOM     12  C1  AMB L   1       8.700   8.589  -3.085  1.00  0.00    -0.0031  C
ATOM     13  C2  AMB L   1       7.213   8.250  -3.059  1.00  0.00    +0.1539  C
ATOM     14  N3  AMB L   1       6.561   8.961  -4.192  1.00  0.00    -0.1890  N
ATOM     15 H10  AMB L   1       9.232   8.069  -2.279  1.00  0.00    +0.0292  H
ATOM     16 H11  AMB L   1       9.175   8.312  -4.032  1.00  0.00    +0.0292  H
ATOM     17 H12  AMB L   1       8.853   9.664  -2.945  1.00  0.00    +0.0292  H
ATOM     18 H13  AMB L   1       6.782   8.690  -2.152  1.00  0.00    +0.1051  H
ATOM     19 H14  AMB L   1       6.876   8.565  -5.086  1.00  0.00    +0.4057 HD
ATOM     20 H15  AMB L   1       5.545   8.810  -4.153  1.00  0.00    +0.4057 HD
ENDBRANCH 1 13
TORSDOF 1
ENDMDL
MODEL 7
REMARK VINA RESULT:    -4.209      2.336      3.833
REMARK INTER + INTRA:          -4.536
REMARK INTER:                  -4.453
REMARK INTRA:                  -0.084
REMARK UNBOUND:                -0.082
ROOT
ATOM      1  C4  AMB L   1       6.916   7.363  -3.281  1.00  0.00    +0.0142  A
ATOM      2  C5  AMB L   1       5.816   7.513  -2.418  1.00  0.00    -0.0528  A
ATOM      3  C6  AMB L   1       4.719   8.291  -2.792  1.00  0.00    -0.0613  A
ATOM      4  C7  AMB L   1       4.706   8.932  -4.026  1.00  0.00    -0.0617  A
ATOM      5  C8  AMB L   1       5.788   8.796  -4.892  1.00  0.00    -0.0613  A
ATOM      6  C9  AMB L   1       6.889   8.019  -4.524  1.00  0.00    -0.0528  A
ATOM      7 H16  AMB L   1       5.782   7.019  -1.447  1.00  0.00    +0.0622  H
ATOM      8 H17  AMB L   1       3.865   8.392  -2.124  1.00  0.00    +0.0618  H
ATOM      9 H18  AMB L   1       3.846   9.532  -4.320  1.00  0.00    +0.0618  H
ATOM     10 H19  AMB L   1       5.766   9.292  -5.861  1.00  0.00    +0.0618  H
ATOM     11 H20  AMB L   1       7.705   7.938  -5.239  1.00  0.00    +0.0622  H
ENDROOT
BRANCH 1 13
ATOM     12  C1  AMB L   1       8.244   6.396  -1.311  1.00  0.00    -0.0031  C
ATOM     13  C2  AMB L   1       8.112   6.562  -2.822  1.00  0.00    +0.1539  C
ATOM     14  N3  AMB L   1       8.076   5.204  -3.431  1.00  0.00    -0.1890  N
ATOM     15 H10  AMB L   1       8.252   7.371  -0.812  1.00  0.00    +0.0292  H
ATOM     16 H11  AMB L   1       7.427   5.807  -0.883  1.00  0.00    +0.0292  H
ATOM     17 H12  AMB L   1       9.180   5.885  -1.061  1.00  0.00    +0.0292  H
ATOM     18 H13  AMB L   1       9.033   7.023  -3.194  1.00  0.00    +0.1051  H
ATOM     19 H14  AMB L   1       7.207   4.723  -3.171  1.00  0.00    +0.4057 HD
ATOM     20 H15  AMB L   1       8.062   5.288  -4.455  1.00  0.00    +0.4057 HD
ENDBRANCH 1 13
TORSDOF 1
ENDMDL
MODEL 8
REMARK VINA RESULT:    -4.183     13.335     14.916
REMARK INTER + INTRA:          -4.509
REMARK INTER:                  -4.432
REMARK INTRA:                  -0.077
REMARK UNBOUND:                -0.082
ROOT
ATOM      1  C4  AMB L   1       8.891  -4.249   5.167  1.00  0.00    +0.0142  A
ATOM      2  C5  AMB L   1       8.517  -4.420   6.511  1.00  0.00    -0.0528  A
ATOM      3  C6  AMB L   1       8.068  -5.658   6.974  1.00  0.00    -0.0613  A
ATOM      4  C7  AMB L   1       7.981  -6.739   6.102  1.00  0.00    -0.0617  A
ATOM      5  C8  AMB L   1       8.347  -6.586   4.767  1.00  0.00    -0.0613  A
ATOM      6  C9  AMB L   1       8.796  -5.350   4.299  1.00  0.00    -0.0528  A
ATOM      7 H16  AMB L   1       8.580  -3.601   7.228  1.00  0.00    +0.0622  H
ATOM      8 H17  AMB L   1       7.792  -5.786   8.019  1.00  0.00    +0.0618  H
ATOM      9 H18  AMB L   1       7.639  -7.706   6.467  1.00  0.00    +0.0618  H
ATOM     10 H19  AMB L   1       8.287  -7.440   4.094  1.00  0.00    +0.0618  H
ATOM     11 H20  AMB L   1       9.078  -5.286   3.249  1.00  0.00    +0.0622  H
ENDROOT
BRANCH 1 13
ATOM     12  C1  AMB L   1      10.779  -2.527   4.942  1.00  0.00    -0.0031  C
ATOM     13  C2  AMB L   1       9.318  -2.881   4.686  1.00  0.00    +0.1539  C
ATOM     14  N3  AMB L   1       9.064  -2.756   3.225  1.00  0.00    -0.1890  N
ATOM     15 H10  AMB L   1      11.023  -2.626   6.006  1.00  0.00    +0.0292  H
ATOM     16 H11  AMB L   1      11.468  -3.165   4.378  1.00  0.00    +0.0292  H
ATOM     17 H12  AMB L   1      10.980  -1.491   4.649  1.00  0.00    +0.0292  H
ATOM     18 H13  AMB L   1       8.695  -2.112   5.157  1.00  0.00    +0.1051  H
ATOM     19 H14  AMB L   1       9.575  -3.485   2.713  1.00  0.00    +0.4057 HD
ATOM     20 H15  AMB L   1       8.066  -2.917   3.035  1.00  0.00    +0.4057 HD
ENDBRANCH 1 13
TORSDOF 1
ENDMDL
MODEL 9
REMARK VINA RESULT:    -4.179     13.292     14.865
REMARK INTER + INTRA:          -4.505
REMARK INTER:                  -4.422
REMARK INTRA:                  -0.084
REMARK UNBOUND:                -0.082
ROOT
ATOM      1  C4  AMB L   1       8.872  -4.195   5.117  1.00  0.00    +0.0142  A
ATOM      2  C5  AMB L   1       8.845  -5.309   4.259  1.00  0.00    -0.0528  A
ATOM      3  C6  AMB L   1       8.418  -6.555   4.722  1.00  0.00    -0.0613  A
ATOM      4  C7  AMB L   1       8.017  -6.707   6.046  1.00  0.00    -0.0617  A
ATOM      5  C8  AMB L   1       8.040  -5.614   6.909  1.00  0.00    -0.0613  A
ATOM      6  C9  AMB L   1       8.467  -4.366   6.451  1.00  0.00    -0.0528  A
ATOM      7 H16  AMB L   1       9.141  -5.230   3.213  1.00  0.00    +0.0622  H
ATOM      8 H17  AMB L   1       8.387  -7.410   4.049  1.00  0.00    +0.0618  H
ATOM      9 H18  AMB L   1       7.676  -7.677   6.404  1.00  0.00    +0.0618  H
ATOM     10 H19  AMB L   1       7.714  -5.739   7.941  1.00  0.00    +0.0618  H
ATOM     11 H20  AMB L   1       8.457  -3.542   7.163  1.00  0.00    +0.0622  H
ENDROOT
BRANCH 1 13
ATOM     12  C1  AMB L   1      10.891  -2.647   4.789  1.00  0.00    -0.0031  C
ATOM     13  C2  AMB L   1       9.395  -2.876   4.598  1.00  0.00    +0.1539  C
ATOM     14  N3  AMB L   1       9.093  -2.747   3.146  1.00  0.00    -0.1890  N
ATOM     15 H10  AMB L   1      11.169  -2.754   5.843  1.00  0.00    +0.0292  H
ATOM     16 H11  AMB L   1      11.498  -3.349   4.209  1.00  0.00    +0.0292  H
ATOM     17 H12  AMB L   1      11.169  -1.636   4.471  1.00  0.00    +0.0292  H
ATOM     18 H13  AMB L   1       8.861  -2.050   5.081  1.00  0.00    +0.1051  H
ATOM     19 H14  AMB L   1       9.517  -3.525   2.626  1.00  0.00    +0.4057 HD
ATOM     20 H15  AMB L   1       8.078  -2.823   2.999  1.00  0.00    +0.4057 HD
ENDBRANCH 1 13
TORSDOF 1
ENDMDL
MODEL 10
REMARK VINA RESULT:    -3.754     14.039     14.467
REMARK INTER + INTRA:          -4.055
REMARK INTER:                  -3.974
REMARK INTRA:                  -0.081
REMARK UNBOUND:                -0.082
ROOT
ATOM      1  C4  AMB L   1      12.582  -5.199   0.036  1.00  0.00    +0.0142  A
ATOM      2  C5  AMB L   1      12.320  -5.119   1.416  1.00  0.00    -0.0528  A
ATOM      3  C6  AMB L   1      13.171  -4.407   2.262  1.00  0.00    -0.0613  A
ATOM      4  C7  AMB L   1      14.296  -3.770   1.747  1.00  0.00    -0.0617  A
ATOM      5  C8  AMB L   1      14.570  -3.840   0.383  1.00  0.00    -0.0613  A
ATOM      6  C9  AMB L   1      13.723  -4.551  -0.469  1.00  0.00    -0.0528  A
ATOM      7 H16  AMB L   1      11.445  -5.596   1.857  1.00  0.00    +0.0622  H
ATOM      8 H17  AMB L   1      12.955  -4.339   3.327  1.00  0.00    +0.0618  H
ATOM      9 H18  AMB L   1      14.954  -3.208   2.407  1.00  0.00    +0.0618  H
ATOM     10 H19  AMB L   1      15.446  -3.329  -0.014  1.00  0.00    +0.0618  H
ATOM     11 H20  AMB L   1      13.977  -4.568  -1.527  1.00  0.00    +0.0622  H
ENDROOT
BRANCH 1 13
ATOM     12  C1  AMB L   1      11.473  -7.471  -0.397  1.00  0.00    -0.0031  C
ATOM     13  C2  AMB L   1      11.672  -6.026  -0.842  1.00  0.00    +0.1539  C
ATOM     14  N3  AMB L   1      10.332  -5.384  -0.930  1.00  0.00    -0.1890  N
ATOM     15 H10  AMB L   1      12.437  -7.983  -0.294  1.00  0.00    +0.0292  H
ATOM     16 H11  AMB L   1      10.951  -7.544   0.563  1.00  0.00    +0.0292  H
ATOM     17 H12  AMB L   1      10.879  -8.022  -1.134  1.00  0.00    +0.0292  H
ATOM     18 H13  AMB L   1      12.057  -6.037  -1.868  1.00  0.00    +0.1051  H
ATOM     19 H14  AMB L   1       9.925  -5.286   0.008  1.00  0.00    +0.4057 HD
ATOM     20 H15  AMB L   1      10.433  -4.430  -1.301  1.00  0.00    +0.4057 HD
ENDBRANCH 1 13
TORSDOF 1
ENDMDL
MODEL 11
REMARK VINA RESULT:    -3.737     16.326     17.104
REMARK INTER + INTRA:          -4.037
REMARK INTER:                  -3.947
REMARK INTRA:                  -0.090
REMARK UNBOUND:                -0.082
ROOT
ATOM      1  C4  AMB L   1       6.797  -9.027  -9.639  1.00  0.00    +0.0142  A
ATOM      2  C5  AMB L   1       7.210  -9.129  -8.298  1.00  0.00    -0.0528  A
ATOM      3  C6  AMB L   1       8.453  -8.639  -7.897  1.00  0.00    -0.0613  A
ATOM      4  C7  AMB L   1       9.302  -8.045  -8.826  1.00  0.00    -0.0617  A
ATOM      5  C8  AMB L   1       8.909  -7.937 -10.157  1.00  0.00    -0.0613  A
ATOM      6  C9  AMB L   1       7.666  -8.426 -10.565  1.00  0.00    -0.0528  A
ATOM      7 H16  AMB L   1       6.570  -9.578  -7.538  1.00  0.00    +0.0622  H
ATOM      8 H17  AMB L   1       8.762  -8.711  -6.855  1.00  0.00    +0.0618  H
ATOM      9 H18  AMB L   1      10.269  -7.656  -8.510  1.00  0.00    +0.0618  H
ATOM     10 H19  AMB L   1       9.575  -7.461 -10.876  1.00  0.00    +0.0618  H
ATOM     11 H20  AMB L   1       7.403  -8.309 -11.614  1.00  0.00    +0.0622  H
ENDROOT
BRANCH 1 13
ATOM     12  C1  AMB L   1       5.422 -10.198 -11.460  1.00  0.00    -0.0031  C
ATOM     13  C2  AMB L   1       5.469  -9.619 -10.050  1.00  0.00    +0.1539  C
ATOM     14  N3  AMB L   1       5.079 -10.697  -9.099  1.00  0.00    -0.1890  N
ATOM     15 H10  AMB L   1       5.725  -9.447 -12.199  1.00  0.00    +0.0292  H
ATOM     16 H11  AMB L   1       6.078 -11.067 -11.578  1.00  0.00    +0.0292  H
ATOM     17 H12  AMB L   1       4.406 -10.521 -11.710  1.00  0.00    +0.0292  H
ATOM     18 H13  AMB L   1       4.683  -8.860  -9.968  1.00  0.00    +0.1051  H
ATOM     19 H14  AMB L   1       5.800 -11.427  -9.077  1.00  0.00    +0.4057 HD
ATOM     20 H15  AMB L   1       5.030 -10.312  -8.147  1.00  0.00    +0.4057 HD
ENDBRANCH 1 13
TORSDOF 1
ENDMDL
