MODEL 1
REMARK VINA RESULT:    -4.622      0.000      0.000
REMARK INTER + INTRA:          -4.912
REMARK INTER:                  -4.893
REMARK INTRA:                  -0.020
REMARK UNBOUND:                -0.020
ROOT
ATOM      1  C3  3CL L   1      10.853   6.530 -15.098  1.00  0.00    +0.0127  A
ATOM      2  C4  3CL L   1      10.158   7.502 -15.835  1.00  0.00    -0.0530  A
ATOM      3  C5  3CL L   1      10.788   8.692 -16.210  1.00  0.00    -0.0599  A
ATOM      4  C6  3CL L   1      12.117   8.923 -15.860  1.00  0.00    -0.0434  A
ATOM      5  C7  3CL L   1      12.814   7.963 -15.133  1.00  0.00    +0.0414  A
ATOM      6 CL8  3CL L   1      14.455   8.236 -14.701  1.00  0.00    -0.0835 Cl
ATOM      7  C9  3CL L   1      12.193   6.772 -14.752  1.00  0.00    -0.0347  A
ATOM      8 H14  3CL L   1       9.116   7.357 -16.121  1.00  0.00    +0.0622  H
ATOM      9 H15  3CL L   1      10.242   9.446 -16.775  1.00  0.00    +0.0618  H
ATOM     10 H16  3CL L   1      12.601   9.852 -16.154  1.00  0.00    +0.0632  H
ATOM     11 H17  3CL L   1      12.766   6.046 -14.176  1.00  0.00    +0.0637  H
ENDROOT
BRANCH 1 13
ATOM     12  N1  3CL L   1       8.853   5.472 -14.123  1.00  0.00    -0.1914  N
ATOM     13  C2  3CL L   1      10.186   5.239 -14.721  1.00  0.00    +0.1466  C
ATOM     14 H10  3CL L   1       8.294   6.103 -14.710  1.00  0.00    +0.4054 HD
ATOM     15 H11  3CL L   1       8.334   4.593 -14.013  1.00  0.00    +0.4054 HD
ATOM     16 H12  3CL L   1      10.033   4.595 -15.592  1.00  0.00    +0.1017  H
ATOM     17 H13  3CL L   1      10.778   4.687 -13.984  1.00  0.00    +0.1017  H
ENDBRANCH 1 13
TORSDOF 1
ENDMDL
MODEL 2
REMARK VINA RESULT:    -4.574     12.925     13.617
REMARK INTER + INTRA:          -4.861
REMARK INTER:                  -4.838
REMARK INTRA:                  -0.023
REMARK UNBOUND:                -0.020
ROOT
ATOM      1  C3  3CL L   1       7.375   4.698  -2.267  1.00  0.00    +0.0127  A
ATOM      2  C4  3CL L   1       6.812   5.376  -3.361  1.00  0.00    -0.0530  A
ATOM      3  C5  3CL L   1       7.268   6.647  -3.719  1.00  0.00    -0.0599  A
ATOM      4  C6  3CL L   1       8.293   7.254  -2.995  1.00  0.00    -0.0434  A
ATOM      5  C7  3CL L   1       8.858   6.588  -1.912  1.00  0.00    +0.0414  A
ATOM      6 CL8  3CL L   1      10.127   7.326  -1.016  1.00  0.00    -0.0835 Cl
ATOM      7  C9  3CL L   1       8.409   5.318  -1.545  1.00  0.00    -0.0347  A
ATOM      8 H14  3CL L   1       6.006   4.932  -3.946  1.00  0.00    +0.0622  H
ATOM      9 H15  3CL L   1       6.823   7.171  -4.564  1.00  0.00    +0.0618  H
ATOM     10 H16  3CL L   1       8.642   8.245  -3.278  1.00  0.00    +0.0632  H
ATOM     11 H17  3CL L   1       8.868   4.830  -0.688  1.00  0.00    +0.0637  H
ENDROOT
BRANCH 1 13
ATOM     12  N1  3CL L   1       7.349   2.939  -0.542  1.00  0.00    -0.1914  N
ATOM     13  C2  3CL L   1       6.906   3.320  -1.901  1.00  0.00    +0.1466  C
ATOM     14 H10  3CL L   1       7.122   3.678   0.136  1.00  0.00    +0.4054 HD
ATOM     15 H11  3CL L   1       6.898   2.071  -0.231  1.00  0.00    +0.4054 HD
ATOM     16 H12  3CL L   1       5.814   3.251  -1.909  1.00  0.00    +0.1017  H
ATOM     17 H13  3CL L   1       7.303   2.570  -2.592  1.00  0.00    +0.1017  H
ENDBRANCH 1 13
TORSDOF 1
ENDMDL
MODEL 3
REMARK VINA RESULT:    -4.573     12.307     12.935
REMARK INTER + INTRA:          -4.860
REMARK INTER:                  -4.834
REMARK INTRA:                  -0.026
REMARK UNBOUND:                -0.020
ROOT
ATOM      1  C3  3CL L   1       7.635   5.929  -2.773  1.00  0.00    +0.0127  A
ATOM      2  C4  3CL L   1       8.625   6.671  -2.111  1.00  0.00    -0.0530  A
ATOM      3  C5  3CL L   1       8.870   8.001  -2.463  1.00  0.00    -0.0599  A
ATOM      4  C6  3CL L   1       8.128   8.606  -3.475  1.00  0.00    -0.0434  A
ATOM      5  C7  3CL L   1       7.142   7.879  -4.134  1.00  0.00    +0.0414  A
ATOM      6 CL8  3CL L   1       6.216   8.619  -5.380  1.00  0.00    -0.0835 Cl
ATOM      7  C9  3CL L   1       6.890   6.549  -3.790  1.00  0.00    -0.0347  A
ATOM      8 H14  3CL L   1       9.229   6.227  -1.318  1.00  0.00    +0.0622  H
ATOM      9 H15  3CL L   1       9.646   8.569  -1.951  1.00  0.00    +0.0618  H
ATOM     10 H16  3CL L   1       8.325   9.642  -3.746  1.00  0.00    +0.0632  H
ATOM     11 H17  3CL L   1       6.117   6.007  -4.333  1.00  0.00    +0.0637  H
ENDROOT
BRANCH 1 13
ATOM     12  N1  3CL L   1       8.017   4.161  -1.100  1.00  0.00    -0.1914  N
ATOM     13  C2  3CL L   1       7.351   4.510  -2.374  1.00  0.00    +0.1466  C
ATOM     14 H10  3CL L   1       7.824   4.869  -0.381  1.00  0.00    +0.4054 HD
ATOM     15 H11  3CL L   1       7.697   3.252  -0.747  1.00  0.00    +0.4054 HD
ATOM     16 H12  3CL L   1       6.280   4.338  -2.228  1.00  0.00    +0.1017  H
ATOM     17 H13  3CL L   1       7.712   3.806  -3.130  1.00  0.00    +0.1017  H
ENDBRANCH 1 13
TORSDOF 1
ENDMDL
MODEL 4
REMARK VINA RESULT:    -4.485     12.824     13.404
REMARK INTER + INTRA:          -4.767
REMARK INTER:                  -4.753
REMARK INTRA:                  -0.015
REMARK UNBOUND:                -0.020
ROOT
ATOM      1  C3  3CL L   1       9.477   7.540  -1.897  1.00  0.00    +0.0127  A
ATOM      2  C4  3CL L   1       9.066   8.577  -2.750  1.00  0.00    -0.0530  A
ATOM      3  C5  3CL L   1       8.039   8.370  -3.675  1.00  0.00    -0.0599  A
ATOM      4  C6  3CL L   1       7.409   7.130  -3.755  1.00  0.00    -0.0434  A
ATOM      5  C7  3CL L   1       7.808   6.098  -2.912  1.00  0.00    +0.0414  A
ATOM      6 CL8  3CL L   1       7.031   4.566  -3.000  1.00  0.00    -0.0835 Cl
ATOM      7  C9  3CL L   1       8.833   6.295  -1.985  1.00  0.00    -0.0347  A
ATOM      8 H14  3CL L   1       9.541   9.558  -2.717  1.00  0.00    +0.0622  H
ATOM      9 H15  3CL L   1       7.729   9.175  -4.339  1.00  0.00    +0.0618  H
ATOM     10 H16  3CL L   1       6.610   6.974  -4.480  1.00  0.00    +0.0632  H
ATOM     11 H17  3CL L   1       9.126   5.463  -1.346  1.00  0.00    +0.0637  H
ENDROOT
BRANCH 1 13
ATOM     12  N1  3CL L   1      11.904   7.654  -1.488  1.00  0.00    -0.1914  N
ATOM     13  C2  3CL L   1      10.559   7.772  -0.883  1.00  0.00    +0.1466  C
ATOM     14 H10  3CL L   1      11.971   8.220  -2.343  1.00  0.00    +0.4054 HD
ATOM     15 H11  3CL L   1      12.635   7.967  -0.839  1.00  0.00    +0.4054 HD
ATOM     16 H12  3CL L   1      10.496   8.774  -0.448  1.00  0.00    +0.1017  H
ATOM     17 H13  3CL L   1      10.505   7.040  -0.071  1.00  0.00    +0.1017  H
ENDBRANCH 1 13
TORSDOF 1
ENDMDL
MODEL 5
REMARK VINA RESULT:    -4.479     12.155     12.553
REMARK INTER + INTRA:          -4.761
REMARK INTER:                  -4.746
REMARK INTRA:                  -0.015
REMARK UNBOUND:                -0.020
ROOT
ATOM      1  C3  3CL L   1       5.496   7.841  -4.453  1.00  0.00    +0.0127  A
ATOM      2  C4  3CL L   1       6.773   8.409  -4.313  1.00  0.00    -0.0530  A
ATOM      3  C5  3CL L   1       7.840   7.645  -3.834  1.00  0.00    -0.0599  A
ATOM      4  C6  3CL L   1       7.647   6.307  -3.494  1.00  0.00    -0.0434  A
ATOM      5  C7  3CL L   1       6.386   5.736  -3.632  1.00  0.00    +0.0414  A
ATOM      6 CL8  3CL L   1       6.140   4.085  -3.220  1.00  0.00    -0.0835 Cl
ATOM      7  C9  3CL L   1       5.313   6.492  -4.109  1.00  0.00    -0.0347  A
ATOM      8 H14  3CL L   1       6.957   9.453  -4.566  1.00  0.00    +0.0622  H
ATOM      9 H15  3CL L   1       8.827   8.092  -3.721  1.00  0.00    +0.0618  H
ATOM     10 H16  3CL L   1       8.483   5.718  -3.119  1.00  0.00    +0.0632  H
ATOM     11 H17  3CL L   1       4.338   6.015  -4.196  1.00  0.00    +0.0637  H
ENDROOT
BRANCH 1 13
ATOM     12  N1  3CL L   1       4.281   8.563  -6.471  1.00  0.00    -0.1914  N
ATOM     13  C2  3CL L   1       4.356   8.654  -4.996  1.00  0.00    +0.1466  C
ATOM     14 H10  3CL L   1       4.311   7.583  -6.779  1.00  0.00    +0.4054 HD
ATOM     15 H11  3CL L   1       3.415   8.984  -6.828  1.00  0.00    +0.4054 HD
ATOM     16 H12  3CL L   1       3.393   8.307  -4.609  1.00  0.00    +0.1017  H
ATOM     17 H13  3CL L   1       4.468   9.712  -4.743  1.00  0.00    +0.1017  H
ENDBRANCH 1 13
TORSDOF 1
ENDMDL
MODEL 6
REMARK VINA RESULT:    -4.460     12.509     13.091
REMARK INTER + INTRA:          -4.741
REMARK INTER:                  -4.721
REMARK INTRA:                  -0.020
REMARK UNBOUND:                -0.020
ROOT
ATOM      1  C3  3CL L   1       5.932   6.549  -3.836  1.00  0.00    +0.0127  A
ATOM      2  C4  3CL L   1       5.486   5.219  -3.881  1.00  0.00    -0.0530  A
ATOM      3  C5  3CL L   1       6.186   4.212  -3.211  1.00  0.00    -0.0599  A
ATOM      4  C6  3CL L   1       7.335   4.522  -2.485  1.00  0.00    -0.0434  A
ATOM      5  C7  3CL L   1       7.783   5.838  -2.433  1.00  0.00    +0.0414  A
ATOM      6 CL8  3CL L   1       9.195   6.231  -1.535  1.00  0.00    -0.0835 Cl
ATOM      7  C9  3CL L   1       7.090   6.850  -3.100  1.00  0.00    -0.0347  A
ATOM      8 H14  3CL L   1       4.594   4.940  -4.443  1.00  0.00    +0.0622  H
ATOM      9 H15  3CL L   1       5.840   3.181  -3.255  1.00  0.00    +0.0618  H
ATOM     10 H16  3CL L   1       7.877   3.733  -1.967  1.00  0.00    +0.0632  H
ATOM     11 H17  3CL L   1       7.473   7.868  -3.045  1.00  0.00    +0.0637  H
ENDROOT
BRANCH 1 13
ATOM     12  N1  3CL L   1       6.066   8.601  -5.194  1.00  0.00    -0.1914  N
ATOM     13  C2  3CL L   1       5.163   7.634  -4.531  1.00  0.00    +0.1466  C
ATOM     14 H10  3CL L   1       6.762   8.113  -5.772  1.00  0.00    +0.4054 HD
ATOM     15 H11  3CL L   1       5.545   9.247  -5.798  1.00  0.00    +0.4054 HD
ATOM     16 H12  3CL L   1       4.508   7.230  -5.309  1.00  0.00    +0.1017  H
ATOM     17 H13  3CL L   1       4.549   8.200  -3.824  1.00  0.00    +0.1017  H
ENDBRANCH 1 13
TORSDOF 1
ENDMDL
MODEL 7
REMARK VINA RESULT:    -4.452     12.140     12.893
REMARK INTER + INTRA:          -4.732
REMARK INTER:                  -4.710
REMARK INTRA:                  -0.022
REMARK UNBOUND:                -0.020
ROOT
ATOM      1  C3  3CL L   1       7.408   7.262  -3.713  1.00  0.00    +0.0127  A
ATOM      2  C4  3CL L   1       7.209   5.875  -3.798  1.00  0.00    -0.0530  A
ATOM      3  C5  3CL L   1       7.947   5.002  -2.995  1.00  0.00    -0.0599  A
ATOM      4  C6  3CL L   1       8.887   5.501  -2.096  1.00  0.00    -0.0434  A
ATOM      5  C7  3CL L   1       9.088   6.875  -2.002  1.00  0.00    +0.0414  A
ATOM      6 CL8  3CL L   1      10.241   7.501  -0.891  1.00  0.00    -0.0835 Cl
ATOM      7  C9  3CL L   1       8.357   7.756  -2.802  1.00  0.00    -0.0347  A
ATOM      8 H14  3CL L   1       6.486   5.450  -4.495  1.00  0.00    +0.0622  H
ATOM      9 H15  3CL L   1       7.794   3.926  -3.071  1.00  0.00    +0.0618  H
ATOM     10 H16  3CL L   1       9.460   4.816  -1.474  1.00  0.00    +0.0632  H
ATOM     11 H17  3CL L   1       8.545   8.824  -2.708  1.00  0.00    +0.0637  H
ENDROOT
BRANCH 1 13
ATOM     12  N1  3CL L   1       5.171   7.800  -4.593  1.00  0.00    -0.1914  N
ATOM     13  C2  3CL L   1       6.594   8.202  -4.554  1.00  0.00    +0.1466  C
ATOM     14 H10  3CL L   1       4.812   7.634  -3.644  1.00  0.00    +0.4054 HD
ATOM     15 H11  3CL L   1       4.589   8.524  -5.031  1.00  0.00    +0.4054 HD
ATOM     16 H12  3CL L   1       6.624   9.223  -4.162  1.00  0.00    +0.1017  H
ATOM     17 H13  3CL L   1       6.952   8.220  -5.588  1.00  0.00    +0.1017  H
ENDBRANCH 1 13
TORSDOF 1
ENDMDL
MODEL 8
REMARK VINA RESULT:    -4.323     12.771     13.261
REMARK INTER + INTRA:          -4.596
REMARK INTER:                  -4.575
REMARK INTRA:                  -0.021
REMARK UNBOUND:                -0.020
ROOT
ATOM      1  C3  3CL L   1       7.413   5.530  -2.671  1.00  0.00    +0.0127  A
ATOM      2  C4  3CL L   1       6.463   4.621  -3.162  1.00  0.00    -0.0530  A
ATOM      3  C5  3CL L   1       5.434   5.055  -4.002  1.00  0.00    -0.0599  A
ATOM      4  C6  3CL L   1       5.345   6.398  -4.364  1.00  0.00    -0.0434  A
ATOM      5  C7  3CL L   1       6.285   7.305  -3.885  1.00  0.00    +0.0414  A
ATOM      6 CL8  3CL L   1       6.186   8.962  -4.331  1.00  0.00    -0.0835 Cl
ATOM      7  C9  3CL L   1       7.316   6.880  -3.044  1.00  0.00    -0.0347  A
ATOM      8 H14  3CL L   1       6.500   3.564  -2.895  1.00  0.00    +0.0622  H
ATOM      9 H15  3CL L   1       4.694   4.347  -4.374  1.00  0.00    +0.0618  H
ATOM     10 H16  3CL L   1       4.539   6.730  -5.017  1.00  0.00    +0.0632  H
ATOM     11 H17  3CL L   1       8.029   7.618  -2.681  1.00  0.00    +0.0637  H
ENDROOT
BRANCH 1 13
ATOM     12  N1  3CL L   1       8.059   4.106  -0.766  1.00  0.00    -0.1914  N
ATOM     13  C2  3CL L   1       8.536   5.057  -1.794  1.00  0.00    +0.1466  C
ATOM     14 H10  3CL L   1       7.489   3.364  -1.192  1.00  0.00    +0.4054 HD
ATOM     15 H11  3CL L   1       8.843   3.663  -0.273  1.00  0.00    +0.4054 HD
ATOM     16 H12  3CL L   1       9.308   4.538  -2.371  1.00  0.00    +0.1017  H
ATOM     17 H13  3CL L   1       9.006   5.893  -1.266  1.00  0.00    +0.1017  H
ENDBRANCH 1 13
TORSDOF 1
ENDMDL
MODEL 9
REMARK VINA RESULT:    -4.203     12.508     13.177
REMARK INTER + INTRA:          -4.469
REMARK INTER:                  -4.448
REMARK INTRA:                  -0.021
REMARK UNBOUND:                -0.020
ROOT
ATOM      1  C3  3CL L   1       5.849   8.567  -4.787  1.00  0.00    +0.0127  A
ATOM      2  C4  3CL L   1       7.142   8.156  -4.424  1.00  0.00    -0.0530  A
ATOM      3  C5  3CL L   1       7.420   7.761  -3.113  1.00  0.00    -0.0599  A
ATOM      4  C6  3CL L   1       6.411   7.768  -2.151  1.00  0.00    -0.0434  A
ATOM      5  C7  3CL L   1       5.127   8.171  -2.502  1.00  0.00    +0.0414  A
ATOM      6 CL8  3CL L   1       3.875   8.176  -1.323  1.00  0.00    -0.0835 Cl
ATOM      7  C9  3CL L   1       4.840   8.568  -3.809  1.00  0.00    -0.0347  A
ATOM      8 H14  3CL L   1       7.955   8.144  -5.151  1.00  0.00    +0.0622  H
ATOM      9 H15  3CL L   1       8.426   7.451  -2.836  1.00  0.00    +0.0618  H
ATOM     10 H16  3CL L   1       6.635   7.461  -1.131  1.00  0.00    +0.0632  H
ATOM     11 H17  3CL L   1       3.826   8.885  -4.047  1.00  0.00    +0.0637  H
ENDROOT
BRANCH 1 13
ATOM     12  N1  3CL L   1       4.199   8.505  -6.615  1.00  0.00    -0.1914  N
ATOM     13  C2  3CL L   1       5.544   8.962  -6.202  1.00  0.00    +0.1466  C
ATOM     14 H10  3CL L   1       3.492   8.774  -5.919  1.00  0.00    +0.4054 HD
ATOM     15 H11  3CL L   1       3.927   8.908  -7.519  1.00  0.00    +0.4054 HD
ATOM     16 H12  3CL L   1       5.561  10.049  -6.331  1.00  0.00    +0.1017  H
ATOM     17 H13  3CL L   1       6.262   8.521  -6.900  1.00  0.00    +0.1017  H
ENDBRANCH 1 13
TORSDOF 1
ENDMDL
MODEL 10
REMARK VINA RESULT:    -4.138     22.984     24.401
REMARK INTER + INTRA:          -4.399
REMARK INTER:                  -4.383
REMARK INTRA:                  -0.016
REMARK UNBOUND:                -0.020
ROOT
ATOM      1  C3  3CL L   1       9.189  -4.700   4.760  1.00  0.00    +0.0127  A
ATOM      2  C4  3CL L   1       9.043  -4.100   6.021  1.00  0.00    -0.0530  A
ATOM      3  C5  3CL L   1       8.441  -4.796   7.073  1.00  0.00    -0.0599  A
ATOM      4  C6  3CL L   1       7.983  -6.098   6.880  1.00  0.00    -0.0434  A
ATOM      5  C7  3CL L   1       8.127  -6.701   5.635  1.00  0.00    +0.0414  A
ATOM      6 CL8  3CL L   1       7.571  -8.309   5.389  1.00  0.00    -0.0835 Cl
ATOM      7  C9  3CL L   1       8.726  -6.013   4.577  1.00  0.00    -0.0347  A
ATOM      8 H14  3CL L   1       9.385  -3.081   6.205  1.00  0.00    +0.0622  H
ATOM      9 H15  3CL L   1       8.323  -4.323   8.047  1.00  0.00    +0.0618  H
ATOM     10 H16  3CL L   1       7.513  -6.634   7.703  1.00  0.00    +0.0632  H
ATOM     11 H17  3CL L   1       8.815  -6.513   3.614  1.00  0.00    +0.0637  H
ENDROOT
BRANCH 1 13
ATOM     12  N1  3CL L   1       9.069  -2.792   3.205  1.00  0.00    -0.1914  N
ATOM     13  C2  3CL L   1       9.863  -3.963   3.639  1.00  0.00    +0.1466  C
ATOM     14 H10  3CL L   1       8.797  -2.216   4.012  1.00  0.00    +0.4054 HD
ATOM     15 H11  3CL L   1       9.600  -2.201   2.555  1.00  0.00    +0.4054 HD
ATOM     16 H12  3CL L   1      10.845  -3.585   3.938  1.00  0.00    +0.1017  H
ATOM     17 H13  3CL L   1       9.993  -4.606   2.764  1.00  0.00    +0.1017  H
ENDBRANCH 1 13
TORSDOF 1
ENDMDL
MODEL 11
REMARK VINA RESULT:    -4.125     12.761     13.402
REMARK INTER + INTRA:          -4.385
REMARK INTER:                  -4.362
REMARK INTRA:                  -0.024
REMARK UNBOUND:                -0.020
ROOT
ATOM      1  C3  3CL L   1       6.681   6.238  -3.449  1.00  0.00    +0.0127  A
ATOM      2  C4  3CL L   1       7.714   7.123  -3.796  1.00  0.00    -0.0530  A
ATOM      3  C5  3CL L   1       7.631   8.477  -3.462  1.00  0.00    -0.0599  A
ATOM      4  C6  3CL L   1       6.520   8.962  -2.774  1.00  0.00    -0.0434  A
ATOM      5  C7  3CL L   1       5.493   8.091  -2.423  1.00  0.00    +0.0414  A
ATOM      6 CL8  3CL L   1       4.122   8.679  -1.568  1.00  0.00    -0.0835 Cl
ATOM      7  C9  3CL L   1       5.567   6.737  -2.754  1.00  0.00    -0.0347  A
ATOM      8 H14  3CL L   1       8.595   6.778  -4.339  1.00  0.00    +0.0622  H
ATOM      9 H15  3CL L   1       8.432   9.161  -3.740  1.00  0.00    +0.0618  H
ATOM     10 H16  3CL L   1       6.460  10.018  -2.518  1.00  0.00    +0.0632  H
ATOM     11 H17  3CL L   1       4.741   6.085  -2.470  1.00  0.00    +0.0637  H
ENDROOT
BRANCH 1 13
ATOM     12  N1  3CL L   1       5.481   4.094  -3.633  1.00  0.00    -0.1914  N
ATOM     13  C2  3CL L   1       6.784   4.778  -3.781  1.00  0.00    +0.1466  C
ATOM     14 H10  3CL L   1       4.740   4.608  -4.127  1.00  0.00    +0.4054 HD
ATOM     15 H11  3CL L   1       5.514   3.140  -4.011  1.00  0.00    +0.4054 HD
ATOM     16 H12  3CL L   1       7.107   4.621  -4.815  1.00  0.00    +0.1017  H
ATOM     17 H13  3CL L   1       7.492   4.270  -3.119  1.00  0.00    +0.1017  H
ENDBRANCH 1 13
TORSDOF 1
ENDMDL
MODEL 12
REMARK VINA RESULT:    -3.967     21.965     23.177
REMARK INTER + INTRA:          -4.219
REMARK INTER:                  -4.193
REMARK INTRA:                  -0.026
REMARK UNBOUND:                -0.020
ROOT
ATOM      1  C3  3CL L   1      10.562  -3.273   4.551  1.00  0.00    +0.0127  A
ATOM      2  C4  3CL L   1      10.056  -2.842   5.788  1.00  0.00    -0.0530  A
ATOM      3  C5  3CL L   1       8.933  -3.456   6.347  1.00  0.00    -0.0599  A
ATOM      4  C6  3CL L   1       8.305  -4.508   5.683  1.00  0.00    -0.0434  A
ATOM      5  C7  3CL L   1       8.802  -4.943   4.459  1.00  0.00    +0.0414  A
ATOM      6 CL8  3CL L   1       8.038  -6.244   3.635  1.00  0.00    -0.0835 Cl
ATOM      7  C9  3CL L   1       9.924  -4.336   3.891  1.00  0.00    -0.0347  A
ATOM      8 H14  3CL L   1      10.520  -2.019   6.332  1.00  0.00    +0.0622  H
ATOM      9 H15  3CL L   1       8.540  -3.113   7.304  1.00  0.00    +0.0618  H
ATOM     10 H16  3CL L   1       7.429  -4.980   6.123  1.00  0.00    +0.0632  H
ATOM     11 H17  3CL L   1      10.281  -4.696   2.928  1.00  0.00    +0.0637  H
ENDROOT
BRANCH 1 13
ATOM     12  N1  3CL L   1      12.216  -1.457   4.753  1.00  0.00    -0.1914  N
ATOM     13  C2  3CL L   1      11.788  -2.634   3.965  1.00  0.00    +0.1466  C
ATOM     14 H10  3CL L   1      12.274  -1.689   5.753  1.00  0.00    +0.4054 HD
ATOM     15 H11  3CL L   1      13.136  -1.118   4.451  1.00  0.00    +0.4054 HD
ATOM     16 H12  3CL L   1      12.635  -3.327   3.947  1.00  0.00    +0.1017  H
ATOM     17 H13  3CL L   1      11.604  -2.288   2.943  1.00  0.00    +0.1017  H
ENDBRANCH 1 13
TORSDOF 1
ENDMDL
