MODEL 1
REMARK VINA RESULT:    -7.976      0.000      0.000
REMARK INTER + INTRA:         -13.068
REMARK INTER:                 -11.707
REMARK INTRA:                  -1.361
REMARK UNBOUND:                -1.361
ROOT
ATOM      1  N6  665 L   1       5.635  -4.545 -16.400  1.00  0.00    -0.2626 NA
ATOM      2 C16  665 L   1       1.522  -5.284 -13.547  1.00  0.00    +0.0423  A
ATOM      3 C18  665 L   1       2.893  -5.353 -13.296  1.00  0.00    -0.0305  A
ATOM      4 C19  665 L   1       3.820  -5.087 -14.317  1.00  0.00    -0.0131  A
ATOM      5 C20  665 L   1       1.058  -4.950 -14.817  1.00  0.00    -0.0377  A
ATOM      6 C21  665 L   1       3.347  -4.750 -15.603  1.00  0.00    +0.0004  A
ATOM      7 C22  665 L   1       1.964  -4.684 -15.843  1.00  0.00    -0.0506  A
ATOM      8 C26  665 L   1       5.202  -5.147 -14.098  1.00  0.00    -0.0358  A
ATOM      9 C30  665 L   1       4.298  -4.493 -16.592  1.00  0.00    +0.0353  A
ATOM     10 C33  665 L   1       6.052  -4.872 -15.158  1.00  0.00    +0.0281  A
ATOM     11 H48  665 L   1       3.229  -5.600 -12.352  1.00  0.00    +0.0644  H
ATOM     12 H49  665 L   1       0.043  -4.901 -15.000  1.00  0.00    +0.0638  H
ATOM     13 H50  665 L   1       1.618  -4.437 -16.783  1.00  0.00    +0.0625  H
ATOM     14 H51  665 L   1       5.578  -5.392 -13.169  1.00  0.00    +0.0639  H
ATOM     15 H54  665 L   1       3.957  -4.245 -17.534  1.00  0.00    +0.0836  H
ATOM     16 H59  665 L   1       7.067  -4.918 -14.986  1.00  0.00    +0.0830  H
ENDROOT
BRANCH 2 18
ATOM     17  O2  665 L   1       0.257  -7.867 -12.697  1.00  0.00    -0.2720 OA
ATOM     18  N4  665 L   1       0.612  -5.549 -12.521  1.00  0.00    -0.3255  N
ATOM     19 C10  665 L   1       0.041  -6.782 -12.164  1.00  0.00    +0.2381  C
ATOM     20 H35  665 L   1       0.338  -4.775 -11.979  1.00  0.00    +0.1686 HD
BRANCH 19 21
ATOM     21  C7  665 L   1      -0.918  -6.648 -10.971  1.00  0.00    +0.1122  C
ATOM     22 H39  665 L   1      -0.696  -5.752 -10.430  1.00  0.00    +0.0502  H
BRANCH 21 23
ATOM     23  C8  665 L   1      -2.352  -6.524 -11.461  1.00  0.00    -0.0300  A
ATOM     24 C11  665 L   1      -3.050  -7.659 -11.874  1.00  0.00    -0.0573  A
ATOM     25 C12  665 L   1      -2.971  -5.274 -11.496  1.00  0.00    -0.0573  A
ATOM     26 C13  665 L   1      -4.983  -6.295 -12.359  1.00  0.00    -0.0103  A
ATOM     27 C14  665 L   1      -4.365  -7.544 -12.324  1.00  0.00    -0.0551  A
ATOM     28 C15  665 L   1      -4.286  -5.159 -11.946  1.00  0.00    -0.0551  A
ATOM     29 H42  665 L   1      -2.592  -8.584 -11.848  1.00  0.00    +0.0621  H
ATOM     30 H43  665 L   1      -2.455  -4.434 -11.190  1.00  0.00    +0.0621  H
ATOM     31 H44  665 L   1      -4.881  -8.385 -12.630  1.00  0.00    +0.0621  H
ATOM     32 H45  665 L   1      -4.744  -4.234 -11.972  1.00  0.00    +0.0621  H
BRANCH 26 33
ATOM     33 C17  665 L   1      -6.390  -6.172 -12.839  1.00  0.00    +0.1179  C
ATOM     34 H46  665 L   1      -6.424  -6.343 -13.895  1.00  0.00    +0.0749  H
ATOM     35 H47  665 L   1      -7.002  -6.894 -12.341  1.00  0.00    +0.0749  H
BRANCH 33 36
ATOM     36  O1  665 L   1      -6.874  -4.864 -12.555  1.00  0.00    -0.4564 OA
BRANCH 36 38
ATOM     37  O3  665 L   1      -9.045  -5.050 -13.296  1.00  0.00    -0.2449 OA
ATOM     38 C25  665 L   1      -7.972  -4.468 -13.254  1.00  0.00    +0.3398  C
BRANCH 38 39
ATOM     39 C23  665 L   1      -7.701  -3.204 -13.986  1.00  0.00    +0.0619  A
ATOM     40 C24  665 L   1      -7.210  -3.219 -15.292  1.00  0.00    -0.0362  A
ATOM     41 C27  665 L   1      -7.208  -0.802 -15.317  1.00  0.00    -0.0502  A
ATOM     42 C28  665 L   1      -6.964  -2.018 -15.957  1.00  0.00    -0.0551  A
ATOM     43 C29  665 L   1      -7.946  -1.990 -13.345  1.00  0.00    -0.0473  A
ATOM     44 C31  665 L   1      -7.699  -0.788 -14.010  1.00  0.00    -0.0580  A
ATOM     45 C32  665 L   1      -6.941  -4.506 -16.002  1.00  0.00    -0.0389  C
ATOM     46 C34  665 L   1      -6.944   0.482 -16.026  1.00  0.00    -0.0397  C
ATOM     47 H52  665 L   1      -6.600  -2.028 -16.923  1.00  0.00    +0.0623  H
ATOM     48 H53  665 L   1      -8.310  -1.980 -12.381  1.00  0.00    +0.0626  H
ATOM     49 H55  665 L   1      -7.880   0.110 -13.536  1.00  0.00    +0.0620  H
ATOM     50 H56  665 L   1      -7.181  -5.325 -15.357  1.00  0.00    +0.0278  H
ATOM     51 H57  665 L   1      -5.907  -4.555 -16.271  1.00  0.00    +0.0278  H
ATOM     52 H58  665 L   1      -7.541  -4.558 -16.885  1.00  0.00    +0.0278  H
ATOM     53 H60  665 L   1      -6.575   0.278 -17.009  1.00  0.00    +0.0278  H
ATOM     54 H61  665 L   1      -6.217   1.048 -15.482  1.00  0.00    +0.0278  H
ATOM     55 H62  665 L   1      -7.853   1.044 -16.097  1.00  0.00    +0.0278  H
ENDBRANCH 38 39
ENDBRANCH 36 38
ENDBRANCH 33 36
ENDBRANCH 26 33
ENDBRANCH 21 23
BRANCH 21 57
ATOM     56  N5  665 L   1       0.655  -7.896  -9.502  1.00  0.00    -0.3600  N
ATOM     57  C9  665 L   1      -0.719  -7.822  -9.991  1.00  0.00    +0.0921  C
ATOM     58 H36  665 L   1       0.746  -8.681  -8.858  1.00  0.00    +0.3450 HD
ATOM     59 H37  665 L   1       0.891  -7.030  -9.017  1.00  0.00    +0.3450 HD
ATOM     60 H38  665 L   1       1.290  -8.027 -10.290  1.00  0.00    +0.3450 HD
ATOM     61 H40  665 L   1      -1.376  -7.690  -9.156  1.00  0.00    +0.0926  H
ATOM     62 H41  665 L   1      -0.935  -8.731 -10.511  1.00  0.00    +0.0926  H
ENDBRANCH 21 57
ENDBRANCH 19 21
ENDBRANCH 2 18
TORSDOF 8
ENDMDL
MODEL 2
REMARK VINA RESULT:    -7.904      2.887      9.795
REMARK INTER + INTRA:         -12.962
REMARK INTER:                 -11.564
REMARK INTRA:                  -1.398
REMARK UNBOUND:                -1.361
ROOT
ATOM      1  N6  665 L   1      -9.375  -4.348 -13.356  1.00  0.00    -0.2626 NA
ATOM      2 C16  665 L   1      -4.927  -6.654 -12.647  1.00  0.00    +0.0423  A
ATOM      3 C18  665 L   1      -5.319  -5.316 -12.714  1.00  0.00    -0.0305  A
ATOM      4 C19  665 L   1      -6.664  -4.976 -12.926  1.00  0.00    -0.0131  A
ATOM      5 C20  665 L   1      -5.871  -7.668 -12.793  1.00  0.00    -0.0377  A
ATOM      6 C21  665 L   1      -7.618  -6.005 -13.074  1.00  0.00    +0.0004  A
ATOM      7 C22  665 L   1      -7.211  -7.348 -13.005  1.00  0.00    -0.0506  A
ATOM      8 C26  665 L   1      -7.090  -3.643 -12.998  1.00  0.00    -0.0358  A
ATOM      9 C30  665 L   1      -8.945  -5.628 -13.284  1.00  0.00    +0.0353  A
ATOM     10 C33  665 L   1      -8.436  -3.390 -13.211  1.00  0.00    +0.0281  A
ATOM     11 H48  665 L   1      -4.614  -4.570 -12.605  1.00  0.00    +0.0644  H
ATOM     12 H49  665 L   1      -5.577  -8.656 -12.744  1.00  0.00    +0.0638  H
ATOM     13 H50  665 L   1      -7.908  -8.101 -13.113  1.00  0.00    +0.0625  H
ATOM     14 H51  665 L   1      -6.416  -2.869 -12.895  1.00  0.00    +0.0639  H
ATOM     15 H54  665 L   1      -9.647  -6.378 -13.392  1.00  0.00    +0.0836  H
ATOM     16 H59  665 L   1      -8.739  -2.405 -13.262  1.00  0.00    +0.0830  H
ENDROOT
BRANCH 2 18
ATOM     17  O2  665 L   1      -3.329  -6.721 -10.110  1.00  0.00    -0.2720 OA
ATOM     18  N4  665 L   1      -3.585  -6.977 -12.434  1.00  0.00    -0.3255  N
ATOM     19 C10  665 L   1      -2.876  -6.987 -11.221  1.00  0.00    +0.2381  C
ATOM     20 H35  665 L   1      -3.071  -7.228 -13.234  1.00  0.00    +0.1686 HD
BRANCH 19 21
ATOM     21  C7  665 L   1      -1.410  -7.401 -11.414  1.00  0.00    +0.1122  C
ATOM     22 H39  665 L   1      -1.365  -8.319 -11.962  1.00  0.00    +0.0502  H
BRANCH 21 23
ATOM     23  C8  665 L   1      -0.674  -6.358 -12.240  1.00  0.00    -0.0300  A
ATOM     24 C11  665 L   1      -0.018  -6.732 -13.414  1.00  0.00    -0.0573  A
ATOM     25 C12  665 L   1      -0.654  -5.026 -11.824  1.00  0.00    -0.0573  A
ATOM     26 C13  665 L   1       0.677  -4.444 -13.755  1.00  0.00    -0.0103  A
ATOM     27 C14  665 L   1       0.658  -5.775 -14.170  1.00  0.00    -0.0551  A
ATOM     28 C15  665 L   1       0.023  -4.069 -12.582  1.00  0.00    -0.0551  A
ATOM     29 H42  665 L   1      -0.033  -7.717 -13.722  1.00  0.00    +0.0621  H
ATOM     30 H43  665 L   1      -1.138  -4.749 -10.956  1.00  0.00    +0.0621  H
ATOM     31 H44  665 L   1       1.142  -6.052 -15.039  1.00  0.00    +0.0621  H
ATOM     32 H45  665 L   1       0.037  -3.084 -12.274  1.00  0.00    +0.0621  H
BRANCH 26 33
ATOM     33 C17  665 L   1       1.400  -3.420 -14.564  1.00  0.00    +0.1179  C
ATOM     34 H46  665 L   1       0.770  -2.567 -14.706  1.00  0.00    +0.0749  H
ATOM     35 H47  665 L   1       2.291  -3.124 -14.052  1.00  0.00    +0.0749  H
BRANCH 33 36
ATOM     36  O1  665 L   1       1.742  -3.974 -15.830  1.00  0.00    -0.4564 OA
BRANCH 36 38
ATOM     37  O3  665 L   1       3.581  -3.137 -16.931  1.00  0.00    -0.2449 OA
ATOM     38 C25  665 L   1       3.060  -3.931 -16.163  1.00  0.00    +0.3398  C
BRANCH 38 39
ATOM     39 C23  665 L   1       3.815  -5.001 -15.461  1.00  0.00    +0.0619  A
ATOM     40 C24  665 L   1       3.783  -6.320 -15.913  1.00  0.00    -0.0362  A
ATOM     41 C27  665 L   1       5.248  -6.973 -14.105  1.00  0.00    -0.0502  A
ATOM     42 C28  665 L   1       4.500  -7.306 -15.235  1.00  0.00    -0.0551  A
ATOM     43 C29  665 L   1       4.562  -4.667 -14.332  1.00  0.00    -0.0473  A
ATOM     44 C31  665 L   1       5.279  -5.653 -13.654  1.00  0.00    -0.0580  A
ATOM     45 C32  665 L   1       2.992  -6.705 -17.120  1.00  0.00    -0.0389  C
ATOM     46 C34  665 L   1       6.015  -8.026 -13.379  1.00  0.00    -0.0397  C
ATOM     47 H52  665 L   1       4.477  -8.283 -15.569  1.00  0.00    +0.0623  H
ATOM     48 H53  665 L   1       4.586  -3.691 -13.999  1.00  0.00    +0.0626  H
ATOM     49 H55  665 L   1       5.832  -5.406 -12.818  1.00  0.00    +0.0620  H
ATOM     50 H56  665 L   1       2.506  -5.839 -17.519  1.00  0.00    +0.0278  H
ATOM     51 H57  665 L   1       2.256  -7.432 -16.848  1.00  0.00    +0.0278  H
ATOM     52 H58  665 L   1       3.645  -7.119 -17.859  1.00  0.00    +0.0278  H
ATOM     53 H60  665 L   1       5.874  -8.968 -13.865  1.00  0.00    +0.0278  H
ATOM     54 H61  665 L   1       5.666  -8.089 -12.370  1.00  0.00    +0.0278  H
ATOM     55 H62  665 L   1       7.055  -7.775 -13.382  1.00  0.00    +0.0278  H
ENDBRANCH 38 39
ENDBRANCH 36 38
ENDBRANCH 33 36
ENDBRANCH 26 33
ENDBRANCH 21 23
BRANCH 21 57
ATOM     56  N5  665 L   1       0.701  -7.451 -10.097  1.00  0.00    -0.3600  N
ATOM     57  C9  665 L   1      -0.743  -7.664 -10.048  1.00  0.00    +0.0921  C
ATOM     58 H36  665 L   1       1.103  -7.633  -9.178  1.00  0.00    +0.3450 HD
ATOM     59 H37  665 L   1       0.893  -6.486 -10.366  1.00  0.00    +0.3450 HD
ATOM     60 H38  665 L   1       1.114  -8.083 -10.782  1.00  0.00    +0.3450 HD
ATOM     61 H40  665 L   1      -1.167  -7.000  -9.323  1.00  0.00    +0.0926  H
ATOM     62 H41  665 L   1      -0.919  -8.685  -9.784  1.00  0.00    +0.0926  H
ENDBRANCH 21 57
ENDBRANCH 19 21
ENDBRANCH 2 18
TORSDOF 8
ENDMDL
MODEL 3
REMARK VINA RESULT:    -7.800      1.296      1.915
REMARK INTER + INTRA:         -12.810
REMARK INTER:                 -11.345
REMARK INTRA:                  -1.465
REMARK UNBOUND:                -1.361
ROOT
ATOM      1  N6  665 L   1       5.985  -5.085 -15.372  1.00  0.00    -0.2626 NA
ATOM      2 C16  665 L   1       1.662  -6.152 -12.968  1.00  0.00    +0.0423  A
ATOM      3 C18  665 L   1       3.007  -6.393 -12.685  1.00  0.00    -0.0305  A
ATOM      4 C19  665 L   1       4.012  -5.964 -13.567  1.00  0.00    -0.0131  A
ATOM      5 C20  665 L   1       1.302  -5.482 -14.135  1.00  0.00    -0.0377  A
ATOM      6 C21  665 L   1       3.643  -5.286 -14.748  1.00  0.00    +0.0004  A
ATOM      7 C22  665 L   1       2.286  -5.050 -15.023  1.00  0.00    -0.0506  A
ATOM      8 C26  665 L   1       5.370  -6.191 -13.312  1.00  0.00    -0.0358  A
ATOM      9 C30  665 L   1       4.669  -4.876 -15.602  1.00  0.00    +0.0353  A
ATOM     10 C33  665 L   1       6.301  -5.737 -14.233  1.00  0.00    +0.0281  A
ATOM     11 H48  665 L   1       3.266  -6.890 -11.818  1.00  0.00    +0.0644  H
ATOM     12 H49  665 L   1       0.306  -5.306 -14.342  1.00  0.00    +0.0638  H
ATOM     13 H50  665 L   1       2.016  -4.553 -15.887  1.00  0.00    +0.0625  H
ATOM     14 H51  665 L   1       5.670  -6.685 -12.457  1.00  0.00    +0.0639  H
ATOM     15 H54  665 L   1       4.404  -4.379 -16.467  1.00  0.00    +0.0836  H
ATOM     16 H59  665 L   1       7.298  -5.908 -14.035  1.00  0.00    +0.0830  H
ENDROOT
BRANCH 2 18
ATOM     17  O2  665 L   1       0.204  -4.657 -10.815  1.00  0.00    -0.2720 OA
ATOM     18  N4  665 L   1       0.675  -6.583 -12.079  1.00  0.00    -0.3255  N
ATOM     19 C10  665 L   1       0.023  -5.843 -11.079  1.00  0.00    +0.2381  C
ATOM     20 H35  665 L   1       0.402  -7.525 -12.165  1.00  0.00    +0.1686 HD
BRANCH 19 21
ATOM     21  C7  665 L   1      -1.004  -6.690 -10.313  1.00  0.00    +0.1122  C
ATOM     22 H39  665 L   1      -1.300  -6.177  -9.421  1.00  0.00    +0.0502  H
BRANCH 21 23
ATOM     23  C8  665 L   1      -2.259  -6.878 -11.150  1.00  0.00    -0.0300  A
ATOM     24 C11  665 L   1      -3.029  -5.773 -11.513  1.00  0.00    -0.0573  A
ATOM     25 C12  665 L   1      -2.641  -8.157 -11.557  1.00  0.00    -0.0573  A
ATOM     26 C13  665 L   1      -4.562  -7.224 -12.686  1.00  0.00    -0.0103  A
ATOM     27 C14  665 L   1      -4.181  -5.946 -12.280  1.00  0.00    -0.0551  A
ATOM     28 C15  665 L   1      -3.793  -8.330 -12.324  1.00  0.00    -0.0551  A
ATOM     29 H42  665 L   1      -2.746  -4.826 -11.213  1.00  0.00    +0.0621  H
ATOM     30 H43  665 L   1      -2.072  -8.975 -11.288  1.00  0.00    +0.0621  H
ATOM     31 H44  665 L   1      -4.750  -5.127 -12.549  1.00  0.00    +0.0621  H
ATOM     32 H45  665 L   1      -4.076  -9.277 -12.624  1.00  0.00    +0.0621  H
BRANCH 26 33
ATOM     33 C17  665 L   1      -5.794  -7.410 -13.507  1.00  0.00    +0.1179  C
ATOM     34 H46  665 L   1      -5.753  -8.357 -14.003  1.00  0.00    +0.0749  H
ATOM     35 H47  665 L   1      -6.654  -7.376 -12.873  1.00  0.00    +0.0749  H
BRANCH 33 36
ATOM     36  O1  665 L   1      -5.877  -6.369 -14.475  1.00  0.00    -0.4564 OA
BRANCH 36 38
ATOM     37  O3  665 L   1      -8.099  -6.654 -15.006  1.00  0.00    -0.2449 OA
ATOM     38 C25  665 L   1      -7.132  -5.941 -14.784  1.00  0.00    +0.3398  C
BRANCH 38 39
ATOM     39 C23  665 L   1      -7.186  -4.458 -14.821  1.00  0.00    +0.0619  A
ATOM     40 C24  665 L   1      -7.393  -3.715 -13.658  1.00  0.00    -0.0362  A
ATOM     41 C27  665 L   1      -7.282  -1.672 -14.946  1.00  0.00    -0.0502  A
ATOM     42 C28  665 L   1      -7.441  -2.322 -13.722  1.00  0.00    -0.0551  A
ATOM     43 C29  665 L   1      -7.028  -3.809 -16.046  1.00  0.00    -0.0473  A
ATOM     44 C31  665 L   1      -7.076  -2.416 -16.109  1.00  0.00    -0.0580  A
ATOM     45 C32  665 L   1      -7.564  -4.384 -12.334  1.00  0.00    -0.0389  C
ATOM     46 C34  665 L   1      -7.335  -0.184 -15.015  1.00  0.00    -0.0397  C
ATOM     47 H52  665 L   1      -7.594  -1.771 -12.862  1.00  0.00    +0.0623  H
ATOM     48 H53  665 L   1      -6.874  -4.359 -16.905  1.00  0.00    +0.0626  H
ATOM     49 H55  665 L   1      -6.959  -1.937 -17.015  1.00  0.00    +0.0620  H
ATOM     50 H56  665 L   1      -7.501  -5.445 -12.460  1.00  0.00    +0.0278  H
ATOM     51 H57  665 L   1      -8.520  -4.129 -11.927  1.00  0.00    +0.0278  H
ATOM     52 H58  665 L   1      -6.794  -4.057 -11.667  1.00  0.00    +0.0278  H
ATOM     53 H60  665 L   1      -7.498   0.213 -14.035  1.00  0.00    +0.0278  H
ATOM     54 H61  665 L   1      -8.134   0.116 -15.660  1.00  0.00    +0.0278  H
ATOM     55 H62  665 L   1      -6.408   0.188 -15.399  1.00  0.00    +0.0278  H
ENDBRANCH 38 39
ENDBRANCH 36 38
ENDBRANCH 33 36
ENDBRANCH 26 33
ENDBRANCH 21 23
BRANCH 21 57
ATOM     56  N5  665 L   1       0.633  -7.834  -8.829  1.00  0.00    -0.3600  N
ATOM     57  C9  665 L   1      -0.373  -8.026  -9.870  1.00  0.00    +0.0921  C
ATOM     58 H36  665 L   1       1.024  -8.737  -8.563  1.00  0.00    +0.3450 HD
ATOM     59 H37  665 L   1       0.200  -7.398  -8.014  1.00  0.00    +0.3450 HD
ATOM     60 H38  665 L   1       1.376  -7.230  -9.181  1.00  0.00    +0.3450 HD
ATOM     61 H40  665 L   1      -1.145  -8.664  -9.492  1.00  0.00    +0.0926  H
ATOM     62 H41  665 L   1       0.108  -8.464 -10.719  1.00  0.00    +0.0926  H
ENDBRANCH 21 57
ENDBRANCH 19 21
ENDBRANCH 2 18
TORSDOF 8
ENDMDL
MODEL 4
REMARK VINA RESULT:    -7.707      4.152     10.094
REMARK INTER + INTRA:         -12.673
REMARK INTER:                 -10.713
REMARK INTRA:                  -1.960
REMARK UNBOUND:                -1.361
ROOT
ATOM      1  N6  665 L   1      -7.931 -10.010 -11.558  1.00  0.00    -0.2626 NA
ATOM      2 C16  665 L   1      -3.277  -8.140 -12.236  1.00  0.00    +0.0423  A
ATOM      3 C18  665 L   1      -3.798  -9.166 -11.445  1.00  0.00    -0.0305  A
ATOM      4 C19  665 L   1      -5.171  -9.461 -11.470  1.00  0.00    -0.0131  A
ATOM      5 C20  665 L   1      -4.118  -7.396 -13.060  1.00  0.00    -0.0377  A
ATOM      6 C21  665 L   1      -6.020  -8.705 -12.306  1.00  0.00    +0.0004  A
ATOM      7 C22  665 L   1      -5.484  -7.675 -13.097  1.00  0.00    -0.0506  A
ATOM      8 C26  665 L   1      -5.724 -10.483 -10.689  1.00  0.00    -0.0358  A
ATOM      9 C30  665 L   1      -7.378  -9.027 -12.304  1.00  0.00    +0.0353  A
ATOM     10 C33  665 L   1      -7.089 -10.712 -10.770  1.00  0.00    +0.0281  A
ATOM     11 H48  665 L   1      -3.169  -9.713 -10.837  1.00  0.00    +0.0644  H
ATOM     12 H49  665 L   1      -3.730  -6.638 -13.643  1.00  0.00    +0.0638  H
ATOM     13 H50  665 L   1      -6.105  -7.122 -13.708  1.00  0.00    +0.0625  H
ATOM     14 H51  665 L   1      -5.129 -11.053 -10.068  1.00  0.00    +0.0639  H
ATOM     15 H54  665 L   1      -8.003  -8.477 -12.915  1.00  0.00    +0.0836  H
ATOM     16 H59  665 L   1      -7.486 -11.467 -10.192  1.00  0.00    +0.0830  H
ENDROOT
BRANCH 2 18
ATOM     17  O2  665 L   1      -1.793  -5.885 -10.930  1.00  0.00    -0.2720 OA
ATOM     18  N4  665 L   1      -1.910  -7.860 -12.200  1.00  0.00    -0.3255  N
ATOM     19 C10  665 L   1      -1.259  -6.782 -11.578  1.00  0.00    +0.2381  C
ATOM     20 H35  665 L   1      -1.328  -8.500 -12.671  1.00  0.00    +0.1686 HD
BRANCH 19 21
ATOM     21  C7  665 L   1       0.263  -6.836 -11.774  1.00  0.00    +0.1122  C
ATOM     22 H39  665 L   1       0.560  -7.838 -12.006  1.00  0.00    +0.0502  H
BRANCH 21 23
ATOM     23  C8  665 L   1       0.672  -5.970 -12.955  1.00  0.00    -0.0300  A
ATOM     24 C11  665 L   1       1.514  -4.875 -12.758  1.00  0.00    -0.0573  A
ATOM     25 C12  665 L   1       0.207  -6.271 -14.235  1.00  0.00    -0.0573  A
ATOM     26 C13  665 L   1       1.423  -4.380 -15.121  1.00  0.00    -0.0103  A
ATOM     27 C14  665 L   1       1.888  -4.080 -13.841  1.00  0.00    -0.0551  A
ATOM     28 C15  665 L   1       0.582  -5.475 -15.318  1.00  0.00    -0.0551  A
ATOM     29 H42  665 L   1       1.859  -4.652 -11.811  1.00  0.00    +0.0621  H
ATOM     30 H43  665 L   1      -0.415  -7.081 -14.381  1.00  0.00    +0.0621  H
ATOM     31 H44  665 L   1       2.511  -3.269 -13.696  1.00  0.00    +0.0621  H
ATOM     32 H45  665 L   1       0.237  -5.698 -16.265  1.00  0.00    +0.0621  H
BRANCH 26 33
ATOM     33 C17  665 L   1       1.824  -3.531 -16.280  1.00  0.00    +0.1179  C
ATOM     34 H46  665 L   1       1.506  -3.995 -17.190  1.00  0.00    +0.0749  H
ATOM     35 H47  665 L   1       1.366  -2.568 -16.191  1.00  0.00    +0.0749  H
BRANCH 33 36
ATOM     36  O1  665 L   1       3.239  -3.384 -16.290  1.00  0.00    -0.4564 OA
BRANCH 36 38
ATOM     37  O3  665 L   1       4.045  -4.507 -18.130  1.00  0.00    -0.2449 OA
ATOM     38 C25  665 L   1       3.937  -4.367 -16.921  1.00  0.00    +0.3398  C
BRANCH 38 39
ATOM     39 C23  665 L   1       4.570  -5.279 -15.935  1.00  0.00    +0.0619  A
ATOM     40 C24  665 L   1       4.163  -6.608 -15.818  1.00  0.00    -0.0362  A
ATOM     41 C27  665 L   1       5.790  -6.950 -14.064  1.00  0.00    -0.0502  A
ATOM     42 C28  665 L   1       4.774  -7.444 -14.883  1.00  0.00    -0.0551  A
ATOM     43 C29  665 L   1       5.585  -4.785 -15.116  1.00  0.00    -0.0473  A
ATOM     44 C31  665 L   1       6.196  -5.620 -14.180  1.00  0.00    -0.0580  A
ATOM     45 C32  665 L   1       3.079  -7.163 -16.683  1.00  0.00    -0.0389  C
ATOM     46 C34  665 L   1       6.443  -7.842 -13.063  1.00  0.00    -0.0397  C
ATOM     47 H52  665 L   1       4.473  -8.428 -14.796  1.00  0.00    +0.0623  H
ATOM     48 H53  665 L   1       5.886  -3.802 -15.204  1.00  0.00    +0.0626  H
ATOM     49 H55  665 L   1       6.947  -5.255 -13.575  1.00  0.00    +0.0620  H
ATOM     50 H56  665 L   1       2.720  -6.398 -17.340  1.00  0.00    +0.0278  H
ATOM     51 H57  665 L   1       2.275  -7.510 -16.068  1.00  0.00    +0.0278  H
ATOM     52 H58  665 L   1       3.464  -7.977 -17.259  1.00  0.00    +0.0278  H
ATOM     53 H60  665 L   1       6.006  -8.817 -13.116  1.00  0.00    +0.0278  H
ATOM     54 H61  665 L   1       6.301  -7.441 -12.081  1.00  0.00    +0.0278  H
ATOM     55 H62  665 L   1       7.489  -7.908 -13.274  1.00  0.00    +0.0278  H
ENDBRANCH 38 39
ENDBRANCH 36 38
ENDBRANCH 33 36
ENDBRANCH 26 33
ENDBRANCH 21 23
BRANCH 21 57
ATOM     56  N5  665 L   1       0.663  -7.365  -9.376  1.00  0.00    -0.3600  N
ATOM     57  C9  665 L   1       0.985  -6.450 -10.468  1.00  0.00    +0.0921  C
ATOM     58 H36  665 L   1       1.159  -7.076  -8.533  1.00  0.00    +0.3450 HD
ATOM     59 H37  665 L   1       0.946  -8.310  -9.630  1.00  0.00    +0.3450 HD
ATOM     60 H38  665 L   1      -0.342  -7.346  -9.203  1.00  0.00    +0.3450 HD
ATOM     61 H40  665 L   1       2.042  -6.472 -10.637  1.00  0.00    +0.0926  H
ATOM     62 H41  665 L   1       0.661  -5.470 -10.186  1.00  0.00    +0.0926  H
ENDBRANCH 21 57
ENDBRANCH 19 21
ENDBRANCH 2 18
TORSDOF 8
ENDMDL
MODEL 5
REMARK VINA RESULT:    -7.659      1.350      2.328
REMARK INTER + INTRA:         -12.602
REMARK INTER:                 -11.366
REMARK INTRA:                  -1.236
REMARK UNBOUND:                -1.361
ROOT
ATOM      1  N6  665 L   1       5.548  -4.345 -16.742  1.00  0.00    -0.2626 NA
ATOM      2 C16  665 L   1       2.700  -6.137 -12.962  1.00  0.00    +0.0423  A
ATOM      3 C18  665 L   1       2.409  -5.491 -14.165  1.00  0.00    -0.0305  A
ATOM      4 C19  665 L   1       3.441  -5.103 -15.035  1.00  0.00    -0.0131  A
ATOM      5 C20  665 L   1       4.021  -6.402 -12.612  1.00  0.00    -0.0377  A
ATOM      6 C21  665 L   1       4.778  -5.373 -14.677  1.00  0.00    +0.0004  A
ATOM      7 C22  665 L   1       5.059  -6.024 -13.463  1.00  0.00    -0.0506  A
ATOM      8 C26  665 L   1       3.183  -4.454 -16.249  1.00  0.00    -0.0358  A
ATOM      9 C30  665 L   1       5.777  -4.972 -15.566  1.00  0.00    +0.0353  A
ATOM     10 C33  665 L   1       4.257  -4.102 -17.052  1.00  0.00    +0.0281  A
ATOM     11 H48  665 L   1       1.427  -5.298 -14.418  1.00  0.00    +0.0644  H
ATOM     12 H49  665 L   1       4.233  -6.879 -11.721  1.00  0.00    +0.0638  H
ATOM     13 H50  665 L   1       6.037  -6.221 -13.201  1.00  0.00    +0.0625  H
ATOM     14 H51  665 L   1       2.215  -4.242 -16.538  1.00  0.00    +0.0639  H
ATOM     15 H54  665 L   1       6.758  -5.168 -15.309  1.00  0.00    +0.0836  H
ATOM     16 H59  665 L   1       4.056  -3.626 -17.944  1.00  0.00    +0.0830  H
ENDROOT
BRANCH 2 18
ATOM     17  O2  665 L   1       0.641  -4.475 -11.550  1.00  0.00    -0.2720 OA
ATOM     18  N4  665 L   1       1.662  -6.518 -12.109  1.00  0.00    -0.3255  N
ATOM     19 C10  665 L   1       0.723  -5.697 -11.463  1.00  0.00    +0.2381  C
ATOM     20 H35  665 L   1       1.579  -7.484 -11.938  1.00  0.00    +0.1686 HD
BRANCH 19 21
ATOM     21  C7  665 L   1      -0.259  -6.510 -10.605  1.00  0.00    +0.1122  C
ATOM     22 H39  665 L   1      -0.512  -5.955  -9.726  1.00  0.00    +0.0502  H
BRANCH 21 23
ATOM     23  C8  665 L   1      -1.553  -6.745 -11.368  1.00  0.00    -0.0300  A
ATOM     24 C11  665 L   1      -2.577  -5.799 -11.315  1.00  0.00    -0.0573  A
ATOM     25 C12  665 L   1      -1.717  -7.908 -12.121  1.00  0.00    -0.0573  A
ATOM     26 C13  665 L   1      -3.928  -7.178 -12.766  1.00  0.00    -0.0103  A
ATOM     27 C14  665 L   1      -3.764  -6.016 -12.013  1.00  0.00    -0.0551  A
ATOM     28 C15  665 L   1      -2.905  -8.125 -12.819  1.00  0.00    -0.0551  A
ATOM     29 H42  665 L   1      -2.455  -4.938 -10.757  1.00  0.00    +0.0621  H
ATOM     30 H43  665 L   1      -0.960  -8.609 -12.160  1.00  0.00    +0.0621  H
ATOM     31 H44  665 L   1      -4.522  -5.315 -11.974  1.00  0.00    +0.0621  H
ATOM     32 H45  665 L   1      -3.027  -8.985 -13.377  1.00  0.00    +0.0621  H
BRANCH 26 33
ATOM     33 C17  665 L   1      -5.198  -7.409 -13.514  1.00  0.00    +0.1179  C
ATOM     34 H46  665 L   1      -5.118  -8.312 -14.083  1.00  0.00    +0.0749  H
ATOM     35 H47  665 L   1      -6.009  -7.495 -12.821  1.00  0.00    +0.0749  H
BRANCH 33 36
ATOM     36  O1  665 L   1      -5.436  -6.314 -14.390  1.00  0.00    -0.4564 OA
BRANCH 36 38
ATOM     37  O3  665 L   1      -7.623  -6.866 -14.851  1.00  0.00    -0.2449 OA
ATOM     38 C25  665 L   1      -6.741  -6.042 -14.663  1.00  0.00    +0.3398  C
BRANCH 38 39
ATOM     39 C23  665 L   1      -6.974  -4.575 -14.709  1.00  0.00    +0.0619  A
ATOM     40 C24  665 L   1      -7.190  -3.844 -13.541  1.00  0.00    -0.0362  A
ATOM     41 C27  665 L   1      -7.408  -1.823 -14.849  1.00  0.00    -0.0502  A
ATOM     42 C28  665 L   1      -7.407  -2.468 -13.611  1.00  0.00    -0.0551  A
ATOM     43 C29  665 L   1      -6.975  -3.932 -15.946  1.00  0.00    -0.0473  A
ATOM     44 C31  665 L   1      -7.192  -2.556 -16.017  1.00  0.00    -0.0580  A
ATOM     45 C32  665 L   1      -7.193  -4.508 -12.203  1.00  0.00    -0.0389  C
ATOM     46 C34  665 L   1      -7.641  -0.352 -14.925  1.00  0.00    -0.0397  C
ATOM     47 H52  665 L   1      -7.567  -1.925 -12.747  1.00  0.00    +0.0623  H
ATOM     48 H53  665 L   1      -6.814  -4.473 -16.809  1.00  0.00    +0.0626  H
ATOM     49 H55  665 L   1      -7.193  -2.080 -16.932  1.00  0.00    +0.0620  H
ATOM     50 H56  665 L   1      -7.013  -5.556 -12.324  1.00  0.00    +0.0278  H
ATOM     51 H57  665 L   1      -8.143  -4.361 -11.734  1.00  0.00    +0.0278  H
ATOM     52 H58  665 L   1      -6.425  -4.082 -11.591  1.00  0.00    +0.0278  H
ATOM     53 H60  665 L   1      -7.785   0.038 -13.940  1.00  0.00    +0.0278  H
ATOM     54 H61  665 L   1      -8.510  -0.159 -15.517  1.00  0.00    +0.0278  H
ATOM     55 H62  665 L   1      -6.792   0.120 -15.374  1.00  0.00    +0.0278  H
ENDBRANCH 38 39
ENDBRANCH 36 38
ENDBRANCH 33 36
ENDBRANCH 26 33
ENDBRANCH 21 23
BRANCH 21 57
ATOM     56  N5  665 L   1       0.376  -7.946  -8.675  1.00  0.00    -0.3600  N
ATOM     57  C9  665 L   1       0.403  -7.819 -10.130  1.00  0.00    +0.0921  C
ATOM     58 H36  665 L   1       0.821  -8.822  -8.402  1.00  0.00    +0.3450 HD
ATOM     59 H37  665 L   1      -0.591  -7.941  -8.352  1.00  0.00    +0.3450 HD
ATOM     60 H38  665 L   1       0.878  -7.164  -8.256  1.00  0.00    +0.3450 HD
ATOM     61 H40  665 L   1      -0.120  -8.648 -10.560  1.00  0.00    +0.0926  H
ATOM     62 H41  665 L   1       1.427  -7.807 -10.442  1.00  0.00    +0.0926  H
ENDBRANCH 21 57
ENDBRANCH 19 21
ENDBRANCH 2 18
TORSDOF 8
ENDMDL
MODEL 6
REMARK VINA RESULT:    -7.546      3.666      5.829
REMARK INTER + INTRA:         -12.437
REMARK INTER:                  -9.414
REMARK INTRA:                  -3.022
REMARK UNBOUND:                -1.361
ROOT
ATOM      1  N6  665 L   1       0.944  -6.505 -12.322  1.00  0.00    -0.2626 NA
ATOM      2 C16  665 L   1      -3.723  -8.404 -11.854  1.00  0.00    +0.0423  A
ATOM      3 C18  665 L   1      -2.750  -8.002 -10.938  1.00  0.00    -0.0305  A
ATOM      4 C19  665 L   1      -1.515  -7.501 -11.380  1.00  0.00    -0.0131  A
ATOM      5 C20  665 L   1      -3.477  -8.312 -13.222  1.00  0.00    -0.0377  A
ATOM      6 C21  665 L   1      -1.269  -7.410 -12.766  1.00  0.00    +0.0004  A
ATOM      7 C22  665 L   1      -2.256  -7.818 -13.680  1.00  0.00    -0.0506  A
ATOM      8 C26  665 L   1      -0.519  -7.090 -10.487  1.00  0.00    -0.0358  A
ATOM      9 C30  665 L   1      -0.030  -6.908 -13.169  1.00  0.00    +0.0353  A
ATOM     10 C33  665 L   1       0.674  -6.607 -11.003  1.00  0.00    +0.0281  A
ATOM     11 H48  665 L   1      -2.940  -8.073  -9.926  1.00  0.00    +0.0644  H
ATOM     12 H49  665 L   1      -4.198  -8.610 -13.897  1.00  0.00    +0.0638  H
ATOM     13 H50  665 L   1      -2.076  -7.751 -14.693  1.00  0.00    +0.0625  H
ATOM     14 H51  665 L   1      -0.669  -7.145  -9.468  1.00  0.00    +0.0639  H
ATOM     15 H54  665 L   1       0.155  -6.838 -14.182  1.00  0.00    +0.0836  H
ATOM     16 H59  665 L   1       1.401  -6.307 -10.337  1.00  0.00    +0.0830  H
ENDROOT
BRANCH 2 18
ATOM     17  O2  665 L   1      -4.696 -11.229 -11.588  1.00  0.00    -0.2720 OA
ATOM     18  N4  665 L   1      -4.947  -8.898 -11.398  1.00  0.00    -0.3255  N
ATOM     19 C10  665 L   1      -5.360 -10.237 -11.298  1.00  0.00    +0.2381  C
ATOM     20 H35  665 L   1      -5.603  -8.223 -11.111  1.00  0.00    +0.1686 HD
BRANCH 19 21
ATOM     21  C7  665 L   1      -6.788 -10.360 -10.746  1.00  0.00    +0.1122  C
ATOM     22 H39  665 L   1      -6.860  -9.833  -9.816  1.00  0.00    +0.0502  H
BRANCH 21 23
ATOM     23  C8  665 L   1      -7.778  -9.710 -11.699  1.00  0.00    -0.0300  A
ATOM     24 C11  665 L   1      -7.604  -9.833 -13.078  1.00  0.00    -0.0573  A
ATOM     25 C12  665 L   1      -8.863  -8.991 -11.195  1.00  0.00    -0.0573  A
ATOM     26 C13  665 L   1      -9.595  -8.518 -13.448  1.00  0.00    -0.0103  A
ATOM     27 C14  665 L   1      -8.512  -9.236 -13.952  1.00  0.00    -0.0551  A
ATOM     28 C15  665 L   1      -9.770  -8.394 -12.070  1.00  0.00    -0.0551  A
ATOM     29 H42  665 L   1      -6.801 -10.366 -13.451  1.00  0.00    +0.0621  H
ATOM     30 H43  665 L   1      -8.992  -8.900 -10.175  1.00  0.00    +0.0621  H
ATOM     31 H44  665 L   1      -8.382  -9.327 -14.973  1.00  0.00    +0.0621  H
ATOM     32 H45  665 L   1     -10.572  -7.861 -11.697  1.00  0.00    +0.0621  H
BRANCH 26 33
ATOM     33 C17  665 L   1     -10.567  -7.879 -14.383  1.00  0.00    +0.1179  C
ATOM     34 H46  665 L   1     -11.128  -8.638 -14.887  1.00  0.00    +0.0749  H
ATOM     35 H47  665 L   1     -11.233  -7.250 -13.831  1.00  0.00    +0.0749  H
BRANCH 33 36
ATOM     36  O1  665 L   1      -9.859  -7.098 -15.339  1.00  0.00    -0.4564 OA
BRANCH 36 38
ATOM     37  O3  665 L   1     -10.429  -4.868 -15.354  1.00  0.00    -0.2449 OA
ATOM     38 C25  665 L   1      -9.690  -5.784 -15.027  1.00  0.00    +0.3398  C
BRANCH 38 39
ATOM     39 C23  665 L   1      -8.460  -5.590 -14.217  1.00  0.00    +0.0619  A
ATOM     40 C24  665 L   1      -8.523  -5.060 -12.928  1.00  0.00    -0.0362  A
ATOM     41 C27  665 L   1      -6.121  -5.243 -12.738  1.00  0.00    -0.0502  A
ATOM     42 C28  665 L   1      -7.353  -4.887 -12.189  1.00  0.00    -0.0551  A
ATOM     43 C29  665 L   1      -7.229  -5.945 -14.767  1.00  0.00    -0.0473  A
ATOM     44 C31  665 L   1      -6.059  -5.771 -14.028  1.00  0.00    -0.0580  A
ATOM     45 C32  665 L   1      -9.829  -4.672 -12.315  1.00  0.00    -0.0389  C
ATOM     46 C34  665 L   1      -4.869  -5.057 -11.949  1.00  0.00    -0.0397  C
ATOM     47 H52  665 L   1      -7.398  -4.495 -11.235  1.00  0.00    +0.0623  H
ATOM     48 H53  665 L   1      -7.184  -6.337 -15.720  1.00  0.00    +0.0626  H
ATOM     49 H55  665 L   1      -5.148  -6.035 -14.435  1.00  0.00    +0.0620  H
ATOM     50 H56  665 L   1     -10.620  -4.868 -13.008  1.00  0.00    +0.0278  H
ATOM     51 H57  665 L   1      -9.814  -3.630 -12.075  1.00  0.00    +0.0278  H
ATOM     52 H58  665 L   1      -9.987  -5.241 -11.422  1.00  0.00    +0.0278  H
ATOM     53 H60  665 L   1      -5.109  -4.644 -10.992  1.00  0.00    +0.0278  H
ATOM     54 H61  665 L   1      -4.213  -4.392 -12.471  1.00  0.00    +0.0278  H
ATOM     55 H62  665 L   1      -4.387  -6.003 -11.818  1.00  0.00    +0.0278  H
ENDBRANCH 38 39
ENDBRANCH 36 38
ENDBRANCH 33 36
ENDBRANCH 26 33
ENDBRANCH 21 23
BRANCH 21 57
ATOM     56  N5  665 L   1      -6.299 -12.373  -9.368  1.00  0.00    -0.3600  N
ATOM     57  C9  665 L   1      -7.122 -11.835 -10.448  1.00  0.00    +0.0921  C
ATOM     58 H36  665 L   1      -6.550 -13.347  -9.201  1.00  0.00    +0.3450 HD
ATOM     59 H37  665 L   1      -6.458 -11.831  -8.518  1.00  0.00    +0.3450 HD
ATOM     60 H38  665 L   1      -5.315 -12.314  -9.629  1.00  0.00    +0.3450 HD
ATOM     61 H40  665 L   1      -8.152 -11.907 -10.167  1.00  0.00    +0.0926  H
ATOM     62 H41  665 L   1      -6.924 -12.406 -11.331  1.00  0.00    +0.0926  H
ENDBRANCH 21 57
ENDBRANCH 19 21
ENDBRANCH 2 18
TORSDOF 8
ENDMDL
MODEL 7
REMARK VINA RESULT:    -7.514      6.258      9.844
REMARK INTER + INTRA:         -12.390
REMARK INTER:                 -10.752
REMARK INTRA:                  -1.638
REMARK UNBOUND:                -1.361
ROOT
ATOM      1  N6  665 L   1       8.443   2.004 -18.405  1.00  0.00    -0.2626 NA
ATOM      2 C16  665 L   1       3.843   1.520 -16.354  1.00  0.00    +0.0423  A
ATOM      3 C18  665 L   1       4.469   0.947 -17.462  1.00  0.00    -0.0305  A
ATOM      4 C19  665 L   1       5.791   1.286 -17.791  1.00  0.00    -0.0131  A
ATOM      5 C20  665 L   1       4.526   2.439 -15.561  1.00  0.00    -0.0377  A
ATOM      6 C21  665 L   1       6.480   2.218 -16.986  1.00  0.00    +0.0004  A
ATOM      7 C22  665 L   1       5.839   2.788 -15.873  1.00  0.00    -0.0506  A
ATOM      8 C26  665 L   1       6.447   0.730 -18.895  1.00  0.00    -0.0358  A
ATOM      9 C30  665 L   1       7.793   2.531 -17.343  1.00  0.00    +0.0353  A
ATOM     10 C33  665 L   1       7.753   1.117 -19.153  1.00  0.00    +0.0281  A
ATOM     11 H48  665 L   1       3.956   0.267 -18.045  1.00  0.00    +0.0644  H
ATOM     12 H49  665 L   1       4.060   2.861 -14.743  1.00  0.00    +0.0638  H
ATOM     13 H50  665 L   1       6.343   3.469 -15.284  1.00  0.00    +0.0625  H
ATOM     14 H51  665 L   1       5.969   0.046 -19.503  1.00  0.00    +0.0639  H
ATOM     15 H54  665 L   1       8.302   3.212 -16.757  1.00  0.00    +0.0836  H
ATOM     16 H59  665 L   1       8.227   0.701 -19.968  1.00  0.00    +0.0830  H
ENDROOT
BRANCH 2 18
ATOM     17  O2  665 L   1       1.878   2.828 -14.503  1.00  0.00    -0.2720 OA
ATOM     18  N4  665 L   1       2.528   1.171 -16.040  1.00  0.00    -0.3255  N
ATOM     19 C10  665 L   1       1.645   1.814 -15.157  1.00  0.00    +0.2381  C
ATOM     20 H35  665 L   1       2.175   0.372 -16.494  1.00  0.00    +0.1686 HD
BRANCH 19 21
ATOM     21  C7  665 L   1       0.281   1.111 -15.091  1.00  0.00    +0.1122  C
ATOM     22 H39  665 L   1      -0.208   1.185 -16.040  1.00  0.00    +0.0502  H
BRANCH 21 23
ATOM     23  C8  665 L   1       0.467  -0.371 -14.805  1.00  0.00    -0.0300  A
ATOM     24 C11  665 L   1       0.623  -0.815 -13.492  1.00  0.00    -0.0573  A
ATOM     25 C12  665 L   1       0.481  -1.288 -15.857  1.00  0.00    -0.0573  A
ATOM     26 C13  665 L   1       0.809  -3.090 -14.282  1.00  0.00    -0.0103  A
ATOM     27 C14  665 L   1       0.795  -2.174 -13.230  1.00  0.00    -0.0551  A
ATOM     28 C15  665 L   1       0.653  -2.647 -15.595  1.00  0.00    -0.0551  A
ATOM     29 H42  665 L   1       0.612  -0.137 -12.713  1.00  0.00    +0.0621  H
ATOM     30 H43  665 L   1       0.366  -0.959 -16.829  1.00  0.00    +0.0621  H
ATOM     31 H44  665 L   1       0.910  -2.502 -12.258  1.00  0.00    +0.0621  H
ATOM     32 H45  665 L   1       0.664  -3.325 -16.374  1.00  0.00    +0.0621  H
BRANCH 26 33
ATOM     33 C17  665 L   1       0.992  -4.544 -14.002  1.00  0.00    +0.1179  C
ATOM     34 H46  665 L   1       0.501  -4.796 -13.086  1.00  0.00    +0.0749  H
ATOM     35 H47  665 L   1       0.571  -5.116 -14.802  1.00  0.00    +0.0749  H
BRANCH 33 36
ATOM     36  O1  665 L   1       2.381  -4.832 -13.893  1.00  0.00    -0.4564 OA
BRANCH 36 38
ATOM     37  O3  665 L   1       2.550  -6.807 -15.064  1.00  0.00    -0.2449 OA
ATOM     38 C25  665 L   1       2.896  -5.656 -14.846  1.00  0.00    +0.3398  C
BRANCH 38 39
ATOM     39 C23  665 L   1       3.965  -4.967 -15.613  1.00  0.00    +0.0619  A
ATOM     40 C24  665 L   1       5.303  -5.062 -15.229  1.00  0.00    -0.0362  A
ATOM     41 C27  665 L   1       5.935  -3.653 -17.088  1.00  0.00    -0.0502  A
ATOM     42 C28  665 L   1       6.288  -4.405 -15.967  1.00  0.00    -0.0551  A
ATOM     43 C29  665 L   1       3.612  -4.216 -16.734  1.00  0.00    -0.0473  A
ATOM     44 C31  665 L   1       4.597  -3.558 -17.472  1.00  0.00    -0.0580  A
ATOM     45 C32  665 L   1       5.709  -5.861 -14.034  1.00  0.00    -0.0389  C
ATOM     46 C34  665 L   1       6.987  -2.950 -17.877  1.00  0.00    -0.0397  C
ATOM     47 H52  665 L   1       7.278  -4.474 -15.683  1.00  0.00    +0.0623  H
ATOM     48 H53  665 L   1       2.623  -4.147 -17.018  1.00  0.00    +0.0626  H
ATOM     49 H55  665 L   1       4.336  -3.003 -18.301  1.00  0.00    +0.0620  H
ATOM     50 H56  665 L   1       4.841  -6.297 -13.585  1.00  0.00    +0.0278  H
ATOM     51 H57  665 L   1       6.194  -5.222 -13.326  1.00  0.00    +0.0278  H
ATOM     52 H58  665 L   1       6.383  -6.636 -14.334  1.00  0.00    +0.0278  H
ATOM     53 H60  665 L   1       7.945  -3.135 -17.439  1.00  0.00    +0.0278  H
ATOM     54 H61  665 L   1       6.790  -1.898 -17.876  1.00  0.00    +0.0278  H
ATOM     55 H62  665 L   1       6.980  -3.312 -18.884  1.00  0.00    +0.0278  H
ENDBRANCH 38 39
ENDBRANCH 36 38
ENDBRANCH 33 36
ENDBRANCH 26 33
ENDBRANCH 21 23
BRANCH 21 57
ATOM     56  N5  665 L   1      -1.217   3.035 -14.600  1.00  0.00    -0.3600  N
ATOM     57  C9  665 L   1      -0.632   1.809 -14.063  1.00  0.00    +0.0921  C
ATOM     58 H36  665 L   1      -1.813   3.465 -13.893  1.00  0.00    +0.3450 HD
ATOM     59 H37  665 L   1      -1.775   2.813 -15.424  1.00  0.00    +0.3450 HD
ATOM     60 H38  665 L   1      -0.473   3.683 -14.857  1.00  0.00    +0.3450 HD
ATOM     61 H40  665 L   1      -1.421   1.140 -13.790  1.00  0.00    +0.0926  H
ATOM     62 H41  665 L   1      -0.038   2.070 -13.213  1.00  0.00    +0.0926  H
ENDBRANCH 21 57
ENDBRANCH 19 21
ENDBRANCH 2 18
TORSDOF 8
ENDMDL
MODEL 8
REMARK VINA RESULT:    -7.502      3.704      8.153
REMARK INTER + INTRA:         -12.372
REMARK INTER:                 -11.137
REMARK INTRA:                  -1.235
REMARK UNBOUND:                -1.361
ROOT
ATOM      1  N6  665 L   1      -9.463  -4.471 -13.362  1.00  0.00    -0.2626 NA
ATOM      2 C16  665 L   1      -4.941  -6.624 -12.635  1.00  0.00    +0.0423  A
ATOM      3 C18  665 L   1      -5.378  -5.300 -12.707  1.00  0.00    -0.0305  A
ATOM      4 C19  665 L   1      -6.733  -5.006 -12.924  1.00  0.00    -0.0131  A
ATOM      5 C20  665 L   1      -5.850  -7.669 -12.779  1.00  0.00    -0.0377  A
ATOM      6 C21  665 L   1      -7.651  -6.067 -13.070  1.00  0.00    +0.0004  A
ATOM      7 C22  665 L   1      -7.200  -7.396 -12.995  1.00  0.00    -0.0506  A
ATOM      8 C26  665 L   1      -7.203  -3.689 -13.001  1.00  0.00    -0.0358  A
ATOM      9 C30  665 L   1      -8.990  -5.736 -13.285  1.00  0.00    +0.0353  A
ATOM     10 C33  665 L   1      -8.557  -3.481 -13.219  1.00  0.00    +0.0281  A
ATOM     11 H48  665 L   1      -4.698  -4.530 -12.599  1.00  0.00    +0.0644  H
ATOM     12 H49  665 L   1      -5.524  -8.647 -12.725  1.00  0.00    +0.0638  H
ATOM     13 H50  665 L   1      -7.871  -8.172 -13.102  1.00  0.00    +0.0625  H
ATOM     14 H51  665 L   1      -6.556  -2.892 -12.899  1.00  0.00    +0.0639  H
ATOM     15 H54  665 L   1      -9.666  -6.509 -13.391  1.00  0.00    +0.0836  H
ATOM     16 H59  665 L   1      -8.892  -2.508 -13.273  1.00  0.00    +0.0830  H
ENDROOT
BRANCH 2 18
ATOM     17  O2  665 L   1      -3.381  -6.780 -10.078  1.00  0.00    -0.2720 OA
ATOM     18  N4  665 L   1      -3.590  -6.900 -12.417  1.00  0.00    -0.3255  N
ATOM     19 C10  665 L   1      -2.900  -6.956 -11.194  1.00  0.00    +0.2381  C
ATOM     20 H35  665 L   1      -3.052  -7.078 -13.222  1.00  0.00    +0.1686 HD
BRANCH 19 21
ATOM     21  C7  665 L   1      -1.414  -7.292 -11.386  1.00  0.00    +0.1122  C
ATOM     22 H39  665 L   1      -1.318  -8.158 -12.008  1.00  0.00    +0.0502  H
BRANCH 21 23
ATOM     23  C8  665 L   1      -0.705  -6.154 -12.104  1.00  0.00    -0.0300  A
ATOM     24 C11  665 L   1      -0.023  -6.397 -13.296  1.00  0.00    -0.0573  A
ATOM     25 C12  665 L   1      -0.738  -4.865 -11.570  1.00  0.00    -0.0573  A
ATOM     26 C13  665 L   1       0.595  -4.065 -13.419  1.00  0.00    -0.0103  A
ATOM     27 C14  665 L   1       0.628  -5.353 -13.953  1.00  0.00    -0.0551  A
ATOM     28 C15  665 L   1      -0.087  -3.821 -12.227  1.00  0.00    -0.0551  A
ATOM     29 H42  665 L   1       0.001  -7.351 -13.691  1.00  0.00    +0.0621  H
ATOM     30 H43  665 L   1      -1.243  -4.685 -10.688  1.00  0.00    +0.0621  H
ATOM     31 H44  665 L   1       1.133  -5.534 -14.835  1.00  0.00    +0.0621  H
ATOM     32 H45  665 L   1      -0.112  -2.868 -11.832  1.00  0.00    +0.0621  H
BRANCH 26 33
ATOM     33 C17  665 L   1       1.290  -2.948 -14.122  1.00  0.00    +0.1179  C
ATOM     34 H46  665 L   1       0.993  -2.015 -13.692  1.00  0.00    +0.0749  H
ATOM     35 H47  665 L   1       2.348  -3.067 -14.022  1.00  0.00    +0.0749  H
BRANCH 33 36
ATOM     36  O1  665 L   1       0.940  -2.968 -15.502  1.00  0.00    -0.4564 OA
BRANCH 36 38
ATOM     37  O3  665 L   1       2.205  -1.425 -16.649  1.00  0.00    -0.2449 OA
ATOM     38 C25  665 L   1       1.142  -1.809 -16.185  1.00  0.00    +0.3398  C
BRANCH 38 39
ATOM     39 C23  665 L   1      -0.123  -1.040 -16.302  1.00  0.00    +0.0619  A
ATOM     40 C24  665 L   1      -0.341   0.108 -15.540  1.00  0.00    -0.0362  A
ATOM     41 C27  665 L   1      -2.518   0.367 -16.557  1.00  0.00    -0.0502  A
ATOM     42 C28  665 L   1      -1.539   0.812 -15.669  1.00  0.00    -0.0551  A
ATOM     43 C29  665 L   1      -1.102  -1.485 -17.190  1.00  0.00    -0.0473  A
ATOM     44 C31  665 L   1      -2.300  -0.782 -17.318  1.00  0.00    -0.0580  A
ATOM     45 C32  665 L   1       0.690   0.608 -14.582  1.00  0.00    -0.0389  C
ATOM     46 C34  665 L   1      -3.799   1.118 -16.695  1.00  0.00    -0.0397  C
ATOM     47 H52  665 L   1      -1.702   1.662 -15.105  1.00  0.00    +0.0623  H
ATOM     48 H53  665 L   1      -0.939  -2.334 -17.754  1.00  0.00    +0.0626  H
ATOM     49 H55  665 L   1      -3.024  -1.111 -17.976  1.00  0.00    +0.0620  H
ATOM     50 H56  665 L   1       1.541  -0.040 -14.605  1.00  0.00    +0.0278  H
ATOM     51 H57  665 L   1       0.281   0.624 -13.594  1.00  0.00    +0.0278  H
ATOM     52 H58  665 L   1       0.987   1.597 -14.861  1.00  0.00    +0.0278  H
ATOM     53 H60  665 L   1      -3.789   1.963 -16.040  1.00  0.00    +0.0278  H
ATOM     54 H61  665 L   1      -4.618   0.477 -16.439  1.00  0.00    +0.0278  H
ATOM     55 H62  665 L   1      -3.911   1.451 -17.705  1.00  0.00    +0.0278  H
ENDBRANCH 38 39
ENDBRANCH 36 38
ENDBRANCH 33 36
ENDBRANCH 26 33
ENDBRANCH 21 23
BRANCH 21 57
ATOM     56  N5  665 L   1       0.693  -7.626 -10.106  1.00  0.00    -0.3600  N
ATOM     57  C9  665 L   1      -0.765  -7.643 -10.032  1.00  0.00    +0.0921  C
ATOM     58 H36  665 L   1       1.083  -7.861  -9.193  1.00  0.00    +0.3450 HD
ATOM     59 H37  665 L   1       1.009  -6.696 -10.380  1.00  0.00    +0.3450 HD
ATOM     60 H38  665 L   1       1.006  -8.308 -10.796  1.00  0.00    +0.3450 HD
ATOM     61 H40  665 L   1      -1.083  -6.928  -9.301  1.00  0.00    +0.0926  H
ATOM     62 H41  665 L   1      -1.072  -8.632  -9.762  1.00  0.00    +0.0926  H
ENDBRANCH 21 57
ENDBRANCH 19 21
ENDBRANCH 2 18
TORSDOF 8
ENDMDL
MODEL 9
REMARK VINA RESULT:    -7.484      3.307      5.015
REMARK INTER + INTRA:         -12.345
REMARK INTER:                 -11.456
REMARK INTRA:                  -0.889
REMARK UNBOUND:                -1.361
ROOT
ATOM      1  N6  665 L   1      -0.322   1.878 -14.965  1.00  0.00    -0.2626 NA
ATOM      2 C16  665 L   1       0.941  -2.870 -13.754  1.00  0.00    +0.0423  A
ATOM      3 C18  665 L   1       0.812  -1.690 -13.020  1.00  0.00    -0.0305  A
ATOM      4 C19  665 L   1       0.435  -0.494 -13.650  1.00  0.00    -0.0131  A
ATOM      5 C20  665 L   1       0.697  -2.871 -15.125  1.00  0.00    -0.0377  A
ATOM      6 C21  665 L   1       0.189  -0.498 -15.039  1.00  0.00    +0.0004  A
ATOM      7 C22  665 L   1       0.323  -1.692 -15.768  1.00  0.00    -0.0506  A
ATOM      8 C26  665 L   1       0.297   0.706 -12.942  1.00  0.00    -0.0358  A
ATOM      9 C30  665 L   1      -0.183   0.710 -15.632  1.00  0.00    +0.0353  A
ATOM     10 C33  665 L   1      -0.078   1.845 -13.637  1.00  0.00    +0.0281  A
ATOM     11 H48  665 L   1       0.994  -1.698 -12.004  1.00  0.00    +0.0644  H
ATOM     12 H49  665 L   1       0.794  -3.745 -15.666  1.00  0.00    +0.0638  H
ATOM     13 H50  665 L   1       0.143  -1.696 -16.784  1.00  0.00    +0.0625  H
ATOM     14 H51  665 L   1       0.470   0.741 -11.925  1.00  0.00    +0.0639  H
ATOM     15 H54  665 L   1      -0.364   0.712 -16.648  1.00  0.00    +0.0836  H
ATOM     16 H59  665 L   1      -0.178   2.723 -13.107  1.00  0.00    +0.0830  H
ENDROOT
BRANCH 2 18
ATOM     17  O2  665 L   1       3.461  -4.482 -13.972  1.00  0.00    -0.2720 OA
ATOM     18  N4  665 L   1       1.315  -4.053 -13.112  1.00  0.00    -0.3255  N
ATOM     19 C10  665 L   1       2.510  -4.777 -13.252  1.00  0.00    +0.2381  C
ATOM     20 H35  665 L   1       0.658  -4.425 -12.481  1.00  0.00    +0.1686 HD
BRANCH 19 21
ATOM     21  C7  665 L   1       2.532  -6.031 -12.365  1.00  0.00    +0.1122  C
ATOM     22 H39  665 L   1       2.910  -5.779 -11.396  1.00  0.00    +0.0502  H
BRANCH 21 23
ATOM     23  C8  665 L   1       1.119  -6.557 -12.164  1.00  0.00    -0.0300  A
ATOM     24 C11  665 L   1       0.391  -7.036 -13.253  1.00  0.00    -0.0573  A
ATOM     25 C12  665 L   1       0.551  -6.562 -10.889  1.00  0.00    -0.0573  A
ATOM     26 C13  665 L   1      -1.472  -7.522 -11.795  1.00  0.00    -0.0103  A
ATOM     27 C14  665 L   1      -0.905  -7.517 -13.069  1.00  0.00    -0.0551  A
ATOM     28 C15  665 L   1      -0.745  -7.043 -10.705  1.00  0.00    -0.0551  A
ATOM     29 H42  665 L   1       0.811  -7.033 -14.197  1.00  0.00    +0.0621  H
ATOM     30 H43  665 L   1       1.090  -6.207 -10.084  1.00  0.00    +0.0621  H
ATOM     31 H44  665 L   1      -1.444  -7.872 -13.875  1.00  0.00    +0.0621  H
ATOM     32 H45  665 L   1      -1.165  -7.046  -9.762  1.00  0.00    +0.0621  H
BRANCH 26 33
ATOM     33 C17  665 L   1      -2.858  -8.038 -11.597  1.00  0.00    +0.1179  C
ATOM     34 H46  665 L   1      -3.043  -8.837 -12.283  1.00  0.00    +0.0749  H
ATOM     35 H47  665 L   1      -2.965  -8.396 -10.595  1.00  0.00    +0.0749  H
BRANCH 33 36
ATOM     36  O1  665 L   1      -3.790  -6.987 -11.828  1.00  0.00    -0.4564 OA
BRANCH 36 38
ATOM     37  O3  665 L   1      -4.054  -7.499 -14.056  1.00  0.00    -0.2449 OA
ATOM     38 C25  665 L   1      -4.473  -7.044 -13.003  1.00  0.00    +0.3398  C
BRANCH 38 39
ATOM     39 C23  665 L   1      -5.833  -6.467 -12.849  1.00  0.00    +0.0619  A
ATOM     40 C24  665 L   1      -6.966  -7.281 -12.856  1.00  0.00    -0.0362  A
ATOM     41 C27  665 L   1      -8.365  -5.333 -12.557  1.00  0.00    -0.0502  A
ATOM     42 C28  665 L   1      -8.232  -6.713 -12.709  1.00  0.00    -0.0551  A
ATOM     43 C29  665 L   1      -5.965  -5.087 -12.697  1.00  0.00    -0.0473  A
ATOM     44 C31  665 L   1      -7.231  -4.519 -12.551  1.00  0.00    -0.0580  A
ATOM     45 C32  665 L   1      -6.853  -8.762 -13.016  1.00  0.00    -0.0389  C
ATOM     46 C34  665 L   1      -9.718  -4.725 -12.402  1.00  0.00    -0.0397  C
ATOM     47 H52  665 L   1      -9.071  -7.315 -12.715  1.00  0.00    +0.0623  H
ATOM     48 H53  665 L   1      -5.127  -4.486 -12.691  1.00  0.00    +0.0626  H
ATOM     49 H55  665 L   1      -7.329  -3.498 -12.438  1.00  0.00    +0.0620  H
ATOM     50 H56  665 L   1      -5.822  -9.031 -13.115  1.00  0.00    +0.0278  H
ATOM     51 H57  665 L   1      -7.387  -9.068 -13.891  1.00  0.00    +0.0278  H
ATOM     52 H58  665 L   1      -7.268  -9.246 -12.157  1.00  0.00    +0.0278  H
ATOM     53 H60  665 L   1     -10.460  -5.495 -12.430  1.00  0.00    +0.0278  H
ATOM     54 H61  665 L   1      -9.891  -4.032 -13.198  1.00  0.00    +0.0278  H
ATOM     55 H62  665 L   1      -9.773  -4.212 -11.464  1.00  0.00    +0.0278  H
ENDBRANCH 38 39
ENDBRANCH 36 38
ENDBRANCH 33 36
ENDBRANCH 26 33
ENDBRANCH 21 23
BRANCH 21 57
ATOM     56  N5  665 L   1       4.875  -6.841 -12.572  1.00  0.00    -0.3600  N
ATOM     57  C9  665 L   1       3.487  -7.088 -12.955  1.00  0.00    +0.0921  C
ATOM     58 H36  665 L   1       5.473  -7.560 -12.980  1.00  0.00    +0.3450 HD
ATOM     59 H37  665 L   1       4.957  -6.867 -11.556  1.00  0.00    +0.3450 HD
ATOM     60 H38  665 L   1       5.163  -5.924 -12.913  1.00  0.00    +0.3450 HD
ATOM     61 H40  665 L   1       3.196  -8.054 -12.598  1.00  0.00    +0.0926  H
ATOM     62 H41  665 L   1       3.423  -7.036 -14.021  1.00  0.00    +0.0926  H
ENDBRANCH 21 57
ENDBRANCH 19 21
ENDBRANCH 2 18
TORSDOF 8
ENDMDL
MODEL 10
REMARK VINA RESULT:    -7.452      3.162      4.933
REMARK INTER + INTRA:         -12.298
REMARK INTER:                 -11.348
REMARK INTRA:                  -0.950
REMARK UNBOUND:                -1.361
ROOT
ATOM      1  N6  665 L   1       5.558  -4.145 -17.076  1.00  0.00    -0.2626 NA
ATOM      2 C16  665 L   1       2.921  -5.881 -13.121  1.00  0.00    +0.0423  A
ATOM      3 C18  665 L   1       2.567  -5.231 -14.305  1.00  0.00    -0.0305  A
ATOM      4 C19  665 L   1       3.549  -4.863 -15.239  1.00  0.00    -0.0131  A
ATOM      5 C20  665 L   1       4.257  -6.169 -12.853  1.00  0.00    -0.0377  A
ATOM      6 C21  665 L   1       4.901  -5.156 -14.964  1.00  0.00    +0.0004  A
ATOM      7 C22  665 L   1       5.245  -5.810 -13.768  1.00  0.00    -0.0506  A
ATOM      8 C26  665 L   1       3.227  -4.211 -16.435  1.00  0.00    -0.0358  A
ATOM      9 C30  665 L   1       5.850  -4.774 -15.915  1.00  0.00    +0.0353  A
ATOM     10 C33  665 L   1       4.255  -3.880 -17.305  1.00  0.00    +0.0281  A
ATOM     11 H48  665 L   1       1.575  -5.021 -14.497  1.00  0.00    +0.0644  H
ATOM     12 H49  665 L   1       4.515  -6.648 -11.976  1.00  0.00    +0.0638  H
ATOM     13 H50  665 L   1       6.234  -6.024 -13.567  1.00  0.00    +0.0625  H
ATOM     14 H51  665 L   1       2.247  -3.983 -16.664  1.00  0.00    +0.0639  H
ATOM     15 H54  665 L   1       6.840  -4.987 -15.719  1.00  0.00    +0.0836  H
ATOM     16 H59  665 L   1       4.007  -3.400 -18.184  1.00  0.00    +0.0830  H
ENDROOT
BRANCH 2 18
ATOM     17  O2  665 L   1       1.045  -4.175 -11.519  1.00  0.00    -0.2720 OA
ATOM     18  N4  665 L   1       1.932  -6.242 -12.203  1.00  0.00    -0.3255  N
ATOM     19 C10  665 L   1       1.079  -5.402 -11.469  1.00  0.00    +0.2381  C
ATOM     20 H35  665 L   1       1.819  -7.208 -12.052  1.00  0.00    +0.1686 HD
BRANCH 19 21
ATOM     21  C7  665 L   1       0.127  -6.197 -10.563  1.00  0.00    +0.1122  C
ATOM     22 H39  665 L   1      -0.001  -5.680  -9.635  1.00  0.00    +0.0502  H
BRANCH 21 23
ATOM     23  C8  665 L   1      -1.247  -6.299 -11.205  1.00  0.00    -0.0300  A
ATOM     24 C11  665 L   1      -2.100  -5.194 -11.209  1.00  0.00    -0.0573  A
ATOM     25 C12  665 L   1      -1.657  -7.498 -11.790  1.00  0.00    -0.0573  A
ATOM     26 C13  665 L   1      -3.770  -6.487 -12.381  1.00  0.00    -0.0103  A
ATOM     27 C14  665 L   1      -3.361  -5.289 -11.797  1.00  0.00    -0.0551  A
ATOM     28 C15  665 L   1      -2.918  -7.592 -12.377  1.00  0.00    -0.0551  A
ATOM     29 H42  665 L   1      -1.797  -4.307 -10.777  1.00  0.00    +0.0621  H
ATOM     30 H43  665 L   1      -1.026  -8.315 -11.786  1.00  0.00    +0.0621  H
ATOM     31 H44  665 L   1      -3.992  -4.471 -11.800  1.00  0.00    +0.0621  H
ATOM     32 H45  665 L   1      -3.221  -8.479 -12.810  1.00  0.00    +0.0621  H
BRANCH 26 33
ATOM     33 C17  665 L   1      -5.119  -6.589 -13.010  1.00  0.00    +0.1179  C
ATOM     34 H46  665 L   1      -5.568  -5.619 -13.049  1.00  0.00    +0.0749  H
ATOM     35 H47  665 L   1      -5.021  -6.977 -14.003  1.00  0.00    +0.0749  H
BRANCH 33 36
ATOM     36  O1  665 L   1      -5.936  -7.461 -12.238  1.00  0.00    -0.4564 OA
BRANCH 36 38
ATOM     37  O3  665 L   1      -6.219  -8.882 -14.026  1.00  0.00    -0.2449 OA
ATOM     38 C25  665 L   1      -6.535  -8.475 -12.918  1.00  0.00    +0.3398  C
BRANCH 38 39
ATOM     39 C23  665 L   1      -7.655  -9.048 -12.129  1.00  0.00    +0.0619  A
ATOM     40 C24  665 L   1      -8.917  -8.451 -12.131  1.00  0.00    -0.0362  A
ATOM     41 C27  665 L   1      -9.726 -10.161 -10.627  1.00  0.00    -0.0502  A
ATOM     42 C28  665 L   1      -9.952  -9.009 -11.381  1.00  0.00    -0.0551  A
ATOM     43 C29  665 L   1      -7.429 -10.199 -11.375  1.00  0.00    -0.0473  A
ATOM     44 C31  665 L   1      -8.464 -10.756 -10.624  1.00  0.00    -0.0580  A
ATOM     45 C32  665 L   1      -9.187  -7.219 -12.930  1.00  0.00    -0.0389  C
ATOM     46 C34  665 L   1     -10.832 -10.757  -9.823  1.00  0.00    -0.0397  C
ATOM     47 H52  665 L   1     -10.886  -8.568 -11.382  1.00  0.00    +0.0623  H
ATOM     48 H53  665 L   1      -6.496 -10.640 -11.374  1.00  0.00    +0.0626  H
ATOM     49 H55  665 L   1      -8.296 -11.608 -10.067  1.00  0.00    +0.0620  H
ATOM     50 H56  665 L   1      -8.295  -6.924 -13.444  1.00  0.00    +0.0278  H
ATOM     51 H57  665 L   1      -9.498  -6.431 -12.276  1.00  0.00    +0.0278  H
ATOM     52 H58  665 L   1      -9.960  -7.417 -13.642  1.00  0.00    +0.0278  H
ATOM     53 H60  665 L   1     -11.718 -10.171  -9.946  1.00  0.00    +0.0278  H
ATOM     54 H61  665 L   1     -10.554 -10.772  -8.790  1.00  0.00    +0.0278  H
ATOM     55 H62  665 L   1     -11.016 -11.757 -10.157  1.00  0.00    +0.0278  H
ENDBRANCH 38 39
ENDBRANCH 36 38
ENDBRANCH 33 36
ENDBRANCH 26 33
ENDBRANCH 21 23
BRANCH 21 57
ATOM     56  N5  665 L   1       0.523  -7.934  -8.826  1.00  0.00    -0.3600  N
ATOM     57  C9  665 L   1       0.735  -7.573 -10.225  1.00  0.00    +0.0921  C
ATOM     58 H36  665 L   1       0.937  -8.848  -8.644  1.00  0.00    +0.3450 HD
ATOM     59 H37  665 L   1      -0.478  -7.970  -8.633  1.00  0.00    +0.3450 HD
ATOM     60 H38  665 L   1       0.959  -7.235  -8.225  1.00  0.00    +0.3450 HD
ATOM     61 H40  665 L   1       0.279  -8.315 -10.848  1.00  0.00    +0.0926  H
ATOM     62 H41  665 L   1       1.790  -7.522 -10.398  1.00  0.00    +0.0926  H
ENDBRANCH 21 57
ENDBRANCH 19 21
ENDBRANCH 2 18
TORSDOF 8
ENDMDL
MODEL 11
REMARK VINA RESULT:    -7.429      5.102     10.847
REMARK INTER + INTRA:         -12.264
REMARK INTER:                 -11.434
REMARK INTRA:                  -0.830
REMARK UNBOUND:                -1.361
ROOT
ATOM      1  N6  665 L   1      -2.430  -5.918 -10.712  1.00  0.00    -0.2626 NA
ATOM      2 C16  665 L   1       1.988  -5.213 -13.076  1.00  0.00    +0.0423  A
ATOM      3 C18  665 L   1       1.390  -6.313 -12.460  1.00  0.00    -0.0305  A
ATOM      4 C19  665 L   1       0.119  -6.200 -11.874  1.00  0.00    -0.0131  A
ATOM      5 C20  665 L   1       1.328  -3.988 -13.115  1.00  0.00    -0.0377  A
ATOM      6 C21  665 L   1      -0.547  -4.957 -11.914  1.00  0.00    +0.0004  A
ATOM      7 C22  665 L   1       0.065  -3.856 -12.537  1.00  0.00    -0.0506  A
ATOM      8 C26  665 L   1      -0.508  -7.284 -11.248  1.00  0.00    -0.0358  A
ATOM      9 C30  665 L   1      -1.808  -4.882 -11.320  1.00  0.00    +0.0353  A
ATOM     10 C33  665 L   1      -1.764  -7.091 -10.691  1.00  0.00    +0.0281  A
ATOM     11 H48  665 L   1       1.885  -7.219 -12.436  1.00  0.00    +0.0644  H
ATOM     12 H49  665 L   1       1.773  -3.176 -13.571  1.00  0.00    +0.0638  H
ATOM     13 H50  665 L   1      -0.422  -2.947 -12.567  1.00  0.00    +0.0625  H
ATOM     14 H51  665 L   1      -0.046  -8.206 -11.202  1.00  0.00    +0.0639  H
ATOM     15 H54  665 L   1      -2.300  -3.975 -11.347  1.00  0.00    +0.0836  H
ATOM     16 H59  665 L   1      -2.217  -7.896 -10.233  1.00  0.00    +0.0830  H
ENDROOT
BRANCH 2 18
ATOM     17  O2  665 L   1       3.024  -7.233 -15.037  1.00  0.00    -0.2720 OA
ATOM     18  N4  665 L   1       3.251  -5.343 -13.657  1.00  0.00    -0.3255  N
ATOM     19 C10  665 L   1       3.693  -6.315 -14.570  1.00  0.00    +0.2381  C
ATOM     20 H35  665 L   1       3.916  -4.667 -13.393  1.00  0.00    +0.1686 HD
BRANCH 19 21
ATOM     21  C7  665 L   1       5.162  -6.106 -14.968  1.00  0.00    +0.1122  C
ATOM     22 H39  665 L   1       5.533  -6.988 -15.446  1.00  0.00    +0.0502  H
BRANCH 21 23
ATOM     23  C8  665 L   1       5.277  -4.975 -15.978  1.00  0.00    -0.0300  A
ATOM     24 C11  665 L   1       6.495  -4.318 -16.154  1.00  0.00    -0.0573  A
ATOM     25 C12  665 L   1       4.164  -4.594 -16.729  1.00  0.00    -0.0573  A
ATOM     26 C13  665 L   1       5.488  -2.900 -17.830  1.00  0.00    -0.0103  A
ATOM     27 C14  665 L   1       6.600  -3.280 -17.080  1.00  0.00    -0.0551  A
ATOM     28 C15  665 L   1       4.270  -3.556 -17.654  1.00  0.00    -0.0551  A
ATOM     29 H42  665 L   1       7.319  -4.599 -15.599  1.00  0.00    +0.0621  H
ATOM     30 H43  665 L   1       3.263  -5.080 -16.598  1.00  0.00    +0.0621  H
ATOM     31 H44  665 L   1       7.501  -2.794 -17.210  1.00  0.00    +0.0621  H
ATOM     32 H45  665 L   1       3.446  -3.274 -18.209  1.00  0.00    +0.0621  H
BRANCH 26 33
ATOM     33 C17  665 L   1       5.600  -1.790 -18.820  1.00  0.00    +0.1179  C
ATOM     34 H46  665 L   1       6.195  -2.110 -19.650  1.00  0.00    +0.0749  H
ATOM     35 H47  665 L   1       4.624  -1.519 -19.166  1.00  0.00    +0.0749  H
BRANCH 33 36
ATOM     36  O1  665 L   1       6.212  -0.664 -18.201  1.00  0.00    -0.4564 OA
BRANCH 36 38
ATOM     37  O3  665 L   1       4.184   0.123 -17.450  1.00  0.00    -0.2449 OA
ATOM     38 C25  665 L   1       5.366   0.284 -17.715  1.00  0.00    +0.3398  C
BRANCH 38 39
ATOM     39 C23  665 L   1       6.071   1.579 -17.541  1.00  0.00    +0.0619  A
ATOM     40 C24  665 L   1       6.012   2.570 -18.521  1.00  0.00    -0.0362  A
ATOM     41 C27  665 L   1       7.417   3.994 -17.165  1.00  0.00    -0.0502  A
ATOM     42 C28  665 L   1       6.684   3.777 -18.333  1.00  0.00    -0.0551  A
ATOM     43 C29  665 L   1       6.804   1.795 -16.373  1.00  0.00    -0.0473  A
ATOM     44 C31  665 L   1       7.477   3.002 -16.185  1.00  0.00    -0.0580  A
ATOM     45 C32  665 L   1       5.233   2.365 -19.780  1.00  0.00    -0.0389  C
ATOM     46 C34  665 L   1       8.137   5.284 -16.963  1.00  0.00    -0.0397  C
ATOM     47 H52  665 L   1       6.640   4.511 -19.058  1.00  0.00    +0.0623  H
ATOM     48 H53  665 L   1       6.847   1.062 -15.649  1.00  0.00    +0.0626  H
ATOM     49 H55  665 L   1       8.018   3.162 -15.322  1.00  0.00    +0.0620  H
ATOM     50 H56  665 L   1       4.782   1.395 -19.766  1.00  0.00    +0.0278  H
ATOM     51 H57  665 L   1       5.890   2.441 -20.621  1.00  0.00    +0.0278  H
ATOM     52 H58  665 L   1       4.472   3.112 -19.854  1.00  0.00    +0.0278  H
ATOM     53 H60  665 L   1       7.978   5.917 -17.811  1.00  0.00    +0.0278  H
ATOM     54 H61  665 L   1       9.184   5.094 -16.850  1.00  0.00    +0.0278  H
ATOM     55 H62  665 L   1       7.765   5.766 -16.084  1.00  0.00    +0.0278  H
ENDBRANCH 38 39
ENDBRANCH 36 38
ENDBRANCH 33 36
ENDBRANCH 26 33
ENDBRANCH 21 23
BRANCH 21 57
ATOM     56  N5  665 L   1       6.764  -7.085 -13.335  1.00  0.00    -0.3600  N
ATOM     57  C9  665 L   1       6.030  -5.880 -13.713  1.00  0.00    +0.0921  C
ATOM     58 H36  665 L   1       7.325  -6.895 -12.505  1.00  0.00    +0.3450 HD
ATOM     59 H37  665 L   1       7.376  -7.364 -14.102  1.00  0.00    +0.3450 HD
ATOM     60 H38  665 L   1       6.104  -7.837 -13.137  1.00  0.00    +0.3450 HD
ATOM     61 H40  665 L   1       6.730  -5.096 -13.914  1.00  0.00    +0.0926  H
ATOM     62 H41  665 L   1       5.381  -5.619 -12.903  1.00  0.00    +0.0926  H
ENDBRANCH 21 57
ENDBRANCH 19 21
ENDBRANCH 2 18
TORSDOF 8
ENDMDL
MODEL 12
REMARK VINA RESULT:    -7.296      3.517      6.757
REMARK INTER + INTRA:         -12.069
REMARK INTER:                 -10.351
REMARK INTRA:                  -1.719
REMARK UNBOUND:                -1.361
ROOT
ATOM      1  N6  665 L   1       0.931  -6.327 -10.643  1.00  0.00    -0.2626 NA
ATOM      2 C16  665 L   1      -4.002  -5.782 -11.631  1.00  0.00    +0.0423  A
ATOM      3 C18  665 L   1      -2.913  -4.909 -11.649  1.00  0.00    -0.0305  A
ATOM      4 C19  665 L   1      -1.626  -5.363 -11.318  1.00  0.00    -0.0131  A
ATOM      5 C20  665 L   1      -3.821  -7.118 -11.282  1.00  0.00    -0.0377  A
ATOM      6 C21  665 L   1      -1.447  -6.717 -10.964  1.00  0.00    +0.0004  A
ATOM      7 C22  665 L   1      -2.551  -7.587 -10.949  1.00  0.00    -0.0506  A
ATOM      8 C26  665 L   1      -0.514  -4.512 -11.326  1.00  0.00    -0.0358  A
ATOM      9 C30  665 L   1      -0.154  -7.133 -10.640  1.00  0.00    +0.0353  A
ATOM     10 C33  665 L   1       0.723  -5.038 -10.985  1.00  0.00    +0.0281  A
ATOM     11 H48  665 L   1      -3.055  -3.920 -11.909  1.00  0.00    +0.0644  H
ATOM     12 H49  665 L   1      -4.628  -7.762 -11.269  1.00  0.00    +0.0638  H
ATOM     13 H50  665 L   1      -2.420  -8.577 -10.691  1.00  0.00    +0.0625  H
ATOM     14 H51  665 L   1      -0.614  -3.517 -11.579  1.00  0.00    +0.0639  H
ATOM     15 H54  665 L   1      -0.018  -8.123 -10.381  1.00  0.00    +0.0836  H
ATOM     16 H59  665 L   1       1.535  -4.403 -10.995  1.00  0.00    +0.0830  H
ENDROOT
BRANCH 2 18
ATOM     17  O2  665 L   1      -5.610  -6.158 -14.135  1.00  0.00    -0.2720 OA
ATOM     18  N4  665 L   1      -5.274  -5.315 -11.965  1.00  0.00    -0.3255  N
ATOM     19 C10  665 L   1      -5.987  -5.513 -13.160  1.00  0.00    +0.2381  C
ATOM     20 H35  665 L   1      -5.730  -4.779 -11.277  1.00  0.00    +0.1686 HD
BRANCH 19 21
ATOM     21  C7  665 L   1      -7.362  -4.830 -13.130  1.00  0.00    +0.1122  C
ATOM     22 H39  665 L   1      -7.615  -4.574 -12.122  1.00  0.00    +0.0502  H
BRANCH 21 23
ATOM     23  C8  665 L   1      -7.321  -3.530 -13.918  1.00  0.00    -0.0300  A
ATOM     24 C11  665 L   1      -7.426  -2.307 -13.254  1.00  0.00    -0.0573  A
ATOM     25 C12  665 L   1      -7.176  -3.560 -15.306  1.00  0.00    -0.0573  A
ATOM     26 C13  665 L   1      -7.245  -1.146 -15.364  1.00  0.00    -0.0103  A
ATOM     27 C14  665 L   1      -7.389  -1.115 -13.978  1.00  0.00    -0.0551  A
ATOM     28 C15  665 L   1      -7.139  -2.368 -16.028  1.00  0.00    -0.0551  A
ATOM     29 H42  665 L   1      -7.533  -2.285 -12.228  1.00  0.00    +0.0621  H
ATOM     30 H43  665 L   1      -7.098  -4.464 -15.796  1.00  0.00    +0.0621  H
ATOM     31 H44  665 L   1      -7.467  -0.210 -13.486  1.00  0.00    +0.0621  H
ATOM     32 H45  665 L   1      -7.033  -2.390 -17.055  1.00  0.00    +0.0621  H
BRANCH 26 33
ATOM     33 C17  665 L   1      -7.205   0.129 -16.138  1.00  0.00    +0.1179  C
ATOM     34 H46  665 L   1      -7.330  -0.081 -17.180  1.00  0.00    +0.0749  H
ATOM     35 H47  665 L   1      -7.992   0.773 -15.807  1.00  0.00    +0.0749  H
BRANCH 33 36
ATOM     36  O1  665 L   1      -5.950   0.768 -15.931  1.00  0.00    -0.4564 OA
BRANCH 36 38
ATOM     37  O3  665 L   1      -5.612   1.667 -18.022  1.00  0.00    -0.2449 OA
ATOM     38 C25  665 L   1      -5.225   1.037 -17.050  1.00  0.00    +0.3398  C
BRANCH 38 39
ATOM     39 C23  665 L   1      -3.863   0.452 -16.947  1.00  0.00    +0.0619  A
ATOM     40 C24  665 L   1      -3.557  -0.771 -17.545  1.00  0.00    -0.0362  A
ATOM     41 C27  665 L   1      -1.291  -0.604 -16.721  1.00  0.00    -0.0502  A
ATOM     42 C28  665 L   1      -2.270  -1.298 -17.432  1.00  0.00    -0.0551  A
ATOM     43 C29  665 L   1      -2.885   1.147 -16.236  1.00  0.00    -0.0473  A
ATOM     44 C31  665 L   1      -1.598   0.619 -16.122  1.00  0.00    -0.0580  A
ATOM     45 C32  665 L   1      -4.586  -1.534 -18.313  1.00  0.00    -0.0389  C
ATOM     46 C34  665 L   1       0.084  -1.167 -16.599  1.00  0.00    -0.0397  C
ATOM     47 H52  665 L   1      -2.043  -2.203 -17.874  1.00  0.00    +0.0623  H
ATOM     48 H53  665 L   1      -3.112   2.051 -15.794  1.00  0.00    +0.0626  H
ATOM     49 H55  665 L   1      -0.874   1.133 -15.597  1.00  0.00    +0.0620  H
ATOM     50 H56  665 L   1      -5.510  -0.996 -18.303  1.00  0.00    +0.0278  H
ATOM     51 H57  665 L   1      -4.727  -2.494 -17.862  1.00  0.00    +0.0278  H
ATOM     52 H58  665 L   1      -4.256  -1.660 -19.323  1.00  0.00    +0.0278  H
ATOM     53 H60  665 L   1       0.134  -2.101 -17.117  1.00  0.00    +0.0278  H
ATOM     54 H61  665 L   1       0.318  -1.318 -15.566  1.00  0.00    +0.0278  H
ATOM     55 H62  665 L   1       0.788  -0.484 -17.027  1.00  0.00    +0.0278  H
ENDBRANCH 38 39
ENDBRANCH 36 38
ENDBRANCH 33 36
ENDBRANCH 26 33
ENDBRANCH 21 23
BRANCH 21 57
ATOM     56  N5  665 L   1      -8.208  -7.169 -13.186  1.00  0.00    -0.3600  N
ATOM     57  C9  665 L   1      -8.453  -5.799 -13.629  1.00  0.00    +0.0921  C
ATOM     58 H36  665 L   1      -8.949  -7.777 -13.535  1.00  0.00    +0.3450 HD
ATOM     59 H37  665 L   1      -8.195  -7.199 -12.167  1.00  0.00    +0.3450 HD
ATOM     60 H38  665 L   1      -7.308  -7.487 -13.547  1.00  0.00    +0.3450 HD
ATOM     61 H40  665 L   1      -9.401  -5.477 -13.251  1.00  0.00    +0.0926  H
ATOM     62 H41  665 L   1      -8.442  -5.789 -14.699  1.00  0.00    +0.0926  H
ENDBRANCH 21 57
ENDBRANCH 19 21
ENDBRANCH 2 18
TORSDOF 8
ENDMDL
MODEL 13
REMARK VINA RESULT:    -7.271      3.322     10.100
REMARK INTER + INTRA:         -12.033
REMARK INTER:                 -10.962
REMARK INTRA:                  -1.071
REMARK UNBOUND:                -1.361
ROOT
ATOM      1  N6  665 L   1      -8.665  -7.284 -12.951  1.00  0.00    -0.2626 NA
ATOM      2 C16  665 L   1      -3.641  -7.384 -12.348  1.00  0.00    +0.0423  A
ATOM      3 C18  665 L   1      -4.553  -6.379 -12.674  1.00  0.00    -0.0305  A
ATOM      4 C19  665 L   1      -5.925  -6.662 -12.770  1.00  0.00    -0.0131  A
ATOM      5 C20  665 L   1      -4.086  -8.683 -12.114  1.00  0.00    -0.0377  A
ATOM      6 C21  665 L   1      -6.372  -7.979 -12.533  1.00  0.00    +0.0004  A
ATOM      7 C22  665 L   1      -5.445  -8.983 -12.206  1.00  0.00    -0.0506  A
ATOM      8 C26  665 L   1      -6.865  -5.676 -13.096  1.00  0.00    -0.0358  A
ATOM      9 C30  665 L   1      -7.743  -8.223 -12.639  1.00  0.00    +0.0353  A
ATOM     10 C33  665 L   1      -8.201  -6.036 -13.172  1.00  0.00    +0.0281  A
ATOM     11 H48  665 L   1      -4.216  -5.419 -12.846  1.00  0.00    +0.0644  H
ATOM     12 H49  665 L   1      -3.410  -9.425 -11.874  1.00  0.00    +0.0638  H
ATOM     13 H50  665 L   1      -5.772  -9.946 -12.032  1.00  0.00    +0.0625  H
ATOM     14 H51  665 L   1      -6.568  -4.704 -13.275  1.00  0.00    +0.0639  H
ATOM     15 H54  665 L   1      -8.075  -9.185 -12.466  1.00  0.00    +0.0836  H
ATOM     16 H59  665 L   1      -8.885  -5.303 -13.411  1.00  0.00    +0.0830  H
ENDROOT
BRANCH 2 18
ATOM     17  O2  665 L   1      -2.253  -5.013 -11.145  1.00  0.00    -0.2720 OA
ATOM     18  N4  665 L   1      -2.280  -7.086 -12.255  1.00  0.00    -0.3255  N
ATOM     19 C10  665 L   1      -1.676  -5.954 -11.685  1.00  0.00    +0.2381  C
ATOM     20 H35  665 L   1      -1.667  -7.755 -12.637  1.00  0.00    +0.1686 HD
BRANCH 19 21
ATOM     21  C7  665 L   1      -0.144  -6.006 -11.785  1.00  0.00    +0.1122  C
ATOM     22 H39  665 L   1       0.179  -7.026 -11.828  1.00  0.00    +0.0502  H
BRANCH 21 23
ATOM     23  C8  665 L   1       0.321  -5.341 -13.071  1.00  0.00    -0.0300  A
ATOM     24 C11  665 L   1       0.259  -6.036 -14.279  1.00  0.00    -0.0573  A
ATOM     25 C12  665 L   1       0.811  -4.035 -13.043  1.00  0.00    -0.0573  A
ATOM     26 C13  665 L   1       1.176  -4.121 -15.430  1.00  0.00    -0.0103  A
ATOM     27 C14  665 L   1       0.687  -5.426 -15.458  1.00  0.00    -0.0551  A
ATOM     28 C15  665 L   1       1.239  -3.425 -14.222  1.00  0.00    -0.0551  A
ATOM     29 H42  665 L   1      -0.104  -7.003 -14.300  1.00  0.00    +0.0621  H
ATOM     30 H43  665 L   1       0.857  -3.520 -12.150  1.00  0.00    +0.0621  H
ATOM     31 H44  665 L   1       0.641  -5.941 -16.352  1.00  0.00    +0.0621  H
ATOM     32 H45  665 L   1       1.602  -2.459 -14.201  1.00  0.00    +0.0621  H
BRANCH 26 33
ATOM     33 C17  665 L   1       1.634  -3.468 -16.691  1.00  0.00    +0.1179  C
ATOM     34 H46  665 L   1       1.334  -4.061 -17.529  1.00  0.00    +0.0749  H
ATOM     35 H47  665 L   1       1.196  -2.495 -16.768  1.00  0.00    +0.0749  H
BRANCH 33 36
ATOM     36  O1  665 L   1       3.052  -3.350 -16.673  1.00  0.00    -0.4564 OA
BRANCH 36 38
ATOM     37  O3  665 L   1       3.802  -4.531 -18.501  1.00  0.00    -0.2449 OA
ATOM     38 C25  665 L   1       3.741  -4.345 -17.295  1.00  0.00    +0.3398  C
BRANCH 38 39
ATOM     39 C23  665 L   1       4.429  -5.208 -16.302  1.00  0.00    +0.0619  A
ATOM     40 C24  665 L   1       5.740  -4.943 -15.902  1.00  0.00    -0.0362  A
ATOM     41 C27  665 L   1       5.679  -6.861 -14.433  1.00  0.00    -0.0502  A
ATOM     42 C28  665 L   1       6.363  -5.769 -14.968  1.00  0.00    -0.0551  A
ATOM     43 C29  665 L   1       3.744  -6.300 -15.768  1.00  0.00    -0.0473  A
ATOM     44 C31  665 L   1       4.369  -7.127 -14.834  1.00  0.00    -0.0580  A
ATOM     45 C32  665 L   1       6.495  -3.780 -16.457  1.00  0.00    -0.0389  C
ATOM     46 C34  665 L   1       6.345  -7.746 -13.436  1.00  0.00    -0.0397  C
ATOM     47 H52  665 L   1       7.333  -5.573 -14.672  1.00  0.00    +0.0623  H
ATOM     48 H53  665 L   1       2.775  -6.495 -16.063  1.00  0.00    +0.0626  H
ATOM     49 H55  665 L   1       3.861  -7.934 -14.439  1.00  0.00    +0.0620  H
ATOM     50 H56  665 L   1       5.878  -3.253 -17.154  1.00  0.00    +0.0278  H
ATOM     51 H57  665 L   1       7.375  -4.131 -16.954  1.00  0.00    +0.0278  H
ATOM     52 H58  665 L   1       6.775  -3.123 -15.660  1.00  0.00    +0.0278  H
ATOM     53 H60  665 L   1       7.337  -7.391 -13.251  1.00  0.00    +0.0278  H
ATOM     54 H61  665 L   1       6.388  -8.745 -13.816  1.00  0.00    +0.0278  H
ATOM     55 H62  665 L   1       5.788  -7.736 -12.522  1.00  0.00    +0.0278  H
ENDBRANCH 38 39
ENDBRANCH 36 38
ENDBRANCH 33 36
ENDBRANCH 26 33
ENDBRANCH 21 23
BRANCH 21 57
ATOM     56  N5  665 L   1       1.099  -6.406  -9.667  1.00  0.00    -0.3600  N
ATOM     57  C9  665 L   1       0.497  -5.390 -10.525  1.00  0.00    +0.0921  C
ATOM     58 H36  665 L   1       1.511  -5.960  -8.849  1.00  0.00    +0.3450 HD
ATOM     59 H37  665 L   1       1.824  -6.902 -10.186  1.00  0.00    +0.3450 HD
ATOM     60 H38  665 L   1       0.382  -7.068  -9.370  1.00  0.00    +0.3450 HD
ATOM     61 H40  665 L   1       1.255  -4.697 -10.827  1.00  0.00    +0.0926  H
ATOM     62 H41  665 L   1      -0.273  -4.898  -9.967  1.00  0.00    +0.0926  H
ENDBRANCH 21 57
ENDBRANCH 19 21
ENDBRANCH 2 18
TORSDOF 8
ENDMDL
MODEL 14
REMARK VINA RESULT:    -7.267      2.872      4.011
REMARK INTER + INTRA:         -12.027
REMARK INTER:                 -10.440
REMARK INTRA:                  -1.587
REMARK UNBOUND:                -1.361
ROOT
ATOM      1  N6  665 L   1       6.743  -7.009 -13.867  1.00  0.00    -0.2626 NA
ATOM      2 C16  665 L   1       1.925  -5.527 -13.422  1.00  0.00    +0.0423  A
ATOM      3 C18  665 L   1       2.598  -6.716 -13.135  1.00  0.00    -0.0305  A
ATOM      4 C19  665 L   1       3.977  -6.831 -13.372  1.00  0.00    -0.0131  A
ATOM      5 C20  665 L   1       2.618  -4.440 -13.949  1.00  0.00    -0.0377  A
ATOM      6 C21  665 L   1       4.676  -5.728 -13.906  1.00  0.00    +0.0004  A
ATOM      7 C22  665 L   1       3.988  -4.537 -14.192  1.00  0.00    -0.0506  A
ATOM      8 C26  665 L   1       4.681  -8.009 -13.094  1.00  0.00    -0.0358  A
ATOM      9 C30  665 L   1       6.046  -5.880 -14.129  1.00  0.00    +0.0353  A
ATOM     10 C33  665 L   1       6.042  -8.044 -13.357  1.00  0.00    +0.0281  A
ATOM     11 H48  665 L   1       2.078  -7.517 -12.744  1.00  0.00    +0.0644  H
ATOM     12 H49  665 L   1       2.118  -3.563 -14.161  1.00  0.00    +0.0638  H
ATOM     13 H50  665 L   1       4.499  -3.730 -14.582  1.00  0.00    +0.0625  H
ATOM     14 H51  665 L   1       4.198  -8.832 -12.704  1.00  0.00    +0.0639  H
ATOM     15 H54  665 L   1       6.562  -5.075 -14.519  1.00  0.00    +0.0836  H
ATOM     16 H59  665 L   1       6.551  -8.915 -13.149  1.00  0.00    +0.0830  H
ENDROOT
BRANCH 2 18
ATOM     17  O2  665 L   1       0.237  -6.786 -11.286  1.00  0.00    -0.2720 OA
ATOM     18  N4  665 L   1       0.553  -5.428 -13.180  1.00  0.00    -0.3255  N
ATOM     19 C10  665 L   1      -0.196  -6.045 -12.164  1.00  0.00    +0.2381  C
ATOM     20 H35  665 L   1       0.049  -4.852 -13.798  1.00  0.00    +0.1686 HD
BRANCH 19 21
ATOM     21  C7  665 L   1      -1.685  -5.677 -12.244  1.00  0.00    +0.1122  C
ATOM     22 H39  665 L   1      -1.885  -5.186 -13.173  1.00  0.00    +0.0502  H
BRANCH 21 23
ATOM     23  C8  665 L   1      -2.540  -6.934 -12.216  1.00  0.00    -0.0300  A
ATOM     24 C11  665 L   1      -2.486  -7.839 -13.277  1.00  0.00    -0.0573  A
ATOM     25 C12  665 L   1      -3.378  -7.184 -11.129  1.00  0.00    -0.0573  A
ATOM     26 C13  665 L   1      -4.108  -9.241 -12.165  1.00  0.00    -0.0103  A
ATOM     27 C14  665 L   1      -3.271  -8.991 -13.252  1.00  0.00    -0.0551  A
ATOM     28 C15  665 L   1      -4.163  -8.337 -11.104  1.00  0.00    -0.0551  A
ATOM     29 H42  665 L   1      -1.866  -7.654 -14.082  1.00  0.00    +0.0621  H
ATOM     30 H43  665 L   1      -3.418  -6.516 -10.344  1.00  0.00    +0.0621  H
ATOM     31 H44  665 L   1      -3.231  -9.660 -14.038  1.00  0.00    +0.0621  H
ATOM     32 H45  665 L   1      -4.783  -8.522 -10.300  1.00  0.00    +0.0621  H
BRANCH 26 33
ATOM     33 C17  665 L   1      -4.947 -10.474 -12.138  1.00  0.00    +0.1179  C
ATOM     34 H46  665 L   1      -4.905 -10.956 -13.092  1.00  0.00    +0.0749  H
ATOM     35 H47  665 L   1      -4.579 -11.139 -11.385  1.00  0.00    +0.0749  H
BRANCH 33 36
ATOM     36  O1  665 L   1      -6.294 -10.122 -11.842  1.00  0.00    -0.4564 OA
BRANCH 36 38
ATOM     37  O3  665 L   1      -7.369 -10.711 -13.790  1.00  0.00    -0.2449 OA
ATOM     38 C25  665 L   1      -7.103  -9.903 -12.914  1.00  0.00    +0.3398  C
BRANCH 38 39
ATOM     39 C23  665 L   1      -7.640  -8.518 -12.893  1.00  0.00    +0.0619  A
ATOM     40 C24  665 L   1      -8.850  -8.224 -12.264  1.00  0.00    -0.0362  A
ATOM     41 C27  665 L   1      -8.606  -5.901 -12.884  1.00  0.00    -0.0502  A
ATOM     42 C28  665 L   1      -9.332  -6.915 -12.259  1.00  0.00    -0.0551  A
ATOM     43 C29  665 L   1      -6.913  -7.505 -13.518  1.00  0.00    -0.0473  A
ATOM     44 C31  665 L   1      -7.396  -6.196 -13.514  1.00  0.00    -0.0580  A
ATOM     45 C32  665 L   1      -9.647  -9.290 -11.586  1.00  0.00    -0.0389  C
ATOM     46 C34  665 L   1      -9.121  -4.502 -12.881  1.00  0.00    -0.0397  C
ATOM     47 H52  665 L   1     -10.227  -6.697 -11.794  1.00  0.00    +0.0623  H
ATOM     48 H53  665 L   1      -6.019  -7.723 -13.983  1.00  0.00    +0.0626  H
ATOM     49 H55  665 L   1      -6.858  -5.446 -13.976  1.00  0.00    +0.0620  H
ATOM     50 H56  665 L   1      -9.141 -10.228 -11.681  1.00  0.00    +0.0278  H
ATOM     51 H57  665 L   1     -10.612  -9.358 -12.042  1.00  0.00    +0.0278  H
ATOM     52 H58  665 L   1      -9.759  -9.048 -10.550  1.00  0.00    +0.0278  H
ATOM     53 H60  665 L   1     -10.052  -4.466 -12.355  1.00  0.00    +0.0278  H
ATOM     54 H61  665 L   1      -9.266  -4.172 -13.888  1.00  0.00    +0.0278  H
ATOM     55 H62  665 L   1      -8.414  -3.862 -12.395  1.00  0.00    +0.0278  H
ENDBRANCH 38 39
ENDBRANCH 36 38
ENDBRANCH 33 36
ENDBRANCH 26 33
ENDBRANCH 21 23
BRANCH 21 57
ATOM     56  N5  665 L   1      -0.867  -4.197 -10.419  1.00  0.00    -0.3600  N
ATOM     57  C9  665 L   1      -2.050  -4.679 -11.126  1.00  0.00    +0.0921  C
ATOM     58 H36  665 L   1      -1.150  -3.541  -9.691  1.00  0.00    +0.3450 HD
ATOM     59 H37  665 L   1      -0.246  -3.727 -11.077  1.00  0.00    +0.3450 HD
ATOM     60 H38  665 L   1      -0.379  -4.986  -9.996  1.00  0.00    +0.3450 HD
ATOM     61 H40  665 L   1      -2.559  -3.844 -11.561  1.00  0.00    +0.0926  H
ATOM     62 H41  665 L   1      -2.676  -5.185 -10.420  1.00  0.00    +0.0926  H
ENDBRANCH 21 57
ENDBRANCH 19 21
ENDBRANCH 2 18
TORSDOF 8
ENDMDL
MODEL 15
REMARK VINA RESULT:    -7.240      5.996      9.720
REMARK INTER + INTRA:         -11.988
REMARK INTER:                  -8.730
REMARK INTRA:                  -3.257
REMARK UNBOUND:                -1.361
ROOT
ATOM      1  N6  665 L   1      -8.727  -3.245 -14.703  1.00  0.00    -0.2626 NA
ATOM      2 C16  665 L   1      -9.041  -8.063 -13.186  1.00  0.00    +0.0423  A
ATOM      3 C18  665 L   1      -8.967  -6.844 -12.512  1.00  0.00    -0.0305  A
ATOM      4 C19  665 L   1      -8.888  -5.636 -13.225  1.00  0.00    -0.0131  A
ATOM      5 C20  665 L   1      -9.035  -8.094 -14.579  1.00  0.00    -0.0377  A
ATOM      6 C21  665 L   1      -8.881  -5.672 -14.635  1.00  0.00    +0.0004  A
ATOM      7 C22  665 L   1      -8.955  -6.906 -15.303  1.00  0.00    -0.0506  A
ATOM      8 C26  665 L   1      -8.813  -4.397 -12.578  1.00  0.00    -0.0358  A
ATOM      9 C30  665 L   1      -8.799  -4.452 -15.309  1.00  0.00    +0.0353  A
ATOM     10 C33  665 L   1      -8.735  -3.250 -13.353  1.00  0.00    +0.0281  A
ATOM     11 H48  665 L   1      -8.973  -6.828 -11.480  1.00  0.00    +0.0644  H
ATOM     12 H49  665 L   1      -9.088  -8.998 -15.075  1.00  0.00    +0.0638  H
ATOM     13 H50  665 L   1      -8.950  -6.931 -16.334  1.00  0.00    +0.0625  H
ATOM     14 H51  665 L   1      -8.815  -4.339 -11.547  1.00  0.00    +0.0639  H
ATOM     15 H54  665 L   1      -8.795  -4.472 -16.342  1.00  0.00    +0.0836  H
ATOM     16 H59  665 L   1      -8.681  -2.342 -12.867  1.00  0.00    +0.0830  H
ENDROOT
BRANCH 2 18
ATOM     17  O2  665 L   1     -11.416  -9.772 -12.523  1.00  0.00    -0.2720 OA
ATOM     18  N4  665 L   1      -9.122  -9.255 -12.463  1.00  0.00    -0.3255  N
ATOM     19 C10  665 L   1     -10.265 -10.019 -12.172  1.00  0.00    +0.2381  C
ATOM     20 H35  665 L   1      -8.271  -9.604 -12.114  1.00  0.00    +0.1686 HD
BRANCH 19 21
ATOM     21  C7  665 L   1      -9.927 -11.269 -11.346  1.00  0.00    +0.1122  C
ATOM     22 H39  665 L   1     -10.410 -12.123 -11.772  1.00  0.00    +0.0502  H
BRANCH 21 23
ATOM     23  C8  665 L   1      -8.431 -11.540 -11.390  1.00  0.00    -0.0300  A
ATOM     24 C11  665 L   1      -7.601 -11.044 -10.385  1.00  0.00    -0.0573  A
ATOM     25 C12  665 L   1      -7.888 -12.286 -12.438  1.00  0.00    -0.0573  A
ATOM     26 C13  665 L   1      -5.687 -12.037 -11.473  1.00  0.00    -0.0103  A
ATOM     27 C14  665 L   1      -6.229 -11.292 -10.427  1.00  0.00    -0.0551  A
ATOM     28 C15  665 L   1      -6.516 -12.534 -12.479  1.00  0.00    -0.0551  A
ATOM     29 H42  665 L   1      -8.002 -10.492  -9.610  1.00  0.00    +0.0621  H
ATOM     30 H43  665 L   1      -8.502 -12.653 -13.181  1.00  0.00    +0.0621  H
ATOM     31 H44  665 L   1      -5.615 -10.924  -9.682  1.00  0.00    +0.0621  H
ATOM     32 H45  665 L   1      -6.115 -13.085 -13.254  1.00  0.00    +0.0621  H
BRANCH 26 33
ATOM     33 C17  665 L   1      -4.220 -12.304 -11.518  1.00  0.00    +0.1179  C
ATOM     34 H46  665 L   1      -3.941 -12.910 -10.682  1.00  0.00    +0.0749  H
ATOM     35 H47  665 L   1      -3.978 -12.814 -12.426  1.00  0.00    +0.0749  H
BRANCH 33 36
ATOM     36  O1  665 L   1      -3.515 -11.069 -11.465  1.00  0.00    -0.4564 OA
BRANCH 36 38
ATOM     37  O3  665 L   1      -2.933 -10.854 -13.682  1.00  0.00    -0.2449 OA
ATOM     38 C25  665 L   1      -3.392 -10.401 -12.644  1.00  0.00    +0.3398  C
BRANCH 38 39
ATOM     39 C23  665 L   1      -3.898  -9.010 -12.516  1.00  0.00    +0.0619  A
ATOM     40 C24  665 L   1      -4.977  -8.563 -13.278  1.00  0.00    -0.0362  A
ATOM     41 C27  665 L   1      -4.808  -6.388 -12.238  1.00  0.00    -0.0502  A
ATOM     42 C28  665 L   1      -5.432  -7.252 -13.138  1.00  0.00    -0.0551  A
ATOM     43 C29  665 L   1      -3.273  -8.147 -11.616  1.00  0.00    -0.0473  A
ATOM     44 C31  665 L   1      -3.728  -6.836 -11.476  1.00  0.00    -0.0580  A
ATOM     45 C32  665 L   1      -5.665  -9.467 -14.248  1.00  0.00    -0.0389  C
ATOM     46 C34  665 L   1      -5.293  -4.986 -12.089  1.00  0.00    -0.0397  C
ATOM     47 H52  665 L   1      -6.231  -6.920 -13.702  1.00  0.00    +0.0623  H
ATOM     48 H53  665 L   1      -2.476  -8.479 -11.052  1.00  0.00    +0.0626  H
ATOM     49 H55  665 L   1      -3.266  -6.198 -10.810  1.00  0.00    +0.0620  H
ATOM     50 H56  665 L   1      -5.197 -10.429 -14.233  1.00  0.00    +0.0278  H
ATOM     51 H57  665 L   1      -5.596  -9.052 -15.232  1.00  0.00    +0.0278  H
ATOM     52 H58  665 L   1      -6.695  -9.566 -13.976  1.00  0.00    +0.0278  H
ATOM     53 H60  665 L   1      -6.121  -4.823 -12.746  1.00  0.00    +0.0278  H
ATOM     54 H61  665 L   1      -4.503  -4.307 -12.334  1.00  0.00    +0.0278  H
ATOM     55 H62  665 L   1      -5.603  -4.821 -11.078  1.00  0.00    +0.0278  H
ENDBRANCH 38 39
ENDBRANCH 36 38
ENDBRANCH 33 36
ENDBRANCH 26 33
ENDBRANCH 21 23
BRANCH 21 57
ATOM     56  N5  665 L   1     -10.935  -9.766  -9.638  1.00  0.00    -0.3600  N
ATOM     57  C9  665 L   1     -10.467 -11.123  -9.909  1.00  0.00    +0.0921  C
ATOM     58 H36  665 L   1     -11.284  -9.711  -8.681  1.00  0.00    +0.3450 HD
ATOM     59 H37  665 L   1     -11.685  -9.530 -10.287  1.00  0.00    +0.3450 HD
ATOM     60 H38  665 L   1     -10.163  -9.110  -9.757  1.00  0.00    +0.3450 HD
ATOM     61 H40  665 L   1     -11.282 -11.804  -9.775  1.00  0.00    +0.0926  H
ATOM     62 H41  665 L   1      -9.669 -11.340  -9.230  1.00  0.00    +0.0926  H
ENDBRANCH 21 57
ENDBRANCH 19 21
ENDBRANCH 2 18
TORSDOF 8
ENDMDL
MODEL 16
REMARK VINA RESULT:    -7.196      3.319      9.204
REMARK INTER + INTRA:         -11.923
REMARK INTER:                  -9.902
REMARK INTRA:                  -2.021
REMARK UNBOUND:                -1.361
ROOT
ATOM      1  N6  665 L   1      -8.720  -6.408 -13.723  1.00  0.00    -0.2626 NA
ATOM      2 C16  665 L   1      -3.946  -6.529 -12.047  1.00  0.00    +0.0423  A
ATOM      3 C18  665 L   1      -4.814  -7.497 -12.555  1.00  0.00    -0.0305  A
ATOM      4 C19  665 L   1      -6.117  -7.152 -12.949  1.00  0.00    -0.0131  A
ATOM      5 C20  665 L   1      -4.367  -5.207 -11.925  1.00  0.00    -0.0377  A
ATOM      6 C21  665 L   1      -6.540  -5.812 -12.824  1.00  0.00    +0.0004  A
ATOM      7 C22  665 L   1      -5.657  -4.846 -12.311  1.00  0.00    -0.0506  A
ATOM      8 C26  665 L   1      -7.011  -8.100 -13.462  1.00  0.00    -0.0358  A
ATOM      9 C30  665 L   1      -7.842  -5.508 -13.224  1.00  0.00    +0.0353  A
ATOM     10 C33  665 L   1      -8.281  -7.680 -13.828  1.00  0.00    +0.0281  A
ATOM     11 H48  665 L   1      -4.495  -8.475 -12.643  1.00  0.00    +0.0644  H
ATOM     12 H49  665 L   1      -3.723  -4.493 -11.549  1.00  0.00    +0.0638  H
ATOM     13 H50  665 L   1      -5.967  -3.866 -12.219  1.00  0.00    +0.0625  H
ATOM     14 H51  665 L   1      -6.731  -9.087 -13.565  1.00  0.00    +0.0639  H
ATOM     15 H54  665 L   1      -8.156  -4.528 -13.135  1.00  0.00    +0.0836  H
ATOM     16 H59  665 L   1      -8.932  -8.385 -14.205  1.00  0.00    +0.0830  H
ENDROOT
BRANCH 2 18
ATOM     17  O2  665 L   1      -1.524  -7.134 -13.709  1.00  0.00    -0.2720 OA
ATOM     18  N4  665 L   1      -2.653  -6.887 -11.661  1.00  0.00    -0.3255  N
ATOM     19 C10  665 L   1      -1.548  -7.168 -12.482  1.00  0.00    +0.2381  C
ATOM     20 H35  665 L   1      -2.496  -6.950 -10.692  1.00  0.00    +0.1686 HD
BRANCH 19 21
ATOM     21  C7  665 L   1      -0.298  -7.525 -11.663  1.00  0.00    +0.1122  C
ATOM     22 H39  665 L   1      -0.140  -8.583 -11.690  1.00  0.00    +0.0502  H
BRANCH 21 23
ATOM     23  C8  665 L   1       0.934  -6.878 -12.276  1.00  0.00    -0.0300  A
ATOM     24 C11  665 L   1       1.958  -7.675 -12.789  1.00  0.00    -0.0573  A
ATOM     25 C12  665 L   1       1.041  -5.488 -12.325  1.00  0.00    -0.0573  A
ATOM     26 C13  665 L   1       3.195  -5.692 -13.399  1.00  0.00    -0.0103  A
ATOM     27 C14  665 L   1       3.089  -7.081 -13.350  1.00  0.00    -0.0551  A
ATOM     28 C15  665 L   1       2.172  -4.895 -12.886  1.00  0.00    -0.0551  A
ATOM     29 H42  665 L   1       1.879  -8.704 -12.753  1.00  0.00    +0.0621  H
ATOM     30 H43  665 L   1       0.284  -4.898 -11.945  1.00  0.00    +0.0621  H
ATOM     31 H44  665 L   1       3.846  -7.671 -13.730  1.00  0.00    +0.0621  H
ATOM     32 H45  665 L   1       2.251  -3.866 -12.922  1.00  0.00    +0.0621  H
BRANCH 26 33
ATOM     33 C17  665 L   1       4.404  -5.057 -14.000  1.00  0.00    +0.1179  C
ATOM     34 H46  665 L   1       4.935  -4.515 -13.246  1.00  0.00    +0.0749  H
ATOM     35 H47  665 L   1       5.039  -5.815 -14.409  1.00  0.00    +0.0749  H
BRANCH 33 36
ATOM     36  O1  665 L   1       4.004  -4.164 -15.034  1.00  0.00    -0.4564 OA
BRANCH 36 38
ATOM     37  O3  665 L   1       4.891  -4.485 -17.134  1.00  0.00    -0.2449 OA
ATOM     38 C25  665 L   1       4.020  -4.670 -16.297  1.00  0.00    +0.3398  C
BRANCH 38 39
ATOM     39 C23  665 L   1       2.813  -5.498 -16.547  1.00  0.00    +0.0619  A
ATOM     40 C24  665 L   1       1.535  -4.940 -16.507  1.00  0.00    -0.0362  A
ATOM     41 C27  665 L   1       0.578  -7.099 -17.020  1.00  0.00    -0.0502  A
ATOM     42 C28  665 L   1       0.418  -5.741 -16.745  1.00  0.00    -0.0551  A
ATOM     43 C29  665 L   1       2.974  -6.856 -16.822  1.00  0.00    -0.0473  A
ATOM     44 C31  665 L   1       1.857  -7.657 -17.058  1.00  0.00    -0.0580  A
ATOM     45 C32  665 L   1       1.335  -3.489 -16.217  1.00  0.00    -0.0389  C
ATOM     46 C34  665 L   1      -0.615  -7.957 -17.273  1.00  0.00    -0.0397  C
ATOM     47 H52  665 L   1      -0.528  -5.329 -16.716  1.00  0.00    +0.0623  H
ATOM     48 H53  665 L   1       3.919  -7.268 -16.851  1.00  0.00    +0.0626  H
ATOM     49 H55  665 L   1       1.976  -8.662 -17.262  1.00  0.00    +0.0620  H
ATOM     50 H56  665 L   1       2.285  -3.022 -16.060  1.00  0.00    +0.0278  H
ATOM     51 H57  665 L   1       0.735  -3.381 -15.337  1.00  0.00    +0.0278  H
ATOM     52 H58  665 L   1       0.840  -3.024 -17.044  1.00  0.00    +0.0278  H
ATOM     53 H60  665 L   1      -1.502  -7.363 -17.204  1.00  0.00    +0.0278  H
ATOM     54 H61  665 L   1      -0.653  -8.740 -16.546  1.00  0.00    +0.0278  H
ATOM     55 H62  665 L   1      -0.548  -8.382 -18.252  1.00  0.00    +0.0278  H
ENDBRANCH 38 39
ENDBRANCH 36 38
ENDBRANCH 33 36
ENDBRANCH 26 33
ENDBRANCH 21 23
BRANCH 21 57
ATOM     56  N5  665 L   1       0.555  -7.683  -9.331  1.00  0.00    -0.3600  N
ATOM     57  C9  665 L   1      -0.502  -7.143 -10.182  1.00  0.00    +0.0921  C
ATOM     58 H36  665 L   1       0.385  -7.409  -8.363  1.00  0.00    +0.3450 HD
ATOM     59 H37  665 L   1       1.456  -7.316  -9.635  1.00  0.00    +0.3450 HD
ATOM     60 H38  665 L   1       0.561  -8.701  -9.401  1.00  0.00    +0.3450 HD
ATOM     61 H40  665 L   1      -0.504  -6.076 -10.097  1.00  0.00    +0.0926  H
ATOM     62 H41  665 L   1      -1.434  -7.557  -9.858  1.00  0.00    +0.0926  H
ENDBRANCH 21 57
ENDBRANCH 19 21
ENDBRANCH 2 18
TORSDOF 8
ENDMDL
MODEL 17
REMARK VINA RESULT:    -7.160      6.052      9.379
REMARK INTER + INTRA:         -11.869
REMARK INTER:                 -10.395
REMARK INTRA:                  -1.474
REMARK UNBOUND:                -1.361
ROOT
ATOM      1  N6  665 L   1       8.330   1.878 -18.238  1.00  0.00    -0.2626 NA
ATOM      2 C16  665 L   1       3.827   1.883 -15.928  1.00  0.00    +0.0423  A
ATOM      3 C18  665 L   1       4.338   1.213 -17.041  1.00  0.00    -0.0305  A
ATOM      4 C19  665 L   1       5.664   1.422 -17.453  1.00  0.00    -0.0131  A
ATOM      5 C20  665 L   1       4.630   2.769 -15.215  1.00  0.00    -0.0377  A
ATOM      6 C21  665 L   1       6.475   2.320 -16.728  1.00  0.00    +0.0004  A
ATOM      7 C22  665 L   1       5.949   2.989 -15.610  1.00  0.00    -0.0506  A
ATOM      8 C26  665 L   1       6.207   0.765 -18.565  1.00  0.00    -0.0358  A
ATOM      9 C30  665 L   1       7.787   2.503 -17.168  1.00  0.00    +0.0353  A
ATOM     10 C33  665 L   1       7.525   1.026 -18.908  1.00  0.00    +0.0281  A
ATOM     11 H48  665 L   1       3.737   0.558 -17.565  1.00  0.00    +0.0644  H
ATOM     12 H49  665 L   1       4.249   3.263 -14.393  1.00  0.00    +0.0638  H
ATOM     13 H50  665 L   1       6.542   3.646 -15.079  1.00  0.00    +0.0625  H
ATOM     14 H51  665 L   1       5.639   0.103 -19.115  1.00  0.00    +0.0639  H
ATOM     15 H54  665 L   1       8.385   3.159 -16.640  1.00  0.00    +0.0836  H
ATOM     16 H59  665 L   1       7.915   0.537 -19.728  1.00  0.00    +0.0830  H
ENDROOT
BRANCH 2 18
ATOM     17  O2  665 L   1       1.254   2.359 -17.395  1.00  0.00    -0.2720 OA
ATOM     18  N4  665 L   1       2.507   1.664 -15.530  1.00  0.00    -0.3255  N
ATOM     19 C10  665 L   1       1.328   1.910 -16.254  1.00  0.00    +0.2381  C
ATOM     20 H35  665 L   1       2.387   1.289 -14.628  1.00  0.00    +0.1686 HD
BRANCH 19 21
ATOM     21  C7  665 L   1       0.072   1.530 -15.456  1.00  0.00    +0.1122  C
ATOM     22 H39  665 L   1      -0.747   1.374 -16.127  1.00  0.00    +0.0502  H
BRANCH 21 23
ATOM     23  C8  665 L   1       0.294   0.219 -14.718  1.00  0.00    -0.0300  A
ATOM     24 C11  665 L   1       0.472  -0.964 -15.436  1.00  0.00    -0.0573  A
ATOM     25 C12  665 L   1       0.320   0.199 -13.323  1.00  0.00    -0.0573  A
ATOM     26 C13  665 L   1       0.701  -2.186 -13.365  1.00  0.00    -0.0103  A
ATOM     27 C14  665 L   1       0.675  -2.167 -14.758  1.00  0.00    -0.0551  A
ATOM     28 C15  665 L   1       0.522  -1.003 -12.647  1.00  0.00    -0.0551  A
ATOM     29 H42  665 L   1       0.454  -0.950 -16.468  1.00  0.00    +0.0621  H
ATOM     30 H43  665 L   1       0.188   1.075 -12.793  1.00  0.00    +0.0621  H
ATOM     31 H44  665 L   1       0.807  -3.042 -15.290  1.00  0.00    +0.0621  H
ATOM     32 H45  665 L   1       0.541  -1.018 -11.615  1.00  0.00    +0.0621  H
BRANCH 26 33
ATOM     33 C17  665 L   1       0.918  -3.472 -12.640  1.00  0.00    +0.1179  C
ATOM     34 H46  665 L   1       1.963  -3.607 -12.457  1.00  0.00    +0.0749  H
ATOM     35 H47  665 L   1       0.393  -3.450 -11.708  1.00  0.00    +0.0749  H
BRANCH 33 36
ATOM     36  O1  665 L   1       0.431  -4.549 -13.433  1.00  0.00    -0.4564 OA
BRANCH 36 38
ATOM     37  O3  665 L   1       0.913  -6.755 -12.989  1.00  0.00    -0.2449 OA
ATOM     38 C25  665 L   1       1.206  -5.667 -13.461  1.00  0.00    +0.3398  C
BRANCH 38 39
ATOM     39 C23  665 L   1       2.492  -5.399 -14.154  1.00  0.00    +0.0619  A
ATOM     40 C24  665 L   1       2.550  -5.273 -15.542  1.00  0.00    -0.0362  A
ATOM     41 C27  665 L   1       4.933  -4.896 -15.407  1.00  0.00    -0.0502  A
ATOM     42 C28  665 L   1       3.771  -5.021 -16.168  1.00  0.00    -0.0551  A
ATOM     43 C29  665 L   1       3.654  -5.275 -13.392  1.00  0.00    -0.0473  A
ATOM     44 C31  665 L   1       4.875  -5.024 -14.018  1.00  0.00    -0.0580  A
ATOM     45 C32  665 L   1       1.320  -5.399 -16.381  1.00  0.00    -0.0389  C
ATOM     46 C34  665 L   1       6.239  -4.629 -16.075  1.00  0.00    -0.0397  C
ATOM     47 H52  665 L   1       3.814  -4.928 -17.195  1.00  0.00    +0.0623  H
ATOM     48 H53  665 L   1       3.610  -5.367 -12.366  1.00  0.00    +0.0626  H
ATOM     49 H55  665 L   1       5.734  -4.932 -13.455  1.00  0.00    +0.0620  H
ATOM     50 H56  665 L   1       0.477  -5.590 -15.751  1.00  0.00    +0.0278  H
ATOM     51 H57  665 L   1       1.441  -6.209 -17.069  1.00  0.00    +0.0278  H
ATOM     52 H58  665 L   1       1.163  -4.491 -16.924  1.00  0.00    +0.0278  H
ATOM     53 H60  665 L   1       6.092  -4.563 -17.133  1.00  0.00    +0.0278  H
ATOM     54 H61  665 L   1       6.921  -5.425 -15.859  1.00  0.00    +0.0278  H
ATOM     55 H62  665 L   1       6.642  -3.706 -15.714  1.00  0.00    +0.0278  H
ENDBRANCH 38 39
ENDBRANCH 36 38
ENDBRANCH 33 36
ENDBRANCH 26 33
ENDBRANCH 21 23
BRANCH 21 57
ATOM     56  N5  665 L   1      -1.550   3.355 -14.975  1.00  0.00    -0.3600  N
ATOM     57  C9  665 L   1      -0.336   2.684 -14.518  1.00  0.00    +0.0921  C
ATOM     58 H36  665 L   1      -1.786   4.108 -14.330  1.00  0.00    +0.3450 HD
ATOM     59 H37  665 L   1      -2.317   2.683 -15.008  1.00  0.00    +0.3450 HD
ATOM     60 H38  665 L   1      -1.395   3.739 -15.907  1.00  0.00    +0.3450 HD
ATOM     61 H40  665 L   1      -0.506   2.289 -13.538  1.00  0.00    +0.0926  H
ATOM     62 H41  665 L   1       0.457   3.403 -14.511  1.00  0.00    +0.0926  H
ENDBRANCH 21 57
ENDBRANCH 19 21
ENDBRANCH 2 18
TORSDOF 8
ENDMDL
MODEL 18
REMARK VINA RESULT:    -7.138      3.759      5.846
REMARK INTER + INTRA:         -11.838
REMARK INTER:                  -9.324
REMARK INTRA:                  -2.514
REMARK UNBOUND:                -1.361
ROOT
ATOM      1  N6  665 L   1       0.188  -6.401 -13.921  1.00  0.00    -0.2626 NA
ATOM      2 C16  665 L   1      -3.895  -8.150 -11.498  1.00  0.00    +0.0423  A
ATOM      3 C18  665 L   1      -3.305  -8.444 -12.728  1.00  0.00    -0.0305  A
ATOM      4 C19  665 L   1      -2.142  -7.775 -13.141  1.00  0.00    -0.0131  A
ATOM      5 C20  665 L   1      -3.334  -7.185 -10.665  1.00  0.00    -0.0377  A
ATOM      6 C21  665 L   1      -1.577  -6.797 -12.296  1.00  0.00    +0.0004  A
ATOM      7 C22  665 L   1      -2.180  -6.510 -11.059  1.00  0.00    -0.0506  A
ATOM      8 C26  665 L   1      -1.526  -8.046 -14.369  1.00  0.00    -0.0358  A
ATOM      9 C30  665 L   1      -0.421  -6.152 -12.740  1.00  0.00    +0.0353  A
ATOM     10 C33  665 L   1      -0.381  -7.341 -14.705  1.00  0.00    +0.0281  A
ATOM     11 H48  665 L   1      -3.727  -9.161 -13.340  1.00  0.00    +0.0644  H
ATOM     12 H49  665 L   1      -3.773  -6.970  -9.757  1.00  0.00    +0.0638  H
ATOM     13 H50  665 L   1      -1.766  -5.795 -10.441  1.00  0.00    +0.0625  H
ATOM     14 H51  665 L   1      -1.917  -8.755 -15.009  1.00  0.00    +0.0639  H
ATOM     15 H54  665 L   1      -0.003  -5.436 -12.124  1.00  0.00    +0.0836  H
ATOM     16 H59  665 L   1       0.065  -7.549 -15.610  1.00  0.00    +0.0830  H
ENDROOT
BRANCH 2 18
ATOM     17  O2  665 L   1      -4.507 -11.087 -11.458  1.00  0.00    -0.2720 OA
ATOM     18  N4  665 L   1      -5.051  -8.827 -11.101  1.00  0.00    -0.3255  N
ATOM     19 C10  665 L   1      -5.293 -10.210 -11.107  1.00  0.00    +0.2381  C
ATOM     20 H35  665 L   1      -5.788  -8.262 -10.776  1.00  0.00    +0.1686 HD
BRANCH 19 21
ATOM     21  C7  665 L   1      -6.699 -10.551 -10.590  1.00  0.00    +0.1122  C
ATOM     22 H39  665 L   1      -6.850 -10.097  -9.633  1.00  0.00    +0.0502  H
BRANCH 21 23
ATOM     23  C8  665 L   1      -7.755  -9.977 -11.522  1.00  0.00    -0.0300  A
ATOM     24 C11  665 L   1      -7.614 -10.110 -12.903  1.00  0.00    -0.0573  A
ATOM     25 C12  665 L   1      -8.866  -9.318 -10.994  1.00  0.00    -0.0573  A
ATOM     26 C13  665 L   1      -9.693  -8.924 -13.230  1.00  0.00    -0.0103  A
ATOM     27 C14  665 L   1      -8.583  -9.583 -13.757  1.00  0.00    -0.0551  A
ATOM     28 C15  665 L   1      -9.834  -8.790 -11.849  1.00  0.00    -0.0551  A
ATOM     29 H42  665 L   1      -6.792 -10.598 -13.294  1.00  0.00    +0.0621  H
ATOM     30 H43  665 L   1      -8.971  -9.219  -9.972  1.00  0.00    +0.0621  H
ATOM     31 H44  665 L   1      -8.478  -9.681 -14.780  1.00  0.00    +0.0621  H
ATOM     32 H45  665 L   1     -10.656  -8.302 -11.459  1.00  0.00    +0.0621  H
BRANCH 26 33
ATOM     33 C17  665 L   1     -10.729  -8.360 -14.143  1.00  0.00    +0.1179  C
ATOM     34 H46  665 L   1     -10.301  -8.193 -15.109  1.00  0.00    +0.0749  H
ATOM     35 H47  665 L   1     -11.543  -9.049 -14.228  1.00  0.00    +0.0749  H
BRANCH 33 36
ATOM     36  O1  665 L   1     -11.204  -7.127 -13.614  1.00  0.00    -0.4564 OA
BRANCH 36 38
ATOM     37  O3  665 L   1     -11.317  -5.309 -15.021  1.00  0.00    -0.2449 OA
ATOM     38 C25  665 L   1     -10.725  -6.000 -14.206  1.00  0.00    +0.3398  C
BRANCH 38 39
ATOM     39 C23  665 L   1      -9.351  -5.700 -13.729  1.00  0.00    +0.0619  A
ATOM     40 C24  665 L   1      -8.243  -5.893 -14.555  1.00  0.00    -0.0362  A
ATOM     41 C27  665 L   1      -6.790  -5.123 -12.784  1.00  0.00    -0.0502  A
ATOM     42 C28  665 L   1      -6.963  -5.604 -14.082  1.00  0.00    -0.0551  A
ATOM     43 C29  665 L   1      -9.179  -5.220 -12.431  1.00  0.00    -0.0473  A
ATOM     44 C31  665 L   1      -7.898  -4.932 -11.957  1.00  0.00    -0.0580  A
ATOM     45 C32  665 L   1      -8.399  -6.405 -15.950  1.00  0.00    -0.0389  C
ATOM     46 C34  665 L   1      -5.422  -4.815 -12.276  1.00  0.00    -0.0397  C
ATOM     47 H52  665 L   1      -6.142  -5.746 -14.692  1.00  0.00    +0.0623  H
ATOM     48 H53  665 L   1      -9.998  -5.077 -11.821  1.00  0.00    +0.0626  H
ATOM     49 H55  665 L   1      -7.771  -4.576 -10.997  1.00  0.00    +0.0620  H
ATOM     50 H56  665 L   1      -9.436  -6.574 -16.153  1.00  0.00    +0.0278  H
ATOM     51 H57  665 L   1      -7.860  -7.323 -16.055  1.00  0.00    +0.0278  H
ATOM     52 H58  665 L   1      -8.013  -5.684 -16.640  1.00  0.00    +0.0278  H
ATOM     53 H60  665 L   1      -4.703  -5.021 -13.041  1.00  0.00    +0.0278  H
ATOM     54 H61  665 L   1      -5.214  -5.420 -11.419  1.00  0.00    +0.0278  H
ATOM     55 H62  665 L   1      -5.367  -3.782 -12.005  1.00  0.00    +0.0278  H
ENDBRANCH 38 39
ENDBRANCH 36 38
ENDBRANCH 33 36
ENDBRANCH 26 33
ENDBRANCH 21 23
BRANCH 21 57
ATOM     56  N5  665 L   1      -6.022 -12.554  -9.279  1.00  0.00    -0.3600  N
ATOM     57  C9  665 L   1      -6.841 -12.073 -10.388  1.00  0.00    +0.0921  C
ATOM     58 H36  665 L   1      -6.144 -13.561  -9.178  1.00  0.00    +0.3450 HD
ATOM     59 H37  665 L   1      -6.309 -12.089  -8.418  1.00  0.00    +0.3450 HD
ATOM     60 H38  665 L   1      -5.041 -12.346  -9.466  1.00  0.00    +0.3450 HD
ATOM     61 H40  665 L   1      -7.867 -12.301 -10.185  1.00  0.00    +0.0926  H
ATOM     62 H41  665 L   1      -6.508 -12.559 -11.281  1.00  0.00    +0.0926  H
ENDBRANCH 21 57
ENDBRANCH 19 21
ENDBRANCH 2 18
TORSDOF 8
ENDMDL
MODEL 19
REMARK VINA RESULT:    -7.121      2.954      4.831
REMARK INTER + INTRA:         -11.812
REMARK INTER:                 -10.384
REMARK INTRA:                  -1.428
REMARK UNBOUND:                -1.361
ROOT
ATOM      1  N6  665 L   1       1.389  -4.496 -11.982  1.00  0.00    -0.2626 NA
ATOM      2 C16  665 L   1      -2.690  -7.400 -11.252  1.00  0.00    +0.0423  A
ATOM      3 C18  665 L   1      -1.320  -7.660 -11.309  1.00  0.00    -0.0305  A
ATOM      4 C19  665 L   1      -0.404  -6.619 -11.531  1.00  0.00    -0.0131  A
ATOM      5 C20  665 L   1      -3.164  -6.101 -11.417  1.00  0.00    -0.0377  A
ATOM      6 C21  665 L   1      -0.887  -5.304 -11.698  1.00  0.00    +0.0004  A
ATOM      7 C22  665 L   1      -2.269  -5.055 -11.639  1.00  0.00    -0.0506  A
ATOM      8 C26  665 L   1       0.976  -6.847 -11.594  1.00  0.00    -0.0358  A
ATOM      9 C30  665 L   1       0.053  -4.296 -11.919  1.00  0.00    +0.0353  A
ATOM     10 C33  665 L   1       1.815  -5.766 -11.818  1.00  0.00    +0.0281  A
ATOM     11 H48  665 L   1      -0.976  -8.626 -11.185  1.00  0.00    +0.0644  H
ATOM     12 H49  665 L   1      -4.177  -5.912 -11.375  1.00  0.00    +0.0638  H
ATOM     13 H50  665 L   1      -2.622  -4.093 -11.761  1.00  0.00    +0.0625  H
ATOM     14 H51  665 L   1       1.360  -7.798 -11.476  1.00  0.00    +0.0639  H
ATOM     15 H54  665 L   1      -0.296  -3.332 -12.041  1.00  0.00    +0.0836  H
ATOM     16 H59  665 L   1       2.830  -5.944 -11.862  1.00  0.00    +0.0830  H
ENDROOT
BRANCH 2 18
ATOM     17  O2  665 L   1      -3.194  -9.896 -12.837  1.00  0.00    -0.2720 OA
ATOM     18  N4  665 L   1      -3.588  -8.446 -11.028  1.00  0.00    -0.3255  N
ATOM     19 C10  665 L   1      -3.793  -9.597 -11.807  1.00  0.00    +0.2381  C
ATOM     20 H35  665 L   1      -4.148  -8.367 -10.222  1.00  0.00    +0.1686 HD
BRANCH 19 21
ATOM     21  C7  665 L   1      -4.879 -10.507 -11.215  1.00  0.00    +0.1122  C
ATOM     22 H39  665 L   1      -4.794 -10.521 -10.148  1.00  0.00    +0.0502  H
BRANCH 21 23
ATOM     23  C8  665 L   1      -6.260  -9.959 -11.540  1.00  0.00    -0.0300  A
ATOM     24 C11  665 L   1      -6.417  -9.029 -12.568  1.00  0.00    -0.0573  A
ATOM     25 C12  665 L   1      -7.370 -10.387 -10.811  1.00  0.00    -0.0573  A
ATOM     26 C13  665 L   1      -8.793  -8.953 -12.136  1.00  0.00    -0.0103  A
ATOM     27 C14  665 L   1      -7.684  -8.526 -12.865  1.00  0.00    -0.0551  A
ATOM     28 C15  665 L   1      -8.636  -9.883 -11.108  1.00  0.00    -0.0551  A
ATOM     29 H42  665 L   1      -5.596  -8.712 -13.108  1.00  0.00    +0.0621  H
ATOM     30 H43  665 L   1      -7.253 -11.075 -10.050  1.00  0.00    +0.0621  H
ATOM     31 H44  665 L   1      -7.800  -7.837 -13.626  1.00  0.00    +0.0621  H
ATOM     32 H45  665 L   1      -9.457 -10.200 -10.568  1.00  0.00    +0.0621  H
BRANCH 26 33
ATOM     33 C17  665 L   1     -10.147  -8.416 -12.454  1.00  0.00    +0.1179  C
ATOM     34 H46  665 L   1     -10.845  -9.224 -12.523  1.00  0.00    +0.0749  H
ATOM     35 H47  665 L   1     -10.455  -7.744 -11.681  1.00  0.00    +0.0749  H
BRANCH 33 36
ATOM     36  O1  665 L   1     -10.100  -7.721 -13.696  1.00  0.00    -0.4564 OA
BRANCH 36 38
ATOM     37  O3  665 L   1     -12.043  -6.493 -13.811  1.00  0.00    -0.2449 OA
ATOM     38 C25  665 L   1     -10.825  -6.572 -13.764  1.00  0.00    +0.3398  C
BRANCH 38 39
ATOM     39 C23  665 L   1      -9.931  -5.386 -13.776  1.00  0.00    +0.0619  A
ATOM     40 C24  665 L   1      -9.418  -4.882 -14.972  1.00  0.00    -0.0362  A
ATOM     41 C27  665 L   1      -8.253  -3.158 -13.743  1.00  0.00    -0.0502  A
ATOM     42 C28  665 L   1      -8.580  -3.767 -14.955  1.00  0.00    -0.0551  A
ATOM     43 C29  665 L   1      -9.604  -4.777 -12.564  1.00  0.00    -0.0473  A
ATOM     44 C31  665 L   1      -8.764  -3.663 -12.547  1.00  0.00    -0.0580  A
ATOM     45 C32  665 L   1      -9.754  -5.514 -16.283  1.00  0.00    -0.0389  C
ATOM     46 C34  665 L   1      -7.355  -1.967 -13.724  1.00  0.00    -0.0397  C
ATOM     47 H52  665 L   1      -8.200  -3.394 -15.839  1.00  0.00    +0.0623  H
ATOM     48 H53  665 L   1      -9.983  -5.150 -11.681  1.00  0.00    +0.0626  H
ATOM     49 H55  665 L   1      -8.523  -3.213 -11.651  1.00  0.00    +0.0620  H
ATOM     50 H56  665 L   1     -10.402  -6.350 -16.120  1.00  0.00    +0.0278  H
ATOM     51 H57  665 L   1      -8.854  -5.847 -16.758  1.00  0.00    +0.0278  H
ATOM     52 H58  665 L   1     -10.243  -4.798 -16.909  1.00  0.00    +0.0278  H
ATOM     53 H60  665 L   1      -7.063  -1.724 -14.724  1.00  0.00    +0.0278  H
ATOM     54 H61  665 L   1      -6.485  -2.185 -13.141  1.00  0.00    +0.0278  H
ATOM     55 H62  665 L   1      -7.874  -1.136 -13.293  1.00  0.00    +0.0278  H
ENDBRANCH 38 39
ENDBRANCH 36 38
ENDBRANCH 33 36
ENDBRANCH 26 33
ENDBRANCH 21 23
BRANCH 21 57
ATOM     56  N5  665 L   1      -3.438 -12.535 -11.192  1.00  0.00    -0.3600  N
ATOM     57  C9  665 L   1      -4.682 -11.959 -11.696  1.00  0.00    +0.0921  C
ATOM     58 H36  665 L   1      -3.346 -13.493 -11.530  1.00  0.00    +0.3450 HD
ATOM     59 H37  665 L   1      -3.453 -12.536 -10.172  1.00  0.00    +0.3450 HD
ATOM     60 H38  665 L   1      -2.649 -11.980 -11.520  1.00  0.00    +0.3450 HD
ATOM     61 H40  665 L   1      -5.504 -12.552 -11.352  1.00  0.00    +0.0926  H
ATOM     62 H41  665 L   1      -4.634 -11.951 -12.765  1.00  0.00    +0.0926  H
ENDBRANCH 21 57
ENDBRANCH 19 21
ENDBRANCH 2 18
TORSDOF 8
ENDMDL
MODEL 20
REMARK VINA RESULT:    -7.059      4.535      8.077
REMARK INTER + INTRA:         -11.721
REMARK INTER:                  -9.328
REMARK INTRA:                  -2.393
REMARK UNBOUND:                -1.361
ROOT
ATOM      1  N6  665 L   1      -8.730  -1.745 -15.265  1.00  0.00    -0.2626 NA
ATOM      2 C16  665 L   1      -6.079  -5.601 -13.339  1.00  0.00    +0.0423  A
ATOM      3 C18  665 L   1      -6.475  -4.359 -12.839  1.00  0.00    -0.0305  A
ATOM      4 C19  665 L   1      -7.226  -3.477 -13.632  1.00  0.00    -0.0131  A
ATOM      5 C20  665 L   1      -6.427  -5.977 -14.634  1.00  0.00    -0.0377  A
ATOM      6 C21  665 L   1      -7.576  -3.861 -14.944  1.00  0.00    +0.0004  A
ATOM      7 C22  665 L   1      -7.171  -5.114 -15.436  1.00  0.00    -0.0506  A
ATOM      8 C26  665 L   1      -7.639  -2.224 -13.161  1.00  0.00    -0.0358  A
ATOM      9 C30  665 L   1      -8.322  -2.957 -15.702  1.00  0.00    +0.0353  A
ATOM     10 C33  665 L   1      -8.377  -1.410 -14.005  1.00  0.00    +0.0281  A
ATOM     11 H48  665 L   1      -6.214  -4.087 -11.878  1.00  0.00    +0.0644  H
ATOM     12 H49  665 L   1      -6.132  -6.896 -15.001  1.00  0.00    +0.0638  H
ATOM     13 H50  665 L   1      -7.427  -5.395 -16.395  1.00  0.00    +0.0625  H
ATOM     14 H51  665 L   1      -7.398  -1.915 -12.206  1.00  0.00    +0.0639  H
ATOM     15 H54  665 L   1      -8.581  -3.234 -16.663  1.00  0.00    +0.0836  H
ATOM     16 H59  665 L   1      -8.676  -0.490 -13.648  1.00  0.00    +0.0830  H
ENDROOT
BRANCH 2 18
ATOM     17  O2  665 L   1      -3.620  -5.094 -11.698  1.00  0.00    -0.2720 OA
ATOM     18  N4  665 L   1      -5.334  -6.468 -12.537  1.00  0.00    -0.3255  N
ATOM     19 C10  665 L   1      -4.179  -6.184 -11.789  1.00  0.00    +0.2381  C
ATOM     20 H35  665 L   1      -5.659  -7.396 -12.490  1.00  0.00    +0.1686 HD
BRANCH 19 21
ATOM     21  C7  665 L   1      -3.660  -7.420 -11.040  1.00  0.00    +0.1122  C
ATOM     22 H39  665 L   1      -3.868  -7.320  -9.995  1.00  0.00    +0.0502  H
BRANCH 21 23
ATOM     23  C8  665 L   1      -4.386  -8.668 -11.517  1.00  0.00    -0.0300  A
ATOM     24 C11  665 L   1      -5.268  -9.332 -10.664  1.00  0.00    -0.0573  A
ATOM     25 C12  665 L   1      -4.169  -9.149 -12.809  1.00  0.00    -0.0573  A
ATOM     26 C13  665 L   1      -5.716 -10.958 -12.393  1.00  0.00    -0.0103  A
ATOM     27 C14  665 L   1      -5.932 -10.477 -11.102  1.00  0.00    -0.0551  A
ATOM     28 C15  665 L   1      -4.834 -10.295 -13.246  1.00  0.00    -0.0551  A
ATOM     29 H42  665 L   1      -5.428  -8.976  -9.708  1.00  0.00    +0.0621  H
ATOM     30 H43  665 L   1      -3.517  -8.658 -13.440  1.00  0.00    +0.0621  H
ATOM     31 H44  665 L   1      -6.585 -10.969 -10.470  1.00  0.00    +0.0621  H
ATOM     32 H45  665 L   1      -4.674 -10.651 -14.202  1.00  0.00    +0.0621  H
BRANCH 26 33
ATOM     33 C17  665 L   1      -6.427 -12.183 -12.861  1.00  0.00    +0.1179  C
ATOM     34 H46  665 L   1      -6.605 -12.112 -13.914  1.00  0.00    +0.0749  H
ATOM     35 H47  665 L   1      -5.826 -13.044 -12.658  1.00  0.00    +0.0749  H
BRANCH 33 36
ATOM     36  O1  665 L   1      -7.669 -12.299 -12.176  1.00  0.00    -0.4564 OA
BRANCH 36 38
ATOM     37  O3  665 L   1      -9.500 -12.729 -13.504  1.00  0.00    -0.2449 OA
ATOM     38 C25  665 L   1      -8.778 -11.960 -12.889  1.00  0.00    +0.3398  C
BRANCH 38 39
ATOM     39 C23  665 L   1      -9.012 -10.494 -12.829  1.00  0.00    +0.0619  A
ATOM     40 C24  665 L   1      -9.448  -9.882 -11.654  1.00  0.00    -0.0362  A
ATOM     41 C27  665 L   1      -9.439  -7.738 -12.770  1.00  0.00    -0.0502  A
ATOM     42 C28  665 L   1      -9.661  -8.503 -11.625  1.00  0.00    -0.0551  A
ATOM     43 C29  665 L   1      -8.791  -9.730 -13.975  1.00  0.00    -0.0473  A
ATOM     44 C31  665 L   1      -9.004  -8.352 -13.946  1.00  0.00    -0.0580  A
ATOM     45 C32  665 L   1      -9.691 -10.676 -10.413  1.00  0.00    -0.0389  C
ATOM     46 C34  665 L   1      -9.668  -6.265 -12.741  1.00  0.00    -0.0397  C
ATOM     47 H52  665 L   1      -9.983  -8.049 -10.756  1.00  0.00    +0.0623  H
ATOM     48 H53  665 L   1      -8.468 -10.183 -14.843  1.00  0.00    +0.0626  H
ATOM     49 H55  665 L   1      -8.840  -7.786 -14.793  1.00  0.00    +0.0620  H
ATOM     50 H56  665 L   1      -9.482 -11.708 -10.603  1.00  0.00    +0.0278  H
ATOM     51 H57  665 L   1     -10.713 -10.569 -10.115  1.00  0.00    +0.0278  H
ATOM     52 H58  665 L   1      -9.053 -10.321  -9.631  1.00  0.00    +0.0278  H
ATOM     53 H60  665 L   1      -9.996  -5.974 -11.765  1.00  0.00    +0.0278  H
ATOM     54 H61  665 L   1     -10.415  -6.005 -13.461  1.00  0.00    +0.0278  H
ATOM     55 H62  665 L   1      -8.756  -5.758 -12.975  1.00  0.00    +0.0278  H
ENDBRANCH 38 39
ENDBRANCH 36 38
ENDBRANCH 33 36
ENDBRANCH 26 33
ENDBRANCH 21 23
BRANCH 21 57
ATOM     56  N5  665 L   1      -1.433  -6.668 -10.225  1.00  0.00    -0.3600  N
ATOM     57  C9  665 L   1      -2.128  -7.526 -11.180  1.00  0.00    +0.0921  C
ATOM     58 H36  665 L   1      -0.425  -6.767 -10.349  1.00  0.00    +0.3450 HD
ATOM     59 H37  665 L   1      -1.686  -6.941  -9.276  1.00  0.00    +0.3450 HD
ATOM     60 H38  665 L   1      -1.701  -5.697 -10.383  1.00  0.00    +0.3450 HD
ATOM     61 H40  665 L   1      -1.835  -8.542 -11.011  1.00  0.00    +0.0926  H
ATOM     62 H41  665 L   1      -1.862  -7.209 -12.167  1.00  0.00    +0.0926  H
ENDBRANCH 21 57
ENDBRANCH 19 21
ENDBRANCH 2 18
TORSDOF 8
ENDMDL
