MODEL 1
REMARK VINA RESULT:    -7.953      0.000      0.000
REMARK INTER + INTRA:         -13.033
REMARK INTER:                 -11.673
REMARK INTRA:                  -1.359
REMARK UNBOUND:                -1.359
ROOT
ATOM      1  N6  665 L   1       5.593  -4.555 -16.428  1.00  0.00    -0.2626 NA
ATOM      2 C16  665 L   1       1.506  -5.307 -13.541  1.00  0.00    +0.0423  A
ATOM      3 C18  665 L   1       2.879  -5.358 -13.299  1.00  0.00    -0.0305  A
ATOM      4 C19  665 L   1       3.797  -5.093 -14.328  1.00  0.00    -0.0131  A
ATOM      5 C20  665 L   1       1.031  -4.992 -14.812  1.00  0.00    -0.0377  A
ATOM      6 C21  665 L   1       3.312  -4.775 -15.614  1.00  0.00    +0.0004  A
ATOM      7 C22  665 L   1       1.927  -4.726 -15.846  1.00  0.00    -0.0506  A
ATOM      8 C26  665 L   1       5.181  -5.137 -14.117  1.00  0.00    -0.0358  A
ATOM      9 C30  665 L   1       4.254  -4.518 -16.612  1.00  0.00    +0.0353  A
ATOM     10 C33  665 L   1       6.021  -4.864 -15.185  1.00  0.00    +0.0281  A
ATOM     11 H48  665 L   1       3.224  -5.592 -12.354  1.00  0.00    +0.0644  H
ATOM     12 H49  665 L   1       0.014  -4.955 -14.988  1.00  0.00    +0.0638  H
ATOM     13 H50  665 L   1       1.573  -4.493 -16.786  1.00  0.00    +0.0625  H
ATOM     14 H51  665 L   1       5.565  -5.367 -13.188  1.00  0.00    +0.0639  H
ATOM     15 H54  665 L   1       3.904  -4.284 -17.555  1.00  0.00    +0.0836  H
ATOM     16 H59  665 L   1       7.038  -4.898 -15.020  1.00  0.00    +0.0830  H
ENDROOT
BRANCH 2 18
ATOM     17  O2  665 L   1       0.231  -7.885 -12.691  1.00  0.00    -0.2720 OA
ATOM     18  N4  665 L   1       0.606  -5.571 -12.506  1.00  0.00    -0.3255  N
ATOM     19 C10  665 L   1       0.029  -6.801 -12.150  1.00  0.00    +0.2381  C
ATOM     20 H35  665 L   1       0.343  -4.798 -11.958  1.00  0.00    +0.1686 HD
BRANCH 19 21
ATOM     21  C7  665 L   1      -0.915  -6.667 -10.946  1.00  0.00    +0.1122  C
ATOM     22 H39  665 L   1      -0.682  -5.774 -10.404  1.00  0.00    +0.0502  H
BRANCH 21 23
ATOM     23  C8  665 L   1      -2.354  -6.532 -11.419  1.00  0.00    -0.0300  A
ATOM     24 C11  665 L   1      -3.081  -7.668 -11.778  1.00  0.00    -0.0573  A
ATOM     25 C12  665 L   1      -2.950  -5.272 -11.492  1.00  0.00    -0.0573  A
ATOM     26 C13  665 L   1      -4.994  -6.285 -12.286  1.00  0.00    -0.0103  A
ATOM     27 C14  665 L   1      -4.400  -7.544 -12.213  1.00  0.00    -0.0551  A
ATOM     28 C15  665 L   1      -4.269  -5.149 -11.927  1.00  0.00    -0.0551  A
ATOM     29 H42  665 L   1      -2.641  -8.601 -11.723  1.00  0.00    +0.0621  H
ATOM     30 H43  665 L   1      -2.413  -4.432 -11.226  1.00  0.00    +0.0621  H
ATOM     31 H44  665 L   1      -4.937  -8.385 -12.479  1.00  0.00    +0.0621  H
ATOM     32 H45  665 L   1      -4.709  -4.217 -11.982  1.00  0.00    +0.0621  H
BRANCH 26 33
ATOM     33 C17  665 L   1      -6.406  -6.152 -12.750  1.00  0.00    +0.1179  C
ATOM     34 H46  665 L   1      -6.459  -6.365 -13.797  1.00  0.00    +0.0749  H
ATOM     35 H47  665 L   1      -7.024  -6.841 -12.214  1.00  0.00    +0.0749  H
BRANCH 33 36
ATOM     36  O1  665 L   1      -6.858  -4.824 -12.511  1.00  0.00    -0.4564 OA
BRANCH 36 38
ATOM     37  O3  665 L   1      -9.038  -5.014 -13.225  1.00  0.00    -0.2449 OA
ATOM     38 C25  665 L   1      -7.962  -4.436 -13.206  1.00  0.00    +0.3398  C
BRANCH 38 39
ATOM     39 C23  665 L   1      -7.694  -3.187 -13.963  1.00  0.00    +0.0619  A
ATOM     40 C24  665 L   1      -7.210  -3.227 -15.271  1.00  0.00    -0.0362  A
ATOM     41 C27  665 L   1      -7.206  -0.812 -15.342  1.00  0.00    -0.0502  A
ATOM     42 C28  665 L   1      -6.966  -2.039 -15.960  1.00  0.00    -0.0551  A
ATOM     43 C29  665 L   1      -7.934  -1.960 -13.345  1.00  0.00    -0.0473  A
ATOM     44 C31  665 L   1      -7.690  -0.772 -14.034  1.00  0.00    -0.0580  A
ATOM     45 C32  665 L   1      -6.946  -4.528 -15.957  1.00  0.00    -0.0389  C
ATOM     46 C34  665 L   1      -6.944   0.459 -16.078  1.00  0.00    -0.0397  C
ATOM     47 H52  665 L   1      -6.607  -2.068 -16.928  1.00  0.00    +0.0623  H
ATOM     48 H53  665 L   1      -8.293  -1.931 -12.378  1.00  0.00    +0.0626  H
ATOM     49 H55  665 L   1      -7.867   0.136 -13.576  1.00  0.00    +0.0620  H
ATOM     50 H56  665 L   1      -7.183  -5.335 -15.296  1.00  0.00    +0.0278  H
ATOM     51 H57  665 L   1      -5.913  -4.583 -16.231  1.00  0.00    +0.0278  H
ATOM     52 H58  665 L   1      -7.551  -4.597 -16.837  1.00  0.00    +0.0278  H
ATOM     53 H60  665 L   1      -6.581   0.235 -17.058  1.00  0.00    +0.0278  H
ATOM     54 H61  665 L   1      -6.214   1.034 -15.548  1.00  0.00    +0.0278  H
ATOM     55 H62  665 L   1      -7.852   1.020 -16.154  1.00  0.00    +0.0278  H
ENDBRANCH 38 39
ENDBRANCH 36 38
ENDBRANCH 33 36
ENDBRANCH 26 33
ENDBRANCH 21 23
BRANCH 21 57
ATOM     56  N5  665 L   1       0.659  -7.908  -9.473  1.00  0.00    -0.3600  N
ATOM     57  C9  665 L   1      -0.712  -7.845  -9.972  1.00  0.00    +0.0921  C
ATOM     58 H36  665 L   1       0.752  -8.697  -8.833  1.00  0.00    +0.3450 HD
ATOM     59 H37  665 L   1       0.881  -7.044  -8.979  1.00  0.00    +0.3450 HD
ATOM     60 H38  665 L   1       1.301  -8.026 -10.256  1.00  0.00    +0.3450 HD
ATOM     61 H40  665 L   1      -1.378  -7.727  -9.143  1.00  0.00    +0.0926  H
ATOM     62 H41  665 L   1      -0.914  -8.753 -10.502  1.00  0.00    +0.0926  H
ENDBRANCH 21 57
ENDBRANCH 19 21
ENDBRANCH 2 18
TORSDOF 8
ENDMDL
MODEL 2
REMARK VINA RESULT:    -7.902      2.878      9.810
REMARK INTER + INTRA:         -12.957
REMARK INTER:                 -11.558
REMARK INTRA:                  -1.399
REMARK UNBOUND:                -1.359
ROOT
ATOM      1  N6  665 L   1      -9.329  -4.198 -13.412  1.00  0.00    -0.2626 NA
ATOM      2 C16  665 L   1      -4.937  -6.593 -12.647  1.00  0.00    +0.0423  A
ATOM      3 C18  665 L   1      -5.298  -5.248 -12.741  1.00  0.00    -0.0305  A
ATOM      4 C19  665 L   1      -6.635  -4.880 -12.963  1.00  0.00    -0.0131  A
ATOM      5 C20  665 L   1      -5.904  -7.587 -12.776  1.00  0.00    -0.0377  A
ATOM      6 C21  665 L   1      -7.611  -5.890 -13.093  1.00  0.00    +0.0004  A
ATOM      7 C22  665 L   1      -7.236  -7.241 -12.998  1.00  0.00    -0.0506  A
ATOM      8 C26  665 L   1      -7.029  -3.540 -13.061  1.00  0.00    -0.0358  A
ATOM      9 C30  665 L   1      -8.929  -5.487 -13.315  1.00  0.00    +0.0353  A
ATOM     10 C33  665 L   1      -8.368  -3.259 -13.283  1.00  0.00    +0.0281  A
ATOM     11 H48  665 L   1      -4.576  -4.517 -12.644  1.00  0.00    +0.0644  H
ATOM     12 H49  665 L   1      -5.634  -8.581 -12.707  1.00  0.00    +0.0638  H
ATOM     13 H50  665 L   1      -7.950  -7.979 -13.093  1.00  0.00    +0.0625  H
ATOM     14 H51  665 L   1      -6.337  -2.780 -12.971  1.00  0.00    +0.0639  H
ATOM     15 H54  665 L   1      -9.648  -6.222 -13.410  1.00  0.00    +0.0836  H
ATOM     16 H59  665 L   1      -8.648  -2.270 -13.353  1.00  0.00    +0.0830  H
ENDROOT
BRANCH 2 18
ATOM     17  O2  665 L   1      -3.366  -6.715 -10.095  1.00  0.00    -0.2720 OA
ATOM     18  N4  665 L   1      -3.604  -6.942 -12.424  1.00  0.00    -0.3255  N
ATOM     19 C10  665 L   1      -2.907  -6.978 -11.204  1.00  0.00    +0.2381  C
ATOM     20 H35  665 L   1      -3.086  -7.195 -13.222  1.00  0.00    +0.1686 HD
BRANCH 19 21
ATOM     21  C7  665 L   1      -1.447  -7.417 -11.387  1.00  0.00    +0.1122  C
ATOM     22 H39  665 L   1      -1.414  -8.340 -11.928  1.00  0.00    +0.0502  H
BRANCH 21 23
ATOM     23  C8  665 L   1      -0.690  -6.392 -12.217  1.00  0.00    -0.0300  A
ATOM     24 C11  665 L   1      -0.065  -6.778 -13.403  1.00  0.00    -0.0573  A
ATOM     25 C12  665 L   1      -0.621  -5.064 -11.792  1.00  0.00    -0.0573  A
ATOM     26 C13  665 L   1       0.699  -4.511 -13.738  1.00  0.00    -0.0103  A
ATOM     27 C14  665 L   1       0.631  -5.837 -14.163  1.00  0.00    -0.0551  A
ATOM     28 C15  665 L   1       0.074  -4.124 -12.553  1.00  0.00    -0.0551  A
ATOM     29 H42  665 L   1      -0.116  -7.760 -13.717  1.00  0.00    +0.0621  H
ATOM     30 H43  665 L   1      -1.084  -4.779 -10.915  1.00  0.00    +0.0621  H
ATOM     31 H44  665 L   1       1.093  -6.123 -15.041  1.00  0.00    +0.0621  H
ATOM     32 H45  665 L   1       0.125  -3.142 -12.238  1.00  0.00    +0.0621  H
BRANCH 26 33
ATOM     33 C17  665 L   1       1.442  -3.505 -14.551  1.00  0.00    +0.1179  C
ATOM     34 H46  665 L   1       0.824  -2.646 -14.708  1.00  0.00    +0.0749  H
ATOM     35 H47  665 L   1       2.332  -3.214 -14.033  1.00  0.00    +0.0749  H
BRANCH 33 36
ATOM     36  O1  665 L   1       1.790  -4.076 -15.808  1.00  0.00    -0.4564 OA
BRANCH 36 38
ATOM     37  O3  665 L   1       3.599  -3.209 -16.935  1.00  0.00    -0.2449 OA
ATOM     38 C25  665 L   1       3.104  -4.005 -16.152  1.00  0.00    +0.3398  C
BRANCH 38 39
ATOM     39 C23  665 L   1       3.891  -5.045 -15.441  1.00  0.00    +0.0619  A
ATOM     40 C24  665 L   1       3.851  -6.380 -15.845  1.00  0.00    -0.0362  A
ATOM     41 C27  665 L   1       5.386  -6.961 -14.071  1.00  0.00    -0.0502  A
ATOM     42 C28  665 L   1       4.599  -7.337 -15.160  1.00  0.00    -0.0551  A
ATOM     43 C29  665 L   1       4.677  -4.668 -14.353  1.00  0.00    -0.0473  A
ATOM     44 C31  665 L   1       5.424  -5.625 -13.667  1.00  0.00    -0.0580  A
ATOM     45 C32  665 L   1       3.019  -6.811 -17.009  1.00  0.00    -0.0389  C
ATOM     46 C34  665 L   1       6.185  -7.983 -13.337  1.00  0.00    -0.0397  C
ATOM     47 H52  665 L   1       4.570  -8.325 -15.458  1.00  0.00    +0.0623  H
ATOM     48 H53  665 L   1       4.706  -3.681 -14.055  1.00  0.00    +0.0626  H
ATOM     49 H55  665 L   1       6.006  -5.346 -12.862  1.00  0.00    +0.0620  H
ATOM     50 H56  665 L   1       2.513  -5.962 -17.419  1.00  0.00    +0.0278  H
ATOM     51 H57  665 L   1       2.299  -7.532 -16.684  1.00  0.00    +0.0278  H
ATOM     52 H58  665 L   1       3.648  -7.247 -17.756  1.00  0.00    +0.0278  H
ATOM     53 H60  665 L   1       6.033  -8.943 -13.784  1.00  0.00    +0.0278  H
ATOM     54 H61  665 L   1       5.874  -8.013 -12.314  1.00  0.00    +0.0278  H
ATOM     55 H62  665 L   1       7.223  -7.728 -13.387  1.00  0.00    +0.0278  H
ENDBRANCH 38 39
ENDBRANCH 36 38
ENDBRANCH 33 36
ENDBRANCH 26 33
ENDBRANCH 21 23
BRANCH 21 57
ATOM     56  N5  665 L   1       0.649  -7.443 -10.047  1.00  0.00    -0.3600  N
ATOM     57  C9  665 L   1      -0.791  -7.681 -10.017  1.00  0.00    +0.0921  C
ATOM     58 H36  665 L   1       1.044  -7.627  -9.125  1.00  0.00    +0.3450 HD
ATOM     59 H37  665 L   1       0.827  -6.473 -10.305  1.00  0.00    +0.3450 HD
ATOM     60 H38  665 L   1       1.081  -8.062 -10.733  1.00  0.00    +0.3450 HD
ATOM     61 H40  665 L   1      -1.235  -7.031  -9.290  1.00  0.00    +0.0926  H
ATOM     62 H41  665 L   1      -0.953  -8.708  -9.763  1.00  0.00    +0.0926  H
ENDBRANCH 21 57
ENDBRANCH 19 21
ENDBRANCH 2 18
TORSDOF 8
ENDMDL
MODEL 3
REMARK VINA RESULT:    -7.836      0.611      1.334
REMARK INTER + INTRA:         -12.860
REMARK INTER:                 -11.828
REMARK INTRA:                  -1.032
REMARK UNBOUND:                -1.359
ROOT
ATOM      1  N6  665 L   1       5.293  -4.529 -16.780  1.00  0.00    -0.2626 NA
ATOM      2 C16  665 L   1       2.394  -5.846 -12.847  1.00  0.00    +0.0423  A
ATOM      3 C18  665 L   1       2.154  -5.141 -14.028  1.00  0.00    -0.0305  A
ATOM      4 C19  665 L   1       3.186  -4.929 -14.955  1.00  0.00    -0.0131  A
ATOM      5 C20  665 L   1       3.666  -6.345 -12.576  1.00  0.00    -0.0377  A
ATOM      6 C21  665 L   1       4.473  -5.435 -14.677  1.00  0.00    +0.0004  A
ATOM      7 C22  665 L   1       4.703  -6.142 -13.485  1.00  0.00    -0.0506  A
ATOM      8 C26  665 L   1       2.978  -4.227 -16.149  1.00  0.00    -0.0358  A
ATOM      9 C30  665 L   1       5.475  -5.203 -15.622  1.00  0.00    +0.0353  A
ATOM     10 C33  665 L   1       4.049  -4.058 -17.012  1.00  0.00    +0.0281  A
ATOM     11 H48  665 L   1       1.209  -4.775 -14.222  1.00  0.00    +0.0644  H
ATOM     12 H49  665 L   1       3.840  -6.864 -11.701  1.00  0.00    +0.0638  H
ATOM     13 H50  665 L   1       5.644  -6.513 -13.281  1.00  0.00    +0.0625  H
ATOM     14 H51  665 L   1       2.048  -3.844 -16.379  1.00  0.00    +0.0639  H
ATOM     15 H54  665 L   1       6.418  -5.573 -15.423  1.00  0.00    +0.0836  H
ATOM     16 H59  665 L   1       3.885  -3.540 -17.889  1.00  0.00    +0.0830  H
ENDROOT
BRANCH 2 18
ATOM     17  O2  665 L   1       0.171  -7.859 -12.859  1.00  0.00    -0.2720 OA
ATOM     18  N4  665 L   1       1.356  -6.050 -11.935  1.00  0.00    -0.3255  N
ATOM     19 C10  665 L   1       0.329  -7.008 -11.988  1.00  0.00    +0.2381  C
ATOM     20 H35  665 L   1       1.342  -5.448 -11.157  1.00  0.00    +0.1686 HD
BRANCH 19 21
ATOM     21  C7  665 L   1      -0.620  -6.902 -10.785  1.00  0.00    +0.1122  C
ATOM     22 H39  665 L   1      -0.357  -6.049 -10.195  1.00  0.00    +0.0502  H
BRANCH 21 23
ATOM     23  C8  665 L   1      -2.048  -6.688 -11.260  1.00  0.00    -0.0300  A
ATOM     24 C11  665 L   1      -2.873  -7.785 -11.511  1.00  0.00    -0.0573  A
ATOM     25 C12  665 L   1      -2.536  -5.393 -11.443  1.00  0.00    -0.0573  A
ATOM     26 C13  665 L   1      -4.669  -6.295 -12.130  1.00  0.00    -0.0103  A
ATOM     27 C14  665 L   1      -4.182  -7.588 -11.948  1.00  0.00    -0.0551  A
ATOM     28 C15  665 L   1      -3.846  -5.197 -11.879  1.00  0.00    -0.0551  A
ATOM     29 H42  665 L   1      -2.512  -8.743 -11.376  1.00  0.00    +0.0621  H
ATOM     30 H43  665 L   1      -1.927  -4.581 -11.256  1.00  0.00    +0.0621  H
ATOM     31 H44  665 L   1      -4.792  -8.401 -12.134  1.00  0.00    +0.0621  H
ATOM     32 H45  665 L   1      -4.207  -4.239 -12.014  1.00  0.00    +0.0621  H
BRANCH 26 33
ATOM     33 C17  665 L   1      -6.071  -6.084 -12.596  1.00  0.00    +0.1179  C
ATOM     34 H46  665 L   1      -6.145  -6.337 -13.633  1.00  0.00    +0.0749  H
ATOM     35 H47  665 L   1      -6.733  -6.704 -12.029  1.00  0.00    +0.0749  H
BRANCH 33 36
ATOM     36  O1  665 L   1      -6.429  -4.718 -12.414  1.00  0.00    -0.4564 OA
BRANCH 36 38
ATOM     37  O3  665 L   1      -8.712  -4.871 -12.661  1.00  0.00    -0.2449 OA
ATOM     38 C25  665 L   1      -7.638  -4.347 -12.914  1.00  0.00    +0.3398  C
BRANCH 38 39
ATOM     39 C23  665 L   1      -7.493  -3.191 -13.836  1.00  0.00    +0.0619  A
ATOM     40 C24  665 L   1      -7.227  -3.380 -15.192  1.00  0.00    -0.0362  A
ATOM     41 C27  665 L   1      -7.227  -0.986 -15.524  1.00  0.00    -0.0502  A
ATOM     42 C28  665 L   1      -7.095  -2.277 -16.036  1.00  0.00    -0.0551  A
ATOM     43 C29  665 L   1      -7.625  -1.900 -13.323  1.00  0.00    -0.0473  A
ATOM     44 C31  665 L   1      -7.492  -0.798 -14.167  1.00  0.00    -0.0580  A
ATOM     45 C32  665 L   1      -7.082  -4.751 -15.767  1.00  0.00    -0.0389  C
ATOM     46 C34  665 L   1      -7.084   0.193 -16.425  1.00  0.00    -0.0397  C
ATOM     47 H52  665 L   1      -6.898  -2.417 -17.040  1.00  0.00    +0.0623  H
ATOM     48 H53  665 L   1      -7.822  -1.761 -12.321  1.00  0.00    +0.0626  H
ATOM     49 H55  665 L   1      -7.590   0.157 -13.788  1.00  0.00    +0.0620  H
ATOM     50 H56  665 L   1      -7.212  -5.478 -14.993  1.00  0.00    +0.0278  H
ATOM     51 H57  665 L   1      -6.108  -4.857 -16.196  1.00  0.00    +0.0278  H
ATOM     52 H58  665 L   1      -7.823  -4.901 -16.525  1.00  0.00    +0.0278  H
ATOM     53 H60  665 L   1      -6.885  -0.141 -17.422  1.00  0.00    +0.0278  H
ATOM     54 H61  665 L   1      -6.276   0.806 -16.086  1.00  0.00    +0.0278  H
ATOM     55 H62  665 L   1      -7.991   0.761 -16.415  1.00  0.00    +0.0278  H
ENDBRANCH 38 39
ENDBRANCH 36 38
ENDBRANCH 33 36
ENDBRANCH 26 33
ENDBRANCH 21 23
BRANCH 21 57
ATOM     56  N5  665 L   1       0.688  -8.025  -8.991  1.00  0.00    -0.3600  N
ATOM     57  C9  665 L   1      -0.469  -8.137  -9.874  1.00  0.00    +0.0921  C
ATOM     58 H36  665 L   1       0.752  -8.858  -8.406  1.00  0.00    +0.3450 HD
ATOM     59 H37  665 L   1       0.585  -7.201  -8.399  1.00  0.00    +0.3450 HD
ATOM     60 H38  665 L   1       1.536  -7.935  -9.551  1.00  0.00    +0.3450 HD
ATOM     61 H40  665 L   1      -1.352  -8.236  -9.278  1.00  0.00    +0.0926  H
ATOM     62 H41  665 L   1      -0.328  -8.995 -10.498  1.00  0.00    +0.0926  H
ENDBRANCH 21 57
ENDBRANCH 19 21
ENDBRANCH 2 18
TORSDOF 8
ENDMDL
MODEL 4
REMARK VINA RESULT:    -7.787      1.292      1.724
REMARK INTER + INTRA:         -12.789
REMARK INTER:                 -11.302
REMARK INTRA:                  -1.487
REMARK UNBOUND:                -1.359
ROOT
ATOM      1  N6  665 L   1       5.957  -5.085 -15.400  1.00  0.00    -0.2626 NA
ATOM      2 C16  665 L   1       1.615  -6.180 -13.043  1.00  0.00    +0.0423  A
ATOM      3 C18  665 L   1       2.960  -6.366 -12.720  1.00  0.00    -0.0305  A
ATOM      4 C19  665 L   1       3.971  -5.945 -13.599  1.00  0.00    -0.0131  A
ATOM      5 C20  665 L   1       1.261  -5.575 -14.246  1.00  0.00    -0.0377  A
ATOM      6 C21  665 L   1       3.609  -5.333 -14.817  1.00  0.00    +0.0004  A
ATOM      7 C22  665 L   1       2.252  -5.152 -15.132  1.00  0.00    -0.0506  A
ATOM      8 C26  665 L   1       5.329  -6.117 -13.305  1.00  0.00    -0.0358  A
ATOM      9 C30  665 L   1       4.641  -4.929 -15.667  1.00  0.00    +0.0353  A
ATOM     10 C33  665 L   1       6.266  -5.676 -14.226  1.00  0.00    +0.0281  A
ATOM     11 H48  665 L   1       3.215  -6.815 -11.826  1.00  0.00    +0.0644  H
ATOM     12 H49  665 L   1       0.266  -5.439 -14.483  1.00  0.00    +0.0638  H
ATOM     13 H50  665 L   1       1.987  -4.703 -16.023  1.00  0.00    +0.0625  H
ATOM     14 H51  665 L   1       5.624  -6.562 -12.422  1.00  0.00    +0.0639  H
ATOM     15 H54  665 L   1       4.381  -4.480 -16.559  1.00  0.00    +0.0836  H
ATOM     16 H59  665 L   1       7.264  -5.806 -13.999  1.00  0.00    +0.0830  H
ENDROOT
BRANCH 2 18
ATOM     17  O2  665 L   1       0.190  -4.681 -10.870  1.00  0.00    -0.2720 OA
ATOM     18  N4  665 L   1       0.622  -6.602 -12.156  1.00  0.00    -0.3255  N
ATOM     19 C10  665 L   1      -0.013  -5.860 -11.146  1.00  0.00    +0.2381  C
ATOM     20 H35  665 L   1       0.330  -7.537 -12.252  1.00  0.00    +0.1686 HD
BRANCH 19 21
ATOM     21  C7  665 L   1      -1.056  -6.696 -10.388  1.00  0.00    +0.1122  C
ATOM     22 H39  665 L   1      -1.360  -6.174  -9.504  1.00  0.00    +0.0502  H
BRANCH 21 23
ATOM     23  C8  665 L   1      -2.301  -6.883 -11.240  1.00  0.00    -0.0300  A
ATOM     24 C11  665 L   1      -2.668  -8.159 -11.669  1.00  0.00    -0.0573  A
ATOM     25 C12  665 L   1      -3.077  -5.779 -11.594  1.00  0.00    -0.0573  A
ATOM     26 C13  665 L   1      -4.585  -7.227 -12.805  1.00  0.00    -0.0103  A
ATOM     27 C14  665 L   1      -3.810  -8.330 -12.452  1.00  0.00    -0.0551  A
ATOM     28 C15  665 L   1      -4.218  -5.951 -12.377  1.00  0.00    -0.0551  A
ATOM     29 H42  665 L   1      -2.094  -8.977 -11.407  1.00  0.00    +0.0621  H
ATOM     30 H43  665 L   1      -2.805  -4.835 -11.277  1.00  0.00    +0.0621  H
ATOM     31 H44  665 L   1      -4.081  -9.275 -12.768  1.00  0.00    +0.0621  H
ATOM     32 H45  665 L   1      -4.792  -5.133 -12.639  1.00  0.00    +0.0621  H
BRANCH 26 33
ATOM     33 C17  665 L   1      -5.806  -7.410 -13.641  1.00  0.00    +0.1179  C
ATOM     34 H46  665 L   1      -5.743  -8.340 -14.166  1.00  0.00    +0.0749  H
ATOM     35 H47  665 L   1      -6.672  -7.413 -13.013  1.00  0.00    +0.0749  H
BRANCH 33 36
ATOM     36  O1  665 L   1      -5.903  -6.341 -14.576  1.00  0.00    -0.4564 OA
BRANCH 36 38
ATOM     37  O3  665 L   1      -8.140  -6.593 -15.054  1.00  0.00    -0.2449 OA
ATOM     38 C25  665 L   1      -7.160  -5.895 -14.844  1.00  0.00    +0.3398  C
BRANCH 38 39
ATOM     39 C23  665 L   1      -7.199  -4.410 -14.854  1.00  0.00    +0.0619  A
ATOM     40 C24  665 L   1      -7.381  -3.687 -13.675  1.00  0.00    -0.0362  A
ATOM     41 C27  665 L   1      -7.268  -1.622 -14.926  1.00  0.00    -0.0502  A
ATOM     42 C28  665 L   1      -7.414  -2.292 -13.712  1.00  0.00    -0.0551  A
ATOM     43 C29  665 L   1      -7.053  -3.741 -16.069  1.00  0.00    -0.0473  A
ATOM     44 C31  665 L   1      -7.087  -2.346 -16.106  1.00  0.00    -0.0580  A
ATOM     45 C32  665 L   1      -7.539  -4.378 -12.361  1.00  0.00    -0.0389  C
ATOM     46 C34  665 L   1      -7.305  -0.132 -14.967  1.00  0.00    -0.0397  C
ATOM     47 H52  665 L   1      -7.549  -1.756 -12.840  1.00  0.00    +0.0623  H
ATOM     48 H53  665 L   1      -6.918  -4.276 -16.940  1.00  0.00    +0.0626  H
ATOM     49 H55  665 L   1      -6.978  -1.851 -17.004  1.00  0.00    +0.0620  H
ATOM     50 H56  665 L   1      -7.489  -5.437 -12.507  1.00  0.00    +0.0278  H
ATOM     51 H57  665 L   1      -8.486  -4.121 -11.934  1.00  0.00    +0.0278  H
ATOM     52 H58  665 L   1      -6.756  -4.072 -11.699  1.00  0.00    +0.0278  H
ATOM     53 H60  665 L   1      -7.450   0.248 -13.978  1.00  0.00    +0.0278  H
ATOM     54 H61  665 L   1      -8.110   0.188 -15.594  1.00  0.00    +0.0278  H
ATOM     55 H62  665 L   1      -6.380   0.237 -15.359  1.00  0.00    +0.0278  H
ENDBRANCH 38 39
ENDBRANCH 36 38
ENDBRANCH 33 36
ENDBRANCH 26 33
ENDBRANCH 21 23
BRANCH 21 57
ATOM     56  N5  665 L   1       0.578  -7.834  -8.897  1.00  0.00    -0.3600  N
ATOM     57  C9  665 L   1      -0.438  -8.031  -9.926  1.00  0.00    +0.0921  C
ATOM     58 H36  665 L   1       0.960  -8.738  -8.618  1.00  0.00    +0.3450 HD
ATOM     59 H37  665 L   1       0.157  -7.380  -8.087  1.00  0.00    +0.3450 HD
ATOM     60 H38  665 L   1       1.326  -7.247  -9.265  1.00  0.00    +0.3450 HD
ATOM     61 H40  665 L   1      -1.215  -8.653  -9.532  1.00  0.00    +0.0926  H
ATOM     62 H41  665 L   1       0.031  -8.491 -10.771  1.00  0.00    +0.0926  H
ENDBRANCH 21 57
ENDBRANCH 19 21
ENDBRANCH 2 18
TORSDOF 8
ENDMDL
MODEL 5
REMARK VINA RESULT:    -7.600      3.658      5.806
REMARK INTER + INTRA:         -12.514
REMARK INTER:                  -9.555
REMARK INTRA:                  -2.959
REMARK UNBOUND:                -1.359
ROOT
ATOM      1  N6  665 L   1       1.004  -6.480 -12.408  1.00  0.00    -0.2626 NA
ATOM      2 C16  665 L   1      -3.650  -8.387 -11.843  1.00  0.00    +0.0423  A
ATOM      3 C18  665 L   1      -2.657  -7.986 -10.947  1.00  0.00    -0.0305  A
ATOM      4 C19  665 L   1      -1.433  -7.481 -11.415  1.00  0.00    -0.0131  A
ATOM      5 C20  665 L   1      -3.433  -8.292 -13.216  1.00  0.00    -0.0377  A
ATOM      6 C21  665 L   1      -1.217  -7.387 -12.806  1.00  0.00    +0.0004  A
ATOM      7 C22  665 L   1      -2.223  -7.795 -13.699  1.00  0.00    -0.0506  A
ATOM      8 C26  665 L   1      -0.418  -7.070 -10.543  1.00  0.00    -0.0358  A
ATOM      9 C30  665 L   1       0.012  -6.882 -13.235  1.00  0.00    +0.0353  A
ATOM     10 C33  665 L   1       0.762  -6.585 -11.084  1.00  0.00    +0.0281  A
ATOM     11 H48  665 L   1      -2.825  -8.058  -9.931  1.00  0.00    +0.0644  H
ATOM     12 H49  665 L   1      -4.168  -8.591 -13.876  1.00  0.00    +0.0638  H
ATOM     13 H50  665 L   1      -2.065  -7.726 -14.716  1.00  0.00    +0.0625  H
ATOM     14 H51  665 L   1      -0.547  -7.128  -9.521  1.00  0.00    +0.0639  H
ATOM     15 H54  665 L   1       0.175  -6.811 -14.252  1.00  0.00    +0.0836  H
ATOM     16 H59  665 L   1       1.503  -6.284 -10.433  1.00  0.00    +0.0830  H
ENDROOT
BRANCH 2 18
ATOM     17  O2  665 L   1      -4.617 -11.214 -11.575  1.00  0.00    -0.2720 OA
ATOM     18  N4  665 L   1      -4.862  -8.884 -11.362  1.00  0.00    -0.3255  N
ATOM     19 C10  665 L   1      -5.274 -10.224 -11.262  1.00  0.00    +0.2381  C
ATOM     20 H35  665 L   1      -5.511  -8.211 -11.054  1.00  0.00    +0.1686 HD
BRANCH 19 21
ATOM     21  C7  665 L   1      -6.688 -10.350 -10.676  1.00  0.00    +0.1122  C
ATOM     22 H39  665 L   1      -6.751  -9.793  -9.765  1.00  0.00    +0.0502  H
BRANCH 21 23
ATOM     23  C8  665 L   1      -7.708  -9.750 -11.631  1.00  0.00    -0.0300  A
ATOM     24 C11  665 L   1      -8.821  -9.074 -11.130  1.00  0.00    -0.0573  A
ATOM     25 C12  665 L   1      -7.530  -9.874 -13.010  1.00  0.00    -0.0573  A
ATOM     26 C13  665 L   1      -9.578  -8.649 -13.384  1.00  0.00    -0.0103  A
ATOM     27 C14  665 L   1      -9.756  -8.525 -12.007  1.00  0.00    -0.0551  A
ATOM     28 C15  665 L   1      -8.466  -9.325 -13.886  1.00  0.00    -0.0551  A
ATOM     29 H42  665 L   1      -8.952  -8.981 -10.110  1.00  0.00    +0.0621  H
ATOM     30 H43  665 L   1      -6.707 -10.374 -13.381  1.00  0.00    +0.0621  H
ATOM     31 H44  665 L   1     -10.580  -8.025 -11.636  1.00  0.00    +0.0621  H
ATOM     32 H45  665 L   1      -8.335  -9.418 -14.906  1.00  0.00    +0.0621  H
BRANCH 26 33
ATOM     33 C17  665 L   1     -10.579  -8.061 -14.322  1.00  0.00    +0.1179  C
ATOM     34 H46  665 L   1     -11.099  -8.847 -14.828  1.00  0.00    +0.0749  H
ATOM     35 H47  665 L   1     -11.278  -7.467 -13.771  1.00  0.00    +0.0749  H
BRANCH 33 36
ATOM     36  O1  665 L   1      -9.909  -7.244 -15.275  1.00  0.00    -0.4564 OA
BRANCH 36 38
ATOM     37  O3  665 L   1     -10.567  -5.039 -15.241  1.00  0.00    -0.2449 OA
ATOM     38 C25  665 L   1      -9.783  -5.929 -14.950  1.00  0.00    +0.3398  C
BRANCH 38 39
ATOM     39 C23  665 L   1      -8.537  -5.696 -14.176  1.00  0.00    +0.0619  A
ATOM     40 C24  665 L   1      -8.577  -5.143 -12.896  1.00  0.00    -0.0362  A
ATOM     41 C27  665 L   1      -6.167  -5.277 -12.764  1.00  0.00    -0.0502  A
ATOM     42 C28  665 L   1      -7.392  -4.934 -12.190  1.00  0.00    -0.0551  A
ATOM     43 C29  665 L   1      -7.313  -6.039 -14.751  1.00  0.00    -0.0473  A
ATOM     44 C31  665 L   1      -6.128  -5.829 -14.045  1.00  0.00    -0.0580  A
ATOM     45 C32  665 L   1      -9.874  -4.768 -12.257  1.00  0.00    -0.0389  C
ATOM     46 C34  665 L   1      -4.900  -5.053 -12.011  1.00  0.00    -0.0397  C
ATOM     47 H52  665 L   1      -7.421  -4.524 -11.243  1.00  0.00    +0.0623  H
ATOM     48 H53  665 L   1      -7.284  -6.449 -15.697  1.00  0.00    +0.0626  H
ATOM     49 H55  665 L   1      -5.223  -6.083 -14.470  1.00  0.00    +0.0620  H
ATOM     50 H56  665 L   1     -10.679  -4.991 -12.925  1.00  0.00    +0.0278  H
ATOM     51 H57  665 L   1      -9.873  -3.721 -12.037  1.00  0.00    +0.0278  H
ATOM     52 H58  665 L   1      -9.998  -5.322 -11.350  1.00  0.00    +0.0278  H
ATOM     53 H60  665 L   1      -5.123  -4.626 -11.056  1.00  0.00    +0.0278  H
ATOM     54 H61  665 L   1      -4.271  -4.386 -12.562  1.00  0.00    +0.0278  H
ATOM     55 H62  665 L   1      -4.396  -5.987 -11.875  1.00  0.00    +0.0278  H
ENDBRANCH 38 39
ENDBRANCH 36 38
ENDBRANCH 33 36
ENDBRANCH 26 33
ENDBRANCH 21 23
BRANCH 21 57
ATOM     56  N5  665 L   1      -6.072 -12.337  -9.311  1.00  0.00    -0.3600  N
ATOM     57  C9  665 L   1      -6.992 -11.820 -10.321  1.00  0.00    +0.0921  C
ATOM     58 H36  665 L   1      -6.306 -13.308  -9.104  1.00  0.00    +0.3450 HD
ATOM     59 H37  665 L   1      -6.153 -11.779  -8.461  1.00  0.00    +0.3450 HD
ATOM     60 H38  665 L   1      -5.116 -12.284  -9.663  1.00  0.00    +0.3450 HD
ATOM     61 H40  665 L   1      -7.992 -11.885  -9.946  1.00  0.00    +0.0926  H
ATOM     62 H41  665 L   1      -6.875 -12.407 -11.208  1.00  0.00    +0.0926  H
ENDBRANCH 21 57
ENDBRANCH 19 21
ENDBRANCH 2 18
TORSDOF 8
ENDMDL
MODEL 6
REMARK VINA RESULT:    -7.549      3.399      9.954
REMARK INTER + INTRA:         -12.439
REMARK INTER:                 -10.893
REMARK INTRA:                  -1.546
REMARK UNBOUND:                -1.359
ROOT
ATOM      1  N6  665 L   1      -9.149  -6.436 -13.505  1.00  0.00    -0.2626 NA
ATOM      2 C16  665 L   1      -4.174  -6.507 -12.581  1.00  0.00    +0.0423  A
ATOM      3 C18  665 L   1      -5.065  -7.430 -13.131  1.00  0.00    -0.0305  A
ATOM      4 C19  665 L   1      -6.427  -7.116 -13.264  1.00  0.00    -0.0131  A
ATOM      5 C20  665 L   1      -4.630  -5.262 -12.155  1.00  0.00    -0.0377  A
ATOM      6 C21  665 L   1      -6.886  -5.854 -12.831  1.00  0.00    +0.0004  A
ATOM      7 C22  665 L   1      -5.979  -4.933 -12.278  1.00  0.00    -0.0506  A
ATOM      8 C26  665 L   1      -7.347  -8.019 -13.812  1.00  0.00    -0.0358  A
ATOM      9 C30  665 L   1      -8.246  -5.578 -12.978  1.00  0.00    +0.0353  A
ATOM     10 C33  665 L   1      -8.675  -7.634 -13.907  1.00  0.00    +0.0281  A
ATOM     11 H48  665 L   1      -4.720  -8.351 -13.445  1.00  0.00    +0.0644  H
ATOM     12 H49  665 L   1      -3.968  -4.582 -11.748  1.00  0.00    +0.0638  H
ATOM     13 H50  665 L   1      -6.314  -4.010 -11.962  1.00  0.00    +0.0625  H
ATOM     14 H51  665 L   1      -7.041  -8.950 -14.136  1.00  0.00    +0.0639  H
ATOM     15 H54  665 L   1      -8.587  -4.655 -12.664  1.00  0.00    +0.0836  H
ATOM     16 H59  665 L   1      -9.343  -8.306 -14.313  1.00  0.00    +0.0830  H
ENDROOT
BRANCH 2 18
ATOM     17  O2  665 L   1      -2.454  -6.756 -10.136  1.00  0.00    -0.2720 OA
ATOM     18  N4  665 L   1      -2.822  -6.834 -12.458  1.00  0.00    -0.3255  N
ATOM     19 C10  665 L   1      -2.055  -6.932 -11.285  1.00  0.00    +0.2381  C
ATOM     20 H35  665 L   1      -2.346  -7.019 -13.299  1.00  0.00    +0.1686 HD
BRANCH 19 21
ATOM     21  C7  665 L   1      -0.598  -7.317 -11.580  1.00  0.00    +0.1122  C
ATOM     22 H39  665 L   1      -0.502  -8.383 -11.585  1.00  0.00    +0.0502  H
BRANCH 21 23
ATOM     23  C8  665 L   1      -0.195  -6.831 -12.963  1.00  0.00    -0.0300  A
ATOM     24 C11  665 L   1      -0.329  -7.675 -14.066  1.00  0.00    -0.0573  A
ATOM     25 C12  665 L   1       0.308  -5.540 -13.129  1.00  0.00    -0.0573  A
ATOM     26 C13  665 L   1       0.545  -5.939 -15.500  1.00  0.00    -0.0103  A
ATOM     27 C14  665 L   1       0.042  -7.229 -15.334  1.00  0.00    -0.0551  A
ATOM     28 C15  665 L   1       0.679  -5.095 -14.398  1.00  0.00    -0.0551  A
ATOM     29 H42  665 L   1      -0.701  -8.630 -13.943  1.00  0.00    +0.0621  H
ATOM     30 H43  665 L   1       0.407  -4.916 -12.314  1.00  0.00    +0.0621  H
ATOM     31 H44  665 L   1      -0.057  -7.854 -16.151  1.00  0.00    +0.0621  H
ATOM     32 H45  665 L   1       1.051  -4.140 -14.521  1.00  0.00    +0.0621  H
BRANCH 26 33
ATOM     33 C17  665 L   1       0.941  -5.461 -16.857  1.00  0.00    +0.1179  C
ATOM     34 H46  665 L   1       0.911  -6.279 -17.546  1.00  0.00    +0.0749  H
ATOM     35 H47  665 L   1       0.263  -4.699 -17.179  1.00  0.00    +0.0749  H
BRANCH 33 36
ATOM     36  O1  665 L   1       2.261  -4.931 -16.804  1.00  0.00    -0.4564 OA
BRANCH 36 38
ATOM     37  O3  665 L   1       3.446  -6.312 -18.214  1.00  0.00    -0.2449 OA
ATOM     38 C25  665 L   1       3.263  -5.794 -17.123  1.00  0.00    +0.3398  C
BRANCH 38 39
ATOM     39 C23  665 L   1       4.137  -6.042 -15.947  1.00  0.00    +0.0619  A
ATOM     40 C24  665 L   1       5.269  -5.261 -15.713  1.00  0.00    -0.0362  A
ATOM     41 C27  665 L   1       5.745  -6.549 -13.725  1.00  0.00    -0.0502  A
ATOM     42 C28  665 L   1       6.072  -5.514 -14.602  1.00  0.00    -0.0551  A
ATOM     43 C29  665 L   1       3.809  -7.077 -15.071  1.00  0.00    -0.0473  A
ATOM     44 C31  665 L   1       4.613  -7.331 -13.960  1.00  0.00    -0.0580  A
ATOM     45 C32  665 L   1       5.641  -4.145 -16.635  1.00  0.00    -0.0389  C
ATOM     46 C34  665 L   1       6.604  -6.822 -12.537  1.00  0.00    -0.0397  C
ATOM     47 H52  665 L   1       6.910  -4.937 -14.428  1.00  0.00    +0.0623  H
ATOM     48 H53  665 L   1       2.972  -7.653 -15.244  1.00  0.00    +0.0626  H
ATOM     49 H55  665 L   1       4.371  -8.096 -13.312  1.00  0.00    +0.0620  H
ATOM     50 H56  665 L   1       4.927  -4.085 -17.429  1.00  0.00    +0.0278  H
ATOM     51 H57  665 L   1       6.613  -4.330 -17.042  1.00  0.00    +0.0278  H
ATOM     52 H58  665 L   1       5.652  -3.223 -16.093  1.00  0.00    +0.0278  H
ATOM     53 H60  665 L   1       7.419  -6.129 -12.520  1.00  0.00    +0.0278  H
ATOM     54 H61  665 L   1       6.985  -7.820 -12.594  1.00  0.00    +0.0278  H
ATOM     55 H62  665 L   1       6.024  -6.713 -11.645  1.00  0.00    +0.0278  H
ENDBRANCH 38 39
ENDBRANCH 36 38
ENDBRANCH 33 36
ENDBRANCH 26 33
ENDBRANCH 21 23
BRANCH 21 57
ATOM     56  N5  665 L   1       0.637  -7.826  -9.480  1.00  0.00    -0.3600  N
ATOM     57  C9  665 L   1       0.331  -6.792 -10.466  1.00  0.00    +0.0921  C
ATOM     58 H36  665 L   1       1.252  -7.441  -8.764  1.00  0.00    +0.3450 HD
ATOM     59 H37  665 L   1       1.101  -8.608  -9.942  1.00  0.00    +0.3450 HD
ATOM     60 H38  665 L   1      -0.228  -8.151  -9.049  1.00  0.00    +0.3450 HD
ATOM     61 H40  665 L   1       1.244  -6.454 -10.908  1.00  0.00    +0.0926  H
ATOM     62 H41  665 L   1      -0.172  -5.993  -9.963  1.00  0.00    +0.0926  H
ENDBRANCH 21 57
ENDBRANCH 19 21
ENDBRANCH 2 18
TORSDOF 8
ENDMDL
MODEL 7
REMARK VINA RESULT:    -7.529      6.287      9.856
REMARK INTER + INTRA:         -12.410
REMARK INTER:                 -10.847
REMARK INTRA:                  -1.563
REMARK UNBOUND:                -1.359
ROOT
ATOM      1  N6  665 L   1       8.435   1.905 -18.503  1.00  0.00    -0.2626 NA
ATOM      2 C16  665 L   1       3.857   1.487 -16.387  1.00  0.00    +0.0423  A
ATOM      3 C18  665 L   1       4.465   0.893 -17.494  1.00  0.00    -0.0305  A
ATOM      4 C19  665 L   1       5.785   1.217 -17.844  1.00  0.00    -0.0131  A
ATOM      5 C20  665 L   1       4.558   2.411 -15.616  1.00  0.00    -0.0377  A
ATOM      6 C21  665 L   1       6.492   2.155 -17.062  1.00  0.00    +0.0004  A
ATOM      7 C22  665 L   1       5.870   2.746 -15.949  1.00  0.00    -0.0506  A
ATOM      8 C26  665 L   1       6.423   0.639 -18.949  1.00  0.00    -0.0358  A
ATOM      9 C30  665 L   1       7.802   2.453 -17.440  1.00  0.00    +0.0353  A
ATOM     10 C33  665 L   1       7.728   1.013 -19.229  1.00  0.00    +0.0281  A
ATOM     11 H48  665 L   1       3.939   0.208 -18.061  1.00  0.00    +0.0644  H
ATOM     12 H49  665 L   1       4.105   2.849 -14.798  1.00  0.00    +0.0638  H
ATOM     13 H50  665 L   1       6.386   3.431 -15.377  1.00  0.00    +0.0625  H
ATOM     14 H51  665 L   1       5.932  -0.049 -19.540  1.00  0.00    +0.0639  H
ATOM     15 H54  665 L   1       8.324   3.138 -16.870  1.00  0.00    +0.0836  H
ATOM     16 H59  665 L   1       8.189   0.581 -20.044  1.00  0.00    +0.0830  H
ENDROOT
BRANCH 2 18
ATOM     17  O2  665 L   1       1.929   2.833 -14.525  1.00  0.00    -0.2720 OA
ATOM     18  N4  665 L   1       2.544   1.152 -16.051  1.00  0.00    -0.3255  N
ATOM     19 C10  665 L   1       1.678   1.814 -15.164  1.00  0.00    +0.2381  C
ATOM     20 H35  665 L   1       2.178   0.352 -16.491  1.00  0.00    +0.1686 HD
BRANCH 19 21
ATOM     21  C7  665 L   1       0.310   1.123 -15.071  1.00  0.00    +0.1122  C
ATOM     22 H39  665 L   1      -0.200   1.207 -16.009  1.00  0.00    +0.0502  H
BRANCH 21 23
ATOM     23  C8  665 L   1       0.488  -0.363 -14.799  1.00  0.00    -0.0300  A
ATOM     24 C11  665 L   1       0.566  -0.827 -13.485  1.00  0.00    -0.0573  A
ATOM     25 C12  665 L   1       0.574  -1.262 -15.863  1.00  0.00    -0.0573  A
ATOM     26 C13  665 L   1       0.816  -3.088 -14.299  1.00  0.00    -0.0103  A
ATOM     27 C14  665 L   1       0.730  -2.190 -13.236  1.00  0.00    -0.0551  A
ATOM     28 C15  665 L   1       0.738  -2.624 -15.612  1.00  0.00    -0.0551  A
ATOM     29 H42  665 L   1       0.502  -0.162 -12.698  1.00  0.00    +0.0621  H
ATOM     30 H43  665 L   1       0.516  -0.918 -16.834  1.00  0.00    +0.0621  H
ATOM     31 H44  665 L   1       0.788  -2.533 -12.264  1.00  0.00    +0.0621  H
ATOM     32 H45  665 L   1       0.802  -3.289 -16.400  1.00  0.00    +0.0621  H
BRANCH 26 33
ATOM     33 C17  665 L   1       0.991  -4.545 -14.033  1.00  0.00    +0.1179  C
ATOM     34 H46  665 L   1       0.477  -4.808 -13.132  1.00  0.00    +0.0749  H
ATOM     35 H47  665 L   1       0.590  -5.108 -14.849  1.00  0.00    +0.0749  H
BRANCH 33 36
ATOM     36  O1  665 L   1       2.377  -4.835 -13.891  1.00  0.00    -0.4564 OA
BRANCH 36 38
ATOM     37  O3  665 L   1       2.577  -6.824 -15.033  1.00  0.00    -0.2449 OA
ATOM     38 C25  665 L   1       2.911  -5.667 -14.826  1.00  0.00    +0.3398  C
BRANCH 38 39
ATOM     39 C23  665 L   1       3.984  -4.980 -15.590  1.00  0.00    +0.0619  A
ATOM     40 C24  665 L   1       5.319  -5.070 -15.196  1.00  0.00    -0.0362  A
ATOM     41 C27  665 L   1       5.961  -3.669 -17.057  1.00  0.00    -0.0502  A
ATOM     42 C28  665 L   1       6.307  -4.415 -15.930  1.00  0.00    -0.0551  A
ATOM     43 C29  665 L   1       3.636  -4.234 -16.716  1.00  0.00    -0.0473  A
ATOM     44 C31  665 L   1       4.625  -3.578 -17.450  1.00  0.00    -0.0580  A
ATOM     45 C32  665 L   1       5.718  -5.863 -13.994  1.00  0.00    -0.0389  C
ATOM     46 C34  665 L   1       7.016  -2.967 -17.842  1.00  0.00    -0.0397  C
ATOM     47 H52  665 L   1       7.296  -4.481 -15.639  1.00  0.00    +0.0623  H
ATOM     48 H53  665 L   1       2.649  -4.169 -17.007  1.00  0.00    +0.0626  H
ATOM     49 H55  665 L   1       4.368  -3.027 -18.283  1.00  0.00    +0.0620  H
ATOM     50 H56  665 L   1       4.848  -6.299 -13.549  1.00  0.00    +0.0278  H
ATOM     51 H57  665 L   1       6.197  -5.220 -13.286  1.00  0.00    +0.0278  H
ATOM     52 H58  665 L   1       6.396  -6.638 -14.287  1.00  0.00    +0.0278  H
ATOM     53 H60  665 L   1       7.972  -3.147 -17.397  1.00  0.00    +0.0278  H
ATOM     54 H61  665 L   1       6.817  -1.915 -17.847  1.00  0.00    +0.0278  H
ATOM     55 H62  665 L   1       7.016  -3.334 -18.847  1.00  0.00    +0.0278  H
ENDBRANCH 38 39
ENDBRANCH 36 38
ENDBRANCH 33 36
ENDBRANCH 26 33
ENDBRANCH 21 23
BRANCH 21 57
ATOM     56  N5  665 L   1      -1.218   3.018 -14.558  1.00  0.00    -0.3600  N
ATOM     57  C9  665 L   1      -0.574   1.823 -14.019  1.00  0.00    +0.0921  C
ATOM     58 H36  665 L   1      -1.792   3.451 -13.835  1.00  0.00    +0.3450 HD
ATOM     59 H37  665 L   1      -1.807   2.759 -15.349  1.00  0.00    +0.3450 HD
ATOM     60 H38  665 L   1      -0.505   3.678 -14.868  1.00  0.00    +0.3450 HD
ATOM     61 H40  665 L   1      -1.330   1.140 -13.692  1.00  0.00    +0.0926  H
ATOM     62 H41  665 L   1       0.053   2.123 -13.205  1.00  0.00    +0.0926  H
ENDBRANCH 21 57
ENDBRANCH 19 21
ENDBRANCH 2 18
TORSDOF 8
ENDMDL
MODEL 8
REMARK VINA RESULT:    -7.510      2.662      4.919
REMARK INTER + INTRA:         -12.382
REMARK INTER:                 -11.053
REMARK INTRA:                  -1.329
REMARK UNBOUND:                -1.359
ROOT
ATOM      1  N6  665 L   1       5.948  -5.234 -15.438  1.00  0.00    -0.2626 NA
ATOM      2 C16  665 L   1       1.416  -6.007 -13.321  1.00  0.00    +0.0423  A
ATOM      3 C18  665 L   1       2.729  -6.177 -12.878  1.00  0.00    -0.0305  A
ATOM      4 C19  665 L   1       3.812  -5.868 -13.716  1.00  0.00    -0.0131  A
ATOM      5 C20  665 L   1       1.168  -5.528 -14.605  1.00  0.00    -0.0377  A
ATOM      6 C21  665 L   1       3.557  -5.383 -15.016  1.00  0.00    +0.0004  A
ATOM      7 C22  665 L   1       2.232  -5.216 -15.451  1.00  0.00    -0.0506  A
ATOM      8 C26  665 L   1       5.140  -6.028 -13.301  1.00  0.00    -0.0358  A
ATOM      9 C30  665 L   1       4.659  -5.087 -15.821  1.00  0.00    +0.0353  A
ATOM     10 C33  665 L   1       6.154  -5.701 -14.188  1.00  0.00    +0.0281  A
ATOM     11 H48  665 L   1       2.905  -6.532 -11.925  1.00  0.00    +0.0644  H
ATOM     12 H49  665 L   1       0.197  -5.403 -14.930  1.00  0.00    +0.0638  H
ATOM     13 H50  665 L   1       2.045  -4.861 -16.402  1.00  0.00    +0.0625  H
ATOM     14 H51  665 L   1       5.358  -6.381 -12.356  1.00  0.00    +0.0639  H
ATOM     15 H54  665 L   1       4.477  -4.732 -16.773  1.00  0.00    +0.0836  H
ATOM     16 H59  665 L   1       7.128  -5.822 -13.873  1.00  0.00    +0.0830  H
ENDROOT
BRANCH 2 18
ATOM     17  O2  665 L   1      -0.408  -4.208 -11.761  1.00  0.00    -0.2720 OA
ATOM     18  N4  665 L   1       0.350  -6.317 -12.475  1.00  0.00    -0.3255  N
ATOM     19 C10  665 L   1      -0.475  -5.435 -11.757  1.00  0.00    +0.2381  C
ATOM     20 H35  665 L   1       0.151  -7.275 -12.368  1.00  0.00    +0.1686 HD
BRANCH 19 21
ATOM     21  C7  665 L   1      -1.539  -6.180 -10.937  1.00  0.00    +0.1122  C
ATOM     22 H39  665 L   1      -1.720  -5.655 -10.022  1.00  0.00    +0.0502  H
BRANCH 21 23
ATOM     23  C8  665 L   1      -2.857  -6.216 -11.694  1.00  0.00    -0.0300  A
ATOM     24 C11  665 L   1      -3.112  -7.243 -12.603  1.00  0.00    -0.0573  A
ATOM     25 C12  665 L   1      -3.812  -5.222 -11.479  1.00  0.00    -0.0573  A
ATOM     26 C13  665 L   1      -5.275  -6.282 -13.083  1.00  0.00    -0.0103  A
ATOM     27 C14  665 L   1      -4.321  -7.275 -13.298  1.00  0.00    -0.0551  A
ATOM     28 C15  665 L   1      -5.021  -5.254 -12.175  1.00  0.00    -0.0551  A
ATOM     29 H42  665 L   1      -2.405  -7.979 -12.762  1.00  0.00    +0.0621  H
ATOM     30 H43  665 L   1      -3.624  -4.462 -10.807  1.00  0.00    +0.0621  H
ATOM     31 H44  665 L   1      -4.509  -8.035 -13.971  1.00  0.00    +0.0621  H
ATOM     32 H45  665 L   1      -5.727  -4.519 -12.016  1.00  0.00    +0.0621  H
BRANCH 26 33
ATOM     33 C17  665 L   1      -6.568  -6.316 -13.826  1.00  0.00    +0.1179  C
ATOM     34 H46  665 L   1      -6.875  -5.317 -14.056  1.00  0.00    +0.0749  H
ATOM     35 H47  665 L   1      -6.444  -6.869 -14.734  1.00  0.00    +0.0749  H
BRANCH 33 36
ATOM     36  O1  665 L   1      -7.559  -6.944 -13.020  1.00  0.00    -0.4564 OA
BRANCH 36 38
ATOM     37  O3  665 L   1      -8.538  -8.448 -14.461  1.00  0.00    -0.2449 OA
ATOM     38 C25  665 L   1      -7.957  -8.182 -13.420  1.00  0.00    +0.3398  C
BRANCH 38 39
ATOM     39 C23  665 L   1      -7.590  -9.205 -12.408  1.00  0.00    +0.0619  A
ATOM     40 C24  665 L   1      -8.493  -9.597 -11.420  1.00  0.00    -0.0362  A
ATOM     41 C27  665 L   1      -6.850 -11.128 -10.527  1.00  0.00    -0.0502  A
ATOM     42 C28  665 L   1      -8.123 -10.559 -10.480  1.00  0.00    -0.0551  A
ATOM     43 C29  665 L   1      -6.317  -9.773 -12.456  1.00  0.00    -0.0473  A
ATOM     44 C31  665 L   1      -5.947 -10.735 -11.515  1.00  0.00    -0.0580  A
ATOM     45 C32  665 L   1      -9.863  -9.005 -11.347  1.00  0.00    -0.0389  C
ATOM     46 C34  665 L   1      -6.453 -12.156  -9.523  1.00  0.00    -0.0397  C
ATOM     47 H52  665 L   1      -8.791 -10.850  -9.748  1.00  0.00    +0.0623  H
ATOM     48 H53  665 L   1      -5.650  -9.483 -13.187  1.00  0.00    +0.0626  H
ATOM     49 H55  665 L   1      -5.005 -11.155 -11.551  1.00  0.00    +0.0620  H
ATOM     50 H56  665 L   1      -9.985  -8.290 -12.133  1.00  0.00    +0.0278  H
ATOM     51 H57  665 L   1      -9.992  -8.521 -10.401  1.00  0.00    +0.0278  H
ATOM     52 H58  665 L   1     -10.593  -9.780 -11.452  1.00  0.00    +0.0278  H
ATOM     53 H60  665 L   1      -7.266 -12.330  -8.850  1.00  0.00    +0.0278  H
ATOM     54 H61  665 L   1      -5.603 -11.809  -8.974  1.00  0.00    +0.0278  H
ATOM     55 H62  665 L   1      -6.205 -13.068 -10.025  1.00  0.00    +0.0278  H
ENDBRANCH 38 39
ENDBRANCH 36 38
ENDBRANCH 33 36
ENDBRANCH 26 33
ENDBRANCH 21 23
BRANCH 21 57
ATOM     56  N5  665 L   1      -0.018  -7.526  -9.500  1.00  0.00    -0.3600  N
ATOM     57  C9  665 L   1      -1.030  -7.584 -10.550  1.00  0.00    +0.0921  C
ATOM     58 H36  665 L   1       0.291  -8.471  -9.273  1.00  0.00    +0.3450 HD
ATOM     59 H37  665 L   1      -0.415  -7.090  -8.669  1.00  0.00    +0.3450 HD
ATOM     60 H38  665 L   1       0.778  -6.976  -9.825  1.00  0.00    +0.3450 HD
ATOM     61 H40  665 L   1      -1.858  -8.167 -10.203  1.00  0.00    +0.0926  H
ATOM     62 H41  665 L   1      -0.585  -8.026 -11.417  1.00  0.00    +0.0926  H
ENDBRANCH 21 57
ENDBRANCH 19 21
ENDBRANCH 2 18
TORSDOF 8
ENDMDL
MODEL 9
REMARK VINA RESULT:    -7.474      3.744      8.033
REMARK INTER + INTRA:         -12.329
REMARK INTER:                 -11.165
REMARK INTRA:                  -1.165
REMARK UNBOUND:                -1.359
ROOT
ATOM      1  N6  665 L   1      -9.383  -4.424 -13.391  1.00  0.00    -0.2626 NA
ATOM      2 C16  665 L   1      -4.907  -6.663 -12.639  1.00  0.00    +0.0423  A
ATOM      3 C18  665 L   1      -5.321  -5.331 -12.697  1.00  0.00    -0.0305  A
ATOM      4 C19  665 L   1      -6.669  -5.011 -12.926  1.00  0.00    -0.0131  A
ATOM      5 C20  665 L   1      -5.831  -7.691 -12.811  1.00  0.00    -0.0377  A
ATOM      6 C21  665 L   1      -7.602  -6.054 -13.100  1.00  0.00    +0.0004  A
ATOM      7 C22  665 L   1      -7.173  -7.392 -13.041  1.00  0.00    -0.0506  A
ATOM      8 C26  665 L   1      -7.116  -3.685 -12.990  1.00  0.00    -0.0358  A
ATOM      9 C30  665 L   1      -8.932  -5.698 -13.328  1.00  0.00    +0.0353  A
ATOM     10 C33  665 L   1      -8.462  -3.452 -13.221  1.00  0.00    +0.0281  A
ATOM     11 H48  665 L   1      -4.631  -4.575 -12.568  1.00  0.00    +0.0644  H
ATOM     12 H49  665 L   1      -5.522  -8.675 -12.768  1.00  0.00    +0.0638  H
ATOM     13 H50  665 L   1      -7.856  -8.155 -13.168  1.00  0.00    +0.0625  H
ATOM     14 H51  665 L   1      -6.457  -2.901 -12.867  1.00  0.00    +0.0639  H
ATOM     15 H54  665 L   1      -9.619  -6.458 -13.455  1.00  0.00    +0.0836  H
ATOM     16 H59  665 L   1      -8.781  -2.473 -13.265  1.00  0.00    +0.0830  H
ENDROOT
BRANCH 2 18
ATOM     17  O2  665 L   1      -3.343  -6.713 -10.080  1.00  0.00    -0.2720 OA
ATOM     18  N4  665 L   1      -3.564  -6.965 -12.408  1.00  0.00    -0.3255  N
ATOM     19 C10  665 L   1      -2.872  -6.968 -11.185  1.00  0.00    +0.2381  C
ATOM     20 H35  665 L   1      -3.035  -7.206 -13.202  1.00  0.00    +0.1686 HD
BRANCH 19 21
ATOM     21  C7  665 L   1      -1.396  -7.358 -11.360  1.00  0.00    +0.1122  C
ATOM     22 H39  665 L   1      -1.328  -8.257 -11.937  1.00  0.00    +0.0502  H
BRANCH 21 23
ATOM     23  C8  665 L   1      -0.655  -6.279 -12.134  1.00  0.00    -0.0300  A
ATOM     24 C11  665 L   1       0.026  -6.605 -13.307  1.00  0.00    -0.0573  A
ATOM     25 C12  665 L   1      -0.656  -4.963 -11.670  1.00  0.00    -0.0573  A
ATOM     26 C13  665 L   1       0.705  -4.300 -13.552  1.00  0.00    -0.0103  A
ATOM     27 C14  665 L   1       0.706  -5.615 -14.016  1.00  0.00    -0.0551  A
ATOM     28 C15  665 L   1       0.025  -3.974 -12.379  1.00  0.00    -0.0551  A
ATOM     29 H42  665 L   1       0.026  -7.578 -13.651  1.00  0.00    +0.0621  H
ATOM     30 H43  665 L   1      -1.159  -4.723 -10.802  1.00  0.00    +0.0621  H
ATOM     31 H44  665 L   1       1.210  -5.856 -14.885  1.00  0.00    +0.0621  H
ATOM     32 H45  665 L   1       0.025  -3.000 -12.035  1.00  0.00    +0.0621  H
BRANCH 26 33
ATOM     33 C17  665 L   1       1.433  -3.241 -14.311  1.00  0.00    +0.1179  C
ATOM     34 H46  665 L   1       2.307  -2.950 -13.768  1.00  0.00    +0.0749  H
ATOM     35 H47  665 L   1       1.718  -3.620 -15.269  1.00  0.00    +0.0749  H
BRANCH 33 36
ATOM     36  O1  665 L   1       0.581  -2.113 -14.481  1.00  0.00    -0.4564 OA
BRANCH 36 38
ATOM     37  O3  665 L   1       1.803  -1.310 -16.259  1.00  0.00    -0.2449 OA
ATOM     38 C25  665 L   1       0.764  -1.395 -15.623  1.00  0.00    +0.3398  C
BRANCH 38 39
ATOM     39 C23  665 L   1      -0.491  -0.704 -16.015  1.00  0.00    +0.0619  A
ATOM     40 C24  665 L   1      -0.830   0.536 -15.471  1.00  0.00    -0.0362  A
ATOM     41 C27  665 L   1      -2.860   0.553 -16.783  1.00  0.00    -0.0502  A
ATOM     42 C28  665 L   1      -2.015   1.164 -15.856  1.00  0.00    -0.0551  A
ATOM     43 C29  665 L   1      -1.335  -1.315 -16.941  1.00  0.00    -0.0473  A
ATOM     44 C31  665 L   1      -2.520  -0.687 -17.326  1.00  0.00    -0.0580  A
ATOM     45 C32  665 L   1       0.057   1.213 -14.478  1.00  0.00    -0.0389  C
ATOM     46 C34  665 L   1      -4.127   1.223 -17.194  1.00  0.00    -0.0397  C
ATOM     47 H52  665 L   1      -2.267   2.081 -15.454  1.00  0.00    +0.0623  H
ATOM     48 H53  665 L   1      -1.083  -2.231 -17.343  1.00  0.00    +0.0626  H
ATOM     49 H55  665 L   1      -3.144  -1.139 -18.011  1.00  0.00    +0.0620  H
ATOM     50 H56  665 L   1       0.917   0.603 -14.294  1.00  0.00    +0.0278  H
ATOM     51 H57  665 L   1      -0.479   1.359 -13.563  1.00  0.00    +0.0278  H
ATOM     52 H58  665 L   1       0.367   2.161 -14.864  1.00  0.00    +0.0278  H
ATOM     53 H60  665 L   1      -4.220   2.156 -16.680  1.00  0.00    +0.0278  H
ATOM     54 H61  665 L   1      -4.958   0.595 -16.949  1.00  0.00    +0.0278  H
ATOM     55 H62  665 L   1      -4.112   1.398 -18.250  1.00  0.00    +0.0278  H
ENDBRANCH 38 39
ENDBRANCH 36 38
ENDBRANCH 33 36
ENDBRANCH 26 33
ENDBRANCH 21 23
BRANCH 21 57
ATOM     56  N5  665 L   1       0.702  -7.681 -10.062  1.00  0.00    -0.3600  N
ATOM     57  C9  665 L   1      -0.757  -7.660  -9.989  1.00  0.00    +0.0921  C
ATOM     58 H36  665 L   1       1.085  -7.882  -9.139  1.00  0.00    +0.3450 HD
ATOM     59 H37  665 L   1       1.039  -6.773 -10.380  1.00  0.00    +0.3450 HD
ATOM     60 H38  665 L   1       0.999  -8.403 -10.719  1.00  0.00    +0.3450 HD
ATOM     61 H40  665 L   1      -1.058  -6.905  -9.294  1.00  0.00    +0.0926  H
ATOM     62 H41  665 L   1      -1.087  -8.628  -9.674  1.00  0.00    +0.0926  H
ENDBRANCH 21 57
ENDBRANCH 19 21
ENDBRANCH 2 18
TORSDOF 8
ENDMDL
MODEL 10
REMARK VINA RESULT:    -7.469      3.327      5.030
REMARK INTER + INTRA:         -12.321
REMARK INTER:                 -11.417
REMARK INTRA:                  -0.905
REMARK UNBOUND:                -1.359
ROOT
ATOM      1  N6  665 L   1      -0.348   1.901 -15.000  1.00  0.00    -0.2626 NA
ATOM      2 C16  665 L   1       0.910  -2.842 -13.765  1.00  0.00    +0.0423  A
ATOM      3 C18  665 L   1       0.773  -1.661 -13.035  1.00  0.00    -0.0305  A
ATOM      4 C19  665 L   1       0.400  -0.466 -13.672  1.00  0.00    -0.0131  A
ATOM      5 C20  665 L   1       0.680  -2.847 -15.139  1.00  0.00    -0.0377  A
ATOM      6 C21  665 L   1       0.167  -0.475 -15.063  1.00  0.00    +0.0004  A
ATOM      7 C22  665 L   1       0.310  -1.670 -15.788  1.00  0.00    -0.0506  A
ATOM      8 C26  665 L   1       0.253   0.735 -12.968  1.00  0.00    -0.0358  A
ATOM      9 C30  665 L   1      -0.200   0.732 -15.662  1.00  0.00    +0.0353  A
ATOM     10 C33  665 L   1      -0.116   1.872 -13.670  1.00  0.00    +0.0281  A
ATOM     11 H48  665 L   1       0.945  -1.665 -12.017  1.00  0.00    +0.0644  H
ATOM     12 H49  665 L   1       0.783  -3.722 -15.676  1.00  0.00    +0.0638  H
ATOM     13 H50  665 L   1       0.139  -1.676 -16.806  1.00  0.00    +0.0625  H
ATOM     14 H51  665 L   1       0.417   0.773 -11.950  1.00  0.00    +0.0639  H
ATOM     15 H54  665 L   1      -0.373   0.731 -16.680  1.00  0.00    +0.0836  H
ATOM     16 H59  665 L   1      -0.222   2.751 -13.142  1.00  0.00    +0.0830  H
ENDROOT
BRANCH 2 18
ATOM     17  O2  665 L   1       3.419  -4.471 -13.983  1.00  0.00    -0.2720 OA
ATOM     18  N4  665 L   1       1.280  -4.022 -13.116  1.00  0.00    -0.3255  N
ATOM     19 C10  665 L   1       2.470  -4.755 -13.258  1.00  0.00    +0.2381  C
ATOM     20 H35  665 L   1       0.624  -4.386 -12.480  1.00  0.00    +0.1686 HD
BRANCH 19 21
ATOM     21  C7  665 L   1       2.488  -6.003 -12.362  1.00  0.00    +0.1122  C
ATOM     22 H39  665 L   1       2.862  -5.744 -11.393  1.00  0.00    +0.0502  H
BRANCH 21 23
ATOM     23  C8  665 L   1       1.075  -6.527 -12.162  1.00  0.00    -0.0300  A
ATOM     24 C11  665 L   1       0.495  -6.510 -10.893  1.00  0.00    -0.0573  A
ATOM     25 C12  665 L   1       0.356  -7.026 -13.250  1.00  0.00    -0.0573  A
ATOM     26 C13  665 L   1      -1.518  -7.491 -11.798  1.00  0.00    -0.0103  A
ATOM     27 C14  665 L   1      -0.800  -6.993 -10.711  1.00  0.00    -0.0551  A
ATOM     28 C15  665 L   1      -0.940  -7.509 -13.067  1.00  0.00    -0.0551  A
ATOM     29 H42  665 L   1       1.027  -6.141 -10.089  1.00  0.00    +0.0621  H
ATOM     30 H43  665 L   1       0.784  -7.039 -14.189  1.00  0.00    +0.0621  H
ATOM     31 H44  665 L   1      -1.229  -6.980  -9.771  1.00  0.00    +0.0621  H
ATOM     32 H45  665 L   1      -1.471  -7.878 -13.872  1.00  0.00    +0.0621  H
BRANCH 26 33
ATOM     33 C17  665 L   1      -2.904  -8.006 -11.603  1.00  0.00    +0.1179  C
ATOM     34 H46  665 L   1      -3.090  -8.801 -12.295  1.00  0.00    +0.0749  H
ATOM     35 H47  665 L   1      -3.012  -8.372 -10.603  1.00  0.00    +0.0749  H
BRANCH 33 36
ATOM     36  O1  665 L   1      -3.835  -6.953 -11.827  1.00  0.00    -0.4564 OA
BRANCH 36 38
ATOM     37  O3  665 L   1      -4.080  -7.429 -14.065  1.00  0.00    -0.2449 OA
ATOM     38 C25  665 L   1      -4.510  -6.994 -13.008  1.00  0.00    +0.3398  C
BRANCH 38 39
ATOM     39 C23  665 L   1      -5.874  -6.427 -12.854  1.00  0.00    +0.0619  A
ATOM     40 C24  665 L   1      -7.000  -7.251 -12.856  1.00  0.00    -0.0362  A
ATOM     41 C27  665 L   1      -8.415  -5.313 -12.563  1.00  0.00    -0.0502  A
ATOM     42 C28  665 L   1      -8.271  -6.693 -12.710  1.00  0.00    -0.0551  A
ATOM     43 C29  665 L   1      -6.017  -5.048 -12.707  1.00  0.00    -0.0473  A
ATOM     44 C31  665 L   1      -7.288  -4.490 -12.562  1.00  0.00    -0.0580  A
ATOM     45 C32  665 L   1      -6.875  -8.731 -13.010  1.00  0.00    -0.0389  C
ATOM     46 C34  665 L   1      -9.772  -4.716 -12.408  1.00  0.00    -0.0397  C
ATOM     47 H52  665 L   1      -9.105  -7.301 -12.712  1.00  0.00    +0.0623  H
ATOM     48 H53  665 L   1      -5.184  -4.440 -12.705  1.00  0.00    +0.0626  H
ATOM     49 H55  665 L   1      -7.394  -3.469 -12.453  1.00  0.00    +0.0620  H
ATOM     50 H56  665 L   1      -5.842  -8.993 -13.109  1.00  0.00    +0.0278  H
ATOM     51 H57  665 L   1      -7.408  -9.045 -13.883  1.00  0.00    +0.0278  H
ATOM     52 H58  665 L   1      -7.285  -9.216 -12.149  1.00  0.00    +0.0278  H
ATOM     53 H60  665 L   1     -10.508  -5.491 -12.432  1.00  0.00    +0.0278  H
ATOM     54 H61  665 L   1      -9.952  -4.027 -13.207  1.00  0.00    +0.0278  H
ATOM     55 H62  665 L   1      -9.830  -4.199 -11.473  1.00  0.00    +0.0278  H
ENDBRANCH 38 39
ENDBRANCH 36 38
ENDBRANCH 33 36
ENDBRANCH 26 33
ENDBRANCH 21 23
BRANCH 21 57
ATOM     56  N5  665 L   1       4.832  -6.815 -12.554  1.00  0.00    -0.3600  N
ATOM     57  C9  665 L   1       3.445  -7.064 -12.940  1.00  0.00    +0.0921  C
ATOM     58 H36  665 L   1       5.431  -7.536 -12.955  1.00  0.00    +0.3450 HD
ATOM     59 H37  665 L   1       4.910  -6.834 -11.538  1.00  0.00    +0.3450 HD
ATOM     60 H38  665 L   1       5.121  -5.900 -12.900  1.00  0.00    +0.3450 HD
ATOM     61 H40  665 L   1       3.153  -8.028 -12.578  1.00  0.00    +0.0926  H
ATOM     62 H41  665 L   1       3.385  -7.020 -14.008  1.00  0.00    +0.0926  H
ENDBRANCH 21 57
ENDBRANCH 19 21
ENDBRANCH 2 18
TORSDOF 8
ENDMDL
MODEL 11
REMARK VINA RESULT:    -7.383      3.561      9.904
REMARK INTER + INTRA:         -12.195
REMARK INTER:                 -10.281
REMARK INTRA:                  -1.914
REMARK UNBOUND:                -1.359
ROOT
ATOM      1  N6  665 L   1      -8.581  -7.748 -13.243  1.00  0.00    -0.2626 NA
ATOM      2 C16  665 L   1      -3.616  -8.040 -12.314  1.00  0.00    +0.0423  A
ATOM      3 C18  665 L   1      -4.418  -7.115 -12.983  1.00  0.00    -0.0305  A
ATOM      4 C19  665 L   1      -5.805  -7.309 -13.079  1.00  0.00    -0.0131  A
ATOM      5 C20  665 L   1      -4.186  -9.171 -11.735  1.00  0.00    -0.0377  A
ATOM      6 C21  665 L   1      -6.380  -8.456 -12.491  1.00  0.00    +0.0004  A
ATOM      7 C22  665 L   1      -5.562  -9.381 -11.821  1.00  0.00    -0.0506  A
ATOM      8 C26  665 L   1      -6.638  -6.399 -13.743  1.00  0.00    -0.0358  A
ATOM      9 C30  665 L   1      -7.762  -8.616 -12.608  1.00  0.00    +0.0353  A
ATOM     10 C33  665 L   1      -7.998  -6.663 -13.795  1.00  0.00    +0.0281  A
ATOM     11 H48  665 L   1      -3.988  -6.279 -13.410  1.00  0.00    +0.0644  H
ATOM     12 H49  665 L   1      -3.590  -9.854 -11.241  1.00  0.00    +0.0638  H
ATOM     13 H50  665 L   1      -5.982 -10.220 -11.391  1.00  0.00    +0.0625  H
ATOM     14 H51  665 L   1      -6.247  -5.552 -14.183  1.00  0.00    +0.0639  H
ATOM     15 H54  665 L   1      -8.187  -9.453 -12.178  1.00  0.00    +0.0836  H
ATOM     16 H59  665 L   1      -8.602  -5.987 -14.285  1.00  0.00    +0.0830  H
ENDROOT
BRANCH 2 18
ATOM     17  O2  665 L   1      -2.043  -6.195 -10.548  1.00  0.00    -0.2720 OA
ATOM     18  N4  665 L   1      -2.238  -7.832 -12.226  1.00  0.00    -0.3255  N
ATOM     19 C10  665 L   1      -1.545  -6.947 -11.383  1.00  0.00    +0.2381  C
ATOM     20 H35  665 L   1      -1.682  -8.373 -12.831  1.00  0.00    +0.1686 HD
BRANCH 19 21
ATOM     21  C7  665 L   1      -0.026  -7.019 -11.596  1.00  0.00    +0.1122  C
ATOM     22 H39  665 L   1       0.263  -8.032 -11.786  1.00  0.00    +0.0502  H
BRANCH 21 23
ATOM     23  C8  665 L   1       0.373  -6.208 -12.819  1.00  0.00    -0.0300  A
ATOM     24 C11  665 L   1       0.966  -4.955 -12.663  1.00  0.00    -0.0573  A
ATOM     25 C12  665 L   1       0.146  -6.718 -14.098  1.00  0.00    -0.0573  A
ATOM     26 C13  665 L   1       1.104  -4.722 -15.063  1.00  0.00    -0.0103  A
ATOM     27 C14  665 L   1       1.331  -4.212 -13.785  1.00  0.00    -0.0551  A
ATOM     28 C15  665 L   1       0.511  -5.974 -15.220  1.00  0.00    -0.0551  A
ATOM     29 H42  665 L   1       1.135  -4.578 -11.717  1.00  0.00    +0.0621  H
ATOM     30 H43  665 L   1      -0.293  -7.645 -14.213  1.00  0.00    +0.0621  H
ATOM     31 H44  665 L   1       1.770  -3.284 -13.670  1.00  0.00    +0.0621  H
ATOM     32 H45  665 L   1       0.342  -6.352 -16.166  1.00  0.00    +0.0621  H
BRANCH 26 33
ATOM     33 C17  665 L   1       1.494  -3.927 -16.264  1.00  0.00    +0.1179  C
ATOM     34 H46  665 L   1       1.395  -4.532 -17.140  1.00  0.00    +0.0749  H
ATOM     35 H47  665 L   1       0.858  -3.071 -16.347  1.00  0.00    +0.0749  H
BRANCH 33 36
ATOM     36  O1  665 L   1       2.846  -3.502 -16.129  1.00  0.00    -0.4564 OA
BRANCH 36 38
ATOM     37  O3  665 L   1       4.162  -4.331 -17.826  1.00  0.00    -0.2449 OA
ATOM     38 C25  665 L   1       3.787  -4.327 -16.664  1.00  0.00    +0.3398  C
BRANCH 38 39
ATOM     39 C23  665 L   1       4.319  -5.254 -15.632  1.00  0.00    +0.0619  A
ATOM     40 C24  665 L   1       4.063  -6.624 -15.693  1.00  0.00    -0.0362  A
ATOM     41 C27  665 L   1       5.342  -6.952 -13.668  1.00  0.00    -0.0502  A
ATOM     42 C28  665 L   1       4.575  -7.472 -14.711  1.00  0.00    -0.0551  A
ATOM     43 C29  665 L   1       5.085  -4.732 -14.590  1.00  0.00    -0.0473  A
ATOM     44 C31  665 L   1       5.597  -5.581 -13.608  1.00  0.00    -0.0580  A
ATOM     45 C32  665 L   1       3.247  -7.209 -16.799  1.00  0.00    -0.0389  C
ATOM     46 C34  665 L   1       5.888  -7.857 -12.618  1.00  0.00    -0.0397  C
ATOM     47 H52  665 L   1       4.386  -8.486 -14.756  1.00  0.00    +0.0623  H
ATOM     48 H53  665 L   1       5.275  -3.720 -14.546  1.00  0.00    +0.0626  H
ATOM     49 H55  665 L   1       6.163  -5.195 -12.837  1.00  0.00    +0.0620  H
ATOM     50 H56  665 L   1       2.934  -6.429 -17.462  1.00  0.00    +0.0278  H
ATOM     51 H57  665 L   1       2.387  -7.694 -16.389  1.00  0.00    +0.0278  H
ATOM     52 H58  665 L   1       3.835  -7.922 -17.338  1.00  0.00    +0.0278  H
ATOM     53 H60  665 L   1       5.594  -8.864 -12.826  1.00  0.00    +0.0278  H
ATOM     54 H61  665 L   1       5.508  -7.565 -11.661  1.00  0.00    +0.0278  H
ATOM     55 H62  665 L   1       6.956  -7.793 -12.612  1.00  0.00    +0.0278  H
ENDBRANCH 38 39
ENDBRANCH 36 38
ENDBRANCH 33 36
ENDBRANCH 26 33
ENDBRANCH 21 23
BRANCH 21 57
ATOM     56  N5  665 L   1       0.640  -7.591  -9.268  1.00  0.00    -0.3600  N
ATOM     57  C9  665 L   1       0.715  -6.579 -10.317  1.00  0.00    +0.0921  C
ATOM     58 H36  665 L   1       1.141  -7.264  -8.442  1.00  0.00    +0.3450 HD
ATOM     59 H37  665 L   1       1.063  -8.457  -9.600  1.00  0.00    +0.3450 HD
ATOM     60 H38  665 L   1      -0.337  -7.761  -9.029  1.00  0.00    +0.3450 HD
ATOM     61 H40  665 L   1       1.744  -6.403 -10.556  1.00  0.00    +0.0926  H
ATOM     62 H41  665 L   1       0.248  -5.688  -9.952  1.00  0.00    +0.0926  H
ENDBRANCH 21 57
ENDBRANCH 19 21
ENDBRANCH 2 18
TORSDOF 8
ENDMDL
MODEL 12
REMARK VINA RESULT:    -7.366      2.849      4.923
REMARK INTER + INTRA:         -12.170
REMARK INTER:                 -10.818
REMARK INTRA:                  -1.351
REMARK UNBOUND:                -1.359
ROOT
ATOM      1  N6  665 L   1       5.944  -4.978 -15.563  1.00  0.00    -0.2626 NA
ATOM      2 C16  665 L   1       1.630  -6.042 -13.140  1.00  0.00    +0.0423  A
ATOM      3 C18  665 L   1       2.978  -6.242 -12.840  1.00  0.00    -0.0305  A
ATOM      4 C19  665 L   1       3.979  -5.827 -13.734  1.00  0.00    -0.0131  A
ATOM      5 C20  665 L   1       1.263  -5.427 -14.335  1.00  0.00    -0.0377  A
ATOM      6 C21  665 L   1       3.603  -5.205 -14.943  1.00  0.00    +0.0004  A
ATOM      7 C22  665 L   1       2.242  -5.009 -15.235  1.00  0.00    -0.0506  A
ATOM      8 C26  665 L   1       5.340  -6.014 -13.463  1.00  0.00    -0.0358  A
ATOM      9 C30  665 L   1       4.625  -4.807 -15.808  1.00  0.00    +0.0353  A
ATOM     10 C33  665 L   1       6.266  -5.577 -14.397  1.00  0.00    +0.0281  A
ATOM     11 H48  665 L   1       3.243  -6.699 -11.953  1.00  0.00    +0.0644  H
ATOM     12 H49  665 L   1       0.265  -5.281 -14.554  1.00  0.00    +0.0638  H
ATOM     13 H50  665 L   1       1.968  -4.554 -16.119  1.00  0.00    +0.0625  H
ATOM     14 H51  665 L   1       5.645  -6.467 -12.587  1.00  0.00    +0.0639  H
ATOM     15 H54  665 L   1       4.355  -4.351 -16.693  1.00  0.00    +0.0836  H
ATOM     16 H59  665 L   1       7.266  -5.719 -14.187  1.00  0.00    +0.0830  H
ENDROOT
BRANCH 2 18
ATOM     17  O2  665 L   1       0.478  -4.650 -10.746  1.00  0.00    -0.2720 OA
ATOM     18  N4  665 L   1       0.647  -6.459 -12.240  1.00  0.00    -0.3255  N
ATOM     19 C10  665 L   1       0.143  -5.770 -11.124  1.00  0.00    +0.2381  C
ATOM     20 H35  665 L   1       0.259  -7.347 -12.409  1.00  0.00    +0.1686 HD
BRANCH 19 21
ATOM     21  C7  665 L   1      -0.937  -6.578 -10.389  1.00  0.00    +0.1122  C
ATOM     22 H39  665 L   1      -1.137  -6.128  -9.438  1.00  0.00    +0.0502  H
BRANCH 21 23
ATOM     23  C8  665 L   1      -2.239  -6.551 -11.173  1.00  0.00    -0.0300  A
ATOM     24 C11  665 L   1      -2.980  -5.372 -11.257  1.00  0.00    -0.0573  A
ATOM     25 C12  665 L   1      -2.694  -7.707 -11.809  1.00  0.00    -0.0573  A
ATOM     26 C13  665 L   1      -4.629  -6.503 -12.611  1.00  0.00    -0.0103  A
ATOM     27 C14  665 L   1      -4.175  -5.349 -11.975  1.00  0.00    -0.0551  A
ATOM     28 C15  665 L   1      -3.890  -7.683 -12.527  1.00  0.00    -0.0551  A
ATOM     29 H42  665 L   1      -2.643  -4.516 -10.787  1.00  0.00    +0.0621  H
ATOM     30 H43  665 L   1      -2.146  -8.580 -11.747  1.00  0.00    +0.0621  H
ATOM     31 H44  665 L   1      -4.723  -4.475 -12.037  1.00  0.00    +0.0621  H
ATOM     32 H45  665 L   1      -4.226  -8.538 -12.997  1.00  0.00    +0.0621  H
BRANCH 26 33
ATOM     33 C17  665 L   1      -5.907  -6.478 -13.380  1.00  0.00    +0.1179  C
ATOM     34 H46  665 L   1      -6.236  -5.467 -13.493  1.00  0.00    +0.0749  H
ATOM     35 H47  665 L   1      -5.752  -6.913 -14.345  1.00  0.00    +0.0749  H
BRANCH 33 36
ATOM     36  O1  665 L   1      -6.895  -7.223 -12.677  1.00  0.00    -0.4564 OA
BRANCH 36 38
ATOM     37  O3  665 L   1      -6.848  -8.865 -14.290  1.00  0.00    -0.2449 OA
ATOM     38 C25  665 L   1      -7.223  -8.431 -13.211  1.00  0.00    +0.3398  C
BRANCH 38 39
ATOM     39 C23  665 L   1      -8.121  -9.183 -12.298  1.00  0.00    +0.0619  A
ATOM     40 C24  665 L   1      -7.608 -10.075 -11.356  1.00  0.00    -0.0362  A
ATOM     41 C27  665 L   1      -9.852 -10.573 -10.607  1.00  0.00    -0.0502  A
ATOM     42 C28  665 L   1      -8.474 -10.769 -10.511  1.00  0.00    -0.0551  A
ATOM     43 C29  665 L   1      -9.499  -8.986 -12.396  1.00  0.00    -0.0473  A
ATOM     44 C31  665 L   1     -10.364  -9.681 -11.550  1.00  0.00    -0.0580  A
ATOM     45 C32  665 L   1      -6.137 -10.304 -11.230  1.00  0.00    -0.0389  C
ATOM     46 C34  665 L   1     -10.778 -11.315  -9.705  1.00  0.00    -0.0397  C
ATOM     47 H52  665 L   1      -8.095 -11.430  -9.813  1.00  0.00    +0.0623  H
ATOM     48 H53  665 L   1      -9.877  -8.326 -13.092  1.00  0.00    +0.0626  H
ATOM     49 H55  665 L   1     -11.383  -9.535 -11.623  1.00  0.00    +0.0620  H
ATOM     50 H56  665 L   1      -5.620  -9.699 -11.945  1.00  0.00    +0.0278  H
ATOM     51 H57  665 L   1      -5.920 -11.336 -11.412  1.00  0.00    +0.0278  H
ATOM     52 H58  665 L   1      -5.819 -10.042 -10.243  1.00  0.00    +0.0278  H
ATOM     53 H60  665 L   1     -10.211 -11.947  -9.054  1.00  0.00    +0.0278  H
ATOM     54 H61  665 L   1     -11.445 -11.912 -10.291  1.00  0.00    +0.0278  H
ATOM     55 H62  665 L   1     -11.342 -10.618  -9.122  1.00  0.00    +0.0278  H
ENDBRANCH 38 39
ENDBRANCH 36 38
ENDBRANCH 33 36
ENDBRANCH 26 33
ENDBRANCH 21 23
BRANCH 21 57
ATOM     56  N5  665 L   1       0.613  -8.028  -9.091  1.00  0.00    -0.3600  N
ATOM     57  C9  665 L   1      -0.435  -8.009 -10.107  1.00  0.00    +0.0921  C
ATOM     58 H36  665 L   1       0.916  -8.990  -8.933  1.00  0.00    +0.3450 HD
ATOM     59 H37  665 L   1       0.250  -7.640  -8.221  1.00  0.00    +0.3450 HD
ATOM     60 H38  665 L   1       1.405  -7.469  -9.408  1.00  0.00    +0.3450 HD
ATOM     61 H40  665 L   1      -1.258  -8.603  -9.768  1.00  0.00    +0.0926  H
ATOM     62 H41  665 L   1      -0.026  -8.402 -11.014  1.00  0.00    +0.0926  H
ENDBRANCH 21 57
ENDBRANCH 19 21
ENDBRANCH 2 18
TORSDOF 8
ENDMDL
MODEL 13
REMARK VINA RESULT:    -7.358      3.323      9.208
REMARK INTER + INTRA:         -12.159
REMARK INTER:                 -10.023
REMARK INTRA:                  -2.136
REMARK UNBOUND:                -1.359
ROOT
ATOM      1  N6  665 L   1      -7.868  -5.885 -13.164  1.00  0.00    -0.2626 NA
ATOM      2 C16  665 L   1      -3.149  -7.307 -12.018  1.00  0.00    +0.0423  A
ATOM      3 C18  665 L   1      -3.827  -6.088 -11.969  1.00  0.00    -0.0305  A
ATOM      4 C19  665 L   1      -5.172  -6.002 -12.362  1.00  0.00    -0.0131  A
ATOM      5 C20  665 L   1      -3.803  -8.454 -12.461  1.00  0.00    -0.0377  A
ATOM      6 C21  665 L   1      -5.831  -7.166 -12.811  1.00  0.00    +0.0004  A
ATOM      7 C22  665 L   1      -5.138  -8.387 -12.856  1.00  0.00    -0.0506  A
ATOM      8 C26  665 L   1      -5.880  -4.794 -12.325  1.00  0.00    -0.0358  A
ATOM      9 C30  665 L   1      -7.168  -7.042 -13.195  1.00  0.00    +0.0353  A
ATOM     10 C33  665 L   1      -7.205  -4.792 -12.731  1.00  0.00    +0.0281  A
ATOM     11 H48  665 L   1      -3.335  -5.242 -11.639  1.00  0.00    +0.0644  H
ATOM     12 H49  665 L   1      -3.299  -9.354 -12.497  1.00  0.00    +0.0638  H
ATOM     13 H50  665 L   1      -5.620  -9.239 -13.184  1.00  0.00    +0.0625  H
ATOM     14 H51  665 L   1      -5.424  -3.926 -12.002  1.00  0.00    +0.0639  H
ATOM     15 H54  665 L   1      -7.655  -7.891 -13.523  1.00  0.00    +0.0836  H
ATOM     16 H59  665 L   1      -7.717  -3.898 -12.699  1.00  0.00    +0.0830  H
ENDROOT
BRANCH 2 18
ATOM     17  O2  665 L   1      -0.636  -7.266 -13.655  1.00  0.00    -0.2720 OA
ATOM     18  N4  665 L   1      -1.811  -7.377 -11.622  1.00  0.00    -0.3255  N
ATOM     19 C10  665 L   1      -0.663  -7.360 -12.431  1.00  0.00    +0.2381  C
ATOM     20 H35  665 L   1      -1.654  -7.446 -10.653  1.00  0.00    +0.1686 HD
BRANCH 19 21
ATOM     21  C7  665 L   1       0.626  -7.457 -11.603  1.00  0.00    +0.1122  C
ATOM     22 H39  665 L   1       0.897  -8.485 -11.478  1.00  0.00    +0.0502  H
BRANCH 21 23
ATOM     23  C8  665 L   1       1.775  -6.784 -12.337  1.00  0.00    -0.0300  A
ATOM     24 C11  665 L   1       2.802  -7.554 -12.884  1.00  0.00    -0.0573  A
ATOM     25 C12  665 L   1       1.802  -5.394 -12.465  1.00  0.00    -0.0573  A
ATOM     26 C13  665 L   1       3.882  -5.547 -13.684  1.00  0.00    -0.0103  A
ATOM     27 C14  665 L   1       3.856  -6.935 -13.556  1.00  0.00    -0.0551  A
ATOM     28 C15  665 L   1       2.856  -4.777 -13.137  1.00  0.00    -0.0551  A
ATOM     29 H42  665 L   1       2.782  -8.582 -12.789  1.00  0.00    +0.0621  H
ATOM     30 H43  665 L   1       1.042  -4.824 -12.061  1.00  0.00    +0.0621  H
ATOM     31 H44  665 L   1       4.616  -7.506 -13.960  1.00  0.00    +0.0621  H
ATOM     32 H45  665 L   1       2.876  -3.748 -13.232  1.00  0.00    +0.0621  H
BRANCH 26 33
ATOM     33 C17  665 L   1       5.009  -4.886 -14.403  1.00  0.00    +0.1179  C
ATOM     34 H46  665 L   1       4.791  -3.846 -14.530  1.00  0.00    +0.0749  H
ATOM     35 H47  665 L   1       5.909  -4.994 -13.835  1.00  0.00    +0.0749  H
BRANCH 33 36
ATOM     36  O1  665 L   1       5.177  -5.495 -15.678  1.00  0.00    -0.4564 OA
BRANCH 36 38
ATOM     37  O3  665 L   1       4.831  -4.025 -17.416  1.00  0.00    -0.2449 OA
ATOM     38 C25  665 L   1       4.466  -4.946 -16.700  1.00  0.00    +0.3398  C
BRANCH 38 39
ATOM     39 C23  665 L   1       3.151  -5.620 -16.847  1.00  0.00    +0.0619  A
ATOM     40 C24  665 L   1       1.958  -4.910 -16.703  1.00  0.00    -0.0362  A
ATOM     41 C27  665 L   1       0.705  -6.933 -17.129  1.00  0.00    -0.0502  A
ATOM     42 C28  665 L   1       0.736  -5.567 -16.845  1.00  0.00    -0.0551  A
ATOM     43 C29  665 L   1       3.121  -6.985 -17.130  1.00  0.00    -0.0473  A
ATOM     44 C31  665 L   1       1.899  -7.642 -17.272  1.00  0.00    -0.0580  A
ATOM     45 C32  665 L   1       1.961  -3.447 -16.401  1.00  0.00    -0.0389  C
ATOM     46 C34  665 L   1      -0.600  -7.636 -17.280  1.00  0.00    -0.0397  C
ATOM     47 H52  665 L   1      -0.148  -5.043 -16.739  1.00  0.00    +0.0623  H
ATOM     48 H53  665 L   1       4.004  -7.508 -17.237  1.00  0.00    +0.0626  H
ATOM     49 H55  665 L   1       1.878  -8.652 -17.482  1.00  0.00    +0.0620  H
ATOM     50 H56  665 L   1       2.970  -3.101 -16.325  1.00  0.00    +0.0278  H
ATOM     51 H57  665 L   1       1.454  -3.274 -15.475  1.00  0.00    +0.0278  H
ATOM     52 H58  665 L   1       1.460  -2.920 -17.185  1.00  0.00    +0.0278  H
ATOM     53 H60  665 L   1      -1.399  -6.939 -17.139  1.00  0.00    +0.0278  H
ATOM     54 H61  665 L   1      -0.673  -8.415 -16.550  1.00  0.00    +0.0278  H
ATOM     55 H62  665 L   1      -0.666  -8.060 -18.260  1.00  0.00    +0.0278  H
ENDBRANCH 38 39
ENDBRANCH 36 38
ENDBRANCH 33 36
ENDBRANCH 26 33
ENDBRANCH 21 23
BRANCH 21 57
ATOM     56  N5  665 L   1       0.621  -7.887  -9.152  1.00  0.00    -0.3600  N
ATOM     57  C9  665 L   1       0.400  -6.883 -10.189  1.00  0.00    +0.0921  C
ATOM     58 H36  665 L   1       0.462  -7.469  -8.235  1.00  0.00    +0.3450 HD
ATOM     59 H37  665 L   1       1.580  -8.228  -9.209  1.00  0.00    +0.3450 HD
ATOM     60 H38  665 L   1      -0.024  -8.665  -9.288  1.00  0.00    +0.3450 HD
ATOM     61 H40  665 L   1       1.077  -6.069 -10.034  1.00  0.00    +0.0926  H
ATOM     62 H41  665 L   1      -0.617  -6.556 -10.123  1.00  0.00    +0.0926  H
ENDBRANCH 21 57
ENDBRANCH 19 21
ENDBRANCH 2 18
TORSDOF 8
ENDMDL
MODEL 14
REMARK VINA RESULT:    -7.242      5.958      9.674
REMARK INTER + INTRA:         -11.988
REMARK INTER:                  -8.767
REMARK INTRA:                  -3.221
REMARK UNBOUND:                -1.359
ROOT
ATOM      1  N6  665 L   1      -8.714  -3.260 -14.712  1.00  0.00    -0.2626 NA
ATOM      2 C16  665 L   1      -9.024  -8.077 -13.193  1.00  0.00    +0.0423  A
ATOM      3 C18  665 L   1      -8.949  -6.857 -12.519  1.00  0.00    -0.0305  A
ATOM      4 C19  665 L   1      -8.871  -5.650 -13.233  1.00  0.00    -0.0131  A
ATOM      5 C20  665 L   1      -9.020  -8.109 -14.586  1.00  0.00    -0.0377  A
ATOM      6 C21  665 L   1      -8.867  -5.686 -14.643  1.00  0.00    +0.0004  A
ATOM      7 C22  665 L   1      -8.942  -6.920 -15.311  1.00  0.00    -0.0506  A
ATOM      8 C26  665 L   1      -8.796  -4.410 -12.587  1.00  0.00    -0.0358  A
ATOM      9 C30  665 L   1      -8.787  -4.466 -15.318  1.00  0.00    +0.0353  A
ATOM     10 C33  665 L   1      -8.720  -3.264 -13.362  1.00  0.00    +0.0281  A
ATOM     11 H48  665 L   1      -8.953  -6.841 -11.487  1.00  0.00    +0.0644  H
ATOM     12 H49  665 L   1      -9.074  -9.012 -15.081  1.00  0.00    +0.0638  H
ATOM     13 H50  665 L   1      -8.939  -6.946 -16.342  1.00  0.00    +0.0625  H
ATOM     14 H51  665 L   1      -8.796  -4.352 -11.556  1.00  0.00    +0.0639  H
ATOM     15 H54  665 L   1      -8.784  -4.487 -16.351  1.00  0.00    +0.0836  H
ATOM     16 H59  665 L   1      -8.665  -2.356 -12.877  1.00  0.00    +0.0830  H
ENDROOT
BRANCH 2 18
ATOM     17  O2  665 L   1     -11.403  -9.758 -12.479  1.00  0.00    -0.2720 OA
ATOM     18  N4  665 L   1      -9.103  -9.268 -12.469  1.00  0.00    -0.3255  N
ATOM     19 C10  665 L   1     -10.248 -10.019 -12.154  1.00  0.00    +0.2381  C
ATOM     20 H35  665 L   1      -8.249  -9.628 -12.139  1.00  0.00    +0.1686 HD
BRANCH 19 21
ATOM     21  C7  665 L   1      -9.907 -11.273 -11.336  1.00  0.00    +0.1122  C
ATOM     22 H39  665 L   1     -10.356 -12.132 -11.790  1.00  0.00    +0.0502  H
BRANCH 21 23
ATOM     23  C8  665 L   1      -8.405 -11.509 -11.337  1.00  0.00    -0.0300  A
ATOM     24 C11  665 L   1      -7.602 -10.908 -10.367  1.00  0.00    -0.0573  A
ATOM     25 C12  665 L   1      -7.828 -12.328 -12.309  1.00  0.00    -0.0573  A
ATOM     26 C13  665 L   1      -5.649 -11.942 -11.340  1.00  0.00    -0.0103  A
ATOM     27 C14  665 L   1      -6.224 -11.124 -10.369  1.00  0.00    -0.0551  A
ATOM     28 C15  665 L   1      -6.450 -12.544 -12.311  1.00  0.00    -0.0551  A
ATOM     29 H42  665 L   1      -8.029 -10.303  -9.648  1.00  0.00    +0.0621  H
ATOM     30 H43  665 L   1      -8.421 -12.773 -13.027  1.00  0.00    +0.0621  H
ATOM     31 H44  665 L   1      -5.631 -10.679  -9.651  1.00  0.00    +0.0621  H
ATOM     32 H45  665 L   1      -6.023 -13.149 -13.030  1.00  0.00    +0.0621  H
BRANCH 26 33
ATOM     33 C17  665 L   1      -4.175 -12.174 -11.343  1.00  0.00    +0.1179  C
ATOM     34 H46  665 L   1      -3.901 -12.739 -10.477  1.00  0.00    +0.0749  H
ATOM     35 H47  665 L   1      -3.900 -12.716 -12.223  1.00  0.00    +0.0749  H
BRANCH 33 36
ATOM     36  O1  665 L   1      -3.500 -10.921 -11.326  1.00  0.00    -0.4564 OA
BRANCH 36 38
ATOM     37  O3  665 L   1      -2.941 -10.769 -13.554  1.00  0.00    -0.2449 OA
ATOM     38 C25  665 L   1      -3.390 -10.287 -12.525  1.00  0.00    +0.3398  C
BRANCH 38 39
ATOM     39 C23  665 L   1      -3.896  -8.894 -12.430  1.00  0.00    +0.0619  A
ATOM     40 C24  665 L   1      -4.994  -8.474 -13.182  1.00  0.00    -0.0362  A
ATOM     41 C27  665 L   1      -4.806  -6.265 -12.218  1.00  0.00    -0.0502  A
ATOM     42 C28  665 L   1      -5.449  -7.159 -13.075  1.00  0.00    -0.0551  A
ATOM     43 C29  665 L   1      -3.253  -8.000 -11.574  1.00  0.00    -0.0473  A
ATOM     44 C31  665 L   1      -3.707  -6.686 -11.468  1.00  0.00    -0.0580  A
ATOM     45 C32  665 L   1      -5.702  -9.410 -14.105  1.00  0.00    -0.0389  C
ATOM     46 C34  665 L   1      -5.290  -4.860 -12.104  1.00  0.00    -0.0397  C
ATOM     47 H52  665 L   1      -6.261  -6.847 -13.631  1.00  0.00    +0.0623  H
ATOM     48 H53  665 L   1      -2.442  -8.312 -11.018  1.00  0.00    +0.0626  H
ATOM     49 H55  665 L   1      -3.231  -6.025 -10.834  1.00  0.00    +0.0620  H
ATOM     50 H56  665 L   1      -5.232 -10.370 -14.069  1.00  0.00    +0.0278  H
ATOM     51 H57  665 L   1      -5.657  -9.028 -15.104  1.00  0.00    +0.0278  H
ATOM     52 H58  665 L   1      -6.725  -9.502 -13.806  1.00  0.00    +0.0278  H
ATOM     53 H60  665 L   1      -6.134  -4.720 -12.747  1.00  0.00    +0.0278  H
ATOM     54 H61  665 L   1      -4.508  -4.188 -12.390  1.00  0.00    +0.0278  H
ATOM     55 H62  665 L   1      -5.577  -4.662 -11.093  1.00  0.00    +0.0278  H
ENDBRANCH 38 39
ENDBRANCH 36 38
ENDBRANCH 33 36
ENDBRANCH 26 33
ENDBRANCH 21 23
BRANCH 21 57
ATOM     56  N5  665 L   1     -10.918  -9.800  -9.605  1.00  0.00    -0.3600  N
ATOM     57  C9  665 L   1     -10.495 -11.163  -9.915  1.00  0.00    +0.0921  C
ATOM     58 H36  665 L   1     -11.301  -9.769  -8.661  1.00  0.00    +0.3450 HD
ATOM     59 H37  665 L   1     -11.633  -9.506 -10.271  1.00  0.00    +0.3450 HD
ATOM     60 H38  665 L   1     -10.116  -9.172  -9.669  1.00  0.00    +0.3450 HD
ATOM     61 H40  665 L   1     -11.341 -11.814  -9.839  1.00  0.00    +0.0926  H
ATOM     62 H41  665 L   1      -9.733 -11.440  -9.217  1.00  0.00    +0.0926  H
ENDBRANCH 21 57
ENDBRANCH 19 21
ENDBRANCH 2 18
TORSDOF 8
ENDMDL
MODEL 15
REMARK VINA RESULT:    -7.195      4.910      8.155
REMARK INTER + INTRA:         -11.919
REMARK INTER:                  -9.559
REMARK INTRA:                  -2.359
REMARK UNBOUND:                -1.359
ROOT
ATOM      1  N6  665 L   1      -2.692  -5.255 -11.004  1.00  0.00    -0.2626 NA
ATOM      2 C16  665 L   1       1.542  -6.356 -13.547  1.00  0.00    +0.0423  A
ATOM      3 C18  665 L   1       1.051  -5.194 -12.950  1.00  0.00    -0.0305  A
ATOM      4 C19  665 L   1      -0.192  -5.196 -12.297  1.00  0.00    -0.0131  A
ATOM      5 C20  665 L   1       0.798  -7.533 -13.503  1.00  0.00    -0.0377  A
ATOM      6 C21  665 L   1      -0.943  -6.390 -12.255  1.00  0.00    +0.0004  A
ATOM      7 C22  665 L   1      -0.439  -7.554 -12.860  1.00  0.00    -0.0506  A
ATOM      8 C26  665 L   1      -0.712  -4.048 -11.688  1.00  0.00    -0.0358  A
ATOM      9 C30  665 L   1      -2.174  -6.354 -11.598  1.00  0.00    +0.0353  A
ATOM     10 C33  665 L   1      -1.948  -4.131 -11.065  1.00  0.00    +0.0281  A
ATOM     11 H48  665 L   1       1.608  -4.326 -12.987  1.00  0.00    +0.0644  H
ATOM     12 H49  665 L   1       1.163  -8.391 -13.947  1.00  0.00    +0.0638  H
ATOM     13 H50  665 L   1      -0.987  -8.427 -12.829  1.00  0.00    +0.0625  H
ATOM     14 H51  665 L   1      -0.187  -3.159 -11.704  1.00  0.00    +0.0639  H
ATOM     15 H54  665 L   1      -2.727  -7.225 -11.563  1.00  0.00    +0.0836  H
ATOM     16 H59  665 L   1      -2.321  -3.280 -10.619  1.00  0.00    +0.0830  H
ENDROOT
BRANCH 2 18
ATOM     17  O2  665 L   1       3.948  -8.107 -13.171  1.00  0.00    -0.2720 OA
ATOM     18  N4  665 L   1       2.781  -6.338 -14.191  1.00  0.00    -0.3255  N
ATOM     19 C10  665 L   1       3.885  -7.180 -13.974  1.00  0.00    +0.2381  C
ATOM     20 H35  665 L   1       2.895  -5.649 -14.884  1.00  0.00    +0.1686 HD
BRANCH 19 21
ATOM     21  C7  665 L   1       5.065  -6.830 -14.893  1.00  0.00    +0.1122  C
ATOM     22 H39  665 L   1       5.439  -7.721 -15.352  1.00  0.00    +0.0502  H
BRANCH 21 23
ATOM     23  C8  665 L   1       4.603  -5.915 -16.017  1.00  0.00    -0.0300  A
ATOM     24 C11  665 L   1       5.145  -4.636 -16.143  1.00  0.00    -0.0573  A
ATOM     25 C12  665 L   1       3.637  -6.356 -16.922  1.00  0.00    -0.0573  A
ATOM     26 C13  665 L   1       3.756  -4.238 -18.078  1.00  0.00    -0.0103  A
ATOM     27 C14  665 L   1       4.720  -3.797 -17.173  1.00  0.00    -0.0551  A
ATOM     28 C15  665 L   1       3.213  -5.517 -17.952  1.00  0.00    -0.0551  A
ATOM     29 H42  665 L   1       5.860  -4.310 -15.473  1.00  0.00    +0.0621  H
ATOM     30 H43  665 L   1       3.236  -7.302 -16.829  1.00  0.00    +0.0621  H
ATOM     31 H44  665 L   1       5.122  -2.850 -17.266  1.00  0.00    +0.0621  H
ATOM     32 H45  665 L   1       2.498  -5.843 -18.622  1.00  0.00    +0.0621  H
BRANCH 26 33
ATOM     33 C17  665 L   1       3.302  -3.341 -19.180  1.00  0.00    +0.1179  C
ATOM     34 H46  665 L   1       4.130  -3.109 -19.816  1.00  0.00    +0.0749  H
ATOM     35 H47  665 L   1       2.541  -3.833 -19.750  1.00  0.00    +0.0749  H
BRANCH 33 36
ATOM     36  O1  665 L   1       2.777  -2.140 -18.626  1.00  0.00    -0.4564 OA
BRANCH 36 38
ATOM     37  O3  665 L   1       0.568  -2.423 -19.206  1.00  0.00    -0.2449 OA
ATOM     38 C25  665 L   1       1.436  -2.123 -18.400  1.00  0.00    +0.3398  C
BRANCH 38 39
ATOM     39 C23  665 L   1       1.142  -1.680 -17.013  1.00  0.00    +0.0619  A
ATOM     40 C24  665 L   1       0.746  -2.592 -16.035  1.00  0.00    -0.0362  A
ATOM     41 C27  665 L   1       0.599  -0.797 -14.423  1.00  0.00    -0.0502  A
ATOM     42 C28  665 L   1       0.476  -2.150 -14.740  1.00  0.00    -0.0551  A
ATOM     43 C29  665 L   1       1.266  -0.327 -16.698  1.00  0.00    -0.0473  A
ATOM     44 C31  665 L   1       0.994   0.115 -15.403  1.00  0.00    -0.0580  A
ATOM     45 C32  665 L   1       0.607  -4.047 -16.345  1.00  0.00    -0.0389  C
ATOM     46 C34  665 L   1       0.309  -0.323 -13.040  1.00  0.00    -0.0397  C
ATOM     47 H52  665 L   1       0.182  -2.824 -14.015  1.00  0.00    +0.0623  H
ATOM     48 H53  665 L   1       1.559   0.346 -17.422  1.00  0.00    +0.0626  H
ATOM     49 H55  665 L   1       1.086   1.116 -15.170  1.00  0.00    +0.0620  H
ATOM     50 H56  665 L   1       0.850  -4.217 -17.373  1.00  0.00    +0.0278  H
ATOM     51 H57  665 L   1      -0.401  -4.356 -16.161  1.00  0.00    +0.0278  H
ATOM     52 H58  665 L   1       1.271  -4.610 -15.724  1.00  0.00    +0.0278  H
ATOM     53 H60  665 L   1       0.023  -1.154 -12.430  1.00  0.00    +0.0278  H
ATOM     54 H61  665 L   1      -0.488   0.391 -13.067  1.00  0.00    +0.0278  H
ATOM     55 H62  665 L   1       1.184   0.135 -12.629  1.00  0.00    +0.0278  H
ENDBRANCH 38 39
ENDBRANCH 36 38
ENDBRANCH 33 36
ENDBRANCH 26 33
ENDBRANCH 21 23
BRANCH 21 57
ATOM     56  N5  665 L   1       6.662  -7.134 -13.010  1.00  0.00    -0.3600  N
ATOM     57  C9  665 L   1       6.224  -6.231 -14.071  1.00  0.00    +0.0921  C
ATOM     58 H36  665 L   1       7.428  -6.704 -12.491  1.00  0.00    +0.3450 HD
ATOM     59 H37  665 L   1       6.980  -8.011 -13.420  1.00  0.00    +0.3450 HD
ATOM     60 H38  665 L   1       5.883  -7.318 -12.377  1.00  0.00    +0.3450 HD
ATOM     61 H40  665 L   1       7.049  -6.040 -14.725  1.00  0.00    +0.0926  H
ATOM     62 H41  665 L   1       5.877  -5.328 -13.615  1.00  0.00    +0.0926  H
ENDBRANCH 21 57
ENDBRANCH 19 21
ENDBRANCH 2 18
TORSDOF 8
ENDMDL
MODEL 16
REMARK VINA RESULT:    -7.184      3.669      5.788
REMARK INTER + INTRA:         -11.903
REMARK INTER:                  -9.489
REMARK INTRA:                  -2.414
REMARK UNBOUND:                -1.359
ROOT
ATOM      1  N6  665 L   1       0.112  -4.372 -11.400  1.00  0.00    -0.2626 NA
ATOM      2 C16  665 L   1      -3.418  -7.993 -11.211  1.00  0.00    +0.0423  A
ATOM      3 C18  665 L   1      -2.058  -7.956 -10.900  1.00  0.00    -0.0305  A
ATOM      4 C19  665 L   1      -1.320  -6.772 -11.059  1.00  0.00    -0.0131  A
ATOM      5 C20  665 L   1      -4.059  -6.851 -11.685  1.00  0.00    -0.0377  A
ATOM      6 C21  665 L   1      -1.972  -5.617 -11.541  1.00  0.00    +0.0004  A
ATOM      7 C22  665 L   1      -3.342  -5.667 -11.851  1.00  0.00    -0.0506  A
ATOM      8 C26  665 L   1       0.045  -6.703 -10.757  1.00  0.00    -0.0358  A
ATOM      9 C30  665 L   1      -1.207  -4.459 -11.688  1.00  0.00    +0.0353  A
ATOM     10 C33  665 L   1       0.703  -5.496 -10.943  1.00  0.00    +0.0281  A
ATOM     11 H48  665 L   1      -1.590  -8.806 -10.548  1.00  0.00    +0.0644  H
ATOM     12 H49  665 L   1      -5.065  -6.882 -11.915  1.00  0.00    +0.0638  H
ATOM     13 H50  665 L   1      -3.819  -4.822 -12.203  1.00  0.00    +0.0625  H
ATOM     14 H51  665 L   1       0.549  -7.531 -10.403  1.00  0.00    +0.0639  H
ATOM     15 H54  665 L   1      -1.679  -3.611 -12.039  1.00  0.00    +0.0836  H
ATOM     16 H59  665 L   1       1.708  -5.456 -10.716  1.00  0.00    +0.0830  H
ENDROOT
BRANCH 2 18
ATOM     17  O2  665 L   1      -3.368 -10.533 -12.805  1.00  0.00    -0.2720 OA
ATOM     18  N4  665 L   1      -4.139  -9.178 -11.044  1.00  0.00    -0.3255  N
ATOM     19 C10  665 L   1      -4.085 -10.344 -11.826  1.00  0.00    +0.2381  C
ATOM     20 H35  665 L   1      -4.762  -9.198 -10.284  1.00  0.00    +0.1686 HD
BRANCH 19 21
ATOM     21  C7  665 L   1      -5.040 -11.429 -11.307  1.00  0.00    +0.1122  C
ATOM     22 H39  665 L   1      -4.981 -11.481 -10.240  1.00  0.00    +0.0502  H
BRANCH 21 23
ATOM     23  C8  665 L   1      -6.478 -11.072 -11.652  1.00  0.00    -0.0300  A
ATOM     24 C11  665 L   1      -7.190 -10.186 -10.843  1.00  0.00    -0.0573  A
ATOM     25 C12  665 L   1      -7.084 -11.629 -12.778  1.00  0.00    -0.0573  A
ATOM     26 C13  665 L   1      -9.115 -10.417 -12.284  1.00  0.00    -0.0103  A
ATOM     27 C14  665 L   1      -8.509  -9.860 -11.158  1.00  0.00    -0.0551  A
ATOM     28 C15  665 L   1      -8.403 -11.302 -13.093  1.00  0.00    -0.0551  A
ATOM     29 H42  665 L   1      -6.742  -9.774 -10.009  1.00  0.00    +0.0621  H
ATOM     30 H43  665 L   1      -6.557 -12.284 -13.377  1.00  0.00    +0.0621  H
ATOM     31 H44  665 L   1      -9.036  -9.205 -10.559  1.00  0.00    +0.0621  H
ATOM     32 H45  665 L   1      -8.852 -11.715 -13.927  1.00  0.00    +0.0621  H
BRANCH 26 33
ATOM     33 C17  665 L   1     -10.525 -10.068 -12.622  1.00  0.00    +0.1179  C
ATOM     34 H46  665 L   1     -10.775 -10.478 -13.578  1.00  0.00    +0.0749  H
ATOM     35 H47  665 L   1     -11.181 -10.470 -11.879  1.00  0.00    +0.0749  H
BRANCH 33 36
ATOM     36  O1  665 L   1     -10.664  -8.652 -12.661  1.00  0.00    -0.4564 OA
BRANCH 36 38
ATOM     37  O3  665 L   1     -10.742  -8.415 -14.949  1.00  0.00    -0.2449 OA
ATOM     38 C25  665 L   1     -10.362  -8.055 -13.845  1.00  0.00    +0.3398  C
BRANCH 38 39
ATOM     39 C23  665 L   1      -9.484  -6.876 -13.630  1.00  0.00    +0.0619  A
ATOM     40 C24  665 L   1      -8.125  -6.923 -13.941  1.00  0.00    -0.0362  A
ATOM     41 C27  665 L   1      -7.879  -4.634 -13.206  1.00  0.00    -0.0502  A
ATOM     42 C28  665 L   1      -7.323  -5.801 -13.730  1.00  0.00    -0.0551  A
ATOM     43 C29  665 L   1     -10.041  -5.709 -13.107  1.00  0.00    -0.0473  A
ATOM     44 C31  665 L   1      -9.239  -4.588 -12.894  1.00  0.00    -0.0580  A
ATOM     45 C32  665 L   1      -7.504  -8.159 -14.505  1.00  0.00    -0.0389  C
ATOM     46 C34  665 L   1      -7.023  -3.435 -12.978  1.00  0.00    -0.0397  C
ATOM     47 H52  665 L   1      -6.317  -5.835 -13.959  1.00  0.00    +0.0623  H
ATOM     48 H53  665 L   1     -11.046  -5.675 -12.878  1.00  0.00    +0.0626  H
ATOM     49 H55  665 L   1      -9.651  -3.725 -12.507  1.00  0.00    +0.0620  H
ATOM     50 H56  665 L   1      -8.250  -8.919 -14.605  1.00  0.00    +0.0278  H
ATOM     51 H57  665 L   1      -6.732  -8.501 -13.847  1.00  0.00    +0.0278  H
ATOM     52 H58  665 L   1      -7.084  -7.942 -15.464  1.00  0.00    +0.0278  H
ATOM     53 H60  665 L   1      -6.018  -3.653 -13.272  1.00  0.00    +0.0278  H
ATOM     54 H61  665 L   1      -7.043  -3.174 -11.940  1.00  0.00    +0.0278  H
ATOM     55 H62  665 L   1      -7.394  -2.616 -13.558  1.00  0.00    +0.0278  H
ENDBRANCH 38 39
ENDBRANCH 36 38
ENDBRANCH 33 36
ENDBRANCH 26 33
ENDBRANCH 21 23
BRANCH 21 57
ATOM     56  N5  665 L   1      -3.343 -13.248 -11.289  1.00  0.00    -0.3600  N
ATOM     57  C9  665 L   1      -4.621 -12.813 -11.844  1.00  0.00    +0.0921  C
ATOM     58 H36  665 L   1      -3.102 -14.164 -11.667  1.00  0.00    +0.3450 HD
ATOM     59 H37  665 L   1      -3.416 -13.307 -10.274  1.00  0.00    +0.3450 HD
ATOM     60 H38  665 L   1      -2.618 -12.575 -11.538  1.00  0.00    +0.3450 HD
ATOM     61 H40  665 L   1      -5.374 -13.527 -11.583  1.00  0.00    +0.0926  H
ATOM     62 H41  665 L   1      -4.514 -12.738 -12.906  1.00  0.00    +0.0926  H
ENDBRANCH 21 57
ENDBRANCH 19 21
ENDBRANCH 2 18
TORSDOF 8
ENDMDL
MODEL 17
REMARK VINA RESULT:    -7.178      3.140      3.923
REMARK INTER + INTRA:         -11.894
REMARK INTER:                 -10.643
REMARK INTRA:                  -1.251
REMARK UNBOUND:                -1.359
ROOT
ATOM      1  N6  665 L   1       1.081   1.373 -17.062  1.00  0.00    -0.2626 NA
ATOM      2 C16  665 L   1       0.289  -1.811 -13.209  1.00  0.00    +0.0423  A
ATOM      3 C18  665 L   1       0.386  -1.976 -14.591  1.00  0.00    -0.0305  A
ATOM      4 C19  665 L   1       0.618  -0.873 -15.429  1.00  0.00    -0.0131  A
ATOM      5 C20  665 L   1       0.420  -0.544 -12.645  1.00  0.00    -0.0377  A
ATOM      6 C21  665 L   1       0.749   0.408 -14.854  1.00  0.00    +0.0004  A
ATOM      7 C22  665 L   1       0.649   0.563 -13.461  1.00  0.00    -0.0506  A
ATOM      8 C26  665 L   1       0.720  -1.006 -16.819  1.00  0.00    -0.0358  A
ATOM      9 C30  665 L   1       0.978   1.481 -15.718  1.00  0.00    +0.0353  A
ATOM     10 C33  665 L   1       0.949   0.132 -17.577  1.00  0.00    +0.0281  A
ATOM     11 H48  665 L   1       0.288  -2.918 -15.002  1.00  0.00    +0.0644  H
ATOM     12 H49  665 L   1       0.346  -0.425 -11.622  1.00  0.00    +0.0638  H
ATOM     13 H50  665 L   1       0.746   1.500 -13.041  1.00  0.00    +0.0625  H
ATOM     14 H51  665 L   1       0.627  -1.930 -17.268  1.00  0.00    +0.0639  H
ATOM     15 H54  665 L   1       1.076   2.421 -15.302  1.00  0.00    +0.0836  H
ATOM     16 H59  665 L   1       1.023   0.023 -18.599  1.00  0.00    +0.0830  H
ENDROOT
BRANCH 2 18
ATOM     17  O2  665 L   1       1.661  -4.476 -13.123  1.00  0.00    -0.2720 OA
ATOM     18  N4  665 L   1       0.060  -2.918 -12.389  1.00  0.00    -0.3255  N
ATOM     19 C10  665 L   1       0.728  -4.154 -12.392  1.00  0.00    +0.2381  C
ATOM     20 H35  665 L   1      -0.661  -2.820 -11.727  1.00  0.00    +0.1686 HD
BRANCH 19 21
ATOM     21  C7  665 L   1       0.172  -5.112 -11.328  1.00  0.00    +0.1122  C
ATOM     22 H39  665 L   1      -0.026  -4.571 -10.426  1.00  0.00    +0.0502  H
BRANCH 21 23
ATOM     23  C8  665 L   1      -1.152  -5.699 -11.790  1.00  0.00    -0.0300  A
ATOM     24 C11  665 L   1      -2.352  -5.080 -11.437  1.00  0.00    -0.0573  A
ATOM     25 C12  665 L   1      -1.168  -6.856 -12.569  1.00  0.00    -0.0573  A
ATOM     26 C13  665 L   1      -3.582  -6.777 -12.638  1.00  0.00    -0.0103  A
ATOM     27 C14  665 L   1      -3.566  -5.620 -11.860  1.00  0.00    -0.0551  A
ATOM     28 C15  665 L   1      -2.383  -7.396 -12.992  1.00  0.00    -0.0551  A
ATOM     29 H42  665 L   1      -2.341  -4.224 -10.860  1.00  0.00    +0.0621  H
ATOM     30 H43  665 L   1      -0.281  -7.314 -12.831  1.00  0.00    +0.0621  H
ATOM     31 H44  665 L   1      -4.454  -5.162 -11.598  1.00  0.00    +0.0621  H
ATOM     32 H45  665 L   1      -2.394  -8.252 -13.569  1.00  0.00    +0.0621  H
BRANCH 26 33
ATOM     33 C17  665 L   1      -4.880  -7.354 -13.092  1.00  0.00    +0.1179  C
ATOM     34 H46  665 L   1      -4.760  -8.400 -13.281  1.00  0.00    +0.0749  H
ATOM     35 H47  665 L   1      -5.619  -7.211 -12.331  1.00  0.00    +0.0749  H
BRANCH 33 36
ATOM     36  O1  665 L   1      -5.297  -6.700 -14.286  1.00  0.00    -0.4564 OA
BRANCH 36 38
ATOM     37  O3  665 L   1      -7.522  -7.273 -14.407  1.00  0.00    -0.2449 OA
ATOM     38 C25  665 L   1      -6.628  -6.441 -14.391  1.00  0.00    +0.3398  C
BRANCH 38 39
ATOM     39 C23  665 L   1      -6.874  -4.980 -14.489  1.00  0.00    +0.0619  A
ATOM     40 C24  665 L   1      -7.133  -4.215 -13.351  1.00  0.00    -0.0362  A
ATOM     41 C27  665 L   1      -7.331  -2.238 -14.727  1.00  0.00    -0.0502  A
ATOM     42 C28  665 L   1      -7.361  -2.844 -13.471  1.00  0.00    -0.0551  A
ATOM     43 C29  665 L   1      -6.843  -4.374 -15.745  1.00  0.00    -0.0473  A
ATOM     44 C31  665 L   1      -7.072  -3.003 -15.865  1.00  0.00    -0.0580  A
ATOM     45 C32  665 L   1      -7.170  -4.838 -11.994  1.00  0.00    -0.0389  C
ATOM     46 C34  665 L   1      -7.575  -0.773 -14.856  1.00  0.00    -0.0397  C
ATOM     47 H52  665 L   1      -7.553  -2.277 -12.629  1.00  0.00    +0.0623  H
ATOM     48 H53  665 L   1      -6.651  -4.940 -16.585  1.00  0.00    +0.0626  H
ATOM     49 H55  665 L   1      -7.049  -2.556 -16.794  1.00  0.00    +0.0620  H
ATOM     50 H56  665 L   1      -6.977  -5.887 -12.077  1.00  0.00    +0.0278  H
ATOM     51 H57  665 L   1      -8.136  -4.687 -11.559  1.00  0.00    +0.0278  H
ATOM     52 H58  665 L   1      -6.426  -4.385 -11.373  1.00  0.00    +0.0278  H
ATOM     53 H60  665 L   1      -7.754  -0.354 -13.888  1.00  0.00    +0.0278  H
ATOM     54 H61  665 L   1      -8.428  -0.607 -15.480  1.00  0.00    +0.0278  H
ATOM     55 H62  665 L   1      -6.718  -0.305 -15.293  1.00  0.00    +0.0278  H
ENDBRANCH 38 39
ENDBRANCH 36 38
ENDBRANCH 33 36
ENDBRANCH 26 33
ENDBRANCH 21 23
BRANCH 21 57
ATOM     56  N5  665 L   1       1.046  -6.695  -9.620  1.00  0.00    -0.3600  N
ATOM     57  C9  665 L   1       1.217  -6.191 -10.980  1.00  0.00    +0.0921  C
ATOM     58 H36  665 L   1       1.753  -7.405  -9.430  1.00  0.00    +0.3450 HD
ATOM     59 H37  665 L   1       0.118  -7.107  -9.525  1.00  0.00    +0.3450 HD
ATOM     60 H38  665 L   1       1.147  -5.927  -8.957  1.00  0.00    +0.3450 HD
ATOM     61 H40  665 L   1       1.116  -7.005 -11.667  1.00  0.00    +0.0926  H
ATOM     62 H41  665 L   1       2.188  -5.747 -11.049  1.00  0.00    +0.0926  H
ENDBRANCH 21 57
ENDBRANCH 19 21
ENDBRANCH 2 18
TORSDOF 8
ENDMDL
MODEL 18
REMARK VINA RESULT:    -7.101      1.742      2.198
REMARK INTER + INTRA:         -11.781
REMARK INTER:                 -10.557
REMARK INTRA:                  -1.224
REMARK UNBOUND:                -1.359
ROOT
ATOM      1  N6  665 L   1       6.155  -5.627 -14.154  1.00  0.00    -0.2626 NA
ATOM      2 C16  665 L   1       1.298  -6.755 -13.290  1.00  0.00    +0.0423  A
ATOM      3 C18  665 L   1       2.449  -7.524 -13.469  1.00  0.00    -0.0305  A
ATOM      4 C19  665 L   1       3.691  -6.910 -13.697  1.00  0.00    -0.0131  A
ATOM      5 C20  665 L   1       1.371  -5.365 -13.339  1.00  0.00    -0.0377  A
ATOM      6 C21  665 L   1       3.761  -5.502 -13.746  1.00  0.00    +0.0004  A
ATOM      7 C22  665 L   1       2.595  -4.738 -13.566  1.00  0.00    -0.0506  A
ATOM      8 C26  665 L   1       4.864  -7.653 -13.880  1.00  0.00    -0.0358  A
ATOM      9 C30  665 L   1       5.012  -4.926 -13.976  1.00  0.00    +0.0353  A
ATOM     10 C33  665 L   1       6.050  -6.972 -14.102  1.00  0.00    +0.0281  A
ATOM     11 H48  665 L   1       2.388  -8.554 -13.431  1.00  0.00    +0.0644  H
ATOM     12 H49  665 L   1       0.518  -4.799 -13.207  1.00  0.00    +0.0638  H
ATOM     13 H50  665 L   1       2.647  -3.708 -13.601  1.00  0.00    +0.0625  H
ATOM     14 H51  665 L   1       4.844  -8.684 -13.850  1.00  0.00    +0.0639  H
ATOM     15 H54  665 L   1       5.069  -3.896 -14.012  1.00  0.00    +0.0836  H
ATOM     16 H59  665 L   1       6.908  -7.528 -14.235  1.00  0.00    +0.0830  H
ENDROOT
BRANCH 2 18
ATOM     17  O2  665 L   1      -1.075  -7.086 -15.094  1.00  0.00    -0.2720 OA
ATOM     18  N4  665 L   1       0.071  -7.381 -13.062  1.00  0.00    -0.3255  N
ATOM     19 C10  665 L   1      -1.018  -7.505 -13.941  1.00  0.00    +0.2381  C
ATOM     20 H35  665 L   1      -0.045  -7.787 -12.173  1.00  0.00    +0.1686 HD
BRANCH 19 21
ATOM     21  C7  665 L   1      -2.188  -8.269 -13.304  1.00  0.00    +0.1122  C
ATOM     22 H39  665 L   1      -1.880  -8.681 -12.365  1.00  0.00    +0.0502  H
BRANCH 21 23
ATOM     23  C8  665 L   1      -3.339  -7.319 -13.013  1.00  0.00    -0.0300  A
ATOM     24 C11  665 L   1      -4.559  -7.479 -13.671  1.00  0.00    -0.0573  A
ATOM     25 C12  665 L   1      -3.176  -6.288 -12.087  1.00  0.00    -0.0573  A
ATOM     26 C13  665 L   1      -5.452  -5.577 -12.479  1.00  0.00    -0.0103  A
ATOM     27 C14  665 L   1      -5.615  -6.607 -13.404  1.00  0.00    -0.0551  A
ATOM     28 C15  665 L   1      -4.232  -5.417 -11.821  1.00  0.00    -0.0551  A
ATOM     29 H42  665 L   1      -4.681  -8.242 -14.356  1.00  0.00    +0.0621  H
ATOM     30 H43  665 L   1      -2.274  -6.170 -11.600  1.00  0.00    +0.0621  H
ATOM     31 H44  665 L   1      -6.518  -6.725 -13.891  1.00  0.00    +0.0621  H
ATOM     32 H45  665 L   1      -4.111  -4.654 -11.135  1.00  0.00    +0.0621  H
BRANCH 26 33
ATOM     33 C17  665 L   1      -6.580  -4.644 -12.193  1.00  0.00    +0.1179  C
ATOM     34 H46  665 L   1      -6.714  -4.559 -11.135  1.00  0.00    +0.0749  H
ATOM     35 H47  665 L   1      -6.361  -3.681 -12.604  1.00  0.00    +0.0749  H
BRANCH 33 36
ATOM     36  O1  665 L   1      -7.772  -5.151 -12.783  1.00  0.00    -0.4564 OA
BRANCH 36 38
ATOM     37  O3  665 L   1      -9.889  -4.250 -12.732  1.00  0.00    -0.2449 OA
ATOM     38 C25  665 L   1      -8.723  -4.229 -13.094  1.00  0.00    +0.3398  C
BRANCH 38 39
ATOM     39 C23  665 L   1      -8.156  -3.160 -13.955  1.00  0.00    +0.0619  A
ATOM     40 C24  665 L   1      -7.712  -3.436 -15.249  1.00  0.00    -0.0362  A
ATOM     41 C27  665 L   1      -7.096  -1.116 -15.531  1.00  0.00    -0.0502  A
ATOM     42 C28  665 L   1      -7.183  -2.414 -16.037  1.00  0.00    -0.0551  A
ATOM     43 C29  665 L   1      -8.069  -1.863 -13.449  1.00  0.00    -0.0473  A
ATOM     44 C31  665 L   1      -7.539  -0.841 -14.237  1.00  0.00    -0.0580  A
ATOM     45 C32  665 L   1      -7.795  -4.816 -15.816  1.00  0.00    -0.0389  C
ATOM     46 C34  665 L   1      -6.529  -0.023 -16.372  1.00  0.00    -0.0397  C
ATOM     47 H52  665 L   1      -6.855  -2.617 -16.994  1.00  0.00    +0.0623  H
ATOM     48 H53  665 L   1      -8.397  -1.660 -12.493  1.00  0.00    +0.0626  H
ATOM     49 H55  665 L   1      -7.475   0.118 -13.862  1.00  0.00    +0.0620  H
ATOM     50 H56  665 L   1      -8.222  -5.475 -15.089  1.00  0.00    +0.0278  H
ATOM     51 H57  665 L   1      -6.814  -5.155 -16.072  1.00  0.00    +0.0278  H
ATOM     52 H58  665 L   1      -8.409  -4.805 -16.692  1.00  0.00    +0.0278  H
ATOM     53 H60  665 L   1      -6.246  -0.417 -17.325  1.00  0.00    +0.0278  H
ATOM     54 H61  665 L   1      -5.671   0.392 -15.887  1.00  0.00    +0.0278  H
ATOM     55 H62  665 L   1      -7.266   0.741 -16.507  1.00  0.00    +0.0278  H
ENDBRANCH 38 39
ENDBRANCH 36 38
ENDBRANCH 33 36
ENDBRANCH 26 33
ENDBRANCH 21 23
BRANCH 21 57
ATOM     56  N5  665 L   1      -1.520  -9.872 -15.086  1.00  0.00    -0.3600  N
ATOM     57  C9  665 L   1      -2.601  -9.457 -14.196  1.00  0.00    +0.0921  C
ATOM     58 H36  665 L   1      -1.832 -10.657 -15.656  1.00  0.00    +0.3450 HD
ATOM     59 H37  665 L   1      -0.713 -10.155 -14.530  1.00  0.00    +0.3450 HD
ATOM     60 H38  665 L   1      -1.259  -9.093 -15.690  1.00  0.00    +0.3450 HD
ATOM     61 H40  665 L   1      -2.872 -10.282 -13.570  1.00  0.00    +0.0926  H
ATOM     62 H41  665 L   1      -3.428  -9.146 -14.801  1.00  0.00    +0.0926  H
ENDBRANCH 21 57
ENDBRANCH 19 21
ENDBRANCH 2 18
TORSDOF 8
ENDMDL
MODEL 19
REMARK VINA RESULT:    -7.100      4.604      7.944
REMARK INTER + INTRA:         -11.780
REMARK INTER:                  -9.312
REMARK INTRA:                  -2.467
REMARK UNBOUND:                -1.359
ROOT
ATOM      1  N6  665 L   1      -8.700  -1.621 -15.381  1.00  0.00    -0.2626 NA
ATOM      2 C16  665 L   1      -6.163  -5.505 -13.358  1.00  0.00    +0.0423  A
ATOM      3 C18  665 L   1      -6.566  -4.259 -12.873  1.00  0.00    -0.0305  A
ATOM      4 C19  665 L   1      -7.278  -3.369 -13.694  1.00  0.00    -0.0131  A
ATOM      5 C20  665 L   1      -6.464  -5.877 -14.667  1.00  0.00    -0.0377  A
ATOM      6 C21  665 L   1      -7.579  -3.749 -15.018  1.00  0.00    +0.0004  A
ATOM      7 C22  665 L   1      -7.168  -5.005 -15.496  1.00  0.00    -0.0506  A
ATOM      8 C26  665 L   1      -7.696  -2.113 -13.237  1.00  0.00    -0.0358  A
ATOM      9 C30  665 L   1      -8.287  -2.837 -15.804  1.00  0.00    +0.0353  A
ATOM     10 C33  665 L   1      -8.393  -1.291 -14.109  1.00  0.00    +0.0281  A
ATOM     11 H48  665 L   1      -6.340  -3.991 -11.903  1.00  0.00    +0.0644  H
ATOM     12 H49  665 L   1      -6.164  -6.798 -15.023  1.00  0.00    +0.0638  H
ATOM     13 H50  665 L   1      -7.389  -5.283 -16.464  1.00  0.00    +0.0625  H
ATOM     14 H51  665 L   1      -7.489  -1.807 -12.274  1.00  0.00    +0.0639  H
ATOM     15 H54  665 L   1      -8.511  -3.111 -16.774  1.00  0.00    +0.0836  H
ATOM     16 H59  665 L   1      -8.697  -0.369 -13.763  1.00  0.00    +0.0830  H
ENDROOT
BRANCH 2 18
ATOM     17  O2  665 L   1      -3.693  -5.055 -11.718  1.00  0.00    -0.2720 OA
ATOM     18  N4  665 L   1      -5.458  -6.380 -12.529  1.00  0.00    -0.3255  N
ATOM     19 C10  665 L   1      -4.296  -6.123 -11.783  1.00  0.00    +0.2381  C
ATOM     20 H35  665 L   1      -5.822  -7.291 -12.459  1.00  0.00    +0.1686 HD
BRANCH 19 21
ATOM     21  C7  665 L   1      -3.832  -7.358 -10.997  1.00  0.00    +0.1122  C
ATOM     22 H39  665 L   1      -4.079  -7.240  -9.963  1.00  0.00    +0.0502  H
BRANCH 21 23
ATOM     23  C8  665 L   1      -4.563  -8.598 -11.487  1.00  0.00    -0.0300  A
ATOM     24 C11  665 L   1      -5.330  -9.352 -10.599  1.00  0.00    -0.0573  A
ATOM     25 C12  665 L   1      -4.466  -8.982 -12.825  1.00  0.00    -0.0573  A
ATOM     26 C13  665 L   1      -5.903 -10.874 -12.386  1.00  0.00    -0.0103  A
ATOM     27 C14  665 L   1      -5.999 -10.491 -11.049  1.00  0.00    -0.0551  A
ATOM     28 C15  665 L   1      -5.135 -10.120 -13.274  1.00  0.00    -0.0551  A
ATOM     29 H42  665 L   1      -5.402  -9.068  -9.609  1.00  0.00    +0.0621  H
ATOM     30 H43  665 L   1      -3.898  -8.424 -13.482  1.00  0.00    +0.0621  H
ATOM     31 H44  665 L   1      -6.568 -11.048 -10.391  1.00  0.00    +0.0621  H
ATOM     32 H45  665 L   1      -5.063 -10.405 -14.264  1.00  0.00    +0.0621  H
BRANCH 26 33
ATOM     33 C17  665 L   1      -6.619 -12.091 -12.867  1.00  0.00    +0.1179  C
ATOM     34 H46  665 L   1      -5.932 -12.729 -13.381  1.00  0.00    +0.0749  H
ATOM     35 H47  665 L   1      -7.035 -12.614 -12.031  1.00  0.00    +0.0749  H
BRANCH 33 36
ATOM     36  O1  665 L   1      -7.664 -11.704 -13.752  1.00  0.00    -0.4564 OA
BRANCH 36 38
ATOM     37  O3  665 L   1      -9.647 -12.318 -12.758  1.00  0.00    -0.2449 OA
ATOM     38 C25  665 L   1      -8.875 -11.470 -13.179  1.00  0.00    +0.3398  C
BRANCH 38 39
ATOM     39 C23  665 L   1      -9.158 -10.013 -13.125  1.00  0.00    +0.0619  A
ATOM     40 C24  665 L   1      -9.396  -9.370 -11.910  1.00  0.00    -0.0362  A
ATOM     41 C27  665 L   1      -9.686  -7.274 -13.078  1.00  0.00    -0.0502  A
ATOM     42 C28  665 L   1      -9.660  -8.000 -11.887  1.00  0.00    -0.0551  A
ATOM     43 C29  665 L   1      -9.185  -9.288 -14.316  1.00  0.00    -0.0473  A
ATOM     44 C31  665 L   1      -9.449  -7.918 -14.293  1.00  0.00    -0.0580  A
ATOM     45 C32  665 L   1      -9.372 -10.122 -10.620  1.00  0.00    -0.0389  C
ATOM     46 C34  665 L   1      -9.969  -5.810 -13.055  1.00  0.00    -0.0397  C
ATOM     47 H52  665 L   1      -9.836  -7.523 -10.989  1.00  0.00    +0.0623  H
ATOM     48 H53  665 L   1      -9.008  -9.764 -15.214  1.00  0.00    +0.0626  H
ATOM     49 H55  665 L   1      -9.469  -7.382 -15.175  1.00  0.00    +0.0620  H
ATOM     50 H56  665 L   1      -9.157 -11.152 -10.812  1.00  0.00    +0.0278  H
ATOM     51 H57  665 L   1     -10.326 -10.040 -10.141  1.00  0.00    +0.0278  H
ATOM     52 H58  665 L   1      -8.617  -9.712  -9.982  1.00  0.00    +0.0278  H
ATOM     53 H60  665 L   1     -10.124  -5.493 -12.046  1.00  0.00    +0.0278  H
ATOM     54 H61  665 L   1     -10.847  -5.607 -13.633  1.00  0.00    +0.0278  H
ATOM     55 H62  665 L   1      -9.139  -5.280 -13.472  1.00  0.00    +0.0278  H
ENDBRANCH 38 39
ENDBRANCH 36 38
ENDBRANCH 33 36
ENDBRANCH 26 33
ENDBRANCH 21 23
BRANCH 21 57
ATOM     56  N5  665 L   1      -1.619  -6.520 -10.226  1.00  0.00    -0.3600  N
ATOM     57  C9  665 L   1      -2.298  -7.496 -11.075  1.00  0.00    +0.0921  C
ATOM     58 H36  665 L   1      -0.610  -6.645 -10.305  1.00  0.00    +0.3450 HD
ATOM     59 H37  665 L   1      -1.904  -6.657  -9.257  1.00  0.00    +0.3450 HD
ATOM     60 H38  665 L   1      -1.871  -5.578 -10.524  1.00  0.00    +0.3450 HD
ATOM     61 H40  665 L   1      -2.023  -8.481 -10.759  1.00  0.00    +0.0926  H
ATOM     62 H41  665 L   1      -1.999  -7.320 -12.087  1.00  0.00    +0.0926  H
ENDBRANCH 21 57
ENDBRANCH 19 21
ENDBRANCH 2 18
TORSDOF 8
ENDMDL
MODEL 20
REMARK VINA RESULT:    -6.986      5.762      9.625
REMARK INTER + INTRA:         -11.613
REMARK INTER:                  -8.784
REMARK INTRA:                  -2.829
REMARK UNBOUND:                -1.359
ROOT
ATOM      1  N6  665 L   1      -9.426  -4.357 -17.025  1.00  0.00    -0.2626 NA
ATOM      2 C16  665 L   1      -9.312  -7.865 -13.379  1.00  0.00    +0.0423  A
ATOM      3 C18  665 L   1      -9.039  -7.888 -14.748  1.00  0.00    -0.0305  A
ATOM      4 C19  665 L   1      -9.162  -6.723 -15.521  1.00  0.00    -0.0131  A
ATOM      5 C20  665 L   1      -9.711  -6.680 -12.765  1.00  0.00    -0.0377  A
ATOM      6 C21  665 L   1      -9.567  -5.525 -14.896  1.00  0.00    +0.0004  A
ATOM      7 C22  665 L   1      -9.839  -5.513 -13.517  1.00  0.00    -0.0506  A
ATOM      8 C26  665 L   1      -8.896  -6.713 -16.896  1.00  0.00    -0.0358  A
ATOM      9 C30  665 L   1      -9.680  -4.386 -15.696  1.00  0.00    +0.0353  A
ATOM     10 C33  665 L   1      -9.042  -5.522 -17.589  1.00  0.00    +0.0281  A
ATOM     11 H48  665 L   1      -8.744  -8.770 -15.196  1.00  0.00    +0.0644  H
ATOM     12 H49  665 L   1      -9.912  -6.666 -11.753  1.00  0.00    +0.0638  H
ATOM     13 H50  665 L   1     -10.135  -4.637 -13.060  1.00  0.00    +0.0625  H
ATOM     14 H51  665 L   1      -8.599  -7.574 -17.381  1.00  0.00    +0.0639  H
ATOM     15 H54  665 L   1      -9.975  -3.507 -15.244  1.00  0.00    +0.0836  H
ATOM     16 H59  665 L   1      -8.843  -5.525 -18.601  1.00  0.00    +0.0830  H
ENDROOT
BRANCH 2 18
ATOM     17  O2  665 L   1     -11.365  -9.908 -12.602  1.00  0.00    -0.2720 OA
ATOM     18  N4  665 L   1      -9.183  -9.032 -12.623  1.00  0.00    -0.3255  N
ATOM     19 C10  665 L   1     -10.181  -9.959 -12.279  1.00  0.00    +0.2381  C
ATOM     20 H35  665 L   1      -8.279  -9.231 -12.290  1.00  0.00    +0.1686 HD
BRANCH 19 21
ATOM     21  C7  665 L   1      -9.627 -11.114 -11.432  1.00  0.00    +0.1122  C
ATOM     22 H39  665 L   1      -9.943 -12.048 -11.847  1.00  0.00    +0.0502  H
BRANCH 21 23
ATOM     23  C8  665 L   1      -8.107 -11.108 -11.465  1.00  0.00    -0.0300  A
ATOM     24 C11  665 L   1      -7.386 -10.658 -10.358  1.00  0.00    -0.0573  A
ATOM     25 C12  665 L   1      -7.432 -11.554 -12.602  1.00  0.00    -0.0573  A
ATOM     26 C13  665 L   1      -5.318 -11.097 -11.526  1.00  0.00    -0.0103  A
ATOM     27 C14  665 L   1      -5.992 -10.652 -10.389  1.00  0.00    -0.0551  A
ATOM     28 C15  665 L   1      -6.038 -11.547 -12.632  1.00  0.00    -0.0551  A
ATOM     29 H42  665 L   1      -7.885 -10.329  -9.516  1.00  0.00    +0.0621  H
ATOM     30 H43  665 L   1      -7.965 -11.886 -13.421  1.00  0.00    +0.0621  H
ATOM     31 H44  665 L   1      -5.459 -10.319  -9.570  1.00  0.00    +0.0621  H
ATOM     32 H45  665 L   1      -5.538 -11.876 -13.474  1.00  0.00    +0.0621  H
BRANCH 26 33
ATOM     33 C17  665 L   1      -3.826 -11.091 -11.559  1.00  0.00    +0.1179  C
ATOM     34 H46  665 L   1      -3.449 -11.719 -10.779  1.00  0.00    +0.0749  H
ATOM     35 H47  665 L   1      -3.489 -11.457 -12.506  1.00  0.00    +0.0749  H
BRANCH 33 36
ATOM     36  O1  665 L   1      -3.355  -9.762 -11.369  1.00  0.00    -0.4564 OA
BRANCH 36 38
ATOM     37  O3  665 L   1      -2.334  -9.329 -13.386  1.00  0.00    -0.2449 OA
ATOM     38 C25  665 L   1      -3.126  -9.043 -12.501  1.00  0.00    +0.3398  C
BRANCH 38 39
ATOM     39 C23  665 L   1      -3.981  -7.828 -12.534  1.00  0.00    +0.0619  A
ATOM     40 C24  665 L   1      -3.627  -6.679 -11.827  1.00  0.00    -0.0362  A
ATOM     41 C27  665 L   1      -5.622  -5.574 -12.628  1.00  0.00    -0.0502  A
ATOM     42 C28  665 L   1      -4.447  -5.552 -11.875  1.00  0.00    -0.0551  A
ATOM     43 C29  665 L   1      -5.155  -7.851 -13.287  1.00  0.00    -0.0473  A
ATOM     44 C31  665 L   1      -5.976  -6.724 -13.334  1.00  0.00    -0.0580  A
ATOM     45 C32  665 L   1      -2.374  -6.627 -11.015  1.00  0.00    -0.0389  C
ATOM     46 C34  665 L   1      -6.500  -4.370 -12.678  1.00  0.00    -0.0397  C
ATOM     47 H52  665 L   1      -4.186  -4.701 -11.352  1.00  0.00    +0.0623  H
ATOM     48 H53  665 L   1      -5.416  -8.701 -13.810  1.00  0.00    +0.0626  H
ATOM     49 H55  665 L   1      -6.844  -6.742 -13.891  1.00  0.00    +0.0620  H
ATOM     50 H56  665 L   1      -1.864  -7.565 -11.085  1.00  0.00    +0.0278  H
ATOM     51 H57  665 L   1      -2.621  -6.431  -9.992  1.00  0.00    +0.0278  H
ATOM     52 H58  665 L   1      -1.741  -5.847 -11.384  1.00  0.00    +0.0278  H
ATOM     53 H60  665 L   1      -6.073  -3.592 -12.082  1.00  0.00    +0.0278  H
ATOM     54 H61  665 L   1      -7.469  -4.619 -12.299  1.00  0.00    +0.0278  H
ATOM     55 H62  665 L   1      -6.589  -4.036 -13.690  1.00  0.00    +0.0278  H
ENDBRANCH 38 39
ENDBRANCH 36 38
ENDBRANCH 33 36
ENDBRANCH 26 33
ENDBRANCH 21 23
BRANCH 21 57
ATOM     56  N5  665 L   1     -10.830  -9.762  -9.724  1.00  0.00    -0.3600  N
ATOM     57  C9  665 L   1     -10.196 -11.048 -10.000  1.00  0.00    +0.0921  C
ATOM     58 H36  665 L   1     -11.193  -9.759  -8.771  1.00  0.00    +0.3450 HD
ATOM     59 H37  665 L   1     -11.597  -9.614 -10.380  1.00  0.00    +0.3450 HD
ATOM     60 H38  665 L   1     -10.144  -9.015  -9.830  1.00  0.00    +0.3450 HD
ATOM     61 H40  665 L   1     -10.922 -11.826  -9.881  1.00  0.00    +0.0926  H
ATOM     62 H41  665 L   1      -9.384 -11.172  -9.314  1.00  0.00    +0.0926  H
ENDBRANCH 21 57
ENDBRANCH 19 21
ENDBRANCH 2 18
TORSDOF 8
ENDMDL
