ROOT
ATOM      1 C15  T17 L   1      -2.909   1.474  -0.660  1.00  0.00    +0.0043  A
ATOM      2 C16  T17 L   1      -3.933   2.197  -0.031  1.00  0.00    -0.0524  A
ATOM      3 C17  T17 L   1      -3.662   3.417   0.595  1.00  0.00    -0.0611  A
ATOM      4 C18  T17 L   1      -2.366   3.928   0.592  1.00  0.00    -0.0617  A
ATOM      5 C19  T17 L   1      -1.342   3.225  -0.039  1.00  0.00    -0.0611  A
ATOM      6 C20  T17 L   1      -1.611   2.005  -0.664  1.00  0.00    -0.0524  A
ATOM      7 H35  T17 L   1      -4.952   1.813  -0.025  1.00  0.00    +0.0624  H
ATOM      8 H36  T17 L   1      -4.465   3.967   1.077  1.00  0.00    +0.0618  H
ATOM      9 H37  T17 L   1      -2.157   4.880   1.073  1.00  0.00    +0.0618  H
ATOM     10 H38  T17 L   1      -0.333   3.631  -0.054  1.00  0.00    +0.0618  H
ATOM     11 H39  T17 L   1      -0.799   1.486  -1.168  1.00  0.00    +0.0624  H
ENDROOT
BRANCH 1 13
ATOM     12 C13  T17 L   1      -2.430  -1.008  -1.321  1.00  0.00    +0.0516  A
ATOM     13 C14  T17 L   1      -3.204   0.195  -1.305  1.00  0.00    +0.1213  A
ATOM     14 N21  T17 L   1      -4.340   0.024  -2.004  1.00  0.00    -0.0774 NA
ATOM     15 O22  T17 L   1      -4.311  -1.267  -2.487  1.00  0.00    -0.3587 OA
ATOM     16 C23  T17 L   1      -3.178  -1.888  -2.072  1.00  0.00    +0.1425  A
ATOM     17 C24  T17 L   1      -3.023  -3.296  -2.486  1.00  0.00    -0.0031  C
ATOM     18 H40  T17 L   1      -2.634  -3.904  -1.663  1.00  0.00    +0.0309  H
ATOM     19 H41  T17 L   1      -2.329  -3.371  -3.329  1.00  0.00    +0.0309  H
ATOM     20 H42  T17 L   1      -3.981  -3.726  -2.794  1.00  0.00    +0.0309  H
BRANCH 12 24
ATOM     21  C9  T17 L   1       1.232  -1.970   0.588  1.00  0.00    +0.0820  A
ATOM     22 C10  T17 L   1       1.135  -2.058  -0.803  1.00  0.00    -0.0417  A
ATOM     23 C11  T17 L   1      -0.071  -1.743  -1.432  1.00  0.00    -0.0526  A
ATOM     24 C12  T17 L   1      -1.182  -1.352  -0.672  1.00  0.00    -0.0124  A
ATOM     25 C25  T17 L   1      -1.078  -1.282   0.724  1.00  0.00    -0.0526  A
ATOM     26 C26  T17 L   1       0.126  -1.597   1.358  1.00  0.00    -0.0417  A
ATOM     27 H33  T17 L   1       1.996  -2.352  -1.402  1.00  0.00    +0.0631  H
ATOM     28 H34  T17 L   1      -0.130  -1.793  -2.517  1.00  0.00    +0.0624  H
ATOM     29 H43  T17 L   1      -1.935  -0.989   1.327  1.00  0.00    +0.0624  H
ATOM     30 H44  T17 L   1       0.189  -1.554   2.443  1.00  0.00    +0.0631  H
BRANCH 21 31
ATOM     31  S6  T17 L   1       2.755  -2.394   1.395  1.00  0.00    +0.2478  S
ATOM     32  O7  T17 L   1       2.418  -2.916   2.704  1.00  0.00    -0.2054 OA
ATOM     33  O8  T17 L   1       3.584  -3.154   0.487  1.00  0.00    -0.2054 OA
BRANCH 31 36
ATOM     34  C3  T17 L   1       3.878  -0.016   0.698  1.00  0.00    +0.2138  C
ATOM     35  O4  T17 L   1       3.680  -0.193  -0.494  1.00  0.00    -0.2786 OA
ATOM     36  N5  T17 L   1       3.463  -0.920   1.683  1.00  0.00    -0.1497  N
ATOM     37 H32  T17 L   1       3.589  -0.726   2.670  1.00  0.00    +0.1488 HD
BRANCH 34 39
ATOM     38  C1  T17 L   1       5.024   2.169   0.176  1.00  0.00    -0.0572  C
ATOM     39  C2  T17 L   1       4.567   1.210   1.260  1.00  0.00    +0.0189  C
ATOM     40 H27  T17 L   1       4.175   2.525  -0.417  1.00  0.00    +0.0234  H
ATOM     41 H28  T17 L   1       5.730   1.684  -0.506  1.00  0.00    +0.0234  H
ATOM     42 H29  T17 L   1       5.519   3.039   0.620  1.00  0.00    +0.0234  H
ATOM     43 H30  T17 L   1       3.869   1.721   1.933  1.00  0.00    +0.0353  H
ATOM     44 H31  T17 L   1       5.432   0.882   1.848  1.00  0.00    +0.0353  H
ENDBRANCH 34 39
ENDBRANCH 31 36
ENDBRANCH 21 31
ENDBRANCH 12 24
ENDBRANCH 1 13
TORSDOF 5
