ROOT
ATOM      1 C29  WH0 L   1      -1.995  -0.630  -0.493  1.00  0.00    -0.0134  C
ATOM      2 C30  WH0 L   1      -2.641  -1.040  -1.681  1.00  0.00    -0.0524  C
ATOM      3 C31  WH0 L   1      -4.027  -0.880  -1.824  1.00  0.00    -0.0427  C
ATOM      4 C32  WH0 L   1      -4.745  -0.333  -0.762  1.00  0.00    +0.0257  C
ATOM      5 C33  WH0 L   1      -4.129   0.030   0.415  1.00  0.00    -0.0202  C
ATOM      6 C34  WH0 L   1      -2.752  -0.116   0.579  1.00  0.00    -0.0488  C
ATOM      7 C35  WH0 L   1      -5.127   0.568   1.386  1.00  0.00    +0.0478  C
ATOM      8 C36  WH0 L   1      -6.376   0.460   0.558  1.00  0.00    +0.2093  C
ATOM      9 O37  WH0 L   1      -7.520   0.810   0.947  1.00  0.00    -0.2788 OA
ATOM     10 N38  WH0 L   1      -6.136  -0.081  -0.734  1.00  0.00    -0.2279  N
ATOM     11 H60  WH0 L   1      -2.065  -1.459  -2.499  1.00  0.00    +0.0624  H
ATOM     12 H61  WH0 L   1      -4.528  -1.166  -2.738  1.00  0.00    +0.0634  H
ATOM     13 H62  WH0 L   1      -2.276   0.190   1.500  1.00  0.00    +0.0627  H
ATOM     14 H63  WH0 L   1      -4.907   1.625   1.643  1.00  0.00    +0.0405  H
ATOM     15 H64  WH0 L   1      -5.185  -0.080   2.284  1.00  0.00    +0.0405  H
ATOM     16 H65  WH0 L   1      -6.840  -0.290  -1.477  1.00  0.00    +0.1363 HD
ENDROOT
BRANCH 1 24
ATOM     17  C8  WH0 L   1       0.476   1.138  -1.700  1.00  0.00    -0.0018  A
ATOM     18  C9  WH0 L   1       1.731   1.696  -2.013  1.00  0.00    +0.0362  A
ATOM     19 N10  WH0 L   1       2.881   1.133  -1.548  1.00  0.00    -0.2253 NA
ATOM     20 C11  WH0 L   1       2.865   0.023  -0.762  1.00  0.00    +0.2061  A
ATOM     21 N18  WH0 L   1       1.660  -0.518  -0.440  1.00  0.00    -0.2030  N
ATOM     22 N19  WH0 L   1       1.450  -1.488   0.430  1.00  0.00    -0.1631 NA
ATOM     23 C20  WH0 L   1       0.116  -1.681   0.505  1.00  0.00    +0.1015  A
ATOM     24 C28  WH0 L   1      -0.538  -0.790  -0.350  1.00  0.00    +0.0356  A
ATOM     25 C39  WH0 L   1       0.492  -0.032  -0.906  1.00  0.00    +0.0831  A
ATOM     26 H47  WH0 L   1       1.795   2.599  -2.606  1.00  0.00    +0.0834  H
BRANCH 17 27
ATOM     27  C7  WH0 L   1      -0.771   1.897  -2.095  1.00  0.00    -0.0112  C
ATOM     28 H45  WH0 L   1      -1.571   1.207  -2.415  1.00  0.00    +0.0327  H
ATOM     29 H46  WH0 L   1      -0.563   2.528  -2.987  1.00  0.00    +0.0327  H
BRANCH 27 30
ATOM     30  C6  WH0 L   1      -1.275   2.786  -0.950  1.00  0.00    +0.0073  C
ATOM     31 H43  WH0 L   1      -2.242   3.260  -1.232  1.00  0.00    +0.0432  H
ATOM     32 H44  WH0 L   1      -1.471   2.166  -0.054  1.00  0.00    +0.0432  H
BRANCH 30 35
ATOM     33  O1  WH0 L   1      -0.760   5.180  -2.428  1.00  0.00    -0.2783 OA
ATOM     34  C2  WH0 L   1      -0.067   4.978  -1.388  1.00  0.00    +0.2153  C
ATOM     35  N5  WH0 L   1      -0.292   3.809  -0.598  1.00  0.00    -0.2570  N
ATOM     36 H42  WH0 L   1       0.213   3.712   0.306  1.00  0.00    +0.1304 HD
BRANCH 34 37
ATOM     37  C3  WH0 L   1       0.943   5.990  -0.953  1.00  0.00    +0.0958  C
ATOM     38 CL4  WH0 L   1       0.182   7.154   0.163  1.00  0.00    -0.1159 Cl
ATOM     39 H40  WH0 L   1       1.343   6.544  -1.832  1.00  0.00    +0.0522  H
ATOM     40 H41  WH0 L   1       1.780   5.482  -0.437  1.00  0.00    +0.0522  H
ENDBRANCH 34 37
ENDBRANCH 30 35
ENDBRANCH 27 30
ENDBRANCH 17 27
BRANCH 20 41
ATOM     41 N12  WH0 L   1       4.103  -0.531  -0.275  1.00  0.00    -0.2382  N
ATOM     42 C13  WH0 L   1       5.212   0.405  -0.022  1.00  0.00    +0.0299  C
ATOM     43 C14  WH0 L   1       6.334  -0.277   0.773  1.00  0.00    +0.0609  C
ATOM     44 O15  WH0 L   1       6.699  -1.491   0.146  1.00  0.00    -0.3772 OA
ATOM     45 C16  WH0 L   1       5.629  -2.410   0.277  1.00  0.00    +0.0609  C
ATOM     46 C17  WH0 L   1       4.416  -1.952  -0.551  1.00  0.00    +0.0299  C
ATOM     47 H48  WH0 L   1       5.626   0.750  -1.000  1.00  0.00    +0.0454  H
ATOM     48 H49  WH0 L   1       4.840   1.286   0.552  1.00  0.00    +0.0454  H
ATOM     49 H50  WH0 L   1       6.032  -0.441   1.844  1.00  0.00    +0.0573  H
ATOM     50 H51  WH0 L   1       7.223   0.396   0.787  1.00  0.00    +0.0573  H
ATOM     51 H52  WH0 L   1       5.333  -2.540   1.352  1.00  0.00    +0.0573  H
ATOM     52 H53  WH0 L   1       5.969  -3.412  -0.069  1.00  0.00    +0.0573  H
ATOM     53 H54  WH0 L   1       3.557  -2.611  -0.280  1.00  0.00    +0.0454  H
ATOM     54 H55  WH0 L   1       4.639  -2.077  -1.644  1.00  0.00    +0.0454  H
ENDBRANCH 20 41
BRANCH 23 55
ATOM     55 C21  WH0 L   1      -0.504  -2.649   1.437  1.00  0.00    +0.0029  A
ATOM     56 C22  WH0 L   1       0.079  -2.878   2.702  1.00  0.00    -0.0498  A
ATOM     57 C23  WH0 L   1      -0.491  -3.798   3.591  1.00  0.00    -0.0258  A
ATOM     58 C24  WH0 L   1      -1.630  -4.515   3.215  1.00  0.00    +0.1234  A
ATOM     59 F25  WH0 L   1      -2.173  -5.424   4.061  1.00  0.00    -0.2055  F
ATOM     60 C26  WH0 L   1      -2.195  -4.318   1.951  1.00  0.00    -0.0258  A
ATOM     61 C27  WH0 L   1      -1.631  -3.398   1.057  1.00  0.00    -0.0498  A
ATOM     62 H56  WH0 L   1       0.966  -2.334   3.008  1.00  0.00    +0.0625  H
ATOM     63 H57  WH0 L   1      -0.052  -3.954   4.571  1.00  0.00    +0.0646  H
ATOM     64 H58  WH0 L   1      -3.050  -4.902   1.639  1.00  0.00    +0.0646  H
ATOM     65 H59  WH0 L   1      -2.059  -3.307   0.062  1.00  0.00    +0.0625  H
ENDBRANCH 23 55
ENDBRANCH 1 24
TORSDOF 7
