ROOT
ATOM      1  C7  722 L   1      -1.229  -0.269  -0.230  1.00  0.00    +0.0678  C
ATOM      2  C8  722 L   1      -1.113   0.769  -1.366  1.00  0.00    -0.0280  C
ATOM      3  C9  722 L   1      -0.043   1.818  -1.079  1.00  0.00    -0.0378  C
ATOM      4 C10  722 L   1       1.293   1.151  -0.757  1.00  0.00    +0.0066  C
ATOM      5 N11  722 L   1       1.192   0.101   0.256  1.00  0.00    -0.2385  N
ATOM      6 C12  722 L   1       2.278  -0.420   0.948  1.00  0.00    +0.2322  C
ATOM      7 O13  722 L   1       2.139  -1.070   1.985  1.00  0.00    -0.2740 OA
ATOM      8 C19  722 L   1      -0.139  -0.111   0.840  1.00  0.00    +0.0290  C
ATOM      9 H27  722 L   1      -1.106  -1.256  -0.692  1.00  0.00    +0.0558  H
ATOM     10 H28  722 L   1      -2.069   1.262  -1.578  1.00  0.00    +0.0287  H
ATOM     11 H29  722 L   1      -0.839   0.241  -2.290  1.00  0.00    +0.0287  H
ATOM     12 H30  722 L   1       0.074   2.481  -1.943  1.00  0.00    +0.0278  H
ATOM     13 H31  722 L   1      -0.361   2.446  -0.237  1.00  0.00    +0.0278  H
ATOM     14 H32  722 L   1       1.678   0.685  -1.670  1.00  0.00    +0.0431  H
ATOM     15 H33  722 L   1       2.012   1.905  -0.421  1.00  0.00    +0.0431  H
ATOM     16 H39  722 L   1      -0.141  -1.000   1.483  1.00  0.00    +0.0452  H
ATOM     17 H40  722 L   1      -0.335   0.744   1.501  1.00  0.00    +0.0452  H
ENDROOT
BRANCH 1 23
ATOM     18  C1  722 L   1      -5.174   1.374   2.057  1.00  0.00    -0.0028  C
ATOM     19  C2  722 L   1      -4.228   0.467   1.379  1.00  0.00    +0.1482  A
ATOM     20  N3  722 L   1      -4.495  -0.860   1.180  1.00  0.00    -0.2166 NA
ATOM     21  C4  722 L   1      -3.419  -1.306   0.564  1.00  0.00    +0.1252  A
ATOM     22  C5  722 L   1      -3.170  -2.698   0.126  1.00  0.00    -0.0048  C
ATOM     23  N6  722 L   1      -2.545  -0.264   0.393  1.00  0.00    -0.2449  N
ATOM     24 N20  722 L   1      -3.043   0.875   0.915  1.00  0.00    -0.1547 NA
ATOM     25 H21  722 L   1      -6.084   0.842   2.350  1.00  0.00    +0.0309  H
ATOM     26 H22  722 L   1      -5.461   2.196   1.393  1.00  0.00    +0.0309  H
ATOM     27 H23  722 L   1      -4.722   1.797   2.959  1.00  0.00    +0.0309  H
ATOM     28 H24  722 L   1      -4.001  -3.346   0.419  1.00  0.00    +0.0308  H
ATOM     29 H25  722 L   1      -2.257  -3.092   0.584  1.00  0.00    +0.0308  H
ATOM     30 H26  722 L   1      -3.070  -2.749  -0.963  1.00  0.00    +0.0308  H
ENDBRANCH 1 23
BRANCH 6 31
ATOM     31 C14  722 L   1       3.640  -0.234   0.413  1.00  0.00    +0.0359  C
ATOM     32 C15  722 L   1       4.712  -0.273   1.202  1.00  0.00    +0.0478  C
ATOM     33 O16  722 L   1       5.936  -0.192   0.571  1.00  0.00    -0.3515 OA
ATOM     34 C17  722 L   1       5.594  -0.405  -0.814  1.00  0.00    +0.0577  C
ATOM     35 C18  722 L   1       4.103  -0.119  -0.984  1.00  0.00    +0.0028  C
ATOM     36 H34  722 L   1       4.754  -0.354   2.276  1.00  0.00    +0.0889  H
ATOM     37 H35  722 L   1       5.830  -1.447  -1.068  1.00  0.00    +0.0568  H
ATOM     38 H36  722 L   1       6.209   0.247  -1.443  1.00  0.00    +0.0568  H
ATOM     39 H37  722 L   1       3.967   0.896  -1.370  1.00  0.00    +0.0338  H
ATOM     40 H38  722 L   1       3.636  -0.834  -1.667  1.00  0.00    +0.0338  H
ENDBRANCH 6 31
TORSDOF 2
