ROOT
ATOM      1  C9  170 L   1      -3.204  -0.408  -0.575  1.00  0.00    +0.0569  A
ATOM      2 C10  170 L   1      -3.616  -0.048  -1.869  1.00  0.00    -0.0228  A
ATOM      3 C11  170 L   1      -4.968   0.127  -2.157  1.00  0.00    +0.0292  A
ATOM      4 N12  170 L   1      -5.958  -0.027  -1.251  1.00  0.00    -0.2603 NA
ATOM      5 C13  170 L   1      -5.562  -0.364  -0.001  1.00  0.00    +0.0643  A
ATOM      6 C14  170 L   1      -4.238  -0.557   0.371  1.00  0.00    +0.1593  A
ATOM      7 F15  170 L   1      -3.979  -0.886   1.651  1.00  0.00    -0.2022  F
ATOM      8 H30  170 L   1      -2.901   0.076  -2.681  1.00  0.00    +0.0649  H
ATOM      9 H31  170 L   1      -5.293   0.383  -3.161  1.00  0.00    +0.0830  H
ATOM     10 H32  170 L   1      -6.356  -0.494   0.730  1.00  0.00    +0.0859  H
ENDROOT
BRANCH 1 13
ATOM     11  C6  170 L   1       0.495  -0.517  -0.337  1.00  0.00    +0.0048  C
ATOM     12  C7  170 L   1      -0.762  -0.390  -1.207  1.00  0.00    +0.0094  C
ATOM     13  N8  170 L   1      -1.871  -0.595  -0.272  1.00  0.00    -0.2689  N
ATOM     14 C16  170 L   1      -1.406  -1.231   0.962  1.00  0.00    +0.0301  C
ATOM     15 C17  170 L   1       0.063  -1.594   0.671  1.00  0.00    +0.0726  C
ATOM     16 O18  170 L   1       0.881  -1.619   1.833  1.00  0.00    -0.3902 OA
ATOM     17 H27  170 L   1       1.332  -0.882  -0.951  1.00  0.00    +0.0342  H
ATOM     18 H28  170 L   1      -0.774  -1.182  -1.967  1.00  0.00    +0.0434  H
ATOM     19 H29  170 L   1      -0.812   0.577  -1.715  1.00  0.00    +0.0434  H
ATOM     20 H33  170 L   1      -1.961  -2.146   1.196  1.00  0.00    +0.0456  H
ATOM     21 H34  170 L   1      -1.484  -0.545   1.813  1.00  0.00    +0.0456  H
ATOM     22 H35  170 L   1       0.112  -2.580   0.197  1.00  0.00    +0.0609  H
ATOM     23 H36  170 L   1       0.531  -2.315   2.425  1.00  0.00    +0.2098 HD
BRANCH 11 24
ATOM     24  C5  170 L   1       0.868   0.831   0.323  1.00  0.00    -0.0023  C
ATOM     25 H25  170 L   1       0.580   0.859   1.382  1.00  0.00    +0.0333  H
ATOM     26 H26  170 L   1       0.327   1.661  -0.147  1.00  0.00    +0.0333  H
BRANCH 24 30
ATOM     27  C1  170 L   1       5.931   1.159   0.980  1.00  0.00    -0.0229  C
ATOM     28  C2  170 L   1       4.521   1.213   0.544  1.00  0.00    +0.0332  A
ATOM     29  C3  170 L   1       3.371   0.668   1.069  1.00  0.00    -0.0183  A
ATOM     30  C4  170 L   1       2.330   1.113   0.215  1.00  0.00    +0.0634  A
ATOM     31 N19  170 L   1       2.799   1.869  -0.789  1.00  0.00    -0.1787 NA
ATOM     32 N20  170 L   1       4.122   1.913  -0.564  1.00  0.00    -0.2816  N
ATOM     33 H21  170 L   1       6.093   0.336   1.686  1.00  0.00    +0.0292  H
ATOM     34 H22  170 L   1       6.603   1.015   0.126  1.00  0.00    +0.0292  H
ATOM     35 H23  170 L   1       6.208   2.102   1.472  1.00  0.00    +0.0292  H
ATOM     36 H24  170 L   1       3.280   0.045   1.951  1.00  0.00    +0.0654  H
ATOM     37 H37  170 L   1       4.697   2.432  -1.226  1.00  0.00    +0.1885 HD
ENDBRANCH 24 30
ENDBRANCH 11 24
ENDBRANCH 1 13
TORSDOF 3
