ROOT
ATOM      1  C3  CHE L   1      -2.300   2.701   0.579  1.00  0.00    +0.0919  A
ATOM      2  C4  CHE L   1      -0.959   2.356   0.395  1.00  0.00    -0.0183  A
ATOM      3  C5  CHE L   1      -0.547   0.996   0.339  1.00  0.00    +0.0395  A
ATOM      4  C6  CHE L   1       0.781   0.559   0.162  1.00  0.00    +0.1182  A
ATOM      5 N17  CHE L   1       1.086  -0.741   0.064  1.00  0.00    -0.2199 NA
ATOM      6 C18  CHE L   1       0.088  -1.632   0.175  1.00  0.00    +0.1345  A
ATOM      7 N25  CHE L   1      -1.198  -1.311   0.379  1.00  0.00    -0.2316 NA
ATOM      8 C26  CHE L   1      -1.505  -0.016   0.451  1.00  0.00    +0.0774  A
ATOM      9 C27  CHE L   1      -2.832   0.335   0.641  1.00  0.00    -0.0177  A
ATOM     10 C28  CHE L   1      -3.240   1.672   0.711  1.00  0.00    +0.0569  A
ATOM     11 H38  CHE L   1      -0.202   3.124   0.276  1.00  0.00    +0.0651  H
ATOM     12 H67  CHE L   1      -3.571  -0.460   0.733  1.00  0.00    +0.0652  H
ENDROOT
BRANCH 1 14
ATOM     13  C1  CHE L   1      -1.859   5.040   0.385  1.00  0.00    +0.0431  C
ATOM     14  O2  CHE L   1      -2.774   3.984   0.647  1.00  0.00    -0.3467 OA
ATOM     15 H35  CHE L   1      -1.427   4.950  -0.617  1.00  0.00    +0.0529  H
ATOM     16 H36  CHE L   1      -2.415   5.981   0.426  1.00  0.00    +0.0529  H
ATOM     17 H37  CHE L   1      -1.078   5.083   1.153  1.00  0.00    +0.0529  H
ENDBRANCH 1 14
BRANCH 4 18
ATOM     18  N7  CHE L   1       1.805   1.510   0.064  1.00  0.00    -0.2689  N
ATOM     19 H39  CHE L   1       1.761   2.119   0.878  1.00  0.00    +0.1294 HD
BRANCH 18 20
ATOM     20  C8  CHE L   1       3.198   1.126  -0.231  1.00  0.00    +0.0157  C
ATOM     21  C9  CHE L   1       3.892   0.375   0.914  1.00  0.00    -0.0243  C
ATOM     22 C10  CHE L   1       4.278  -1.071   0.599  1.00  0.00    +0.0006  C
ATOM     23 N11  CHE L   1       4.835  -1.271  -0.748  1.00  0.00    -0.2998 NA
ATOM     24 C15  CHE L   1       3.789  -0.897  -1.713  1.00  0.00    +0.0006  C
ATOM     25 C16  CHE L   1       3.389   0.575  -1.651  1.00  0.00    -0.0243  C
ATOM     26 H40  CHE L   1       3.697   2.106  -0.256  1.00  0.00    +0.0465  H
ATOM     27 H41  CHE L   1       3.284   0.397   1.829  1.00  0.00    +0.0293  H
ATOM     28 H42  CHE L   1       4.814   0.920   1.166  1.00  0.00    +0.0293  H
ATOM     29 H43  CHE L   1       3.398  -1.716   0.714  1.00  0.00    +0.0427  H
ATOM     30 H44  CHE L   1       4.965  -1.440   1.368  1.00  0.00    +0.0427  H
ATOM     31 H52  CHE L   1       2.908  -1.524  -1.539  1.00  0.00    +0.0427  H
ATOM     32 H53  CHE L   1       4.084  -1.158  -2.734  1.00  0.00    +0.0427  H
ATOM     33 H54  CHE L   1       4.179   1.162  -2.141  1.00  0.00    +0.0293  H
ATOM     34 H55  CHE L   1       2.491   0.730  -2.263  1.00  0.00    +0.0293  H
BRANCH 23 35
ATOM     35 C12  CHE L   1       6.155  -0.639  -0.973  1.00  0.00    +0.0048  C
ATOM     36 C13  CHE L   1       7.219  -1.218  -0.026  1.00  0.00    -0.0497  C
ATOM     37 C14  CHE L   1       6.662  -0.839  -2.412  1.00  0.00    -0.0497  C
ATOM     38 H45  CHE L   1       6.101   0.442  -0.793  1.00  0.00    +0.0457  H
ATOM     39 H46  CHE L   1       8.215  -0.835  -0.275  1.00  0.00    +0.0245  H
ATOM     40 H47  CHE L   1       7.031  -0.946   1.019  1.00  0.00    +0.0245  H
ATOM     41 H48  CHE L   1       7.258  -2.312  -0.094  1.00  0.00    +0.0245  H
ATOM     42 H49  CHE L   1       6.058  -0.282  -3.137  1.00  0.00    +0.0245  H
ATOM     43 H50  CHE L   1       7.689  -0.475  -2.520  1.00  0.00    +0.0245  H
ATOM     44 H51  CHE L   1       6.653  -1.897  -2.694  1.00  0.00    +0.0245  H
ENDBRANCH 23 35
ENDBRANCH 18 20
ENDBRANCH 4 18
BRANCH 6 45
ATOM     45 C19  CHE L   1       0.445  -3.101   0.068  1.00  0.00    +0.0190  C
ATOM     46 C20  CHE L   1      -0.164  -3.714  -1.209  1.00  0.00    -0.0433  C
ATOM     47 C21  CHE L   1      -0.341  -5.222  -1.074  1.00  0.00    -0.0524  C
ATOM     48 C22  CHE L   1      -1.303  -5.580   0.062  1.00  0.00    -0.0530  C
ATOM     49 C23  CHE L   1      -1.279  -4.586   1.224  1.00  0.00    -0.0524  C
ATOM     50 C24  CHE L   1       0.067  -3.874   1.348  1.00  0.00    -0.0433  C
ATOM     51 H56  CHE L   1       1.539  -3.164  -0.023  1.00  0.00    +0.0379  H
ATOM     52 H57  CHE L   1      -1.138  -3.267  -1.444  1.00  0.00    +0.0272  H
ATOM     53 H58  CHE L   1       0.488  -3.492  -2.062  1.00  0.00    +0.0272  H
ATOM     54 H59  CHE L   1      -0.707  -5.648  -2.015  1.00  0.00    +0.0265  H
ATOM     55 H60  CHE L   1       0.635  -5.684  -0.880  1.00  0.00    +0.0265  H
ATOM     56 H61  CHE L   1      -2.327  -5.640  -0.327  1.00  0.00    +0.0265  H
ATOM     57 H62  CHE L   1      -1.054  -6.584   0.427  1.00  0.00    +0.0265  H
ATOM     58 H63  CHE L   1      -2.072  -3.842   1.082  1.00  0.00    +0.0265  H
ATOM     59 H64  CHE L   1      -1.515  -5.108   2.159  1.00  0.00    +0.0265  H
ATOM     60 H65  CHE L   1       0.064  -3.213   2.225  1.00  0.00    +0.0272  H
ATOM     61 H66  CHE L   1       0.838  -4.633   1.543  1.00  0.00    +0.0272  H
ENDBRANCH 6 45
BRANCH 10 62
ATOM     62 C29  CHE L   1      -4.634   1.948   0.905  1.00  0.00    -0.0624  C
ATOM     63 C30  CHE L   1      -5.804   2.176   1.053  1.00  0.00    -0.0814  C
BRANCH 63 64
ATOM     64 C31  CHE L   1      -7.237   2.460   1.221  1.00  0.00    +0.0608  C
ATOM     65 H68  CHE L   1      -7.821   1.694   0.696  1.00  0.00    +0.0563  H
ATOM     66 H69  CHE L   1      -7.507   2.355   2.279  1.00  0.00    +0.0563  H
BRANCH 64 67
ATOM     67 N32  CHE L   1      -7.661   3.787   0.749  1.00  0.00    -0.2977 NA
ATOM     68 C33  CHE L   1      -7.033   4.870   1.501  1.00  0.00    -0.0122  C
ATOM     69 C34  CHE L   1      -7.454   3.957  -0.688  1.00  0.00    -0.0122  C
ATOM     70 H70  CHE L   1      -5.949   4.924   1.347  1.00  0.00    +0.0391  H
ATOM     71 H71  CHE L   1      -7.463   5.835   1.207  1.00  0.00    +0.0391  H
ATOM     72 H72  CHE L   1      -7.224   4.759   2.574  1.00  0.00    +0.0391  H
ATOM     73 H73  CHE L   1      -7.913   4.891  -1.029  1.00  0.00    +0.0391  H
ATOM     74 H74  CHE L   1      -7.939   3.151  -1.248  1.00  0.00    +0.0391  H
ATOM     75 H75  CHE L   1      -6.394   3.983  -0.965  1.00  0.00    +0.0391  H
ENDBRANCH 64 67
ENDBRANCH 63 64
ENDBRANCH 10 62
TORSDOF 8
