ROOT
ATOM      1 C12  T19 L   1      -0.422  -0.695   0.200  1.00  0.00    +0.0421  C
ATOM      2 C13  T19 L   1      -1.120  -1.887   0.421  1.00  0.00    -0.0220  C
ATOM      3 C14  T19 L   1      -2.480  -1.871   0.199  1.00  0.00    +0.0459  C
ATOM      4 C15  T19 L   1      -3.148  -0.722  -0.224  1.00  0.00    +0.0459  C
ATOM      5 C16  T19 L   1      -2.487   0.468  -0.447  1.00  0.00    -0.0222  C
ATOM      6 C17  T19 L   1      -1.098   0.495  -0.243  1.00  0.00    +0.0383  C
ATOM      7 N23  T19 L   1      -4.509  -1.034  -0.344  1.00  0.00    -0.2018  N
ATOM      8 C24  T19 L   1      -5.538  -0.125  -0.754  1.00  0.00    +0.0009  C
ATOM      9 C25  T19 L   1      -4.703  -2.391  -0.000  1.00  0.00    +0.2864  C
ATOM     10 O26  T19 L   1      -5.761  -3.000   0.006  1.00  0.00    -0.2596 OA
ATOM     11 N27  T19 L   1      -3.428  -2.894   0.334  1.00  0.00    -0.2018  N
ATOM     12 C28  T19 L   1      -3.140  -4.235   0.753  1.00  0.00    +0.0009  C
ATOM     13 H37  T19 L   1      -0.631  -2.793   0.749  1.00  0.00    +0.0650  H
ATOM     14 H38  T19 L   1      -3.035   1.351  -0.746  1.00  0.00    +0.0650  H
ATOM     15 H47  T19 L   1      -5.580   0.713  -0.052  1.00  0.00    +0.0400  H
ATOM     16 H48  T19 L   1      -5.314   0.246  -1.758  1.00  0.00    +0.0400  H
ATOM     17 H49  T19 L   1      -6.509  -0.627  -0.768  1.00  0.00    +0.0400  H
ATOM     18 H50  T19 L   1      -2.712  -4.216   1.760  1.00  0.00    +0.0400  H
ATOM     19 H51  T19 L   1      -2.428  -4.688   0.057  1.00  0.00    +0.0400  H
ATOM     20 H52  T19 L   1      -4.055  -4.834   0.767  1.00  0.00    +0.0400  H
ENDROOT
BRANCH 1 23
ATOM     21  C9  T19 L   1       1.883  -1.517   0.790  1.00  0.00    +0.2383  C
ATOM     22 O10  T19 L   1       1.616  -2.676   1.098  1.00  0.00    -0.2735 OA
ATOM     23 N11  T19 L   1       0.974  -0.572   0.375  1.00  0.00    -0.2228  N
ATOM     24 H36  T19 L   1       1.318   0.359   0.138  1.00  0.00    +0.1367 HD
BRANCH 21 30
ATOM     25  C3  T19 L   1       3.823   0.094   0.288  1.00  0.00    +0.0876  A
ATOM     26  C4  T19 L   1       5.162   0.461   0.471  1.00  0.00    -0.0310  A
ATOM     27  C5  T19 L   1       6.016  -0.351   1.216  1.00  0.00    -0.0593  A
ATOM     28  C6  T19 L   1       5.531  -1.523   1.790  1.00  0.00    -0.0609  A
ATOM     29  C7  T19 L   1       4.189  -1.876   1.630  1.00  0.00    -0.0474  A
ATOM     30  C8  T19 L   1       3.310  -1.066   0.889  1.00  0.00    +0.0636  A
ATOM     31 H32  T19 L   1       5.541   1.381   0.035  1.00  0.00    +0.0643  H
ATOM     32 H33  T19 L   1       7.057  -0.068   1.352  1.00  0.00    +0.0618  H
ATOM     33 H34  T19 L   1       6.193  -2.160   2.373  1.00  0.00    +0.0618  H
ATOM     34 H35  T19 L   1       3.825  -2.790   2.098  1.00  0.00    +0.0626  H
BRANCH 25 36
ATOM     35  C1  T19 L   1       3.232   0.725  -1.843  1.00  0.00    +0.0431  C
ATOM     36  O2  T19 L   1       3.027   0.939  -0.444  1.00  0.00    -0.3472 OA
ATOM     37 H29  T19 L   1       3.103  -0.330  -2.110  1.00  0.00    +0.0529  H
ATOM     38 H30  T19 L   1       4.221   1.080  -2.152  1.00  0.00    +0.0529  H
ATOM     39 H31  T19 L   1       2.480   1.306  -2.384  1.00  0.00    +0.0529  H
ENDBRANCH 25 36
ENDBRANCH 21 30
ENDBRANCH 1 23
BRANCH 6 40
ATOM     40 N18  T19 L   1      -0.334   1.666  -0.413  1.00  0.00    -0.2728  N
ATOM     41 C19  T19 L   1      -0.275   2.521   0.790  1.00  0.00    +0.0038  C
ATOM     42 C20  T19 L   1      -0.463   3.946   0.270  1.00  0.00    -0.0387  C
ATOM     43 C21  T19 L   1      -0.017   3.856  -1.180  1.00  0.00    -0.0387  C
ATOM     44 C22  T19 L   1      -0.572   2.499  -1.597  1.00  0.00    +0.0038  C
ATOM     45 H39  T19 L   1      -1.037   2.282   1.542  1.00  0.00    +0.0430  H
ATOM     46 H40  T19 L   1       0.712   2.413   1.253  1.00  0.00    +0.0430  H
ATOM     47 H41  T19 L   1      -1.522   4.224   0.318  1.00  0.00    +0.0278  H
ATOM     48 H42  T19 L   1       0.108   4.680   0.846  1.00  0.00    +0.0278  H
ATOM     49 H43  T19 L   1      -0.401   4.674  -1.795  1.00  0.00    +0.0278  H
ATOM     50 H44  T19 L   1       1.078   3.857  -1.240  1.00  0.00    +0.0278  H
ATOM     51 H45  T19 L   1      -0.046   2.102  -2.472  1.00  0.00    +0.0430  H
ATOM     52 H46  T19 L   1      -1.634   2.604  -1.843  1.00  0.00    +0.0430  H
ENDBRANCH 6 40
TORSDOF 4
