ROOT
ATOM      1  C5  721 L   1       3.315  -1.137  -0.316  1.00  0.00    +0.0079  C
ATOM      2  C6  721 L   1       3.380  -2.174  -1.444  1.00  0.00    +0.0529  C
ATOM      3  O7  721 L   1       2.126  -2.475  -2.043  1.00  0.00    -0.3781 OA
ATOM      4  C8  721 L   1       1.327  -3.329  -1.226  1.00  0.00    +0.0604  C
ATOM      5  C9  721 L   1       0.393  -2.562  -0.278  1.00  0.00    +0.0227  C
ATOM      6 N10  721 L   1       0.944  -1.426   0.479  1.00  0.00    -0.2941 NA
ATOM      7 C21  721 L   1       2.361  -1.541   0.828  1.00  0.00    +0.0054  C
ATOM      8 H30  721 L   1       4.328  -1.105   0.107  1.00  0.00    +0.0348  H
ATOM      9 H31  721 L   1       4.030  -1.799  -2.244  1.00  0.00    +0.0563  H
ATOM     10 H32  721 L   1       3.855  -3.097  -1.087  1.00  0.00    +0.0563  H
ATOM     11 H33  721 L   1       1.951  -4.042  -0.670  1.00  0.00    +0.0572  H
ATOM     12 H34  721 L   1       0.709  -3.928  -1.904  1.00  0.00    +0.0572  H
ATOM     13 H35  721 L   1      -0.040  -3.307   0.403  1.00  0.00    +0.0449  H
ATOM     14 H36  721 L   1      -0.431  -2.173  -0.889  1.00  0.00    +0.0449  H
ATOM     15 H50  721 L   1       2.593  -0.874   1.669  1.00  0.00    +0.0430  H
ATOM     16 H51  721 L   1       2.596  -2.550   1.193  1.00  0.00    +0.0430  H
ENDROOT
BRANCH 1 17
ATOM     17  C4  721 L   1       2.994   0.264  -0.896  1.00  0.00    +0.0044  C
ATOM     18 H28  721 L   1       1.981   0.236  -1.319  1.00  0.00    +0.0430  H
ATOM     19 H29  721 L   1       3.662   0.478  -1.741  1.00  0.00    +0.0430  H
BRANCH 17 21
ATOM     20  C1  721 L   1       4.470   1.675   0.442  1.00  0.00    -0.0130  C
ATOM     21  N2  721 L   1       3.083   1.363   0.093  1.00  0.00    -0.3080 NA
ATOM     22  C3  721 L   1       2.424   2.560  -0.434  1.00  0.00    -0.0130  C
ATOM     23 H22  721 L   1       4.507   2.503   1.160  1.00  0.00    +0.0391  H
ATOM     24 H23  721 L   1       5.064   1.956  -0.434  1.00  0.00    +0.0391  H
ATOM     25 H24  721 L   1       4.956   0.828   0.935  1.00  0.00    +0.0391  H
ATOM     26 H25  721 L   1       1.367   2.359  -0.643  1.00  0.00    +0.0391  H
ATOM     27 H26  721 L   1       2.444   3.369   0.306  1.00  0.00    +0.0391  H
ATOM     28 H27  721 L   1       2.897   2.920  -1.354  1.00  0.00    +0.0391  H
ENDBRANCH 17 21
ENDBRANCH 1 17
BRANCH 6 29
ATOM     29 C11  721 L   1       0.124  -1.117   1.668  1.00  0.00    +0.0430  C
ATOM     30 H37  721 L   1       0.089  -1.974   2.353  1.00  0.00    +0.0492  H
ATOM     31 H38  721 L   1       0.568  -0.281   2.225  1.00  0.00    +0.0492  H
BRANCH 29 32
ATOM     32 C12  721 L   1      -1.262  -0.679   1.284  1.00  0.00    +0.0770  A
ATOM     33 C13  721 L   1      -1.625   0.452   0.513  1.00  0.00    -0.0163  A
ATOM     34 C14  721 L   1      -3.003   0.429   0.438  1.00  0.00    +0.0417  A
ATOM     35 N19  721 L   1      -3.371  -0.684   1.151  1.00  0.00    -0.2808  N
ATOM     36 N20  721 L   1      -2.343  -1.370   1.672  1.00  0.00    -0.1773 NA
ATOM     37 H39  721 L   1      -0.949   1.171   0.072  1.00  0.00    +0.0654  H
ATOM     38 H49  721 L   1      -4.308  -1.030   1.322  1.00  0.00    +0.1885 HD
BRANCH 34 39
ATOM     39 C15  721 L   1      -4.009   1.342  -0.226  1.00  0.00    +0.0039  C
ATOM     40 C16  721 L   1      -4.881   0.541  -1.213  1.00  0.00    -0.0546  C
ATOM     41 C17  721 L   1      -4.909   1.990   0.843  1.00  0.00    -0.0546  C
ATOM     42 C18  721 L   1      -3.302   2.465  -1.010  1.00  0.00    -0.0546  C
ATOM     43 H40  721 L   1      -5.457  -0.240  -0.704  1.00  0.00    +0.0239  H
ATOM     44 H41  721 L   1      -4.267   0.051  -1.978  1.00  0.00    +0.0239  H
ATOM     45 H42  721 L   1      -5.598   1.193  -1.726  1.00  0.00    +0.0239  H
ATOM     46 H43  721 L   1      -5.482   1.239   1.399  1.00  0.00    +0.0239  H
ATOM     47 H44  721 L   1      -4.315   2.556   1.571  1.00  0.00    +0.0239  H
ATOM     48 H45  721 L   1      -5.628   2.682   0.390  1.00  0.00    +0.0239  H
ATOM     49 H46  721 L   1      -4.028   3.128  -1.495  1.00  0.00    +0.0239  H
ATOM     50 H47  721 L   1      -2.652   2.060  -1.795  1.00  0.00    +0.0239  H
ATOM     51 H48  721 L   1      -2.680   3.085  -0.353  1.00  0.00    +0.0239  H
ENDBRANCH 34 39
ENDBRANCH 29 32
ENDBRANCH 6 29
TORSDOF 5
