ROOT
ATOM      1  N4  LIG L   1      -3.533   3.557 -10.492  1.00  0.00    -0.1884  N
ATOM      2  C5  LIG L   1      -2.382   3.765 -11.186  1.00  0.00    +0.2904  C
ATOM      3  O6  LIG L   1      -1.325   3.874 -10.503  1.00  0.00    -0.2594 OA
ATOM      4  N7  LIG L   1      -2.291   3.860 -12.495  1.00  0.00    -0.1566  N
ATOM      5 C18  LIG L   1      -3.390   3.750 -13.259  1.00  0.00    +0.2672  C
ATOM      6 O19  LIG L   1      -3.389   3.830 -14.512  1.00  0.00    -0.2710 OA
ATOM      7 C20  LIG L   1      -4.601   3.537 -12.641  1.00  0.00    +0.1609  C
ATOM      8 O21  LIG L   1      -5.815   3.391 -13.115  1.00  0.00    -0.3021 OA
ATOM      9 C22  LIG L   1      -6.669   3.204 -12.126  1.00  0.00    +0.0921  C
ATOM     10 C23  LIG L   1      -8.025   3.008 -12.165  1.00  0.00    -0.0305  C
ATOM     11 C24  LIG L   1      -8.693   2.832 -10.973  1.00  0.00    -0.0593  C
ATOM     12 C25  LIG L   1      -7.982   2.858  -9.790  1.00  0.00    -0.0610  C
ATOM     13 C26  LIG L   1      -6.607   3.058  -9.750  1.00  0.00    -0.0505  C
ATOM     14 C27  LIG L   1      -5.949   3.233 -10.942  1.00  0.00    +0.0266  C
ATOM     15 C28  LIG L   1      -4.645   3.444 -11.244  1.00  0.00    +0.0717  C
ATOM     16 H49  LIG L   1      -8.556   2.988 -13.111  1.00  0.00    +0.0644  H
ATOM     17 H50  LIG L   1      -9.767   2.669 -10.966  1.00  0.00    +0.0618  H
ATOM     18 H51  LIG L   1      -8.518   2.707  -8.854  1.00  0.00    +0.0618  H
ATOM     19 H52  LIG L   1      -6.137   3.027  -8.777  1.00  0.00    +0.0625  H
ENDROOT
BRANCH 1 20
ATOM     20  C3  LIG L   1      -3.525   3.473  -9.052  1.00  0.00    +0.0861  C
ATOM     21 H41  LIG L   1      -4.387   3.985  -8.622  1.00  0.00    +0.0528  H
ATOM     22 H42  LIG L   1      -2.665   4.033  -8.662  1.00  0.00    +0.0528  H
BRANCH 20 24
ATOM     23  O1  LIG L   1      -3.291   1.134  -9.359  1.00  0.00    -0.2778 OA
ATOM     24  C2  LIG L   1      -3.388   2.090  -8.544  1.00  0.00    +0.2199  C
ATOM     25 N29  LIG L   1      -3.374   1.915  -7.131  1.00  0.00    -0.2268  N
ATOM     26 H53  LIG L   1      -2.765   2.611  -6.704  1.00  0.00    +0.1363 HD
BRANCH 25 27
ATOM     27 C30  LIG L   1      -3.244   0.611  -6.571  1.00  0.00    +0.0338  A
ATOM     28 C31  LIG L   1      -4.424  -0.093  -6.333  1.00  0.00    -0.0430  A
ATOM     29 C32  LIG L   1      -4.424  -1.363  -5.793  1.00  0.00    -0.0602  A
ATOM     30 C33  LIG L   1      -3.204  -1.933  -5.487  1.00  0.00    -0.0611  A
ATOM     31 C34  LIG L   1      -2.048  -1.236  -5.724  1.00  0.00    -0.0486  A
ATOM     32 C35  LIG L   1      -2.028   0.037  -6.264  1.00  0.00    +0.0729  A
ATOM     33 H54  LIG L   1      -5.380   0.362  -6.589  1.00  0.00    +0.0633  H
ATOM     34 H55  LIG L   1      -5.352  -1.900  -5.622  1.00  0.00    +0.0618  H
ATOM     35 H56  LIG L   1      -3.165  -2.935  -5.066  1.00  0.00    +0.0618  H
ATOM     36 H57  LIG L   1      -1.102  -1.722  -5.475  1.00  0.00    +0.0624  H
BRANCH 32 37
ATOM     37 C36  LIG L   1      -0.789   0.781  -6.514  1.00  0.00    +0.4189  C
ATOM     38 F37  LIG L   1      -0.861   1.951  -5.754  1.00  0.00    -0.1658  F
ATOM     39 F38  LIG L   1      -0.656   1.105  -7.830  1.00  0.00    -0.1658  F
ATOM     40 F39  LIG L   1       0.331   0.056  -6.138  1.00  0.00    -0.1658  F
ENDBRANCH 32 37
ENDBRANCH 25 27
ENDBRANCH 20 24
ENDBRANCH 1 20
BRANCH 4 41
ATOM     41  C8  LIG L   1      -1.033   4.084 -13.197  1.00  0.00    +0.0490  C
ATOM     42 C40  LIG L   1      -1.027   5.148 -14.317  1.00  0.00    -0.0444  C
ATOM     43 H43  LIG L   1      -0.405   4.601 -12.455  1.00  0.00    +0.0519  H
ATOM     44 H58  LIG L   1      -1.591   6.036 -14.013  1.00  0.00    +0.0248  H
ATOM     45 H59  LIG L   1       0.003   5.463 -14.528  1.00  0.00    +0.0248  H
ATOM     46 H60  LIG L   1      -1.432   4.793 -15.269  1.00  0.00    +0.0248  H
BRANCH 41 47
ATOM     47  C9  LIG L   1      -0.298   2.863 -13.516  1.00  0.00    -0.0270  C
ATOM     48 C10  LIG L   1       0.663   2.337 -12.642  1.00  0.00    -0.0545  C
ATOM     49 C11  LIG L   1       1.363   1.189 -12.928  1.00  0.00    -0.0287  C
ATOM     50 C12  LIG L   1       1.159   0.491 -14.092  1.00  0.00    +0.1090  C
ATOM     51 C13  LIG L   1       0.220   0.985 -14.970  1.00  0.00    +0.1093  C
ATOM     52 C14  LIG L   1      -0.485   2.141 -14.682  1.00  0.00    -0.0243  C
ATOM     53 O15  LIG L   1       0.172   0.127 -16.081  1.00  0.00    -0.3150 OA
ATOM     54 C16  LIG L   1       0.821  -1.071 -15.702  1.00  0.00    +0.1600  C
ATOM     55 O17  LIG L   1       1.687  -0.658 -14.650  1.00  0.00    -0.3151 OA
ATOM     56 H44  LIG L   1       0.861   2.838 -11.694  1.00  0.00    +0.0622  H
ATOM     57 H45  LIG L   1       2.095   0.815 -12.217  1.00  0.00    +0.0644  H
ATOM     58 H46  LIG L   1      -1.222   2.466 -15.416  1.00  0.00    +0.0647  H
ATOM     59 H47  LIG L   1       0.101  -1.816 -15.345  1.00  0.00    +0.0880  H
ATOM     60 H48  LIG L   1       1.408  -1.465 -16.536  1.00  0.00    +0.0880  H
ENDBRANCH 41 47
ENDBRANCH 4 41
TORSDOF 6
