ROOT
ATOM      1 C13  WH0 L   1      -1.354  -1.011  -0.320  1.00  0.00    +0.0685  C
ATOM      2 C14  WH0 L   1      -1.399   0.438  -0.923  1.00  0.00    +0.0640  C
ATOM      3 C25  WH0 L   1      -1.438   0.463  -2.487  1.00  0.00    +0.0819  C
ATOM      4 C26  WH0 L   1      -0.085   0.021  -3.091  1.00  0.00    -0.0345  C
ATOM      5 O27  WH0 L   1      -1.701   1.777  -2.926  1.00  0.00    -0.3872 OA
ATOM      6 C28  WH0 L   1      -2.569  -0.454  -3.026  1.00  0.00    -0.0089  C
ATOM      7 C29  WH0 L   1      -2.924  -1.614  -2.083  1.00  0.00    +0.0172  C
ATOM      8 N30  WH0 L   1      -1.751  -2.050  -1.306  1.00  0.00    -0.1928 NA
ATOM      9 H49  WH0 L   1      -2.074  -1.045   0.528  1.00  0.00    +0.0539  H
ATOM     10 H50  WH0 L   1      -0.489   1.004  -0.617  1.00  0.00    +0.0512  H
ATOM     11 H56  WH0 L   1       0.767   0.499  -2.562  1.00  0.00    +0.0258  H
ATOM     12 H57  WH0 L   1      -0.034   0.317  -4.160  1.00  0.00    +0.0258  H
ATOM     13 H58  WH0 L   1       0.034  -1.079  -3.056  1.00  0.00    +0.0258  H
ATOM     14 H59  WH0 L   1      -0.980   2.367  -2.579  1.00  0.00    +0.2102 HD
ATOM     15 H60  WH0 L   1      -3.494   0.143  -3.189  1.00  0.00    +0.0306  H
ATOM     16 H61  WH0 L   1      -2.295  -0.862  -4.025  1.00  0.00    +0.0306  H
ATOM     17 H62  WH0 L   1      -3.743  -1.293  -1.401  1.00  0.00    +0.0438  H
ATOM     18 H63  WH0 L   1      -3.314  -2.452  -2.703  1.00  0.00    +0.0438  H
ENDROOT
BRANCH 1 22
ATOM     19  C9  WH0 L   1       2.592  -1.654   1.386  1.00  0.00    -0.0473  A
ATOM     20 C10  WH0 L   1       1.592  -0.993   2.112  1.00  0.00    -0.0583  A
ATOM     21 C11  WH0 L   1       0.322  -0.811   1.560  1.00  0.00    -0.0567  A
ATOM     22 C12  WH0 L   1       0.025  -1.285   0.270  1.00  0.00    -0.0276  A
ATOM     23 C35  WH0 L   1       1.033  -1.949  -0.454  1.00  0.00    -0.0567  A
ATOM     24 C36  WH0 L   1       2.303  -2.130   0.099  1.00  0.00    -0.0583  A
ATOM     25 H47  WH0 L   1       1.798  -0.612   3.105  1.00  0.00    +0.0620  H
ATOM     26 H48  WH0 L   1      -0.433  -0.295   2.141  1.00  0.00    +0.0621  H
ATOM     27 H67  WH0 L   1       0.840  -2.355  -1.435  1.00  0.00    +0.0621  H
ATOM     28 H68  WH0 L   1       3.064  -2.640  -0.480  1.00  0.00    +0.0620  H
BRANCH 19 29
ATOM     29  C8  WH0 L   1       3.974  -1.810   1.967  1.00  0.00    -0.0265  C
ATOM     30 H45  WH0 L   1       3.885  -2.111   3.033  1.00  0.00    +0.0314  H
ATOM     31 H46  WH0 L   1       4.528  -2.625   1.451  1.00  0.00    +0.0314  H
BRANCH 29 32
ATOM     32  C7  WH0 L   1       4.781  -0.506   1.888  1.00  0.00    -0.0360  C
ATOM     33 H43  WH0 L   1       5.736  -0.653   2.438  1.00  0.00    +0.0281  H
ATOM     34 H44  WH0 L   1       4.222   0.314   2.392  1.00  0.00    +0.0281  H
BRANCH 32 35
ATOM     35  C6  WH0 L   1       5.100  -0.101   0.442  1.00  0.00    +0.0037  C
ATOM     36 H41  WH0 L   1       4.154   0.097  -0.107  1.00  0.00    +0.0429  H
ATOM     37 H42  WH0 L   1       5.642  -0.930  -0.064  1.00  0.00    +0.0429  H
BRANCH 35 40
ATOM     38  C3  WH0 L   1       6.347   1.688  -0.831  1.00  0.00    +0.2238  C
ATOM     39  O4  WH0 L   1       6.018   1.151  -1.925  1.00  0.00    -0.2746 OA
ATOM     40  N5  WH0 L   1       5.927   1.105   0.409  1.00  0.00    -0.2547  N
ATOM     41 H40  WH0 L   1       6.216   1.563   1.304  1.00  0.00    +0.1306 HD
BRANCH 38 43
ATOM     42  C1  WH0 L   1       7.587   3.505  -1.937  1.00  0.00    -0.0941  C
ATOM     43  C2  WH0 L   1       7.164   2.916  -0.820  1.00  0.00    -0.0103  C
ATOM     44 H37  WH0 L   1       7.349   3.103  -2.914  1.00  0.00    +0.0536  H
ATOM     45 H38  WH0 L   1       8.184   4.406  -1.879  1.00  0.00    +0.0536  H
ATOM     46 H39  WH0 L   1       7.430   3.358   0.133  1.00  0.00    +0.0660  H
ENDBRANCH 38 43
ENDBRANCH 35 40
ENDBRANCH 32 35
ENDBRANCH 29 32
ENDBRANCH 19 29
ENDBRANCH 1 22
BRANCH 2 47
ATOM     47 N15  WH0 L   1      -2.563   1.154  -0.380  1.00  0.00    -0.2465  N
ATOM     48 C16  WH0 L   1      -2.550   1.762   0.922  1.00  0.00    +0.2319  C
ATOM     49 O17  WH0 L   1      -1.453   2.108   1.438  1.00  0.00    -0.2740 OA
ATOM     50 H51  WH0 L   1      -3.454   1.167  -0.926  1.00  0.00    +0.1311 HD
BRANCH 48 51
ATOM     51 C18  WH0 L   1      -3.812   2.003   1.659  1.00  0.00    +0.0336  A
ATOM     52 C19  WH0 L   1      -3.871   2.996   2.654  1.00  0.00    -0.0472  A
ATOM     53 C20  WH0 L   1      -5.057   3.222   3.360  1.00  0.00    -0.0257  A
ATOM     54 C21  WH0 L   1      -6.193   2.456   3.086  1.00  0.00    +0.1234  A
ATOM     55 F22  WH0 L   1      -7.341   2.677   3.772  1.00  0.00    -0.2055  F
ATOM     56 C23  WH0 L   1      -6.142   1.458   2.110  1.00  0.00    -0.0257  A
ATOM     57 C24  WH0 L   1      -4.959   1.228   1.401  1.00  0.00    -0.0472  A
ATOM     58 H52  WH0 L   1      -3.003   3.603   2.880  1.00  0.00    +0.0626  H
ATOM     59 H53  WH0 L   1      -5.094   3.993   4.119  1.00  0.00    +0.0646  H
ATOM     60 H54  WH0 L   1      -7.019   0.857   1.905  1.00  0.00    +0.0646  H
ATOM     61 H55  WH0 L   1      -4.940   0.430   0.670  1.00  0.00    +0.0626  H
ENDBRANCH 48 51
ENDBRANCH 2 47
BRANCH 8 62
ATOM     62 S31  WH0 L   1      -2.143  -3.568  -0.511  1.00  0.00    +0.2130  S
ATOM     63 C32  WH0 L   1      -3.663  -3.471   0.421  1.00  0.00    +0.0527  C
ATOM     64 O33  WH0 L   1      -2.295  -4.638  -1.556  1.00  0.00    -0.2110 OA
ATOM     65 O34  WH0 L   1      -1.039  -3.975   0.424  1.00  0.00    -0.2110 OA
ATOM     66 H64  WH0 L   1      -4.515  -3.275  -0.261  1.00  0.00    +0.0403  H
ATOM     67 H65  WH0 L   1      -3.836  -4.437   0.939  1.00  0.00    +0.0403  H
ATOM     68 H66  WH0 L   1      -3.600  -2.665   1.179  1.00  0.00    +0.0403  H
ENDBRANCH 8 62
TORSDOF 9
