REMARK VINA RESULT:    -7.304      1.596      2.322
REMARK INTER + INTRA:         -11.722
REMARK INTER:                 -10.666
REMARK INTRA:                  -1.056
REMARK UNBOUND:                -1.001
ROOT
ATOM      1  N6  665 L   1       0.395   9.908  -9.865  1.00  0.00    -0.2626 NA
ATOM      2 C16  665 L   1      -3.019   7.926 -13.032  1.00  0.00    +0.0423  A
ATOM      3 C18  665 L   1      -3.114   8.675 -11.858  1.00  0.00    -0.0305  A
ATOM      4 C19  665 L   1      -1.958   9.095 -11.182  1.00  0.00    -0.0131  A
ATOM      5 C20  665 L   1      -1.771   7.586 -13.545  1.00  0.00    -0.0377  A
ATOM      6 C21  665 L   1      -0.694   8.747 -11.704  1.00  0.00    +0.0004  A
ATOM      7 C22  665 L   1      -0.611   7.992 -12.887  1.00  0.00    -0.0506  A
ATOM      8 C26  665 L   1      -2.020   9.847 -10.003  1.00  0.00    -0.0358  A
ATOM      9 C30  665 L   1       0.434   9.181 -11.004  1.00  0.00    +0.0353  A
ATOM     10 C33  665 L   1      -0.831  10.222  -9.394  1.00  0.00    +0.0281  A
ATOM     11 H47  665 L   1      -4.096   8.939 -11.463  1.00  0.00    +0.0644  H
ATOM     12 H48  665 L   1      -1.616   7.011 -14.447  1.00  0.00    +0.0638  H
ATOM     13 H49  665 L   1       0.358   7.719 -13.300  1.00  0.00    +0.0625  H
ATOM     14 H50  665 L   1      -2.969  10.136  -9.563  1.00  0.00    +0.0639  H
ATOM     15 H53  665 L   1       1.436   8.948 -11.354  1.00  0.00    +0.0836  H
ATOM     16 H58  665 L   1      -0.839  10.805  -8.480  1.00  0.00    +0.0830  H
ENDROOT
BRANCH 2 18
ATOM     17  O2  665 L   1      -3.579   7.637 -15.965  1.00  0.00    -0.2722 OA
ATOM     18  N4  665 L   1      -4.180   7.519 -13.694  1.00  0.00    -0.3256  N
ATOM     19 C10  665 L   1      -4.397   7.405 -15.077  1.00  0.00    +0.2339  C
ATOM     20 H42  665 L   1      -4.961   7.284 -13.087  1.00  0.00    +0.1686 HD
BRANCH 19 21
ATOM     21  C7  665 L   1      -5.818   6.921 -15.400  1.00  0.00    +0.0752  C
ATOM     22 H35  665 L   1      -6.347   7.753 -15.888  1.00  0.00    +0.0458  H
BRANCH 21 23
ATOM     23  C8  665 L   1      -5.767   5.739 -16.355  1.00  0.00    -0.0341  A
ATOM     24 C11  665 L   1      -6.151   5.900 -17.686  1.00  0.00    -0.0574  A
ATOM     25 C12  665 L   1      -5.335   4.492 -15.899  1.00  0.00    -0.0574  A
ATOM     26 C13  665 L   1      -5.674   3.569 -18.105  1.00  0.00    -0.0103  A
ATOM     27 C14  665 L   1      -6.106   4.814 -18.561  1.00  0.00    -0.0551  A
ATOM     28 C15  665 L   1      -5.290   3.408 -16.774  1.00  0.00    -0.0551  A
ATOM     29 H38  665 L   1      -6.489   6.866 -18.056  1.00  0.00    +0.0621  H
ATOM     30 H39  665 L   1      -5.030   4.346 -14.868  1.00  0.00    +0.0621  H
ATOM     31 H40  665 L   1      -6.407   4.955 -19.596  1.00  0.00    +0.0621  H
ATOM     32 H41  665 L   1      -4.950   2.442 -16.408  1.00  0.00    +0.0621  H
BRANCH 26 33
ATOM     33 C17  665 L   1      -5.625   2.408 -19.042  1.00  0.00    +0.1179  C
ATOM     34 H43  665 L   1      -6.499   2.433 -19.703  1.00  0.00    +0.0749  H
ATOM     35 H44  665 L   1      -4.726   2.456 -19.671  1.00  0.00    +0.0749  H
BRANCH 33 36
ATOM     36  O1  665 L   1      -5.616   1.198 -18.293  1.00  0.00    -0.4564 OA
BRANCH 36 38
ATOM     37  O3  665 L   1      -7.339   0.182 -19.432  1.00  0.00    -0.2449 OA
ATOM     38 C25  665 L   1      -6.728   0.421 -18.402  1.00  0.00    +0.3398  C
BRANCH 38 39
ATOM     39 C23  665 L   1      -7.124  -0.116 -17.076  1.00  0.00    +0.0619  A
ATOM     40 C24  665 L   1      -8.035   0.561 -16.265  1.00  0.00    -0.0362  A
ATOM     41 C27  665 L   1      -7.835  -1.170 -14.592  1.00  0.00    -0.0502  A
ATOM     42 C28  665 L   1      -8.391   0.035 -15.024  1.00  0.00    -0.0551  A
ATOM     43 C29  665 L   1      -6.567  -1.322 -16.644  1.00  0.00    -0.0473  A
ATOM     44 C31  665 L   1      -6.922  -1.848 -15.402  1.00  0.00    -0.0580  A
ATOM     45 C32  665 L   1      -8.646   1.852 -16.704  1.00  0.00    -0.0389  C
ATOM     46 C34  665 L   1      -8.211  -1.733 -13.264  1.00  0.00    -0.0397  C
ATOM     47 H51  665 L   1      -9.097   0.561 -14.387  1.00  0.00    +0.0623  H
ATOM     48 H52  665 L   1      -5.854  -1.858 -17.263  1.00  0.00    +0.0626  H
ATOM     49 H54  665 L   1      -6.481  -2.785 -15.076  1.00  0.00    +0.0620  H
ATOM     50 H55  665 L   1      -7.898   2.650 -16.696  1.00  0.00    +0.0278  H
ATOM     51 H56  665 L   1      -9.070   1.761 -17.710  1.00  0.00    +0.0278  H
ATOM     52 H57  665 L   1      -9.464   2.157 -16.042  1.00  0.00    +0.0278  H
ATOM     53 H59  665 L   1      -8.137  -2.828 -13.263  1.00  0.00    +0.0278  H
ATOM     54 H60  665 L   1      -9.248  -1.482 -13.010  1.00  0.00    +0.0278  H
ATOM     55 H61  665 L   1      -7.554  -1.337 -12.486  1.00  0.00    +0.0278  H
ENDBRANCH 38 39
ENDBRANCH 36 38
ENDBRANCH 33 36
ENDBRANCH 26 33
ENDBRANCH 21 23
BRANCH 21 57
ATOM     56  N5  665 L   1      -7.379   7.749 -13.648  1.00  0.00    -0.3289 NA
ATOM     57  C9  665 L   1      -6.585   6.609 -14.099  1.00  0.00    +0.0085  C
ATOM     58 H36  665 L   1      -7.245   5.742 -14.220  1.00  0.00    +0.0432  H
ATOM     59 H37  665 L   1      -5.869   6.348 -13.311  1.00  0.00    +0.0432  H
ATOM     60 H45  665 L   1      -7.860   7.503 -12.785  1.00  0.00    +0.1182 HD
ATOM     61 H46  665 L   1      -8.108   7.955 -14.329  1.00  0.00    +0.1182 HD
ENDBRANCH 21 57
ENDBRANCH 19 21
ENDBRANCH 2 18
TORSDOF 8
BEGIN_RES SER A 29
REMARK INDEX MAP 3 1 15 2 18 3 19 4
ROOT
ATOM      1  CA  SER A  29       5.259 -11.150 -15.111  1.00  0.00    +0.197 C 
ENDROOT
BRANCH   1   2
ATOM      2  CB  SER A  29       3.952 -10.733 -15.792  1.00  0.00    +0.191 C 
BRANCH   2   3
ATOM      3  OG  SER A  29       3.146  -9.998 -14.886  1.00  0.00    -0.392 OA
ATOM      4  HG  SER A  29       3.653  -9.834 -14.052  1.00  0.00    +0.210 HD
ENDBRANCH   2   3
ENDBRANCH   1   2
END_RES SER A 29
BEGIN_RES LYS A 33
REMARK INDEX MAP 3 1 15 2 18 3 21 4 24 5 27 6 28 7 29 8 30 9
ROOT
ATOM      5  CA  LYS A  33       4.948 -12.969  -9.324  1.00  0.00    +0.171 C 
ENDROOT
BRANCH   5   6
ATOM      6  CB  LYS A  33       3.624 -13.219 -10.050  1.00  0.00    +0.035 C 
BRANCH   6   7
ATOM      7  CG  LYS A  33       2.704 -12.003  -9.919  1.00  0.00    +0.008 C 
BRANCH   7   8
ATOM      8  CD  LYS A  33       1.279 -12.385 -10.311  1.00  0.00    +0.061 C 
BRANCH   8   9
ATOM      9  CE  LYS A  33       0.379 -11.188 -10.017  1.00  0.00    +0.258 C 
BRANCH   9  10
ATOM     10  NZ  LYS A  33      -1.042 -11.520 -10.266  1.00  0.00    -0.357 N 
ATOM     11  HZ1 LYS A  33      -1.442 -11.969  -9.430  1.00  0.00    +0.345 HD
ATOM     12  HZ2 LYS A  33      -1.565 -10.658 -10.476  1.00  0.00    +0.345 HD
ATOM     13  HZ3 LYS A  33      -1.109 -12.165 -11.068  1.00  0.00    +0.345 HD
ENDBRANCH   9  10
ENDBRANCH   8   9
ENDBRANCH   7   8
ENDBRANCH   6   7
ENDBRANCH   5   6
END_RES LYS A 33
BEGIN_RES SER A 149
REMARK INDEX MAP 3 1 15 2 18 3 19 4
ROOT
ATOM     14  CA  SER A 149       1.336  -0.609  -7.911  1.00  0.00    +0.197 C 
ENDROOT
BRANCH  14  15
ATOM     15  CB  SER A 149       1.855  -1.867  -7.199  1.00  0.00    +0.191 C 
BRANCH  15  16
ATOM     16  OG  SER A 149       3.083  -1.617  -6.542  1.00  0.00    -0.392 OA
ATOM     17  HG  SER A 149       2.941  -1.627  -5.562  1.00  0.00    +0.210 HD
ENDBRANCH  15  16
ENDBRANCH  14  15
END_RES SER A 149
BEGIN_RES VAL A 150
REMARK INDEX MAP 3 1 15 2 17 3 18 4
ROOT
ATOM     18  CA  VAL A 150      -2.392  -0.627  -8.917  1.00  0.00    +0.173 C 
ENDROOT
BRANCH  18  19
ATOM     19  CB  VAL A 150      -3.617  -0.174  -8.103  1.00  0.00    +0.015 C 
ATOM     20  CG1 VAL A 150      -3.878  -1.114  -6.927  1.00  0.00    +0.010 C 
ATOM     21  CG2 VAL A 150      -3.512   1.268  -7.608  1.00  0.00    +0.010 C 
ENDBRANCH  18  19
END_RES VAL A 150
BEGIN_RES LYS A 151
REMARK INDEX MAP 3 1 15 2 18 3 21 4 24 5 27 6 28 7 29 8 30 9
ROOT
ATOM     22  CA  LYS A 151      -3.311   0.059 -12.575  1.00  0.00    +0.171 C 
ENDROOT
BRANCH  22  23
ATOM     23  CB  LYS A 151      -3.945  -0.970 -13.516  1.00  0.00    +0.035 C 
BRANCH  23  24
ATOM     24  CG  LYS A 151      -2.878  -1.748 -14.294  1.00  0.00    +0.008 C 
BRANCH  24  25
ATOM     25  CD  LYS A 151      -3.528  -2.839 -15.149  1.00  0.00    +0.061 C 
BRANCH  25  26
ATOM     26  CE  LYS A 151      -2.443  -3.529 -15.978  1.00  0.00    +0.258 C 
BRANCH  26  27
ATOM     27  NZ  LYS A 151      -3.005  -4.613 -16.819  1.00  0.00    -0.357 N 
ATOM     28  HZ1 LYS A 151      -2.966  -5.503 -16.301  1.00  0.00    +0.345 HD
ATOM     29  HZ2 LYS A 151      -3.984  -4.395 -17.053  1.00  0.00    +0.345 HD
ATOM     30  HZ3 LYS A 151      -2.456  -4.696 -17.686  1.00  0.00    +0.345 HD
ENDBRANCH  26  27
ENDBRANCH  25  26
ENDBRANCH  24  25
ENDBRANCH  23  24
ENDBRANCH  22  23
END_RES LYS A 151
BEGIN_RES ASP A 192
REMARK INDEX MAP 3 1 15 2 18 3 19 4 20 5
ROOT
ATOM     31  CA  ASP A 192      10.903   4.326 -12.109  1.00  0.00    +0.176 C 
ENDROOT
BRANCH  31  32
ATOM     32  CB  ASP A 192       9.944   5.512 -12.333  1.00  0.00    +0.087 C 
BRANCH  32  33
ATOM     33  CG  ASP A 192       8.469   5.190 -12.107  1.00  0.00    +0.044 C 
ATOM     34  OD1 ASP A 192       7.973   5.524 -11.005  1.00  0.00    -0.548 OA
ATOM     35  OD2 ASP A 192       7.811   4.765 -13.075  1.00  0.00    -0.549 OA
ENDBRANCH  32  33
ENDBRANCH  31  32
END_RES ASP A 192
BEGIN_RES HIS A 196
REMARK INDEX MAP 3 1 15 2 18 3 19 4 20 5 21 6 22 7 25 8
ROOT
ATOM     36  CA  HIS A 196       8.166  -0.861 -12.004  1.00  0.00    +0.177 C 
ENDROOT
BRANCH  36  37
ATOM     37  CB  HIS A 196       7.611   0.004 -13.145  1.00  0.00    +0.093 C 
BRANCH  37  38
ATOM     38  CG  HIS A 196       6.284  -0.486 -13.659  1.00  0.00    +0.061 A 
ATOM     39  ND1 HIS A 196       5.060  -0.046 -13.236  1.00  0.00    -0.242 NA
ATOM     40  CD2 HIS A 196       6.050  -1.459 -14.593  1.00  0.00    +0.107 A 
ATOM     41  CE1 HIS A 196       4.110  -0.722 -13.888  1.00  0.00    +0.196 A 
ATOM     42  NE2 HIS A 196       4.662  -1.605 -14.738  1.00  0.00    -0.350 N 
ATOM     43  HE2 HIS A 196       4.168  -2.254 -15.367  1.00  0.00    +0.167 HD
ENDBRANCH  37  38
ENDBRANCH  36  37
END_RES HIS A 196
BEGIN_RES LEU A 197
REMARK INDEX MAP 3 1 15 2 18 3 20 4 21 5
ROOT
ATOM     44  CA  LEU A 197       9.520  -4.001 -13.690  1.00  0.00    +0.172 C 
ENDROOT
BRANCH  44  45
ATOM     45  CB  LEU A 197      10.529  -3.881 -14.840  1.00  0.00    +0.038 C 
BRANCH  45  46
ATOM     46  CG  LEU A 197      10.126  -4.639 -16.104  1.00  0.00    -0.015 C 
ATOM     47  CD1 LEU A 197       9.114  -3.861 -16.944  1.00  0.00    +0.007 C 
ATOM     48  CD2 LEU A 197      11.367  -4.839 -16.959  1.00  0.00    +0.007 C 
ENDBRANCH  45  46
ENDBRANCH  44  45
END_RES LEU A 197
BEGIN_RES LEU A 198
REMARK INDEX MAP 3 1 15 2 18 3 20 4 21 5
ROOT
ATOM     49  CA  LEU A 198      11.452  -5.354 -10.643  1.00  0.00    +0.172 C 
ENDROOT
BRANCH  49  50
ATOM     50  CB  LEU A 198      12.799  -4.722 -10.252  1.00  0.00    +0.038 C 
BRANCH  50  51
ATOM     51  CG  LEU A 198      14.002  -5.222 -11.075  1.00  0.00    -0.015 C 
ATOM     52  CD1 LEU A 198      15.259  -4.459 -10.656  1.00  0.00    +0.007 C 
ATOM     53  CD2 LEU A 198      14.262  -6.715 -10.873  1.00  0.00    +0.007 C 
ENDBRANCH  50  51
ENDBRANCH  49  50
END_RES LEU A 198
BEGIN_RES PHE A 199
REMARK INDEX MAP 3 1 15 2 18 3 19 4 20 5 22 6 23 7 26 8
ROOT
ATOM     54  CA  PHE A 199       8.931  -4.566  -7.833  1.00  0.00    +0.175 C 
ENDROOT
BRANCH  54  55
ATOM     55  CB  PHE A 199       9.338  -3.350  -6.987  1.00  0.00    +0.070 C 
BRANCH  55  56
ATOM     56  CG  PHE A 199      10.789  -3.367  -6.547  1.00  0.00    -0.045 A 
ATOM     57  CD1 PHE A 199      11.173  -4.059  -5.384  1.00  0.00    +0.004 A 
ATOM     58  CD2 PHE A 199      11.765  -2.703  -7.309  1.00  0.00    +0.004 A 
ATOM     59  CE1 PHE A 199      12.522  -4.076  -4.987  1.00  0.00    +0.000 A 
ATOM     60  CE2 PHE A 199      13.111  -2.704  -6.905  1.00  0.00    +0.000 A 
ATOM     61  CZ  PHE A 199      13.489  -3.388  -5.739  1.00  0.00    +0.000 A 
ENDBRANCH  55  56
ENDBRANCH  54  55
END_RES PHE A 199
BEGIN_RES ASP A 200
REMARK INDEX MAP 3 1 15 2 18 3 19 4 20 5
ROOT
ATOM     62  CA  ASP A 200       5.649  -6.036  -9.219  1.00  0.00    +0.176 C 
ENDROOT
BRANCH  62  63
ATOM     63  CB  ASP A 200       5.124  -6.978  -8.114  1.00  0.00    +0.087 C 
BRANCH  63  64
ATOM     64  CG  ASP A 200       4.502  -8.289  -8.639  1.00  0.00    +0.044 C 
ATOM     65  OD1 ASP A 200       4.797  -8.691  -9.795  1.00  0.00    -0.548 OA
ATOM     66  OD2 ASP A 200       3.833  -8.988  -7.843  1.00  0.00    -0.549 OA
ENDBRANCH  63  64
ENDBRANCH  62  63
END_RES ASP A 200
BEGIN_RES CYS A 202
REMARK INDEX MAP 3 1 15 2 18 3 19 4
ROOT
ATOM     67  CA  CYS A 202       5.388  -0.342  -8.181  1.00  0.00    +0.181 C 
ENDROOT
BRANCH  67  68
ATOM     68  CB  CYS A 202       6.325  -0.781  -7.055  1.00  0.00    +0.101 C 
BRANCH  68  69
ATOM     69  SG  CYS A 202       5.972   0.102  -5.526  1.00  0.00    -0.177 SA
ATOM     70  HG  CYS A 202       5.943  -0.785  -4.483  1.00  0.00    +0.102 HD
ENDBRANCH  68  69
ENDBRANCH  67  68
END_RES CYS A 202
BEGIN_RES CYS A 203
REMARK INDEX MAP 3 1 15 2 18 3 19 4
ROOT
ATOM     71  CA  CYS A 203       5.685   3.325  -9.344  1.00  0.00    +0.181 C 
ENDROOT
BRANCH  71  72
ATOM     72  CB  CYS A 203       4.473   3.959 -10.040  1.00  0.00    +0.101 C 
BRANCH  72  73
ATOM     73  SG  CYS A 203       4.562   3.692 -11.833  1.00  0.00    -0.177 SA
ATOM     74  HG  CYS A 203       4.309   2.375 -12.112  1.00  0.00    +0.102 HD
ENDBRANCH  72  73
ENDBRANCH  71  72
END_RES CYS A 203
BEGIN_RES LEU A 204
REMARK INDEX MAP 3 1 15 2 18 3 20 4 21 5
ROOT
ATOM     75  CA  LEU A 204       8.257   5.530  -7.491  1.00  0.00    +0.172 C 
ENDROOT
BRANCH  75  76
ATOM     76  CB  LEU A 204       9.742   5.577  -7.891  1.00  0.00    +0.038 C 
BRANCH  76  77
ATOM     77  CG  LEU A 204      10.616   4.483  -7.268  1.00  0.00    -0.015 C 
ATOM     78  CD1 LEU A 204      12.081   4.776  -7.590  1.00  0.00    +0.007 C 
ATOM     79  CD2 LEU A 204      10.447   4.437  -5.746  1.00  0.00    +0.007 C 
ENDBRANCH  76  77
ENDBRANCH  75  76
END_RES LEU A 204
BEGIN_RES THR A 205
REMARK INDEX MAP 3 1 15 2 17 3 18 4 22 5
ROOT
ATOM     80  CA  THR A 205       6.717   8.700  -9.018  1.00  0.00    +0.199 C 
ENDROOT
BRANCH  80  81
ATOM     81  CB  THR A 205       7.097   9.171 -10.425  1.00  0.00    +0.143 C 
ATOM     82  CG2 THR A 205       8.539   9.674 -10.482  1.00  0.00    +0.041 C 
BRANCH  81  83
ATOM     83  OG1 THR A 205       6.957   8.123 -11.362  1.00  0.00    -0.389 OA
ATOM     84  HG1 THR A 205       6.711   7.288 -10.890  1.00  0.00    +0.211 HD
ENDBRANCH  81  83
ENDBRANCH  80  81
END_RES THR A 205
BEGIN_RES ARG A 206
REMARK INDEX MAP 3 1 15 2 18 3 21 4 24 5 25 6 26 7 27 8 28 9 29 10 30 11 31 12
REMARK INDEX MAP 32 13
ROOT
ATOM     85  CA  ARG A 206       3.145   7.848  -7.883  1.00  0.00    +0.171 C 
ENDROOT
BRANCH  85  86
ATOM     86  CB  ARG A 206       2.696   6.441  -7.482  1.00  0.00    +0.038 C 
BRANCH  86  87
ATOM     87  CG  ARG A 206       1.357   6.064  -8.114  1.00  0.00    +0.040 C 
BRANCH  87  88
ATOM     88  CD  ARG A 206       1.395   6.067  -9.649  1.00  0.00    +0.197 C 
BRANCH  88  89
ATOM     89  NE  ARG A 206       0.164   5.466 -10.176  1.00  0.00    -0.278 N 
ATOM     90  HE  ARG A 206      -0.699   5.650  -9.643  1.00  0.00    +0.260 HD
ATOM     91  CZ  ARG A 206       0.038   4.719 -11.252  1.00  0.00    +0.339 C 
ATOM     92  NH1 ARG A 206       0.939   4.665 -12.188  1.00  0.00    -0.290 N 
ATOM     93  NH2 ARG A 206      -1.009   3.971 -11.389  1.00  0.00    -0.290 N 
ATOM     94 HH12 ARG A 206       0.792   4.064 -13.011  1.00  0.00    +0.256 HD
ATOM     95 HH11 ARG A 206       1.801   5.224 -12.105  1.00  0.00    +0.256 HD
ATOM     96 HH22 ARG A 206      -1.116   3.384 -12.228  1.00  0.00    +0.256 HD
ATOM     97 HH21 ARG A 206      -1.736   3.963 -10.659  1.00  0.00    +0.256 HD
ENDBRANCH  88  89
ENDBRANCH  87  88
ENDBRANCH  86  87
ENDBRANCH  85  86
END_RES ARG A 206
BEGIN_RES GLU A 207
REMARK INDEX MAP 3 1 15 2 18 3 21 4 22 5 23 6
ROOT
ATOM     98  CA  GLU A 207       1.252  10.799  -6.333  1.00  0.00    +0.171 C 
ENDROOT
BRANCH  98  99
ATOM     99  CB  GLU A 207       1.086  12.112  -7.105  1.00  0.00    +0.041 C 
BRANCH  99 100
ATOM    100  CG  GLU A 207       2.357  12.555  -7.840  1.00  0.00    +0.055 C 
BRANCH 100 101
ATOM    101  CD  GLU A 207       1.981  13.546  -8.938  1.00  0.00    +0.041 C 
ATOM    102  OE1 GLU A 207       2.673  14.573  -9.114  1.00  0.00    -0.548 OA
ATOM    103  OE2 GLU A 207       0.878  13.411  -9.520  1.00  0.00    -0.549 OA
ENDBRANCH 100 101
ENDBRANCH  99 100
ENDBRANCH  98  99
END_RES GLU A 207
BEGIN_RES SER A 208
REMARK INDEX MAP 3 1 15 2 18 3 19 4
ROOT
ATOM    104  CA  SER A 208      -1.224   8.555  -4.401  1.00  0.00    +0.197 C 
ENDROOT
BRANCH 104 105
ATOM    105  CB  SER A 208      -0.827   7.287  -3.636  1.00  0.00    +0.191 C 
BRANCH 105 106
ATOM    106  OG  SER A 208      -0.111   6.405  -4.484  1.00  0.00    -0.392 OA
ATOM    107  HG  SER A 208       0.422   5.778  -3.933  1.00  0.00    +0.210 HD
ENDBRANCH 105 106
ENDBRANCH 104 105
END_RES SER A 208
