REMARK VINA RESULT:    -7.304      1.596      2.322
REMARK INTER + INTRA:         -11.722
REMARK INTER:                 -10.666
REMARK INTRA:                  -1.056
REMARK UNBOUND:                -1.001
ROOT
ATOM      1  N6  665 L   1       0.308  10.004  -9.928  1.00  0.00    -0.2626 NA
ATOM      2 C16  665 L   1      -3.090   7.955 -13.069  1.00  0.00    +0.0423  A
ATOM      3 C18  665 L   1      -3.165   8.482 -11.779  1.00  0.00    -0.0305  A
ATOM      4 C19  665 L   1      -2.020   8.994 -11.148  1.00  0.00    -0.0131  A
ATOM      5 C20  665 L   1      -1.873   7.931 -13.745  1.00  0.00    -0.0377  A
ATOM      6 C21  665 L   1      -0.789   8.966 -11.835  1.00  0.00    +0.0004  A
ATOM      7 C22  665 L   1      -0.725   8.432 -13.134  1.00  0.00    -0.0506  A
ATOM      8 C26  665 L   1      -2.063   9.529  -9.855  1.00  0.00    -0.0358  A
ATOM      9 C30  665 L   1       0.329   9.483 -11.175  1.00  0.00    +0.0353  A
ATOM     10 C33  665 L   1      -0.888  10.013  -9.300  1.00  0.00    +0.0281  A
ATOM     11 H47  665 L   1      -4.122   8.500 -11.257  1.00  0.00    +0.0644  H
ATOM     12 H48  665 L   1      -1.735   7.541 -14.744  1.00  0.00    +0.0638  H
ATOM     13 H49  665 L   1       0.219   8.407 -13.674  1.00  0.00    +0.0625  H
ATOM     14 H50  665 L   1      -2.988   9.569  -9.287  1.00  0.00    +0.0639  H
ATOM     15 H53  665 L   1       1.306   9.492 -11.649  1.00  0.00    +0.0836  H
ATOM     16 H58  665 L   1      -0.881  10.436  -8.302  1.00  0.00    +0.0830  H
ENDROOT
BRANCH 2 18
ATOM     17  O2  665 L   1      -3.660   7.409 -15.963  1.00  0.00    -0.2722 OA
ATOM     18  N4  665 L   1      -4.240   7.453 -13.684  1.00  0.00    -0.3256  N
ATOM     19 C10  665 L   1      -4.461   7.219 -15.051  1.00  0.00    +0.2339  C
ATOM     20 H42  665 L   1      -5.006   7.238 -13.052  1.00  0.00    +0.1686 HD
BRANCH 19 21
ATOM     21  C7  665 L   1      -5.866   6.658 -15.319  1.00  0.00    +0.0752  C
ATOM     22 H35  665 L   1      -6.421   7.416 -15.890  1.00  0.00    +0.0458  H
BRANCH 21 23
ATOM     23  C8  665 L   1      -5.775   5.385 -16.146  1.00  0.00    -0.0341  A
ATOM     24 C11  665 L   1      -5.996   5.430 -17.523  1.00  0.00    -0.0574  A
ATOM     25 C12  665 L   1      -5.469   4.171 -15.528  1.00  0.00    -0.0574  A
ATOM     26 C13  665 L   1      -5.608   3.049 -17.662  1.00  0.00    -0.0103  A
ATOM     27 C14  665 L   1      -5.914   4.261 -18.280  1.00  0.00    -0.0551  A
ATOM     28 C15  665 L   1      -5.387   3.004 -16.285  1.00  0.00    -0.0551  A
ATOM     29 H38  665 L   1      -6.234   6.368 -18.019  1.00  0.00    +0.0621  H
ATOM     30 H39  665 L   1      -5.291   4.115 -14.458  1.00  0.00    +0.0621  H
ATOM     31 H40  665 L   1      -6.087   4.312 -19.352  1.00  0.00    +0.0621  H
ATOM     32 H41  665 L   1      -5.147   2.065 -15.793  1.00  0.00    +0.0621  H
BRANCH 26 33
ATOM     33 C17  665 L   1      -5.520   1.800 -18.474  1.00  0.00    +0.1179  C
ATOM     34 H43  665 L   1      -6.278   1.822 -19.266  1.00  0.00    +0.0749  H
ATOM     35 H44  665 L   1      -4.535   1.719 -18.952  1.00  0.00    +0.0749  H
BRANCH 33 36
ATOM     36  O1  665 L   1      -5.731   0.673 -17.629  1.00  0.00    -0.4564 OA
BRANCH 36 38
ATOM     37  O3  665 L   1      -7.411  -0.139 -18.976  1.00  0.00    -0.2449 OA
ATOM     38 C25  665 L   1      -6.833  -0.077 -17.902  1.00  0.00    +0.3398  C
BRANCH 38 39
ATOM     39 C23  665 L   1      -7.264  -0.833 -16.699  1.00  0.00    +0.0619  A
ATOM     40 C24  665 L   1      -8.111  -0.260 -15.751  1.00  0.00    -0.0362  A
ATOM     41 C27  665 L   1      -8.043  -2.298 -14.455  1.00  0.00    -0.0502  A
ATOM     42 C28  665 L   1      -8.501  -0.991 -14.630  1.00  0.00    -0.0551  A
ATOM     43 C29  665 L   1      -6.804  -2.140 -16.525  1.00  0.00    -0.0473  A
ATOM     44 C31  665 L   1      -7.193  -2.872 -15.403  1.00  0.00    -0.0580  A
ATOM     45 C32  665 L   1      -8.618   1.137 -15.914  1.00  0.00    -0.0389  C
ATOM     46 C34  665 L   1      -8.456  -3.081 -13.257  1.00  0.00    -0.0397  C
ATOM     47 H51  665 L   1      -9.159  -0.548 -13.886  1.00  0.00    +0.0623  H
ATOM     48 H52  665 L   1      -6.141  -2.598 -17.253  1.00  0.00    +0.0626  H
ATOM     49 H54  665 L   1      -6.828  -3.887 -15.278  1.00  0.00    +0.0620  H
ATOM     50 H55  665 L   1      -7.807   1.856 -15.765  1.00  0.00    +0.0278  H
ATOM     51 H56  665 L   1      -9.054   1.280 -16.909  1.00  0.00    +0.0278  H
ATOM     52 H57  665 L   1      -9.404   1.368 -15.187  1.00  0.00    +0.0278  H
ATOM     53 H59  665 L   1      -8.471  -4.157 -13.472  1.00  0.00    +0.0278  H
ATOM     54 H60  665 L   1      -9.467  -2.804 -12.935  1.00  0.00    +0.0278  H
ATOM     55 H61  665 L   1      -7.763  -2.899 -12.430  1.00  0.00    +0.0278  H
ENDBRANCH 38 39
ENDBRANCH 36 38
ENDBRANCH 33 36
ENDBRANCH 26 33
ENDBRANCH 21 23
BRANCH 21 57
ATOM     56  N5  665 L   1      -7.448   7.616 -13.654  1.00  0.00    -0.3289 NA
ATOM     57  C9  665 L   1      -6.624   6.457 -13.991  1.00  0.00    +0.0085  C
ATOM     58 H36  665 L   1      -7.261   5.566 -14.023  1.00  0.00    +0.0432  H
ATOM     59 H37  665 L   1      -5.901   6.295 -13.183  1.00  0.00    +0.0432  H
ATOM     60 H45  665 L   1      -7.922   7.444 -12.770  1.00  0.00    +0.1182 HD
ATOM     61 H46  665 L   1      -8.182   7.733 -14.351  1.00  0.00    +0.1182 HD
ENDBRANCH 21 57
ENDBRANCH 19 21
ENDBRANCH 2 18
TORSDOF 8
BEGIN_RES SER A 29
REMARK INDEX MAP 3 1 15 2 18 3 19 4
ROOT
ATOM      1  CA  SER A  29       5.259 -11.150 -15.111  1.00  0.00    +0.197 C 
ENDROOT
BRANCH   1   2
ATOM      2  CB  SER A  29       3.952 -10.733 -15.792  1.00  0.00    +0.191 C 
BRANCH   2   3
ATOM      3  OG  SER A  29       3.142 -10.006 -14.883  1.00  0.00    -0.392 OA
ATOM      4  HG  SER A  29       3.647  -9.845 -14.048  1.00  0.00    +0.210 HD
ENDBRANCH   2   3
ENDBRANCH   1   2
END_RES SER A 29
BEGIN_RES LYS A 33
REMARK INDEX MAP 3 1 15 2 18 3 21 4 24 5 27 6 28 7 29 8 30 9
ROOT
ATOM      5  CA  LYS A  33       4.948 -12.969  -9.324  1.00  0.00    +0.171 C 
ENDROOT
BRANCH   5   6
ATOM      6  CB  LYS A  33       3.624 -13.219 -10.050  1.00  0.00    +0.035 C 
BRANCH   6   7
ATOM      7  CG  LYS A  33       2.722 -11.986  -9.957  1.00  0.00    +0.008 C 
BRANCH   7   8
ATOM      8  CD  LYS A  33       1.286 -12.365 -10.312  1.00  0.00    +0.061 C 
BRANCH   8   9
ATOM      9  CE  LYS A  33       0.402 -11.153 -10.031  1.00  0.00    +0.258 C 
BRANCH   9  10
ATOM     10  NZ  LYS A  33      -1.025 -11.475 -10.257  1.00  0.00    -0.357 N 
ATOM     11  HZ1 LYS A  33      -1.419 -11.903  -9.408  1.00  0.00    +0.345 HD
ATOM     12  HZ2 LYS A  33      -1.541 -10.611 -10.478  1.00  0.00    +0.345 HD
ATOM     13  HZ3 LYS A  33      -1.108 -12.134 -11.045  1.00  0.00    +0.345 HD
ENDBRANCH   9  10
ENDBRANCH   8   9
ENDBRANCH   7   8
ENDBRANCH   6   7
ENDBRANCH   5   6
END_RES LYS A 33
BEGIN_RES SER A 149
REMARK INDEX MAP 3 1 15 2 18 3 19 4
ROOT
ATOM     14  CA  SER A 149       1.336  -0.609  -7.911  1.00  0.00    +0.197 C 
ENDROOT
BRANCH  14  15
ATOM     15  CB  SER A 149       1.855  -1.867  -7.199  1.00  0.00    +0.191 C 
BRANCH  15  16
ATOM     16  OG  SER A 149       3.112  -1.634  -6.593  1.00  0.00    -0.392 OA
ATOM     17  HG  SER A 149       3.008  -1.626  -5.609  1.00  0.00    +0.210 HD
ENDBRANCH  15  16
ENDBRANCH  14  15
END_RES SER A 149
BEGIN_RES VAL A 150
REMARK INDEX MAP 3 1 15 2 17 3 18 4
ROOT
ATOM     18  CA  VAL A 150      -2.392  -0.627  -8.917  1.00  0.00    +0.173 C 
ENDROOT
BRANCH  18  19
ATOM     19  CB  VAL A 150      -3.617  -0.174  -8.103  1.00  0.00    +0.015 C 
ATOM     20  CG1 VAL A 150      -3.887  -1.122  -6.936  1.00  0.00    +0.010 C 
ATOM     21  CG2 VAL A 150      -3.506   1.263  -7.596  1.00  0.00    +0.010 C 
ENDBRANCH  18  19
END_RES VAL A 150
BEGIN_RES LYS A 151
REMARK INDEX MAP 3 1 15 2 18 3 21 4 24 5 27 6 28 7 29 8 30 9
ROOT
ATOM     22  CA  LYS A 151      -3.311   0.059 -12.575  1.00  0.00    +0.171 C 
ENDROOT
BRANCH  22  23
ATOM     23  CB  LYS A 151      -3.945  -0.970 -13.516  1.00  0.00    +0.035 C 
BRANCH  23  24
ATOM     24  CG  LYS A 151      -2.878  -1.825 -14.210  1.00  0.00    +0.008 C 
BRANCH  24  25
ATOM     25  CD  LYS A 151      -3.532  -2.983 -14.968  1.00  0.00    +0.061 C 
BRANCH  25  26
ATOM     26  CE  LYS A 151      -2.437  -3.798 -15.662  1.00  0.00    +0.258 C 
BRANCH  26  27
ATOM     27  NZ  LYS A 151      -2.999  -4.975 -16.369  1.00  0.00    -0.357 N 
ATOM     28  HZ1 LYS A 151      -2.996  -5.788 -15.737  1.00  0.00    +0.345 HD
ATOM     29  HZ2 LYS A 151      -3.965  -4.771 -16.662  1.00  0.00    +0.345 HD
ATOM     30  HZ3 LYS A 151      -2.425  -5.183 -17.199  1.00  0.00    +0.345 HD
ENDBRANCH  26  27
ENDBRANCH  25  26
ENDBRANCH  24  25
ENDBRANCH  23  24
ENDBRANCH  22  23
END_RES LYS A 151
BEGIN_RES ASP A 192
REMARK INDEX MAP 3 1 15 2 18 3 19 4 20 5
ROOT
ATOM     31  CA  ASP A 192      10.903   4.326 -12.109  1.00  0.00    +0.176 C 
ENDROOT
BRANCH  31  32
ATOM     32  CB  ASP A 192       9.944   5.512 -12.333  1.00  0.00    +0.087 C 
BRANCH  32  33
ATOM     33  CG  ASP A 192       8.473   5.199 -12.072  1.00  0.00    +0.044 C 
ATOM     34  OD1 ASP A 192       7.969   5.655 -11.018  1.00  0.00    -0.548 OA
ATOM     35  OD2 ASP A 192       7.823   4.654 -12.984  1.00  0.00    -0.549 OA
ENDBRANCH  32  33
ENDBRANCH  31  32
END_RES ASP A 192
BEGIN_RES HIS A 196
REMARK INDEX MAP 3 1 15 2 18 3 19 4 20 5 21 6 22 7 25 8
ROOT
ATOM     36  CA  HIS A 196       8.166  -0.861 -12.004  1.00  0.00    +0.177 C 
ENDROOT
BRANCH  36  37
ATOM     37  CB  HIS A 196       7.611   0.004 -13.145  1.00  0.00    +0.093 C 
BRANCH  37  38
ATOM     38  CG  HIS A 196       6.348  -0.555 -13.743  1.00  0.00    +0.061 A 
ATOM     39  ND1 HIS A 196       5.083  -0.331 -13.273  1.00  0.00    -0.242 NA
ATOM     40  CD2 HIS A 196       6.225  -1.397 -14.815  1.00  0.00    +0.107 A 
ATOM     41  CE1 HIS A 196       4.215  -1.008 -14.031  1.00  0.00    +0.196 A 
ATOM     42  NE2 HIS A 196       4.863  -1.681 -14.997  1.00  0.00    -0.350 N 
ATOM     43  HE2 HIS A 196       4.445  -2.282 -15.722  1.00  0.00    +0.167 HD
ENDBRANCH  37  38
ENDBRANCH  36  37
END_RES HIS A 196
BEGIN_RES LEU A 197
REMARK INDEX MAP 3 1 15 2 18 3 20 4 21 5
ROOT
ATOM     44  CA  LEU A 197       9.520  -4.001 -13.690  1.00  0.00    +0.172 C 
ENDROOT
BRANCH  44  45
ATOM     45  CB  LEU A 197      10.529  -3.881 -14.840  1.00  0.00    +0.038 C 
BRANCH  45  46
ATOM     46  CG  LEU A 197      10.096  -4.587 -16.124  1.00  0.00    -0.015 C 
ATOM     47  CD1 LEU A 197       9.114  -3.746 -16.939  1.00  0.00    +0.007 C 
ATOM     48  CD2 LEU A 197      11.328  -4.808 -16.988  1.00  0.00    +0.007 C 
ENDBRANCH  45  46
ENDBRANCH  44  45
END_RES LEU A 197
BEGIN_RES LEU A 198
REMARK INDEX MAP 3 1 15 2 18 3 20 4 21 5
ROOT
ATOM     49  CA  LEU A 198      11.452  -5.354 -10.643  1.00  0.00    +0.172 C 
ENDROOT
BRANCH  49  50
ATOM     50  CB  LEU A 198      12.799  -4.722 -10.252  1.00  0.00    +0.038 C 
BRANCH  50  51
ATOM     51  CG  LEU A 198      13.986  -5.149 -11.137  1.00  0.00    -0.015 C 
ATOM     52  CD1 LEU A 198      15.236  -4.373 -10.723  1.00  0.00    +0.007 C 
ATOM     53  CD2 LEU A 198      14.291  -6.643 -11.014  1.00  0.00    +0.007 C 
ENDBRANCH  50  51
ENDBRANCH  49  50
END_RES LEU A 198
BEGIN_RES PHE A 199
REMARK INDEX MAP 3 1 15 2 18 3 19 4 20 5 22 6 23 7 26 8
ROOT
ATOM     54  CA  PHE A 199       8.931  -4.566  -7.833  1.00  0.00    +0.175 C 
ENDROOT
BRANCH  54  55
ATOM     55  CB  PHE A 199       9.338  -3.350  -6.987  1.00  0.00    +0.070 C 
BRANCH  55  56
ATOM     56  CG  PHE A 199      10.795  -3.355  -6.566  1.00  0.00    -0.045 A 
ATOM     57  CD1 PHE A 199      11.212  -4.106  -5.451  1.00  0.00    +0.004 A 
ATOM     58  CD2 PHE A 199      11.743  -2.622  -7.299  1.00  0.00    +0.004 A 
ATOM     59  CE1 PHE A 199      12.566  -4.111  -5.072  1.00  0.00    +0.000 A 
ATOM     60  CE2 PHE A 199      13.094  -2.613  -6.911  1.00  0.00    +0.000 A 
ATOM     61  CZ  PHE A 199      13.505  -3.355  -5.793  1.00  0.00    +0.000 A 
ENDBRANCH  55  56
ENDBRANCH  54  55
END_RES PHE A 199
BEGIN_RES ASP A 200
REMARK INDEX MAP 3 1 15 2 18 3 19 4 20 5
ROOT
ATOM     62  CA  ASP A 200       5.649  -6.036  -9.219  1.00  0.00    +0.176 C 
ENDROOT
BRANCH  62  63
ATOM     63  CB  ASP A 200       5.124  -6.978  -8.114  1.00  0.00    +0.087 C 
BRANCH  63  64
ATOM     64  CG  ASP A 200       4.365  -8.214  -8.640  1.00  0.00    +0.044 C 
ATOM     65  OD1 ASP A 200       4.561  -8.600  -9.822  1.00  0.00    -0.548 OA
ATOM     66  OD2 ASP A 200       3.684  -8.881  -7.828  1.00  0.00    -0.549 OA
ENDBRANCH  63  64
ENDBRANCH  62  63
END_RES ASP A 200
BEGIN_RES CYS A 202
REMARK INDEX MAP 3 1 15 2 18 3 19 4
ROOT
ATOM     67  CA  CYS A 202       5.388  -0.342  -8.181  1.00  0.00    +0.181 C 
ENDROOT
BRANCH  67  68
ATOM     68  CB  CYS A 202       6.325  -0.781  -7.055  1.00  0.00    +0.101 C 
BRANCH  68  69
ATOM     69  SG  CYS A 202       6.238   0.344  -5.652  1.00  0.00    -0.177 SA
ATOM     70  HG  CYS A 202       6.145  -0.379  -4.492  1.00  0.00    +0.102 HD
ENDBRANCH  68  69
ENDBRANCH  67  68
END_RES CYS A 202
BEGIN_RES ASN A 203
REMARK INDEX MAP 3 1 15 2 18 3 19 4 20 5 21 6 22 7
ROOT
ATOM     71  CA  ASN A 203       5.685   3.325  -9.344  1.00  0.00    +0.180 C 
ENDROOT
BRANCH  71  72
ATOM     72  CB  ASN A 203       4.492   3.963 -10.072  1.00  0.00    +0.134 C 
BRANCH  72  73
ATOM     73  CG  ASN A 203       4.385   3.602 -11.538  1.00  0.00    +0.220 C 
ATOM     74  OD1 ASN A 203       5.009   2.711 -12.065  1.00  0.00    -0.275 OA
ATOM     75  ND2 ASN A 203       3.585   4.324 -12.288  1.00  0.00    -0.368 N 
ATOM     76 HD22 ASN A 203       3.487   4.109 -13.290  1.00  0.00    +0.159 HD
ATOM     77 HD21 ASN A 203       3.058   5.106 -11.874  1.00  0.00    +0.159 HD
ENDBRANCH  72  73
ENDBRANCH  71  72
END_RES ASN A 203
BEGIN_RES LEU A 204
REMARK INDEX MAP 3 1 15 2 18 3 20 4 21 5
ROOT
ATOM     78  CA  LEU A 204       8.257   5.530  -7.491  1.00  0.00    +0.172 C 
ENDROOT
BRANCH  78  79
ATOM     79  CB  LEU A 204       9.742   5.577  -7.891  1.00  0.00    +0.038 C 
BRANCH  79  80
ATOM     80  CG  LEU A 204      10.611   4.469  -7.285  1.00  0.00    -0.015 C 
ATOM     81  CD1 LEU A 204      12.072   4.729  -7.655  1.00  0.00    +0.007 C 
ATOM     82  CD2 LEU A 204      10.489   4.440  -5.759  1.00  0.00    +0.007 C 
ENDBRANCH  79  80
ENDBRANCH  78  79
END_RES LEU A 204
BEGIN_RES THR A 205
REMARK INDEX MAP 3 1 15 2 17 3 18 4 22 5
ROOT
ATOM     83  CA  THR A 205       6.717   8.700  -9.018  1.00  0.00    +0.199 C 
ENDROOT
BRANCH  83  84
ATOM     84  CB  THR A 205       7.097   9.171 -10.425  1.00  0.00    +0.143 C 
ATOM     85  CG2 THR A 205       8.597   9.441 -10.545  1.00  0.00    +0.041 C 
BRANCH  84  86
ATOM     86  OG1 THR A 205       6.743   8.204 -11.393  1.00  0.00    -0.389 OA
ATOM     87  HG1 THR A 205       6.390   7.398 -10.940  1.00  0.00    +0.211 HD
ENDBRANCH  84  86
ENDBRANCH  83  84
END_RES THR A 205
BEGIN_RES ARG A 206
REMARK INDEX MAP 3 1 15 2 18 3 21 4 24 5 25 6 26 7 27 8 28 9 29 10 30 11 31 12
REMARK INDEX MAP 32 13
ROOT
ATOM     88  CA  ARG A 206       3.145   7.848  -7.883  1.00  0.00    +0.171 C 
ENDROOT
BRANCH  88  89
ATOM     89  CB  ARG A 206       2.696   6.441  -7.482  1.00  0.00    +0.038 C 
BRANCH  89  90
ATOM     90  CG  ARG A 206       1.284   6.128  -7.974  1.00  0.00    +0.040 C 
BRANCH  90  91
ATOM     91  CD  ARG A 206       1.165   6.137  -9.505  1.00  0.00    +0.197 C 
BRANCH  91  92
ATOM     92  NE  ARG A 206      -0.251   6.106  -9.891  1.00  0.00    -0.278 N 
ATOM     93  HE  ARG A 206      -0.890   6.692  -9.334  1.00  0.00    +0.260 HD
ATOM     94  CZ  ARG A 206      -0.797   5.414 -10.868  1.00  0.00    +0.339 C 
ATOM     95  NH1 ARG A 206      -0.106   4.895 -11.841  1.00  0.00    -0.290 N 
ATOM     96  NH2 ARG A 206      -2.072   5.198 -10.862  1.00  0.00    -0.290 N 
ATOM     97 HH12 ARG A 206      -0.582   4.362 -12.583  1.00  0.00    +0.256 HD
ATOM     98 HH11 ARG A 206       0.916   5.019 -11.870  1.00  0.00    +0.256 HD
ATOM     99 HH22 ARG A 206      -2.507   4.658 -11.623  1.00  0.00    +0.256 HD
ATOM    100 HH21 ARG A 206      -2.654   5.568 -10.096  1.00  0.00    +0.256 HD
ENDBRANCH  91  92
ENDBRANCH  90  91
ENDBRANCH  89  90
ENDBRANCH  88  89
END_RES ARG A 206
BEGIN_RES GLU A 207
REMARK INDEX MAP 3 1 15 2 18 3 21 4 22 5 23 6
ROOT
ATOM    101  CA  GLU A 207       1.252  10.799  -6.333  1.00  0.00    +0.171 C 
ENDROOT
BRANCH 101 102
ATOM    102  CB  GLU A 207       1.086  12.112  -7.105  1.00  0.00    +0.041 C 
BRANCH 102 103
ATOM    103  CG  GLU A 207       2.365  12.569  -7.818  1.00  0.00    +0.055 C 
BRANCH 103 104
ATOM    104  CD  GLU A 207       1.994  13.524  -8.949  1.00  0.00    +0.041 C 
ATOM    105  OE1 GLU A 207       2.723  14.508  -9.198  1.00  0.00    -0.548 OA
ATOM    106  OE2 GLU A 207       0.866  13.412  -9.486  1.00  0.00    -0.549 OA
ENDBRANCH 103 104
ENDBRANCH 102 103
ENDBRANCH 101 102
END_RES GLU A 207
BEGIN_RES SER A 208
REMARK INDEX MAP 3 1 15 2 18 3 19 4
ROOT
ATOM    107  CA  SER A 208      -1.224   8.555  -4.401  1.00  0.00    +0.197 C 
ENDROOT
BRANCH 107 108
ATOM    108  CB  SER A 208      -0.827   7.287  -3.636  1.00  0.00    +0.191 C 
BRANCH 108 109
ATOM    109  OG  SER A 208      -0.126   6.397  -4.489  1.00  0.00    -0.392 OA
ATOM    110  HG  SER A 208       0.409   5.768  -3.942  1.00  0.00    +0.210 HD
ENDBRANCH 108 109
ENDBRANCH 107 108
END_RES SER A 208
