REMARK VINA RESULT:    -7.304      1.596      2.322
REMARK INTER + INTRA:         -11.722
REMARK INTER:                 -10.666
REMARK INTRA:                  -1.056
REMARK UNBOUND:                -1.001
ROOT
ATOM      1  N6  665 L   1       7.326  -8.395 -10.518  1.00  0.00    -0.2626 NA
ATOM      2 C16  665 L   1      10.642  -8.894  -6.728  1.00  0.00    +0.0423  A
ATOM      3 C18  665 L   1       9.289  -9.206  -6.872  1.00  0.00    -0.0305  A
ATOM      4 C19  665 L   1       8.620  -8.944  -8.078  1.00  0.00    -0.0131  A
ATOM      5 C20  665 L   1      11.343  -8.317  -7.783  1.00  0.00    -0.0377  A
ATOM      6 C21  665 L   1       9.333  -8.359  -9.145  1.00  0.00    +0.0004  A
ATOM      7 C22  665 L   1      10.695  -8.049  -8.988  1.00  0.00    -0.0506  A
ATOM      8 C26  665 L   1       7.263  -9.245  -8.254  1.00  0.00    -0.0358  A
ATOM      9 C30  665 L   1       8.634  -8.112 -10.328  1.00  0.00    +0.0353  A
ATOM     10 C33  665 L   1       6.675  -8.954  -9.476  1.00  0.00    +0.0281  A
ATOM     11 H47  665 L   1       8.748  -9.658  -6.042  1.00  0.00    +0.0644  H
ATOM     12 H48  665 L   1      12.390  -8.050  -7.749  1.00  0.00    +0.0638  H
ATOM     13 H49  665 L   1      11.256  -7.598  -9.804  1.00  0.00    +0.0625  H
ATOM     14 H50  665 L   1       6.675  -9.694  -7.461  1.00  0.00    +0.0639  H
ATOM     15 H53  665 L   1       9.125  -7.663 -11.189  1.00  0.00    +0.0836  H
ATOM     16 H58  665 L   1       5.627  -9.174  -9.650  1.00  0.00    +0.0830  H
ENDROOT
BRANCH 2 18
ATOM     17  O2  665 L   1      13.312  -7.972  -5.718  1.00  0.00    -0.2722 OA
ATOM     18  N4  665 L   1      11.293  -9.163  -5.522  1.00  0.00    -0.3256  N
ATOM     19 C10  665 L   1      12.553  -8.710  -5.096  1.00  0.00    +0.2339  C
ATOM     20 H42  665 L   1      10.784  -9.769  -4.884  1.00  0.00    +0.1686 HD
BRANCH 19 21
ATOM     21  C7  665 L   1      12.910  -9.235  -3.697  1.00  0.00    +0.0752  C
ATOM     22 H35  665 L   1      13.685 -10.006  -3.820  1.00  0.00    +0.0458  H
BRANCH 21 23
ATOM     23  C8  665 L   1      13.467  -8.109  -2.839  1.00  0.00    -0.0341  A
ATOM     24 C11  665 L   1      14.825  -8.079  -2.521  1.00  0.00    -0.0574  A
ATOM     25 C12  665 L   1      12.619  -7.104  -2.371  1.00  0.00    -0.0574  A
ATOM     26 C13  665 L   1      14.487  -6.043  -1.266  1.00  0.00    -0.0103  A
ATOM     27 C14  665 L   1      15.335  -7.047  -1.734  1.00  0.00    -0.0551  A
ATOM     28 C15  665 L   1      13.129  -6.073  -1.583  1.00  0.00    -0.0551  A
ATOM     29 H38  665 L   1      15.498  -8.855  -2.881  1.00  0.00    +0.0621  H
ATOM     30 H39  665 L   1      11.560  -7.107  -2.608  1.00  0.00    +0.0621  H
ATOM     31 H40  665 L   1      16.396  -7.037  -1.497  1.00  0.00    +0.0621  H
ATOM     32 H41  665 L   1      12.460  -5.295  -1.225  1.00  0.00    +0.0621  H
BRANCH 26 33
ATOM     33 C17  665 L   1      15.033  -4.939  -0.424  1.00  0.00    +0.1179  C
ATOM     34 H43  665 L   1      15.885  -5.308   0.159  1.00  0.00    +0.0749  H
ATOM     35 H44  665 L   1      15.389  -4.113  -1.052  1.00  0.00    +0.0749  H
BRANCH 33 36
ATOM     36  O1  665 L   1      14.015  -4.466   0.451  1.00  0.00    -0.4564 OA
BRANCH 36 38
ATOM     37  O3  665 L   1      14.883  -5.718   2.176  1.00  0.00    -0.2449 OA
ATOM     38 C25  665 L   1      14.069  -4.923   1.731  1.00  0.00    +0.3398  C
BRANCH 38 39
ATOM     39 C23  665 L   1      12.985  -4.322   2.549  1.00  0.00    +0.0619  A
ATOM     40 C24  665 L   1      11.689  -4.838   2.521  1.00  0.00    -0.0362  A
ATOM     41 C27  665 L   1      10.985  -3.155   4.105  1.00  0.00    -0.0502  A
ATOM     42 C28  665 L   1      10.689  -4.255   3.298  1.00  0.00    -0.0551  A
ATOM     43 C29  665 L   1      13.281  -3.222   3.355  1.00  0.00    -0.0473  A
ATOM     44 C31  665 L   1      12.281  -2.638   4.133  1.00  0.00    -0.0580  A
ATOM     45 C32  665 L   1      11.346  -6.015   1.668  1.00  0.00    -0.0389  C
ATOM     46 C34  665 L   1       9.917  -2.529   4.936  1.00  0.00    -0.0397  C
ATOM     47 H51  665 L   1       9.677  -4.651   3.278  1.00  0.00    +0.0623  H
ATOM     48 H52  665 L   1      14.285  -2.807   3.385  1.00  0.00    +0.0626  H
ATOM     49 H54  665 L   1      12.523  -1.781   4.754  1.00  0.00    +0.0620  H
ATOM     50 H55  665 L   1      11.361  -5.736   0.610  1.00  0.00    +0.0278  H
ATOM     51 H56  665 L   1      12.049  -6.838   1.837  1.00  0.00    +0.0278  H
ATOM     52 H57  665 L   1      10.346  -6.401   1.894  1.00  0.00    +0.0278  H
ATOM     53 H59  665 L   1      10.336  -2.065   5.836  1.00  0.00    +0.0278  H
ATOM     54 H60  665 L   1       9.189  -3.277   5.269  1.00  0.00    +0.0278  H
ATOM     55 H61  665 L   1       9.392  -1.762   4.359  1.00  0.00    +0.0278  H
ENDBRANCH 38 39
ENDBRANCH 36 38
ENDBRANCH 33 36
ENDBRANCH 26 33
ENDBRANCH 21 23
BRANCH 21 57
ATOM     56  N5  665 L   1      11.632 -11.348  -3.395  1.00  0.00    -0.3289 NA
ATOM     57  C9  665 L   1      11.690  -9.928  -3.058  1.00  0.00    +0.0085  C
ATOM     58 H36  665 L   1      11.694  -9.822  -1.966  1.00  0.00    +0.0432  H
ATOM     59 H37  665 L   1      10.772  -9.446  -3.414  1.00  0.00    +0.0432  H
ATOM     60 H45  665 L   1      10.809 -11.763  -2.961  1.00  0.00    +0.1182 HD
ATOM     61 H46  665 L   1      12.436 -11.833  -2.998  1.00  0.00    +0.1182 HD
ENDBRANCH 21 57
ENDBRANCH 19 21
ENDBRANCH 2 18
TORSDOF 8
BEGIN_RES GLN A 29
REMARK INDEX MAP 3 1 15 2 18 3 21 4 22 5 23 6 24 7 25 8
ROOT
ATOM      1  CA  GLN A  29      16.975   0.393   8.263  1.00  0.00    +0.171 C 
ENDROOT
BRANCH   1   2
ATOM      2  CB  GLN A  29      16.816  -1.139   8.255  1.00  0.00    +0.045 C 
BRANCH   2   3
ATOM      3  CG  GLN A  29      16.671  -1.702   6.833  1.00  0.00    +0.102 C 
BRANCH   3   4
ATOM      4  CD  GLN A  29      15.408  -1.207   6.137  1.00  0.00    +0.217 C 
ATOM      5  OE1 GLN A  29      14.318  -1.258   6.676  1.00  0.00    -0.275 OA
ATOM      6  NE2 GLN A  29      15.504  -0.712   4.924  1.00  0.00    -0.368 N 
ATOM      7 HE22 GLN A  29      14.661  -0.373   4.438  1.00  0.00    +0.159 HD
ATOM      8 HE21 GLN A  29      16.421  -0.663   4.459  1.00  0.00    +0.159 HD
ENDBRANCH   3   4
ENDBRANCH   2   3
ENDBRANCH   1   2
END_RES GLN A 29
BEGIN_RES LYS A 33
REMARK INDEX MAP 3 1 15 2 18 3 21 4 24 5 27 6 28 7 29 8 30 9
ROOT
ATOM      9  CA  LYS A  33      11.989   3.808   9.373  1.00  0.00    +0.171 C 
ENDROOT
BRANCH   9  10
ATOM     10  CB  LYS A  33      11.876   2.482  10.136  1.00  0.00    +0.035 C 
BRANCH  10  11
ATOM     11  CG  LYS A  33      11.141   1.431   9.297  1.00  0.00    +0.008 C 
BRANCH  11  12
ATOM     12  CD  LYS A  33      10.685   0.266  10.179  1.00  0.00    +0.061 C 
BRANCH  12  13
ATOM     13  CE  LYS A  33       9.899  -0.720   9.313  1.00  0.00    +0.258 C 
BRANCH  13  14
ATOM     14  NZ  LYS A  33       9.301  -1.801  10.135  1.00  0.00    -0.357 N 
ATOM     15  HZ1 LYS A  33       9.732  -1.801  11.070  1.00  0.00    +0.345 HD
ATOM     16  HZ2 LYS A  33       8.287  -1.642  10.225  1.00  0.00    +0.345 HD
ATOM     17  HZ3 LYS A  33       9.467  -2.710   9.680  1.00  0.00    +0.345 HD
ENDBRANCH  13  14
ENDBRANCH  12  13
ENDBRANCH  11  12
ENDBRANCH  10  11
ENDBRANCH   9  10
END_RES LYS A 33
BEGIN_RES SER A 149
REMARK INDEX MAP 3 1 15 2 18 3 19 4
ROOT
ATOM     18  CA  SER A 149       7.343  -2.533  -0.915  1.00  0.00    +0.197 C 
ENDROOT
BRANCH  18  19
ATOM     19  CB  SER A 149       7.142  -1.337   0.020  1.00  0.00    +0.191 C 
BRANCH  19  20
ATOM     20  OG  SER A 149       7.396  -0.127  -0.666  1.00  0.00    -0.392 OA
ATOM     21  HG  SER A 149       7.457   0.616  -0.014  1.00  0.00    +0.210 HD
ENDBRANCH  19  20
ENDBRANCH  18  19
END_RES SER A 149
BEGIN_RES VAL A 150
REMARK INDEX MAP 3 1 15 2 17 3 18 4
ROOT
ATOM     22  CA  VAL A 150       6.162  -5.910   0.524  1.00  0.00    +0.173 C 
ENDROOT
BRANCH  22  23
ATOM     23  CB  VAL A 150       4.686  -6.355   0.550  1.00  0.00    +0.015 C 
ATOM     24  CG1 VAL A 150       3.845  -5.269   1.243  1.00  0.00    +0.010 C 
ATOM     25  CG2 VAL A 150       4.151  -6.662  -0.851  1.00  0.00    +0.010 C 
ENDBRANCH  22  23
END_RES VAL A 150
BEGIN_RES GLN A 151
REMARK INDEX MAP 3 1 15 2 18 3 21 4 22 5 23 6 24 7 25 8
ROOT
ATOM     26  CA  GLN A 151       8.198  -9.163   0.318  1.00  0.00    +0.171 C 
ENDROOT
BRANCH  26  27
ATOM     27  CB  GLN A 151       8.689  -9.980   1.515  1.00  0.00    +0.045 C 
BRANCH  27  28
ATOM     28  CG  GLN A 151       9.907  -9.347   2.197  1.00  0.00    +0.102 C 
BRANCH  28  29
ATOM     29  CD  GLN A 151      10.416 -10.185   3.363  1.00  0.00    +0.217 C 
ATOM     30  OE1 GLN A 151       9.874 -11.215   3.736  1.00  0.00    -0.275 OA
ATOM     31  NE2 GLN A 151      11.504  -9.784   3.983  1.00  0.00    -0.368 N 
ATOM     32 HE22 GLN A 151      11.875 -10.327   4.775  1.00  0.00    +0.159 HD
ATOM     33 HE21 GLN A 151      11.984  -8.925   3.676  1.00  0.00    +0.159 HD
ENDBRANCH  28  29
ENDBRANCH  27  28
ENDBRANCH  26  27
END_RES GLN A 151
BEGIN_RES GLU A 192
REMARK INDEX MAP 3 1 15 2 18 3 21 4 22 5 23 6
ROOT
ATOM     34  CA  GLU A 192      15.855   0.073  -7.983  1.00  0.00    +0.171 C 
ENDROOT
BRANCH  34  35
ATOM     35  CB  GLU A 192      15.246  -1.153  -8.688  1.00  0.00    +0.041 C 
BRANCH  35  36
ATOM     36  CG  GLU A 192      14.456  -2.005  -7.689  1.00  0.00    +0.055 C 
BRANCH  36  37
ATOM     37  CD  GLU A 192      13.767  -3.193  -8.345  1.00  0.00    +0.041 C 
ATOM     38  OE1 GLU A 192      14.366  -4.295  -8.289  1.00  0.00    -0.548 OA
ATOM     39  OE2 GLU A 192      12.602  -3.019  -8.768  1.00  0.00    -0.549 OA
ENDBRANCH  36  37
ENDBRANCH  35  36
ENDBRANCH  34  35
END_RES GLU A 192
BEGIN_RES LYS A 196
REMARK INDEX MAP 3 1 15 2 18 3 21 4 24 5 27 6 28 7 29 8 30 9
ROOT
ATOM     40  CA  LYS A 196      14.847  -0.109  -2.051  1.00  0.00    +0.171 C 
ENDROOT
BRANCH  40  41
ATOM     41  CB  LYS A 196      15.401  -1.519  -2.305  1.00  0.00    +0.035 C 
BRANCH  41  42
ATOM     42  CG  LYS A 196      14.597  -2.258  -3.381  1.00  0.00    +0.008 C 
BRANCH  42  43
ATOM     43  CD  LYS A 196      15.354  -3.486  -3.903  1.00  0.00    +0.061 C 
BRANCH  43  44
ATOM     44  CE  LYS A 196      14.426  -4.217  -4.876  1.00  0.00    +0.258 C 
BRANCH  44  45
ATOM     45  NZ  LYS A 196      15.004  -5.456  -5.441  1.00  0.00    -0.357 N 
ATOM     46  HZ1 LYS A 196      15.304  -6.076  -4.674  1.00  0.00    +0.345 HD
ATOM     47  HZ2 LYS A 196      14.296  -5.936  -6.014  1.00  0.00    +0.345 HD
ATOM     48  HZ3 LYS A 196      15.817  -5.219  -6.028  1.00  0.00    +0.345 HD
ENDBRANCH  44  45
ENDBRANCH  43  44
ENDBRANCH  42  43
ENDBRANCH  41  42
ENDBRANCH  40  41
END_RES LYS A 196
BEGIN_RES HIS A 197
REMARK INDEX MAP 3 1 15 2 18 3 19 4 20 5 21 6 22 7 25 8
ROOT
ATOM     49  CA  HIS A 197      16.925   1.640   0.668  1.00  0.00    +0.177 C 
ENDROOT
BRANCH  49  50
ATOM     50  CB  HIS A 197      18.448   1.811   0.600  1.00  0.00    +0.093 C 
BRANCH  50  51
ATOM     51  CG  HIS A 197      19.196   0.506   0.533  1.00  0.00    +0.061 A 
ATOM     52  ND1 HIS A 197      18.679  -0.735   0.829  1.00  0.00    -0.242 NA
ATOM     53  CD2 HIS A 197      20.507   0.323   0.184  1.00  0.00    +0.107 A 
ATOM     54  CE1 HIS A 197      19.656  -1.643   0.669  1.00  0.00    +0.196 A 
ATOM     55  NE2 HIS A 197      20.790  -1.043   0.292  1.00  0.00    -0.350 N 
ATOM     56  HE2 HIS A 197      21.697  -1.498   0.114  1.00  0.00    +0.167 HD
ENDBRANCH  50  51
ENDBRANCH  49  50
END_RES HIS A 197
BEGIN_RES ILE A 198
REMARK INDEX MAP 3 1 15 2 17 3 18 4 24 5
ROOT
ATOM     57  CA  ILE A 198      15.384   5.175   0.385  1.00  0.00    +0.174 C 
ENDROOT
BRANCH  57  58
ATOM     58  CB  ILE A 198      16.001   6.256  -0.525  1.00  0.00    +0.018 C 
ATOM     59  CG2 ILE A 198      17.321   6.748   0.094  1.00  0.00    +0.010 C 
BRANCH  58  60
ATOM     60  CG1 ILE A 198      16.208   5.750  -1.968  1.00  0.00    +0.002 C 
ATOM     61  CD1 ILE A 198      16.437   6.860  -2.998  1.00  0.00    +0.004 C 
ENDBRANCH  58  60
ENDBRANCH  57  58
END_RES ILE A 198
BEGIN_RES ASP A 200
REMARK INDEX MAP 3 1 15 2 18 3 19 4 20 5
ROOT
ATOM     62  CA  ASP A 200      11.340   1.754   2.515  1.00  0.00    +0.176 C 
ENDROOT
BRANCH  62  63
ATOM     63  CB  ASP A 200      10.261   2.408   3.406  1.00  0.00    +0.087 C 
BRANCH  63  64
ATOM     64  CG  ASP A 200      10.522   2.264   4.915  1.00  0.00    +0.044 C 
ATOM     65  OD1 ASP A 200      11.710   2.207   5.316  1.00  0.00    -0.548 OA
ATOM     66  OD2 ASP A 200       9.544   2.330   5.695  1.00  0.00    -0.549 OA
ENDBRANCH  63  64
ENDBRANCH  62  63
END_RES ASP A 200
BEGIN_RES CYS A 202
REMARK INDEX MAP 3 1 15 2 18 3 19 4
ROOT
ATOM     67  CA  CYS A 202       9.840  -0.148  -2.684  1.00  0.00    +0.181 C 
ENDROOT
BRANCH  67  68
ATOM     68  CB  CYS A 202       9.556   1.346  -2.861  1.00  0.00    +0.101 C 
BRANCH  68  69
ATOM     69  SG  CYS A 202       8.825   1.701  -4.478  1.00  0.00    -0.177 SA
ATOM     70  HG  CYS A 202       7.616   2.322  -4.307  1.00  0.00    +0.102 HD
ENDBRANCH  68  69
ENDBRANCH  67  68
END_RES CYS A 202
BEGIN_RES ASN A 203
REMARK INDEX MAP 3 1 15 2 18 3 19 4 20 5 21 6 22 7
ROOT
ATOM     71  CA  ASN A 203      10.562  -2.205  -5.856  1.00  0.00    +0.180 C 
ENDROOT
BRANCH  71  72
ATOM     72  CB  ASN A 203      10.282  -3.714  -5.873  1.00  0.00    +0.134 C 
BRANCH  72  73
ATOM     73  CG  ASN A 203      11.038  -4.504  -4.826  1.00  0.00    +0.220 C 
ATOM     74  OD1 ASN A 203      11.254  -4.110  -3.704  1.00  0.00    -0.275 OA
ATOM     75  ND2 ASN A 203      11.513  -5.677  -5.171  1.00  0.00    -0.368 N 
ATOM     76 HD22 ASN A 203      12.033  -6.244  -4.486  1.00  0.00    +0.159 HD
ATOM     77 HD21 ASN A 203      11.365  -6.032  -6.127  1.00  0.00    +0.159 HD
ENDBRANCH  72  73
ENDBRANCH  71  72
END_RES ASN A 203
BEGIN_RES LEU A 204
REMARK INDEX MAP 3 1 15 2 18 3 20 4 21 5
ROOT
ATOM     78  CA  LEU A 204      10.344   0.047  -8.968  1.00  0.00    +0.172 C 
ENDROOT
BRANCH  78  79
ATOM     79  CB  LEU A 204      11.507   0.932  -9.440  1.00  0.00    +0.038 C 
BRANCH  79  80
ATOM     80  CG  LEU A 204      11.897   2.045  -8.454  1.00  0.00    -0.015 C 
ATOM     81  CD1 LEU A 204      13.166   2.725  -8.963  1.00  0.00    +0.007 C 
ATOM     82  CD2 LEU A 204      10.788   3.089  -8.314  1.00  0.00    +0.007 C 
ENDBRANCH  79  80
ENDBRANCH  78  79
END_RES LEU A 204
BEGIN_RES THR A 205
REMARK INDEX MAP 3 1 15 2 17 3 18 4 22 5
ROOT
ATOM     83  CA  THR A 205      10.171  -2.845 -11.498  1.00  0.00    +0.199 C 
ENDROOT
BRANCH  83  84
ATOM     84  CB  THR A 205      11.447  -3.524 -12.008  1.00  0.00    +0.143 C 
ATOM     85  CG2 THR A 205      12.533  -2.512 -12.371  1.00  0.00    +0.041 C 
BRANCH  84  86
ATOM     86  OG1 THR A 205      11.975  -4.418 -11.055  1.00  0.00    -0.389 OA
ATOM     87  HG1 THR A 205      11.734  -4.112 -10.145  1.00  0.00    +0.211 HD
ENDBRANCH  84  86
ENDBRANCH  83  84
END_RES THR A 205
BEGIN_RES ARG A 206
REMARK INDEX MAP 3 1 15 2 18 3 21 4 24 5 25 6 26 7 27 8 28 9 29 10 30 11 31 12
REMARK INDEX MAP 32 13
ROOT
ATOM     88  CA  ARG A 206       7.295  -4.660  -9.716  1.00  0.00    +0.171 C 
ENDROOT
BRANCH  88  89
ATOM     89  CB  ARG A 206       6.943  -4.502  -8.237  1.00  0.00    +0.038 C 
BRANCH  89  90
ATOM     90  CG  ARG A 206       6.165  -5.741  -7.770  1.00  0.00    +0.040 C 
BRANCH  90  91
ATOM     91  CD  ARG A 206       6.158  -5.875  -6.255  1.00  0.00    +0.197 C 
BRANCH  91  92
ATOM     92  NE  ARG A 206       7.387  -6.516  -5.739  1.00  0.00    -0.278 N 
ATOM     93  HE  ARG A 206       8.012  -6.972  -6.418  1.00  0.00    +0.260 HD
ATOM     94  CZ  ARG A 206       7.736  -6.543  -4.468  1.00  0.00    +0.339 C 
ATOM     95  NH1 ARG A 206       8.766  -7.201  -4.032  1.00  0.00    -0.290 N 
ATOM     96  NH2 ARG A 206       7.058  -5.910  -3.572  1.00  0.00    -0.290 N 
ATOM     97 HH12 ARG A 206       8.998  -7.190  -3.028  1.00  0.00    +0.256 HD
ATOM     98 HH11 ARG A 206       9.353  -7.733  -4.690  1.00  0.00    +0.256 HD
ATOM     99 HH22 ARG A 206       7.350  -5.946  -2.584  1.00  0.00    +0.256 HD
ATOM    100 HH21 ARG A 206       6.224  -5.370  -3.843  1.00  0.00    +0.256 HD
ENDBRANCH  91  92
ENDBRANCH  90  91
ENDBRANCH  89  90
ENDBRANCH  88  89
END_RES ARG A 206
BEGIN_RES GLU A 207
REMARK INDEX MAP 3 1 15 2 18 3 21 4 22 5 23 6
ROOT
ATOM    101  CA  GLU A 207       4.503  -5.915 -11.996  1.00  0.00    +0.171 C 
ENDROOT
BRANCH 101 102
ATOM    102  CB  GLU A 207       4.773  -7.004 -13.033  1.00  0.00    +0.041 C 
BRANCH 102 103
ATOM    103  CG  GLU A 207       6.209  -7.026 -13.555  1.00  0.00    +0.055 C 
BRANCH 103 104
ATOM    104  CD  GLU A 207       6.262  -8.096 -14.634  1.00  0.00    +0.041 C 
ATOM    105  OE1 GLU A 207       5.919  -7.795 -15.798  1.00  0.00    -0.548 OA
ATOM    106  OE2 GLU A 207       6.433  -9.294 -14.312  1.00  0.00    -0.549 OA
ENDBRANCH 103 104
ENDBRANCH 102 103
ENDBRANCH 101 102
END_RES GLU A 207
BEGIN_RES THR A 208
REMARK INDEX MAP 3 1 15 2 17 3 18 4 22 5
ROOT
ATOM    107  CA  THR A 208       1.776  -5.557  -9.298  1.00  0.00    +0.199 C 
ENDROOT
BRANCH 107 108
ATOM    108  CB  THR A 208       1.641  -4.339  -8.378  1.00  0.00    +0.143 C 
ATOM    109  CG2 THR A 208       0.633  -4.551  -7.260  1.00  0.00    +0.041 C 
BRANCH 108 110
ATOM    110  OG1 THR A 208       2.878  -4.026  -7.773  1.00  0.00    -0.389 OA
ATOM    111  HG1 THR A 208       2.778  -4.044  -6.788  1.00  0.00    +0.211 HD
ENDBRANCH 108 110
ENDBRANCH 107 108
END_RES THR A 208
BEGIN_RES ASP A 211
REMARK INDEX MAP 3 1 15 2 18 3 19 4 20 5
ROOT
ATOM    112  CA  ASP A 211      -0.213 -10.060  -8.774  1.00  0.00    +0.176 C 
ENDROOT
BRANCH 112 113
ATOM    113  CB  ASP A 211       0.609  -9.358  -7.683  1.00  0.00    +0.087 C 
BRANCH 113 114
ATOM    114  CG  ASP A 211       2.105  -9.666  -7.752  1.00  0.00    +0.044 C 
ATOM    115  OD1 ASP A 211       2.473 -10.821  -7.435  1.00  0.00    -0.548 OA
ATOM    116  OD2 ASP A 211       2.879  -8.717  -8.007  1.00  0.00    -0.549 OA
ENDBRANCH 113 114
ENDBRANCH 112 113
END_RES ASP A 211
