REMARK VINA RESULT:    -7.304      1.596      2.322
REMARK INTER + INTRA:         -11.722
REMARK INTER:                 -10.666
REMARK INTRA:                  -1.056
REMARK UNBOUND:                -1.001
ROOT
ATOM      1  N6  665 L   1       7.474  -8.228 -10.391  1.00  0.00    -0.2626 NA
ATOM      2 C16  665 L   1      10.371  -8.361  -6.245  1.00  0.00    +0.0423  A
ATOM      3 C18  665 L   1       9.170  -8.977  -6.601  1.00  0.00    -0.0305  A
ATOM      4 C19  665 L   1       8.591  -8.740  -7.858  1.00  0.00    -0.0131  A
ATOM      5 C20  665 L   1      11.008  -7.502  -7.136  1.00  0.00    -0.0377  A
ATOM      6 C21  665 L   1       9.239  -7.869  -8.758  1.00  0.00    +0.0004  A
ATOM      7 C22  665 L   1      10.448  -7.254  -8.388  1.00  0.00    -0.0506  A
ATOM      8 C26  665 L   1       7.387  -9.342  -8.246  1.00  0.00    -0.0358  A
ATOM      9 C30  665 L   1       8.634  -7.656  -9.999  1.00  0.00    +0.0353  A
ATOM     10 C33  665 L   1       6.880  -9.055  -9.505  1.00  0.00    +0.0281  A
ATOM     11 H47  665 L   1       8.677  -9.649  -5.899  1.00  0.00    +0.0644  H
ATOM     12 H48  665 L   1      11.939  -6.992  -6.933  1.00  0.00    +0.0638  H
ATOM     13 H49  665 L   1      10.958  -6.581  -9.074  1.00  0.00    +0.0625  H
ATOM     14 H50  665 L   1       6.853 -10.017  -7.586  1.00  0.00    +0.0639  H
ATOM     15 H53  665 L   1       9.082  -6.997 -10.738  1.00  0.00    +0.0836  H
ATOM     16 H58  665 L   1       5.952  -9.504  -9.841  1.00  0.00    +0.0830  H
ENDROOT
BRANCH 2 18
ATOM     17  O2  665 L   1      13.078  -7.658  -5.162  1.00  0.00    -0.2722 OA
ATOM     18  N4  665 L   1      10.934  -8.609  -4.990  1.00  0.00    -0.3256  N
ATOM     19 C10  665 L   1      12.215  -8.264  -4.531  1.00  0.00    +0.2339  C
ATOM     20 H42  665 L   1      10.332  -9.108  -4.341  1.00  0.00    +0.1686 HD
BRANCH 19 21
ATOM     21  C7  665 L   1      12.450  -8.720  -3.083  1.00  0.00    +0.0752  C
ATOM     22 H35  665 L   1      13.129  -9.585  -3.114  1.00  0.00    +0.0458  H
BRANCH 21 23
ATOM     23  C8  665 L   1      13.105  -7.607  -2.280  1.00  0.00    -0.0341  A
ATOM     24 C11  665 L   1      14.453  -7.696  -1.932  1.00  0.00    -0.0574  A
ATOM     25 C12  665 L   1      12.359  -6.493  -1.893  1.00  0.00    -0.0574  A
ATOM     26 C13  665 L   1      14.307  -5.563  -0.809  1.00  0.00    -0.0103  A
ATOM     27 C14  665 L   1      15.053  -6.675  -1.196  1.00  0.00    -0.0551  A
ATOM     28 C15  665 L   1      12.959  -5.473  -1.156  1.00  0.00    -0.0551  A
ATOM     29 H38  665 L   1      15.049  -8.558  -2.229  1.00  0.00    +0.0621  H
ATOM     30 H39  665 L   1      11.308  -6.401  -2.154  1.00  0.00    +0.0621  H
ATOM     31 H40  665 L   1      16.105  -6.760  -0.934  1.00  0.00    +0.0621  H
ATOM     32 H41  665 L   1      12.367  -4.610  -0.860  1.00  0.00    +0.0621  H
BRANCH 26 33
ATOM     33 C17  665 L   1      14.949  -4.472  -0.021  1.00  0.00    +0.1179  C
ATOM     34 H43  665 L   1      15.805  -4.873   0.535  1.00  0.00    +0.0749  H
ATOM     35 H44  665 L   1      15.322  -3.682  -0.686  1.00  0.00    +0.0749  H
BRANCH 33 36
ATOM     36  O1  665 L   1      13.998  -3.920   0.884  1.00  0.00    -0.4564 OA
BRANCH 36 38
ATOM     37  O3  665 L   1      14.747  -5.305   2.563  1.00  0.00    -0.2449 OA
ATOM     38 C25  665 L   1      13.960  -4.480   2.123  1.00  0.00    +0.3398  C
BRANCH 38 39
ATOM     39 C23  665 L   1      12.812  -3.953   2.903  1.00  0.00    +0.0619  A
ATOM     40 C24  665 L   1      11.566  -4.581   2.867  1.00  0.00    -0.0362  A
ATOM     41 C27  665 L   1      10.685  -2.920   4.385  1.00  0.00    -0.0502  A
ATOM     42 C28  665 L   1      10.504  -4.065   3.608  1.00  0.00    -0.0551  A
ATOM     43 C29  665 L   1      12.993  -2.807   3.679  1.00  0.00    -0.0473  A
ATOM     44 C31  665 L   1      11.931  -2.291   4.420  1.00  0.00    -0.0580  A
ATOM     45 C32  665 L   1      11.345  -5.809   2.045  1.00  0.00    -0.0389  C
ATOM     46 C34  665 L   1       9.550  -2.367   5.176  1.00  0.00    -0.0397  C
ATOM     47 H51  665 L   1       9.530  -4.549   3.582  1.00  0.00    +0.0623  H
ATOM     48 H52  665 L   1      13.957  -2.305   3.713  1.00  0.00    +0.0626  H
ATOM     49 H54  665 L   1      12.084  -1.398   5.018  1.00  0.00    +0.0620  H
ATOM     50 H55  665 L   1      11.358  -5.561   0.979  1.00  0.00    +0.0278  H
ATOM     51 H56  665 L   1      12.114  -6.562   2.253  1.00  0.00    +0.0278  H
ATOM     52 H57  665 L   1      10.379  -6.274   2.265  1.00  0.00    +0.0278  H
ATOM     53 H59  665 L   1       9.908  -1.841   6.069  1.00  0.00    +0.0278  H
ATOM     54 H60  665 L   1       8.883  -3.165   5.519  1.00  0.00    +0.0278  H
ATOM     55 H61  665 L   1       8.972  -1.666   4.566  1.00  0.00    +0.0278  H
ENDBRANCH 38 39
ENDBRANCH 36 38
ENDBRANCH 33 36
ENDBRANCH 26 33
ENDBRANCH 21 23
BRANCH 21 57
ATOM     56  N5  665 L   1      10.927 -10.643  -2.669  1.00  0.00    -0.3289 NA
ATOM     57  C9  665 L   1      11.129  -9.212  -2.457  1.00  0.00    +0.0085  C
ATOM     58 H36  665 L   1      11.093  -9.004  -1.381  1.00  0.00    +0.0432  H
ATOM     59 H37  665 L   1      10.290  -8.669  -2.908  1.00  0.00    +0.0432  H
ATOM     60 H45  665 L   1      10.042 -10.923  -2.248  1.00  0.00    +0.1182 HD
ATOM     61 H46  665 L   1      11.651 -11.172  -2.183  1.00  0.00    +0.1182 HD
ENDBRANCH 21 57
ENDBRANCH 19 21
ENDBRANCH 2 18
TORSDOF 8
BEGIN_RES GLN A 29
REMARK INDEX MAP 3 1 15 2 18 3 21 4 22 5 23 6 24 7 25 8
ROOT
ATOM      1  CA  GLN A  29      16.975   0.393   8.263  1.00  0.00    +0.171 C 
ENDROOT
BRANCH   1   2
ATOM      2  CB  GLN A  29      16.816  -1.139   8.255  1.00  0.00    +0.045 C 
BRANCH   2   3
ATOM      3  CG  GLN A  29      16.730  -1.708   6.831  1.00  0.00    +0.102 C 
BRANCH   3   4
ATOM      4  CD  GLN A  29      15.568  -1.120   6.038  1.00  0.00    +0.217 C 
ATOM      5  OE1 GLN A  29      14.460  -0.995   6.523  1.00  0.00    -0.275 OA
ATOM      6  NE2 GLN A  29      15.775  -0.737   4.798  1.00  0.00    -0.368 N 
ATOM      7 HE22 GLN A  29      15.002  -0.338   4.246  1.00  0.00    +0.159 HD
ATOM      8 HE21 GLN A  29      16.709  -0.838   4.377  1.00  0.00    +0.159 HD
ENDBRANCH   3   4
ENDBRANCH   2   3
ENDBRANCH   1   2
END_RES GLN A 29
BEGIN_RES LYS A 33
REMARK INDEX MAP 3 1 15 2 18 3 21 4 24 5 27 6 28 7 29 8 30 9
ROOT
ATOM      9  CA  LYS A  33      11.989   3.808   9.373  1.00  0.00    +0.171 C 
ENDROOT
BRANCH   9  10
ATOM     10  CB  LYS A  33      11.876   2.482  10.136  1.00  0.00    +0.035 C 
BRANCH  10  11
ATOM     11  CG  LYS A  33      11.372   1.365   9.216  1.00  0.00    +0.008 C 
BRANCH  11  12
ATOM     12  CD  LYS A  33      10.657   0.283  10.030  1.00  0.00    +0.061 C 
BRANCH  12  13
ATOM     13  CE  LYS A  33      10.055  -0.736   9.061  1.00  0.00    +0.258 C 
BRANCH  13  14
ATOM     14  NZ  LYS A  33       9.129  -1.661   9.758  1.00  0.00    -0.357 N 
ATOM     15  HZ1 LYS A  33       9.266  -1.582  10.776  1.00  0.00    +0.345 HD
ATOM     16  HZ2 LYS A  33       8.157  -1.415   9.523  1.00  0.00    +0.345 HD
ATOM     17  HZ3 LYS A  33       9.320  -2.628   9.460  1.00  0.00    +0.345 HD
ENDBRANCH  13  14
ENDBRANCH  12  13
ENDBRANCH  11  12
ENDBRANCH  10  11
ENDBRANCH   9  10
END_RES LYS A 33
BEGIN_RES SER A 149
REMARK INDEX MAP 3 1 15 2 18 3 19 4
ROOT
ATOM     18  CA  SER A 149       7.343  -2.533  -0.915  1.00  0.00    +0.197 C 
ENDROOT
BRANCH  18  19
ATOM     19  CB  SER A 149       7.142  -1.337   0.020  1.00  0.00    +0.191 C 
BRANCH  19  20
ATOM     20  OG  SER A 149       7.363  -0.126  -0.675  1.00  0.00    -0.392 OA
ATOM     21  HG  SER A 149       7.426   0.620  -0.027  1.00  0.00    +0.210 HD
ENDBRANCH  19  20
ENDBRANCH  18  19
END_RES SER A 149
BEGIN_RES VAL A 150
REMARK INDEX MAP 3 1 15 2 17 3 18 4
ROOT
ATOM     22  CA  VAL A 150       6.162  -5.910   0.524  1.00  0.00    +0.173 C 
ENDROOT
BRANCH  22  23
ATOM     23  CB  VAL A 150       4.686  -6.355   0.550  1.00  0.00    +0.015 C 
ATOM     24  CG1 VAL A 150       3.848  -5.278   1.260  1.00  0.00    +0.010 C 
ATOM     25  CG2 VAL A 150       4.145  -6.643  -0.853  1.00  0.00    +0.010 C 
ENDBRANCH  22  23
END_RES VAL A 150
BEGIN_RES GLN A 151
REMARK INDEX MAP 3 1 15 2 18 3 21 4 22 5 23 6 24 7 25 8
ROOT
ATOM     26  CA  GLN A 151       8.198  -9.163   0.318  1.00  0.00    +0.171 C 
ENDROOT
BRANCH  26  27
ATOM     27  CB  GLN A 151       8.689  -9.980   1.515  1.00  0.00    +0.045 C 
BRANCH  27  28
ATOM     28  CG  GLN A 151       9.900  -9.342   2.204  1.00  0.00    +0.102 C 
BRANCH  28  29
ATOM     29  CD  GLN A 151      10.396 -10.169   3.384  1.00  0.00    +0.217 C 
ATOM     30  OE1 GLN A 151       9.857 -11.201   3.753  1.00  0.00    -0.275 OA
ATOM     31  NE2 GLN A 151      11.469  -9.753   4.020  1.00  0.00    -0.368 N 
ATOM     32 HE22 GLN A 151      11.831 -10.289   4.822  1.00  0.00    +0.159 HD
ATOM     33 HE21 GLN A 151      11.947  -8.893   3.717  1.00  0.00    +0.159 HD
ENDBRANCH  28  29
ENDBRANCH  27  28
ENDBRANCH  26  27
END_RES GLN A 151
BEGIN_RES GLU A 192
REMARK INDEX MAP 3 1 15 2 18 3 21 4 22 5 23 6
ROOT
ATOM     34  CA  GLU A 192      15.855   0.073  -7.983  1.00  0.00    +0.171 C 
ENDROOT
BRANCH  34  35
ATOM     35  CB  GLU A 192      15.246  -1.153  -8.688  1.00  0.00    +0.041 C 
BRANCH  35  36
ATOM     36  CG  GLU A 192      14.433  -1.990  -7.695  1.00  0.00    +0.055 C 
BRANCH  36  37
ATOM     37  CD  GLU A 192      13.687  -3.136  -8.364  1.00  0.00    +0.041 C 
ATOM     38  OE1 GLU A 192      14.283  -4.239  -8.425  1.00  0.00    -0.548 OA
ATOM     39  OE2 GLU A 192      12.492  -2.936  -8.678  1.00  0.00    -0.549 OA
ENDBRANCH  36  37
ENDBRANCH  35  36
ENDBRANCH  34  35
END_RES GLU A 192
BEGIN_RES LYS A 196
REMARK INDEX MAP 3 1 15 2 18 3 21 4 24 5 27 6 28 7 29 8 30 9
ROOT
ATOM     40  CA  LYS A 196      14.847  -0.109  -2.051  1.00  0.00    +0.171 C 
ENDROOT
BRANCH  40  41
ATOM     41  CB  LYS A 196      15.401  -1.519  -2.305  1.00  0.00    +0.035 C 
BRANCH  41  42
ATOM     42  CG  LYS A 196      14.526  -2.303  -3.291  1.00  0.00    +0.008 C 
BRANCH  42  43
ATOM     43  CD  LYS A 196      15.255  -3.541  -3.827  1.00  0.00    +0.061 C 
BRANCH  43  44
ATOM     44  CE  LYS A 196      14.286  -4.278  -4.753  1.00  0.00    +0.258 C 
BRANCH  44  45
ATOM     45  NZ  LYS A 196      14.933  -5.288  -5.619  1.00  0.00    -0.357 N 
ATOM     46  HZ1 LYS A 196      15.466  -5.949  -5.036  1.00  0.00    +0.345 HD
ATOM     47  HZ2 LYS A 196      14.213  -5.800  -6.148  1.00  0.00    +0.345 HD
ATOM     48  HZ3 LYS A 196      15.572  -4.818  -6.277  1.00  0.00    +0.345 HD
ENDBRANCH  44  45
ENDBRANCH  43  44
ENDBRANCH  42  43
ENDBRANCH  41  42
ENDBRANCH  40  41
END_RES LYS A 196
BEGIN_RES LEU A 197
REMARK INDEX MAP 3 1 15 2 18 3 20 4 21 5
ROOT
ATOM     49  CA  LEU A 197      16.925   1.640   0.668  1.00  0.00    +0.172 C 
ENDROOT
BRANCH  49  50
ATOM     50  CB  LEU A 197      18.443   1.798   0.503  1.00  0.00    +0.038 C 
BRANCH  50  51
ATOM     51  CG  LEU A 197      19.263   0.855   1.382  1.00  0.00    -0.015 C 
ATOM     52  CD1 LEU A 197      18.710  -0.570   1.369  1.00  0.00    +0.007 C 
ATOM     53  CD2 LEU A 197      20.680   0.796   0.831  1.00  0.00    +0.007 C 
ENDBRANCH  50  51
ENDBRANCH  49  50
END_RES LEU A 197
BEGIN_RES LEU A 198
REMARK INDEX MAP 3 1 15 2 18 3 20 4 21 5
ROOT
ATOM     54  CA  LEU A 198      15.384   5.175   0.385  1.00  0.00    +0.172 C 
ENDROOT
BRANCH  54  55
ATOM     55  CB  LEU A 198      15.993   6.186  -0.603  1.00  0.00    +0.038 C 
BRANCH  55  56
ATOM     56  CG  LEU A 198      17.478   6.515  -0.352  1.00  0.00    -0.015 C 
ATOM     57  CD1 LEU A 198      18.153   6.872  -1.676  1.00  0.00    +0.007 C 
ATOM     58  CD2 LEU A 198      17.655   7.694   0.606  1.00  0.00    +0.007 C 
ENDBRANCH  55  56
ENDBRANCH  54  55
END_RES LEU A 198
BEGIN_RES ASP A 200
REMARK INDEX MAP 3 1 15 2 18 3 19 4 20 5
ROOT
ATOM     59  CA  ASP A 200      11.340   1.754   2.515  1.00  0.00    +0.176 C 
ENDROOT
BRANCH  59  60
ATOM     60  CB  ASP A 200      10.261   2.408   3.406  1.00  0.00    +0.087 C 
BRANCH  60  61
ATOM     61  CG  ASP A 200      10.485   2.203   4.914  1.00  0.00    +0.044 C 
ATOM     62  OD1 ASP A 200      11.656   2.027   5.329  1.00  0.00    -0.548 OA
ATOM     63  OD2 ASP A 200       9.505   2.341   5.682  1.00  0.00    -0.549 OA
ENDBRANCH  60  61
ENDBRANCH  59  60
END_RES ASP A 200
BEGIN_RES CYS A 202
REMARK INDEX MAP 3 1 15 2 18 3 19 4
ROOT
ATOM     64  CA  CYS A 202       9.840  -0.148  -2.684  1.00  0.00    +0.181 C 
ENDROOT
BRANCH  64  65
ATOM     65  CB  CYS A 202       9.556   1.346  -2.861  1.00  0.00    +0.101 C 
BRANCH  65  66
ATOM     66  SG  CYS A 202       8.728   1.688  -4.434  1.00  0.00    -0.177 SA
ATOM     67  HG  CYS A 202       7.537   2.320  -4.195  1.00  0.00    +0.102 HD
ENDBRANCH  65  66
ENDBRANCH  64  65
END_RES CYS A 202
BEGIN_RES CYS A 203
REMARK INDEX MAP 3 1 15 2 18 3 19 4
ROOT
ATOM     68  CA  CYS A 203      10.562  -2.205  -5.856  1.00  0.00    +0.181 C 
ENDROOT
BRANCH  68  69
ATOM     69  CB  CYS A 203      10.246  -3.705  -5.867  1.00  0.00    +0.101 C 
BRANCH  69  70
ATOM     70  SG  CYS A 203      11.302  -4.580  -4.676  1.00  0.00    -0.177 SA
ATOM     71  HG  CYS A 203      11.040  -4.123  -3.412  1.00  0.00    +0.102 HD
ENDBRANCH  69  70
ENDBRANCH  68  69
END_RES CYS A 203
BEGIN_RES LEU A 204
REMARK INDEX MAP 3 1 15 2 18 3 20 4 21 5
ROOT
ATOM     72  CA  LEU A 204      10.344   0.047  -8.968  1.00  0.00    +0.172 C 
ENDROOT
BRANCH  72  73
ATOM     73  CB  LEU A 204      11.507   0.932  -9.440  1.00  0.00    +0.038 C 
BRANCH  73  74
ATOM     74  CG  LEU A 204      11.907   2.036  -8.448  1.00  0.00    -0.015 C 
ATOM     75  CD1 LEU A 204      13.138   2.758  -8.991  1.00  0.00    +0.007 C 
ATOM     76  CD2 LEU A 204      10.778   3.048  -8.246  1.00  0.00    +0.007 C 
ENDBRANCH  73  74
ENDBRANCH  72  73
END_RES LEU A 204
BEGIN_RES THR A 205
REMARK INDEX MAP 3 1 15 2 17 3 18 4 22 5
ROOT
ATOM     77  CA  THR A 205      10.171  -2.845 -11.498  1.00  0.00    +0.199 C 
ENDROOT
BRANCH  77  78
ATOM     78  CB  THR A 205      11.447  -3.524 -12.008  1.00  0.00    +0.143 C 
ATOM     79  CG2 THR A 205      12.492  -2.512 -12.476  1.00  0.00    +0.041 C 
BRANCH  78  80
ATOM     80  OG1 THR A 205      12.032  -4.339 -11.018  1.00  0.00    -0.389 OA
ATOM     81  HG1 THR A 205      11.814  -3.979 -10.122  1.00  0.00    +0.211 HD
ENDBRANCH  78  80
ENDBRANCH  77  78
END_RES THR A 205
BEGIN_RES ARG A 206
REMARK INDEX MAP 3 1 15 2 18 3 21 4 24 5 25 6 26 7 27 8 28 9 29 10 30 11 31 12
REMARK INDEX MAP 32 13
ROOT
ATOM     82  CA  ARG A 206       7.295  -4.660  -9.716  1.00  0.00    +0.171 C 
ENDROOT
BRANCH  82  83
ATOM     83  CB  ARG A 206       6.943  -4.502  -8.237  1.00  0.00    +0.038 C 
BRANCH  83  84
ATOM     84  CG  ARG A 206       6.280  -5.794  -7.737  1.00  0.00    +0.040 C 
BRANCH  84  85
ATOM     85  CD  ARG A 206       6.153  -5.823  -6.222  1.00  0.00    +0.197 C 
BRANCH  85  86
ATOM     86  NE  ARG A 206       7.460  -5.980  -5.548  1.00  0.00    -0.278 N 
ATOM     87  HE  ARG A 206       8.311  -5.877  -6.119  1.00  0.00    +0.260 HD
ATOM     88  CZ  ARG A 206       7.611  -6.244  -4.265  1.00  0.00    +0.339 C 
ATOM     89  NH1 ARG A 206       8.765  -6.478  -3.722  1.00  0.00    -0.290 N 
ATOM     90  NH2 ARG A 206       6.599  -6.289  -3.466  1.00  0.00    -0.290 N 
ATOM     91 HH12 ARG A 206       8.830  -6.679  -2.714  1.00  0.00    +0.256 HD
ATOM     92 HH11 ARG A 206       9.618  -6.464  -4.300  1.00  0.00    +0.256 HD
ATOM     93 HH22 ARG A 206       6.741  -6.497  -2.466  1.00  0.00    +0.256 HD
ATOM     94 HH21 ARG A 206       5.650  -6.118  -3.827  1.00  0.00    +0.256 HD
ENDBRANCH  85  86
ENDBRANCH  84  85
ENDBRANCH  83  84
ENDBRANCH  82  83
END_RES ARG A 206
BEGIN_RES GLU A 207
REMARK INDEX MAP 3 1 15 2 18 3 21 4 22 5 23 6
ROOT
ATOM     95  CA  GLU A 207       4.503  -5.915 -11.996  1.00  0.00    +0.171 C 
ENDROOT
BRANCH  95  96
ATOM     96  CB  GLU A 207       4.773  -7.004 -13.033  1.00  0.00    +0.041 C 
BRANCH  96  97
ATOM     97  CG  GLU A 207       6.177  -6.959 -13.634  1.00  0.00    +0.055 C 
BRANCH  97  98
ATOM     98  CD  GLU A 207       6.216  -8.017 -14.726  1.00  0.00    +0.041 C 
ATOM     99  OE1 GLU A 207       5.743  -7.740 -15.849  1.00  0.00    -0.548 OA
ATOM    100  OE2 GLU A 207       6.513  -9.198 -14.434  1.00  0.00    -0.549 OA
ENDBRANCH  97  98
ENDBRANCH  96  97
ENDBRANCH  95  96
END_RES GLU A 207
BEGIN_RES THR A 208
REMARK INDEX MAP 3 1 15 2 17 3 18 4 22 5
ROOT
ATOM    101  CA  THR A 208       1.776  -5.557  -9.298  1.00  0.00    +0.199 C 
ENDROOT
BRANCH 101 102
ATOM    102  CB  THR A 208       1.641  -4.339  -8.378  1.00  0.00    +0.143 C 
ATOM    103  CG2 THR A 208       0.908  -4.653  -7.084  1.00  0.00    +0.041 C 
BRANCH 102 104
ATOM    104  OG1 THR A 208       2.911  -3.830  -8.027  1.00  0.00    -0.389 OA
ATOM    105  HG1 THR A 208       3.005  -3.827  -7.042  1.00  0.00    +0.211 HD
ENDBRANCH 102 104
ENDBRANCH 101 102
END_RES THR A 208
BEGIN_RES ASP A 211
REMARK INDEX MAP 3 1 15 2 18 3 19 4 20 5
ROOT
ATOM    106  CA  ASP A 211      -0.213 -10.060  -8.774  1.00  0.00    +0.176 C 
ENDROOT
BRANCH 106 107
ATOM    107  CB  ASP A 211       0.609  -9.358  -7.683  1.00  0.00    +0.087 C 
BRANCH 107 108
ATOM    108  CG  ASP A 211       2.118  -9.546  -7.840  1.00  0.00    +0.044 C 
ATOM    109  OD1 ASP A 211       2.585 -10.688  -7.622  1.00  0.00    -0.548 OA
ATOM    110  OD2 ASP A 211       2.808  -8.525  -8.060  1.00  0.00    -0.549 OA
ENDBRANCH 107 108
ENDBRANCH 106 107
END_RES ASP A 211
