REMARK VINA RESULT:    -7.304      1.596      2.322
REMARK INTER + INTRA:         -11.722
REMARK INTER:                 -10.666
REMARK INTRA:                  -1.056
REMARK UNBOUND:                -1.001
ROOT
ATOM      1  N6  665 L   1       7.410  -8.209 -10.426  1.00  0.00    -0.2626 NA
ATOM      2 C16  665 L   1      10.356  -8.354  -6.314  1.00  0.00    +0.0423  A
ATOM      3 C18  665 L   1       9.124  -8.926  -6.638  1.00  0.00    -0.0305  A
ATOM      4 C19  665 L   1       8.539  -8.699  -7.894  1.00  0.00    -0.0131  A
ATOM      5 C20  665 L   1      11.018  -7.550  -7.237  1.00  0.00    -0.0377  A
ATOM      6 C21  665 L   1       9.212  -7.883  -8.826  1.00  0.00    +0.0004  A
ATOM      7 C22  665 L   1      10.452  -7.312  -8.489  1.00  0.00    -0.0506  A
ATOM      8 C26  665 L   1       7.305  -9.258  -8.250  1.00  0.00    -0.0358  A
ATOM      9 C30  665 L   1       8.600  -7.678 -10.065  1.00  0.00    +0.0353  A
ATOM     10 C33  665 L   1       6.794  -8.984  -9.510  1.00  0.00    +0.0281  A
ATOM     11 H47  665 L   1       8.612  -9.556  -5.911  1.00  0.00    +0.0644  H
ATOM     12 H48  665 L   1      11.972  -7.075  -7.061  1.00  0.00    +0.0638  H
ATOM     13 H49  665 L   1      10.981  -6.681  -9.200  1.00  0.00    +0.0625  H
ATOM     14 H50  665 L   1       6.751  -9.890  -7.564  1.00  0.00    +0.0639  H
ATOM     15 H53  665 L   1       9.066  -7.061 -10.828  1.00  0.00    +0.0836  H
ATOM     16 H58  665 L   1       5.842  -9.400  -9.821  1.00  0.00    +0.0830  H
ENDROOT
BRANCH 2 18
ATOM     17  O2  665 L   1      13.057  -7.616  -5.240  1.00  0.00    -0.2722 OA
ATOM     18  N4  665 L   1      10.924  -8.592  -5.061  1.00  0.00    -0.3256  N
ATOM     19 C10  665 L   1      12.202  -8.229  -4.605  1.00  0.00    +0.2339  C
ATOM     20 H42  665 L   1      10.330  -9.096  -4.408  1.00  0.00    +0.1686 HD
BRANCH 19 21
ATOM     21  C7  665 L   1      12.446  -8.678  -3.156  1.00  0.00    +0.0752  C
ATOM     22 H35  665 L   1      13.140  -9.532  -3.186  1.00  0.00    +0.0458  H
BRANCH 21 23
ATOM     23  C8  665 L   1      13.082  -7.553  -2.357  1.00  0.00    -0.0341  A
ATOM     24 C11  665 L   1      14.431  -7.620  -2.006  1.00  0.00    -0.0574  A
ATOM     25 C12  665 L   1      12.317  -6.449  -1.973  1.00  0.00    -0.0574  A
ATOM     26 C13  665 L   1      14.249  -5.486  -0.890  1.00  0.00    -0.0103  A
ATOM     27 C14  665 L   1      15.014  -6.587  -1.272  1.00  0.00    -0.0551  A
ATOM     28 C15  665 L   1      12.900  -5.418  -1.239  1.00  0.00    -0.0551  A
ATOM     29 H38  665 L   1      15.040  -8.473  -2.299  1.00  0.00    +0.0621  H
ATOM     30 H39  665 L   1      11.266  -6.376  -2.237  1.00  0.00    +0.0621  H
ATOM     31 H40  665 L   1      16.066  -6.654  -1.009  1.00  0.00    +0.0621  H
ATOM     32 H41  665 L   1      12.295  -4.563  -0.947  1.00  0.00    +0.0621  H
BRANCH 26 33
ATOM     33 C17  665 L   1      14.873  -4.381  -0.104  1.00  0.00    +0.1179  C
ATOM     34 H43  665 L   1      15.746  -4.763   0.438  1.00  0.00    +0.0749  H
ATOM     35 H44  665 L   1      15.216  -3.580  -0.770  1.00  0.00    +0.0749  H
BRANCH 33 36
ATOM     36  O1  665 L   1      13.919  -3.859   0.815  1.00  0.00    -0.4564 OA
BRANCH 36 38
ATOM     37  O3  665 L   1      14.700  -5.265   2.462  1.00  0.00    -0.2449 OA
ATOM     38 C25  665 L   1      13.913  -4.425   2.052  1.00  0.00    +0.3398  C
BRANCH 38 39
ATOM     39 C23  665 L   1      12.798  -3.885   2.871  1.00  0.00    +0.0619  A
ATOM     40 C24  665 L   1      11.540  -4.487   2.865  1.00  0.00    -0.0362  A
ATOM     41 C27  665 L   1      10.738  -2.828   4.427  1.00  0.00    -0.0502  A
ATOM     42 C28  665 L   1      10.510  -3.959   3.642  1.00  0.00    -0.0551  A
ATOM     43 C29  665 L   1      13.026  -2.753   3.655  1.00  0.00    -0.0473  A
ATOM     44 C31  665 L   1      11.996  -2.224   4.432  1.00  0.00    -0.0580  A
ATOM     45 C32  665 L   1      11.270  -5.700   2.035  1.00  0.00    -0.0389  C
ATOM     46 C34  665 L   1       9.637  -2.261   5.257  1.00  0.00    -0.0397  C
ATOM     47 H51  665 L   1       9.526  -4.423   3.639  1.00  0.00    +0.0623  H
ATOM     48 H52  665 L   1      14.000  -2.271   3.667  1.00  0.00    +0.0626  H
ATOM     49 H54  665 L   1      12.185  -1.342   5.036  1.00  0.00    +0.0620  H
ATOM     50 H55  665 L   1      11.257  -5.440   0.972  1.00  0.00    +0.0278  H
ATOM     51 H56  665 L   1      12.028  -6.471   2.212  1.00  0.00    +0.0278  H
ATOM     52 H57  665 L   1      10.301  -6.148   2.279  1.00  0.00    +0.0278  H
ATOM     53 H59  665 L   1      10.031  -1.754   6.146  1.00  0.00    +0.0278  H
ATOM     54 H60  665 L   1       8.964  -3.050   5.611  1.00  0.00    +0.0278  H
ATOM     55 H61  665 L   1       9.056  -1.541   4.673  1.00  0.00    +0.0278  H
ENDBRANCH 38 39
ENDBRANCH 36 38
ENDBRANCH 33 36
ENDBRANCH 26 33
ENDBRANCH 21 23
BRANCH 21 57
ATOM     56  N5  665 L   1      10.954 -10.626  -2.742  1.00  0.00    -0.3289 NA
ATOM     57  C9  665 L   1      11.135  -9.192  -2.528  1.00  0.00    +0.0085  C
ATOM     58 H36  665 L   1      11.097  -8.986  -1.452  1.00  0.00    +0.0432  H
ATOM     59 H37  665 L   1      10.286  -8.662  -2.977  1.00  0.00    +0.0432  H
ATOM     60 H45  665 L   1      10.075 -10.921  -2.320  1.00  0.00    +0.1182 HD
ATOM     61 H46  665 L   1      11.687 -11.144  -2.259  1.00  0.00    +0.1182 HD
ENDBRANCH 21 57
ENDBRANCH 19 21
ENDBRANCH 2 18
TORSDOF 8
BEGIN_RES GLN A 29
REMARK INDEX MAP 3 1 15 2 18 3 21 4 22 5 23 6 24 7 25 8
ROOT
ATOM      1  CA  GLN A  29      16.975   0.393   8.263  1.00  0.00    +0.171 C 
ENDROOT
BRANCH   1   2
ATOM      2  CB  GLN A  29      16.816  -1.139   8.255  1.00  0.00    +0.045 C 
BRANCH   2   3
ATOM      3  CG  GLN A  29      16.801  -1.716   6.831  1.00  0.00    +0.102 C 
BRANCH   3   4
ATOM      4  CD  GLN A  29      15.631  -1.193   6.004  1.00  0.00    +0.217 C 
ATOM      5  OE1 GLN A  29      14.511  -1.094   6.470  1.00  0.00    -0.275 OA
ATOM      6  NE2 GLN A  29      15.843  -0.841   4.756  1.00  0.00    -0.368 N 
ATOM      7 HE22 GLN A  29      15.064  -0.485   4.182  1.00  0.00    +0.159 HD
ATOM      8 HE21 GLN A  29      16.786  -0.920   4.352  1.00  0.00    +0.159 HD
ENDBRANCH   3   4
ENDBRANCH   2   3
ENDBRANCH   1   2
END_RES GLN A 29
BEGIN_RES LYS A 33
REMARK INDEX MAP 3 1 15 2 18 3 21 4 24 5 27 6 28 7 29 8 30 9
ROOT
ATOM      9  CA  LYS A  33      11.989   3.808   9.373  1.00  0.00    +0.171 C 
ENDROOT
BRANCH   9  10
ATOM     10  CB  LYS A  33      11.876   2.482  10.136  1.00  0.00    +0.035 C 
BRANCH  10  11
ATOM     11  CG  LYS A  33      11.182   1.418   9.279  1.00  0.00    +0.008 C 
BRANCH  11  12
ATOM     12  CD  LYS A  33      10.718   0.248  10.152  1.00  0.00    +0.061 C 
BRANCH  12  13
ATOM     13  CE  LYS A  33       9.928  -0.727   9.277  1.00  0.00    +0.258 C 
BRANCH  13  14
ATOM     14  NZ  LYS A  33       9.237  -1.751  10.099  1.00  0.00    -0.357 N 
ATOM     15  HZ1 LYS A  33       9.621  -1.741  11.054  1.00  0.00    +0.345 HD
ATOM     16  HZ2 LYS A  33       8.229  -1.541  10.132  1.00  0.00    +0.345 HD
ATOM     17  HZ3 LYS A  33       9.381  -2.681   9.681  1.00  0.00    +0.345 HD
ENDBRANCH  13  14
ENDBRANCH  12  13
ENDBRANCH  11  12
ENDBRANCH  10  11
ENDBRANCH   9  10
END_RES LYS A 33
BEGIN_RES SER A 149
REMARK INDEX MAP 3 1 15 2 18 3 19 4
ROOT
ATOM     18  CA  SER A 149       7.343  -2.533  -0.915  1.00  0.00    +0.197 C 
ENDROOT
BRANCH  18  19
ATOM     19  CB  SER A 149       7.142  -1.337   0.020  1.00  0.00    +0.191 C 
BRANCH  19  20
ATOM     20  OG  SER A 149       7.514  -0.137  -0.629  1.00  0.00    -0.392 OA
ATOM     21  HG  SER A 149       7.569   0.595   0.037  1.00  0.00    +0.210 HD
ENDBRANCH  19  20
ENDBRANCH  18  19
END_RES SER A 149
BEGIN_RES VAL A 150
REMARK INDEX MAP 3 1 15 2 17 3 18 4
ROOT
ATOM     22  CA  VAL A 150       6.162  -5.910   0.524  1.00  0.00    +0.173 C 
ENDROOT
BRANCH  22  23
ATOM     23  CB  VAL A 150       4.686  -6.355   0.550  1.00  0.00    +0.015 C 
ATOM     24  CG1 VAL A 150       3.848  -5.276   1.255  1.00  0.00    +0.010 C 
ATOM     25  CG2 VAL A 150       4.147  -6.649  -0.852  1.00  0.00    +0.010 C 
ENDBRANCH  22  23
END_RES VAL A 150
BEGIN_RES GLN A 151
REMARK INDEX MAP 3 1 15 2 18 3 21 4 22 5 23 6 24 7 25 8
ROOT
ATOM     26  CA  GLN A 151       8.198  -9.163   0.318  1.00  0.00    +0.171 C 
ENDROOT
BRANCH  26  27
ATOM     27  CB  GLN A 151       8.689  -9.980   1.515  1.00  0.00    +0.045 C 
BRANCH  27  28
ATOM     28  CG  GLN A 151       9.877  -9.323   2.226  1.00  0.00    +0.102 C 
BRANCH  28  29
ATOM     29  CD  GLN A 151      10.404 -10.172   3.376  1.00  0.00    +0.217 C 
ATOM     30  OE1 GLN A 151       9.904 -11.237   3.707  1.00  0.00    -0.275 OA
ATOM     31  NE2 GLN A 151      11.460  -9.740   4.029  1.00  0.00    -0.368 N 
ATOM     32 HE22 GLN A 151      11.842 -10.290   4.811  1.00  0.00    +0.159 HD
ATOM     33 HE21 GLN A 151      11.905  -8.851   3.757  1.00  0.00    +0.159 HD
ENDBRANCH  28  29
ENDBRANCH  27  28
ENDBRANCH  26  27
END_RES GLN A 151
BEGIN_RES GLU A 192
REMARK INDEX MAP 3 1 15 2 18 3 21 4 22 5 23 6
ROOT
ATOM     34  CA  GLU A 192      15.855   0.073  -7.983  1.00  0.00    +0.171 C 
ENDROOT
BRANCH  34  35
ATOM     35  CB  GLU A 192      15.246  -1.153  -8.688  1.00  0.00    +0.041 C 
BRANCH  35  36
ATOM     36  CG  GLU A 192      14.566  -2.072  -7.667  1.00  0.00    +0.055 C 
BRANCH  36  37
ATOM     37  CD  GLU A 192      13.761  -3.185  -8.324  1.00  0.00    +0.041 C 
ATOM     38  OE1 GLU A 192      14.293  -4.321  -8.359  1.00  0.00    -0.548 OA
ATOM     39  OE2 GLU A 192      12.583  -2.923  -8.653  1.00  0.00    -0.549 OA
ENDBRANCH  36  37
ENDBRANCH  35  36
ENDBRANCH  34  35
END_RES GLU A 192
BEGIN_RES LYS A 196
REMARK INDEX MAP 3 1 15 2 18 3 21 4 24 5 27 6 28 7 29 8 30 9
ROOT
ATOM     40  CA  LYS A 196      14.847  -0.109  -2.051  1.00  0.00    +0.171 C 
ENDROOT
BRANCH  40  41
ATOM     41  CB  LYS A 196      15.401  -1.519  -2.305  1.00  0.00    +0.035 C 
BRANCH  41  42
ATOM     42  CG  LYS A 196      14.548  -2.288  -3.321  1.00  0.00    +0.008 C 
BRANCH  42  43
ATOM     43  CD  LYS A 196      15.271  -3.544  -3.823  1.00  0.00    +0.061 C 
BRANCH  43  44
ATOM     44  CE  LYS A 196      14.312  -4.279  -4.763  1.00  0.00    +0.258 C 
BRANCH  44  45
ATOM     45  NZ  LYS A 196      14.962  -5.322  -5.588  1.00  0.00    -0.357 N 
ATOM     46  HZ1 LYS A 196      15.462  -5.982  -4.975  1.00  0.00    +0.345 HD
ATOM     47  HZ2 LYS A 196      14.246  -5.828  -6.128  1.00  0.00    +0.345 HD
ATOM     48  HZ3 LYS A 196      15.631  -4.880  -6.236  1.00  0.00    +0.345 HD
ENDBRANCH  44  45
ENDBRANCH  43  44
ENDBRANCH  42  43
ENDBRANCH  41  42
ENDBRANCH  40  41
END_RES LYS A 196
BEGIN_RES HIS A 197
REMARK INDEX MAP 3 1 15 2 18 3 19 4 20 5 21 6 22 7 25 8
ROOT
ATOM     49  CA  HIS A 197      16.925   1.640   0.668  1.00  0.00    +0.177 C 
ENDROOT
BRANCH  49  50
ATOM     50  CB  HIS A 197      18.448   1.811   0.600  1.00  0.00    +0.093 C 
BRANCH  50  51
ATOM     51  CG  HIS A 197      19.196   0.506   0.536  1.00  0.00    +0.061 A 
ATOM     52  ND1 HIS A 197      18.747  -0.705   1.015  1.00  0.00    -0.242 NA
ATOM     53  CD2 HIS A 197      20.443   0.294   0.011  1.00  0.00    +0.107 A 
ATOM     54  CE1 HIS A 197      19.702  -1.622   0.790  1.00  0.00    +0.196 A 
ATOM     55  NE2 HIS A 197      20.758  -1.057   0.195  1.00  0.00    -0.350 N 
ATOM     56  HE2 HIS A 197      21.635  -1.525  -0.077  1.00  0.00    +0.167 HD
ENDBRANCH  50  51
ENDBRANCH  49  50
END_RES HIS A 197
BEGIN_RES ILE A 198
REMARK INDEX MAP 3 1 15 2 17 3 18 4 24 5
ROOT
ATOM     57  CA  ILE A 198      15.384   5.175   0.385  1.00  0.00    +0.174 C 
ENDROOT
BRANCH  57  58
ATOM     58  CB  ILE A 198      16.001   6.256  -0.525  1.00  0.00    +0.018 C 
ATOM     59  CG2 ILE A 198      17.315   6.756   0.100  1.00  0.00    +0.010 C 
BRANCH  58  60
ATOM     60  CG1 ILE A 198      16.218   5.747  -1.966  1.00  0.00    +0.002 C 
ATOM     61  CD1 ILE A 198      16.464   6.853  -2.995  1.00  0.00    +0.004 C 
ENDBRANCH  58  60
ENDBRANCH  57  58
END_RES ILE A 198
BEGIN_RES ASP A 200
REMARK INDEX MAP 3 1 15 2 18 3 19 4 20 5
ROOT
ATOM     62  CA  ASP A 200      11.340   1.754   2.515  1.00  0.00    +0.176 C 
ENDROOT
BRANCH  62  63
ATOM     63  CB  ASP A 200      10.261   2.408   3.406  1.00  0.00    +0.087 C 
BRANCH  63  64
ATOM     64  CG  ASP A 200      10.436   2.131   4.909  1.00  0.00    +0.044 C 
ATOM     65  OD1 ASP A 200      11.591   1.914   5.349  1.00  0.00    -0.548 OA
ATOM     66  OD2 ASP A 200       9.437   2.251   5.654  1.00  0.00    -0.549 OA
ENDBRANCH  63  64
ENDBRANCH  62  63
END_RES ASP A 200
BEGIN_RES CYS A 202
REMARK INDEX MAP 3 1 15 2 18 3 19 4
ROOT
ATOM     67  CA  CYS A 202       9.840  -0.148  -2.684  1.00  0.00    +0.181 C 
ENDROOT
BRANCH  67  68
ATOM     68  CB  CYS A 202       9.556   1.346  -2.861  1.00  0.00    +0.101 C 
BRANCH  68  69
ATOM     69  SG  CYS A 202       8.534   1.665  -4.321  1.00  0.00    -0.177 SA
ATOM     70  HG  CYS A 202       7.393   2.323  -3.944  1.00  0.00    +0.102 HD
ENDBRANCH  68  69
ENDBRANCH  67  68
END_RES CYS A 202
BEGIN_RES CYS A 203
REMARK INDEX MAP 3 1 15 2 18 3 19 4
ROOT
ATOM     71  CA  CYS A 203      10.562  -2.205  -5.856  1.00  0.00    +0.181 C 
ENDROOT
BRANCH  71  72
ATOM     72  CB  CYS A 203      10.246  -3.705  -5.867  1.00  0.00    +0.101 C 
BRANCH  72  73
ATOM     73  SG  CYS A 203      11.362  -4.592  -4.742  1.00  0.00    -0.177 SA
ATOM     74  HG  CYS A 203      11.165  -4.149  -3.461  1.00  0.00    +0.102 HD
ENDBRANCH  72  73
ENDBRANCH  71  72
END_RES CYS A 203
BEGIN_RES LEU A 204
REMARK INDEX MAP 3 1 15 2 18 3 20 4 21 5
ROOT
ATOM     75  CA  LEU A 204      10.344   0.047  -8.968  1.00  0.00    +0.172 C 
ENDROOT
BRANCH  75  76
ATOM     76  CB  LEU A 204      11.507   0.932  -9.440  1.00  0.00    +0.038 C 
BRANCH  76  77
ATOM     77  CG  LEU A 204      11.914   2.029  -8.443  1.00  0.00    -0.015 C 
ATOM     78  CD1 LEU A 204      13.138   2.759  -8.992  1.00  0.00    +0.007 C 
ATOM     79  CD2 LEU A 204      10.785   3.036  -8.221  1.00  0.00    +0.007 C 
ENDBRANCH  76  77
ENDBRANCH  75  76
END_RES LEU A 204
BEGIN_RES THR A 205
REMARK INDEX MAP 3 1 15 2 17 3 18 4 22 5
ROOT
ATOM     80  CA  THR A 205      10.171  -2.845 -11.498  1.00  0.00    +0.199 C 
ENDROOT
BRANCH  80  81
ATOM     81  CB  THR A 205      11.447  -3.524 -12.008  1.00  0.00    +0.143 C 
ATOM     82  CG2 THR A 205      12.512  -2.511 -12.427  1.00  0.00    +0.041 C 
BRANCH  81  83
ATOM     83  OG1 THR A 205      12.005  -4.377 -11.035  1.00  0.00    -0.389 OA
ATOM     84  HG1 THR A 205      11.776  -4.042 -10.131  1.00  0.00    +0.211 HD
ENDBRANCH  81  83
ENDBRANCH  80  81
END_RES THR A 205
BEGIN_RES ARG A 206
REMARK INDEX MAP 3 1 15 2 18 3 21 4 24 5 25 6 26 7 27 8 28 9 29 10 30 11 31 12
REMARK INDEX MAP 32 13
ROOT
ATOM     85  CA  ARG A 206       7.295  -4.660  -9.716  1.00  0.00    +0.171 C 
ENDROOT
BRANCH  85  86
ATOM     86  CB  ARG A 206       6.943  -4.502  -8.237  1.00  0.00    +0.038 C 
BRANCH  86  87
ATOM     87  CG  ARG A 206       6.202  -5.759  -7.759  1.00  0.00    +0.040 C 
BRANCH  87  88
ATOM     88  CD  ARG A 206       6.089  -5.817  -6.244  1.00  0.00    +0.197 C 
BRANCH  88  89
ATOM     89  NE  ARG A 206       7.404  -5.981  -5.585  1.00  0.00    -0.278 N 
ATOM     90  HE  ARG A 206       8.247  -5.897  -6.170  1.00  0.00    +0.260 HD
ATOM     91  CZ  ARG A 206       7.569  -6.226  -4.301  1.00  0.00    +0.339 C 
ATOM     92  NH1 ARG A 206       8.728  -6.467  -3.771  1.00  0.00    -0.290 N 
ATOM     93  NH2 ARG A 206       6.569  -6.246  -3.487  1.00  0.00    -0.290 N 
ATOM     94 HH12 ARG A 206       8.804  -6.653  -2.760  1.00  0.00    +0.256 HD
ATOM     95 HH11 ARG A 206       9.573  -6.473  -4.360  1.00  0.00    +0.256 HD
ATOM     96 HH22 ARG A 206       6.722  -6.440  -2.487  1.00  0.00    +0.256 HD
ATOM     97 HH21 ARG A 206       5.616  -6.068  -3.838  1.00  0.00    +0.256 HD
ENDBRANCH  88  89
ENDBRANCH  87  88
ENDBRANCH  86  87
ENDBRANCH  85  86
END_RES ARG A 206
BEGIN_RES GLU A 207
REMARK INDEX MAP 3 1 15 2 18 3 21 4 22 5 23 6
ROOT
ATOM     98  CA  GLU A 207       4.503  -5.915 -11.996  1.00  0.00    +0.171 C 
ENDROOT
BRANCH  98  99
ATOM     99  CB  GLU A 207       4.773  -7.004 -13.033  1.00  0.00    +0.041 C 
BRANCH  99 100
ATOM    100  CG  GLU A 207       6.131  -6.886 -13.723  1.00  0.00    +0.055 C 
BRANCH 100 101
ATOM    101  CD  GLU A 207       6.147  -7.925 -14.833  1.00  0.00    +0.041 C 
ATOM    102  OE1 GLU A 207       5.688  -7.615 -15.954  1.00  0.00    -0.548 OA
ATOM    103  OE2 GLU A 207       6.407  -9.119 -14.561  1.00  0.00    -0.549 OA
ENDBRANCH 100 101
ENDBRANCH  99 100
ENDBRANCH  98  99
END_RES GLU A 207
BEGIN_RES SER A 208
REMARK INDEX MAP 3 1 15 2 18 3 19 4
ROOT
ATOM    104  CA  SER A 208       1.776  -5.557  -9.298  1.00  0.00    +0.197 C 
ENDROOT
BRANCH 104 105
ATOM    105  CB  SER A 208       1.645  -4.362  -8.349  1.00  0.00    +0.191 C 
BRANCH 105 106
ATOM    106  OG  SER A 208       2.822  -4.224  -7.569  1.00  0.00    -0.392 OA
ATOM    107  HG  SER A 208       2.586  -4.248  -6.608  1.00  0.00    +0.210 HD
ENDBRANCH 105 106
ENDBRANCH 104 105
END_RES SER A 208
BEGIN_RES ASP A 211
REMARK INDEX MAP 3 1 15 2 18 3 19 4 20 5
ROOT
ATOM    108  CA  ASP A 211      -0.213 -10.060  -8.774  1.00  0.00    +0.176 C 
ENDROOT
BRANCH 108 109
ATOM    109  CB  ASP A 211       0.609  -9.358  -7.683  1.00  0.00    +0.087 C 
BRANCH 109 110
ATOM    110  CG  ASP A 211       2.117  -9.560  -7.830  1.00  0.00    +0.044 C 
ATOM    111  OD1 ASP A 211       2.583 -10.683  -7.527  1.00  0.00    -0.548 OA
ATOM    112  OD2 ASP A 211       2.808  -8.561  -8.130  1.00  0.00    -0.549 OA
ENDBRANCH 109 110
ENDBRANCH 108 109
END_RES ASP A 211
