REMARK VINA RESULT:    -7.304      1.596      2.322
REMARK INTER + INTRA:         -11.722
REMARK INTER:                 -10.666
REMARK INTRA:                  -1.056
REMARK UNBOUND:                -1.001
ROOT
ATOM      1  N6  665 L   1       7.396  -8.237 -10.410  1.00  0.00    -0.2626 NA
ATOM      2 C16  665 L   1      10.331  -8.415  -6.292  1.00  0.00    +0.0423  A
ATOM      3 C18  665 L   1       9.090  -8.967  -6.615  1.00  0.00    -0.0305  A
ATOM      4 C19  665 L   1       8.512  -8.735  -7.874  1.00  0.00    -0.0131  A
ATOM      5 C20  665 L   1      11.009  -7.627  -7.218  1.00  0.00    -0.0377  A
ATOM      6 C21  665 L   1       9.201  -7.935  -8.809  1.00  0.00    +0.0004  A
ATOM      7 C22  665 L   1      10.450  -7.385  -8.472  1.00  0.00    -0.0506  A
ATOM      8 C26  665 L   1       7.268  -9.273  -8.229  1.00  0.00    -0.0358  A
ATOM      9 C30  665 L   1       8.595  -7.726 -10.049  1.00  0.00    +0.0353  A
ATOM     10 C33  665 L   1       6.764  -8.997  -9.491  1.00  0.00    +0.0281  A
ATOM     11 H47  665 L   1       8.566  -9.583  -5.886  1.00  0.00    +0.0644  H
ATOM     12 H48  665 L   1      11.972  -7.169  -7.042  1.00  0.00    +0.0638  H
ATOM     13 H49  665 L   1      10.992  -6.768  -9.185  1.00  0.00    +0.0625  H
ATOM     14 H50  665 L   1       6.702  -9.893  -7.541  1.00  0.00    +0.0639  H
ATOM     15 H53  665 L   1       9.073  -7.121 -10.815  1.00  0.00    +0.0836  H
ATOM     16 H58  665 L   1       5.805  -9.397  -9.802  1.00  0.00    +0.0830  H
ENDROOT
BRANCH 2 18
ATOM     17  O2  665 L   1      13.024  -7.673  -5.198  1.00  0.00    -0.2722 OA
ATOM     18  N4  665 L   1      10.894  -8.657  -5.036  1.00  0.00    -0.3256  N
ATOM     19 C10  665 L   1      12.168  -8.293  -4.571  1.00  0.00    +0.2339  C
ATOM     20 H42  665 L   1      10.298  -9.167  -4.390  1.00  0.00    +0.1686 HD
BRANCH 19 21
ATOM     21  C7  665 L   1      12.404  -8.748  -3.123  1.00  0.00    +0.0752  C
ATOM     22 H35  665 L   1      13.066  -9.626  -3.156  1.00  0.00    +0.0458  H
BRANCH 21 23
ATOM     23  C8  665 L   1      13.087  -7.645  -2.330  1.00  0.00    -0.0341  A
ATOM     24 C11  665 L   1      14.437  -7.759  -1.995  1.00  0.00    -0.0574  A
ATOM     25 C12  665 L   1      12.365  -6.517  -1.938  1.00  0.00    -0.0574  A
ATOM     26 C13  665 L   1      14.340  -5.621  -0.875  1.00  0.00    -0.0103  A
ATOM     27 C14  665 L   1      15.062  -6.747  -1.266  1.00  0.00    -0.0551  A
ATOM     28 C15  665 L   1      12.991  -5.506  -1.210  1.00  0.00    -0.0551  A
ATOM     29 H38  665 L   1      15.014  -8.632  -2.295  1.00  0.00    +0.0621  H
ATOM     30 H39  665 L   1      11.314  -6.407  -2.190  1.00  0.00    +0.0621  H
ATOM     31 H40  665 L   1      16.115  -6.850  -1.015  1.00  0.00    +0.0621  H
ATOM     32 H41  665 L   1      12.418  -4.632  -0.911  1.00  0.00    +0.0621  H
BRANCH 26 33
ATOM     33 C17  665 L   1      15.010  -4.539  -0.096  1.00  0.00    +0.1179  C
ATOM     34 H43  665 L   1      15.852  -4.958   0.466  1.00  0.00    +0.0749  H
ATOM     35 H44  665 L   1      15.406  -3.767  -0.768  1.00  0.00    +0.0749  H
BRANCH 33 36
ATOM     36  O1  665 L   1      14.071  -3.952   0.799  1.00  0.00    -0.4564 OA
BRANCH 36 38
ATOM     37  O3  665 L   1      14.812  -5.302   2.510  1.00  0.00    -0.2449 OA
ATOM     38 C25  665 L   1      14.029  -4.485   2.050  1.00  0.00    +0.3398  C
BRANCH 38 39
ATOM     39 C23  665 L   1      12.880  -3.937   2.815  1.00  0.00    +0.0619  A
ATOM     40 C24  665 L   1      11.632  -4.562   2.789  1.00  0.00    -0.0362  A
ATOM     41 C27  665 L   1      10.753  -2.866   4.269  1.00  0.00    -0.0502  A
ATOM     42 C28  665 L   1      10.569  -4.026   3.516  1.00  0.00    -0.0551  A
ATOM     43 C29  665 L   1      13.063  -2.776   3.568  1.00  0.00    -0.0473  A
ATOM     44 C31  665 L   1      12.001  -2.240   4.294  1.00  0.00    -0.0580  A
ATOM     45 C32  665 L   1      11.409  -5.806   1.993  1.00  0.00    -0.0389  C
ATOM     46 C34  665 L   1       9.617  -2.292   5.045  1.00  0.00    -0.0397  C
ATOM     47 H51  665 L   1       9.594  -4.507   3.497  1.00  0.00    +0.0623  H
ATOM     48 H52  665 L   1      14.028  -2.277   3.595  1.00  0.00    +0.0626  H
ATOM     49 H54  665 L   1      12.155  -1.336   4.874  1.00  0.00    +0.0620  H
ATOM     50 H55  665 L   1      11.426  -5.580   0.922  1.00  0.00    +0.0278  H
ATOM     51 H56  665 L   1      12.174  -6.557   2.219  1.00  0.00    +0.0278  H
ATOM     52 H57  665 L   1      10.440  -6.262   2.220  1.00  0.00    +0.0278  H
ATOM     53 H59  665 L   1       9.975  -1.749   5.928  1.00  0.00    +0.0278  H
ATOM     54 H60  665 L   1       8.947  -3.080   5.403  1.00  0.00    +0.0278  H
ATOM     55 H61  665 L   1       9.044  -1.602   4.419  1.00  0.00    +0.0278  H
ENDBRANCH 38 39
ENDBRANCH 36 38
ENDBRANCH 33 36
ENDBRANCH 26 33
ENDBRANCH 21 23
BRANCH 21 57
ATOM     56  N5  665 L   1      10.789 -10.610  -2.791  1.00  0.00    -0.3289 NA
ATOM     57  C9  665 L   1      11.079  -9.212  -2.486  1.00  0.00    +0.0085  C
ATOM     58 H36  665 L   1      11.089  -9.081  -1.397  1.00  0.00    +0.0432  H
ATOM     59 H37  665 L   1      10.258  -8.593  -2.866  1.00  0.00    +0.0432  H
ATOM     60 H45  665 L   1       9.904 -10.872  -2.359  1.00  0.00    +0.1182 HD
ATOM     61 H46  665 L   1      11.497 -11.212  -2.371  1.00  0.00    +0.1182 HD
ENDBRANCH 21 57
ENDBRANCH 19 21
ENDBRANCH 2 18
TORSDOF 8
BEGIN_RES GLN A 29
REMARK INDEX MAP 3 1 15 2 18 3 21 4 22 5 23 6 24 7 25 8
ROOT
ATOM      1  CA  GLN A  29      16.975   0.393   8.263  1.00  0.00    +0.171 C 
ENDROOT
BRANCH   1   2
ATOM      2  CB  GLN A  29      16.816  -1.139   8.255  1.00  0.00    +0.045 C 
BRANCH   2   3
ATOM      3  CG  GLN A  29      16.900  -1.726   6.838  1.00  0.00    +0.102 C 
BRANCH   3   4
ATOM      4  CD  GLN A  29      15.770  -1.237   5.938  1.00  0.00    +0.217 C 
ATOM      5  OE1 GLN A  29      14.637  -1.092   6.354  1.00  0.00    -0.275 OA
ATOM      6  NE2 GLN A  29      16.034  -0.965   4.680  1.00  0.00    -0.368 N 
ATOM      7 HE22 GLN A  29      15.283  -0.633   4.056  1.00  0.00    +0.159 HD
ATOM      8 HE21 GLN A  29      16.990  -1.083   4.316  1.00  0.00    +0.159 HD
ENDBRANCH   3   4
ENDBRANCH   2   3
ENDBRANCH   1   2
END_RES GLN A 29
BEGIN_RES LYS A 33
REMARK INDEX MAP 3 1 15 2 18 3 21 4 24 5 27 6 28 7 29 8 30 9
ROOT
ATOM      9  CA  LYS A  33      11.989   3.808   9.373  1.00  0.00    +0.171 C 
ENDROOT
BRANCH   9  10
ATOM     10  CB  LYS A  33      11.876   2.482  10.136  1.00  0.00    +0.035 C 
BRANCH  10  11
ATOM     11  CG  LYS A  33      11.301   1.383   9.236  1.00  0.00    +0.008 C 
BRANCH  11  12
ATOM     12  CD  LYS A  33      10.775   0.220  10.082  1.00  0.00    +0.061 C 
BRANCH  12  13
ATOM     13  CE  LYS A  33      10.017  -0.743   9.167  1.00  0.00    +0.258 C 
BRANCH  13  14
ATOM     14  NZ  LYS A  33       9.203  -1.703   9.951  1.00  0.00    -0.357 N 
ATOM     15  HZ1 LYS A  33       9.499  -1.681  10.937  1.00  0.00    +0.345 HD
ATOM     16  HZ2 LYS A  33       8.208  -1.443   9.886  1.00  0.00    +0.345 HD
ATOM     17  HZ3 LYS A  33       9.334  -2.653   9.574  1.00  0.00    +0.345 HD
ENDBRANCH  13  14
ENDBRANCH  12  13
ENDBRANCH  11  12
ENDBRANCH  10  11
ENDBRANCH   9  10
END_RES LYS A 33
BEGIN_RES SER A 149
REMARK INDEX MAP 3 1 15 2 18 3 19 4
ROOT
ATOM     18  CA  SER A 149       7.343  -2.533  -0.915  1.00  0.00    +0.197 C 
ENDROOT
BRANCH  18  19
ATOM     19  CB  SER A 149       7.142  -1.337   0.020  1.00  0.00    +0.191 C 
BRANCH  19  20
ATOM     20  OG  SER A 149       7.438  -0.130  -0.654  1.00  0.00    -0.392 OA
ATOM     21  HG  SER A 149       7.497   0.609   0.003  1.00  0.00    +0.210 HD
ENDBRANCH  19  20
ENDBRANCH  18  19
END_RES SER A 149
BEGIN_RES VAL A 150
REMARK INDEX MAP 3 1 15 2 17 3 18 4
ROOT
ATOM     22  CA  VAL A 150       6.162  -5.910   0.524  1.00  0.00    +0.173 C 
ENDROOT
BRANCH  22  23
ATOM     23  CB  VAL A 150       4.686  -6.355   0.550  1.00  0.00    +0.015 C 
ATOM     24  CG1 VAL A 150       3.851  -5.287   1.277  1.00  0.00    +0.010 C 
ATOM     25  CG2 VAL A 150       4.140  -6.626  -0.854  1.00  0.00    +0.010 C 
ENDBRANCH  22  23
END_RES VAL A 150
BEGIN_RES GLN A 151
REMARK INDEX MAP 3 1 15 2 18 3 21 4 22 5 23 6 24 7 25 8
ROOT
ATOM     26  CA  GLN A 151       8.198  -9.163   0.318  1.00  0.00    +0.171 C 
ENDROOT
BRANCH  26  27
ATOM     27  CB  GLN A 151       8.689  -9.980   1.515  1.00  0.00    +0.045 C 
BRANCH  27  28
ATOM     28  CG  GLN A 151       9.736  -9.231   2.347  1.00  0.00    +0.102 C 
BRANCH  28  29
ATOM     29  CD  GLN A 151      10.275 -10.077   3.494  1.00  0.00    +0.217 C 
ATOM     30  OE1 GLN A 151       9.883 -11.208   3.734  1.00  0.00    -0.275 OA
ATOM     31  NE2 GLN A 151      11.223  -9.563   4.246  1.00  0.00    -0.368 N 
ATOM     32 HE22 GLN A 151      11.611 -10.107   5.029  1.00  0.00    +0.159 HD
ATOM     33 HE21 GLN A 151      11.578  -8.615   4.052  1.00  0.00    +0.159 HD
ENDBRANCH  28  29
ENDBRANCH  27  28
ENDBRANCH  26  27
END_RES GLN A 151
BEGIN_RES GLU A 192
REMARK INDEX MAP 3 1 15 2 18 3 21 4 22 5 23 6
ROOT
ATOM     34  CA  GLU A 192      15.855   0.073  -7.983  1.00  0.00    +0.171 C 
ENDROOT
BRANCH  34  35
ATOM     35  CB  GLU A 192      15.246  -1.153  -8.688  1.00  0.00    +0.041 C 
BRANCH  35  36
ATOM     36  CG  GLU A 192      14.561  -2.069  -7.668  1.00  0.00    +0.055 C 
BRANCH  36  37
ATOM     37  CD  GLU A 192      13.786  -3.203  -8.324  1.00  0.00    +0.041 C 
ATOM     38  OE1 GLU A 192      14.297  -4.348  -8.260  1.00  0.00    -0.548 OA
ATOM     39  OE2 GLU A 192      12.640  -2.941  -8.754  1.00  0.00    -0.549 OA
ENDBRANCH  36  37
ENDBRANCH  35  36
ENDBRANCH  34  35
END_RES GLU A 192
BEGIN_RES LYS A 196
REMARK INDEX MAP 3 1 15 2 18 3 21 4 24 5 27 6 28 7 29 8 30 9
ROOT
ATOM     40  CA  LYS A 196      14.847  -0.109  -2.051  1.00  0.00    +0.171 C 
ENDROOT
BRANCH  40  41
ATOM     41  CB  LYS A 196      15.401  -1.519  -2.305  1.00  0.00    +0.035 C 
BRANCH  41  42
ATOM     42  CG  LYS A 196      14.541  -2.293  -3.312  1.00  0.00    +0.008 C 
BRANCH  42  43
ATOM     43  CD  LYS A 196      15.250  -3.565  -3.793  1.00  0.00    +0.061 C 
BRANCH  43  44
ATOM     44  CE  LYS A 196      14.289  -4.296  -4.734  1.00  0.00    +0.258 C 
BRANCH  44  45
ATOM     45  NZ  LYS A 196      14.937  -5.335  -5.564  1.00  0.00    -0.357 N 
ATOM     46  HZ1 LYS A 196      15.438  -5.998  -4.955  1.00  0.00    +0.345 HD
ATOM     47  HZ2 LYS A 196      14.219  -5.840  -6.104  1.00  0.00    +0.345 HD
ATOM     48  HZ3 LYS A 196      15.604  -4.891  -6.212  1.00  0.00    +0.345 HD
ENDBRANCH  44  45
ENDBRANCH  43  44
ENDBRANCH  42  43
ENDBRANCH  41  42
ENDBRANCH  40  41
END_RES LYS A 196
BEGIN_RES HIS A 197
REMARK INDEX MAP 3 1 15 2 18 3 19 4 20 5 21 6 22 7 25 8
ROOT
ATOM     49  CA  HIS A 197      16.925   1.640   0.668  1.00  0.00    +0.177 C 
ENDROOT
BRANCH  49  50
ATOM     50  CB  HIS A 197      18.448   1.811   0.600  1.00  0.00    +0.093 C 
BRANCH  50  51
ATOM     51  CG  HIS A 197      19.196   0.505   0.548  1.00  0.00    +0.061 A 
ATOM     52  ND1 HIS A 197      18.822  -0.664   1.171  1.00  0.00    -0.242 NA
ATOM     53  CD2 HIS A 197      20.373   0.255  -0.105  1.00  0.00    +0.107 A 
ATOM     54  CE1 HIS A 197      19.752  -1.595   0.905  1.00  0.00    +0.196 A 
ATOM     55  NE2 HIS A 197      20.723  -1.077   0.144  1.00  0.00    -0.350 N 
ATOM     56  HE2 HIS A 197      21.565  -1.565  -0.194  1.00  0.00    +0.167 HD
ENDBRANCH  50  51
ENDBRANCH  49  50
END_RES HIS A 197
BEGIN_RES ILE A 198
REMARK INDEX MAP 3 1 15 2 17 3 18 4 24 5
ROOT
ATOM     57  CA  ILE A 198      15.384   5.175   0.385  1.00  0.00    +0.174 C 
ENDROOT
BRANCH  57  58
ATOM     58  CB  ILE A 198      16.001   6.256  -0.525  1.00  0.00    +0.018 C 
ATOM     59  CG2 ILE A 198      17.397   6.629   0.004  1.00  0.00    +0.010 C 
BRANCH  58  60
ATOM     60  CG1 ILE A 198      16.057   5.809  -2.001  1.00  0.00    +0.002 C 
ATOM     61  CD1 ILE A 198      16.335   6.942  -2.993  1.00  0.00    +0.004 C 
ENDBRANCH  58  60
ENDBRANCH  57  58
END_RES ILE A 198
BEGIN_RES ASP A 200
REMARK INDEX MAP 3 1 15 2 18 3 19 4 20 5
ROOT
ATOM     62  CA  ASP A 200      11.340   1.754   2.515  1.00  0.00    +0.176 C 
ENDROOT
BRANCH  62  63
ATOM     63  CB  ASP A 200      10.261   2.408   3.406  1.00  0.00    +0.087 C 
BRANCH  63  64
ATOM     64  CG  ASP A 200      10.251   1.896   4.857  1.00  0.00    +0.044 C 
ATOM     65  OD1 ASP A 200      11.327   1.491   5.358  1.00  0.00    -0.548 OA
ATOM     66  OD2 ASP A 200       9.194   2.015   5.519  1.00  0.00    -0.549 OA
ENDBRANCH  63  64
ENDBRANCH  62  63
END_RES ASP A 200
BEGIN_RES CYS A 202
REMARK INDEX MAP 3 1 15 2 18 3 19 4
ROOT
ATOM     67  CA  CYS A 202       9.840  -0.148  -2.684  1.00  0.00    +0.181 C 
ENDROOT
BRANCH  67  68
ATOM     68  CB  CYS A 202       9.556   1.346  -2.861  1.00  0.00    +0.101 C 
BRANCH  68  69
ATOM     69  SG  CYS A 202       8.854   1.705  -4.490  1.00  0.00    -0.177 SA
ATOM     70  HG  CYS A 202       7.640   2.323  -4.338  1.00  0.00    +0.102 HD
ENDBRANCH  68  69
ENDBRANCH  67  68
END_RES CYS A 202
BEGIN_RES CYS A 203
REMARK INDEX MAP 3 1 15 2 18 3 19 4
ROOT
ATOM     71  CA  CYS A 203      10.562  -2.205  -5.856  1.00  0.00    +0.181 C 
ENDROOT
BRANCH  71  72
ATOM     72  CB  CYS A 203      10.246  -3.705  -5.867  1.00  0.00    +0.101 C 
BRANCH  72  73
ATOM     73  SG  CYS A 203      11.302  -4.580  -4.676  1.00  0.00    -0.177 SA
ATOM     74  HG  CYS A 203      11.040  -4.123  -3.412  1.00  0.00    +0.102 HD
ENDBRANCH  72  73
ENDBRANCH  71  72
END_RES CYS A 203
BEGIN_RES LEU A 204
REMARK INDEX MAP 3 1 15 2 18 3 20 4 21 5
ROOT
ATOM     75  CA  LEU A 204      10.344   0.047  -8.968  1.00  0.00    +0.172 C 
ENDROOT
BRANCH  75  76
ATOM     76  CB  LEU A 204      11.507   0.932  -9.440  1.00  0.00    +0.038 C 
BRANCH  76  77
ATOM     77  CG  LEU A 204      11.857   2.083  -8.483  1.00  0.00    -0.015 C 
ATOM     78  CD1 LEU A 204      13.143   2.748  -8.969  1.00  0.00    +0.007 C 
ATOM     79  CD2 LEU A 204      10.740   3.127  -8.426  1.00  0.00    +0.007 C 
ENDBRANCH  76  77
ENDBRANCH  75  76
END_RES LEU A 204
BEGIN_RES THR A 205
REMARK INDEX MAP 3 1 15 2 17 3 18 4 22 5
ROOT
ATOM     80  CA  THR A 205      10.171  -2.845 -11.498  1.00  0.00    +0.199 C 
ENDROOT
BRANCH  80  81
ATOM     81  CB  THR A 205      11.447  -3.524 -12.008  1.00  0.00    +0.143 C 
ATOM     82  CG2 THR A 205      12.509  -2.511 -12.434  1.00  0.00    +0.041 C 
BRANCH  81  83
ATOM     83  OG1 THR A 205      12.009  -4.371 -11.032  1.00  0.00    -0.389 OA
ATOM     84  HG1 THR A 205      11.782  -4.033 -10.130  1.00  0.00    +0.211 HD
ENDBRANCH  81  83
ENDBRANCH  80  81
END_RES THR A 205
BEGIN_RES ARG A 206
REMARK INDEX MAP 3 1 15 2 18 3 21 4 24 5 25 6 26 7 27 8 28 9 29 10 30 11 31 12
REMARK INDEX MAP 32 13
ROOT
ATOM     85  CA  ARG A 206       7.295  -4.660  -9.716  1.00  0.00    +0.171 C 
ENDROOT
BRANCH  85  86
ATOM     86  CB  ARG A 206       6.943  -4.502  -8.237  1.00  0.00    +0.038 C 
BRANCH  86  87
ATOM     87  CG  ARG A 206       6.182  -5.750  -7.765  1.00  0.00    +0.040 C 
BRANCH  87  88
ATOM     88  CD  ARG A 206       6.100  -5.831  -6.249  1.00  0.00    +0.197 C 
BRANCH  88  89
ATOM     89  NE  ARG A 206       7.428  -6.000  -5.619  1.00  0.00    -0.278 N 
ATOM     90  HE  ARG A 206       8.258  -5.931  -6.224  1.00  0.00    +0.260 HD
ATOM     91  CZ  ARG A 206       7.620  -6.234  -4.337  1.00  0.00    +0.339 C 
ATOM     92  NH1 ARG A 206       8.790  -6.480  -3.831  1.00  0.00    -0.290 N 
ATOM     93  NH2 ARG A 206       6.639  -6.236  -3.500  1.00  0.00    -0.290 N 
ATOM     94 HH12 ARG A 206       8.887  -6.657  -2.820  1.00  0.00    +0.256 HD
ATOM     95 HH11 ARG A 206       9.620  -6.500  -4.439  1.00  0.00    +0.256 HD
ATOM     96 HH22 ARG A 206       6.813  -6.421  -2.501  1.00  0.00    +0.256 HD
ATOM     97 HH21 ARG A 206       5.680  -6.053  -3.830  1.00  0.00    +0.256 HD
ENDBRANCH  88  89
ENDBRANCH  87  88
ENDBRANCH  86  87
ENDBRANCH  85  86
END_RES ARG A 206
BEGIN_RES GLU A 207
REMARK INDEX MAP 3 1 15 2 18 3 21 4 22 5 23 6
ROOT
ATOM     98  CA  GLU A 207       4.503  -5.915 -11.996  1.00  0.00    +0.171 C 
ENDROOT
BRANCH  98  99
ATOM     99  CB  GLU A 207       4.773  -7.004 -13.033  1.00  0.00    +0.041 C 
BRANCH  99 100
ATOM    100  CG  GLU A 207       6.162  -6.933 -13.666  1.00  0.00    +0.055 C 
BRANCH 100 101
ATOM    101  CD  GLU A 207       6.217  -8.030 -14.717  1.00  0.00    +0.041 C 
ATOM    102  OE1 GLU A 207       5.908  -7.750 -15.896  1.00  0.00    -0.548 OA
ATOM    103  OE2 GLU A 207       6.354  -9.223 -14.362  1.00  0.00    -0.549 OA
ENDBRANCH 100 101
ENDBRANCH  99 100
ENDBRANCH  98  99
END_RES GLU A 207
BEGIN_RES THR A 208
REMARK INDEX MAP 3 1 15 2 17 3 18 4 22 5
ROOT
ATOM    104  CA  THR A 208       1.776  -5.557  -9.298  1.00  0.00    +0.199 C 
ENDROOT
BRANCH 104 105
ATOM    105  CB  THR A 208       1.641  -4.339  -8.378  1.00  0.00    +0.143 C 
ATOM    106  CG2 THR A 208       0.557  -4.509  -7.327  1.00  0.00    +0.041 C 
BRANCH 105 107
ATOM    107  OG1 THR A 208       2.851  -4.088  -7.694  1.00  0.00    -0.389 OA
ATOM    108  HG1 THR A 208       2.689  -4.107  -6.718  1.00  0.00    +0.211 HD
ENDBRANCH 105 107
ENDBRANCH 104 105
END_RES THR A 208
BEGIN_RES ASP A 211
REMARK INDEX MAP 3 1 15 2 18 3 19 4 20 5
ROOT
ATOM    109  CA  ASP A 211      -0.213 -10.060  -8.774  1.00  0.00    +0.176 C 
ENDROOT
BRANCH 109 110
ATOM    110  CB  ASP A 211       0.609  -9.358  -7.683  1.00  0.00    +0.087 C 
BRANCH 110 111
ATOM    111  CG  ASP A 211       2.092  -9.728  -7.703  1.00  0.00    +0.044 C 
ATOM    112  OD1 ASP A 211       2.393 -10.925  -7.490  1.00  0.00    -0.548 OA
ATOM    113  OD2 ASP A 211       2.919  -8.795  -7.813  1.00  0.00    -0.549 OA
ENDBRANCH 110 111
ENDBRANCH 109 110
END_RES ASP A 211
