ROOT
ATOM      1  C9  CHE L   1       2.676  -0.041   0.236  1.00  0.00    +0.0845  C
ATOM      2 C10  CHE L   1       2.092  -0.680   1.307  1.00  0.00    +0.0176  C
ATOM      3 N11  CHE L   1       0.801  -0.924   0.922  1.00  0.00    -0.2097 NA
ATOM      4 C12  CHE L   1      -0.230  -1.541   1.611  1.00  0.00    -0.0069  C
ATOM      5 C13  CHE L   1      -1.431  -1.663   1.021  1.00  0.00    -0.0322  C
ATOM      6 C14  CHE L   1      -1.664  -1.151  -0.345  1.00  0.00    +0.0223  C
ATOM      7 C26  CHE L   1      -0.618  -0.554  -0.975  1.00  0.00    -0.0062  C
ATOM      8 C27  CHE L   1       0.658  -0.416  -0.359  1.00  0.00    +0.1193  C
ATOM      9 N28  CHE L   1       1.776   0.134  -0.787  1.00  0.00    -0.2336 NA
ATOM     10 H39  CHE L   1       2.471  -0.962   2.280  1.00  0.00    +0.0774  H
ATOM     11 H40  CHE L   1      -0.021  -1.897   2.611  1.00  0.00    +0.0753  H
ATOM     12 H41  CHE L   1      -2.232  -2.134   1.574  1.00  0.00    +0.0643  H
ATOM     13 H55  CHE L   1      -0.697  -0.159  -1.978  1.00  0.00    +0.0665  H
ENDROOT
BRANCH 1 17
ATOM     14  C3  CHE L   1       6.621   1.601   0.168  1.00  0.00    +0.0944  C
ATOM     15  C4  CHE L   1       6.445   0.233   0.406  1.00  0.00    -0.0243  C
ATOM     16  C5  CHE L   1       5.162  -0.358   0.401  1.00  0.00    -0.0105  C
ATOM     17  C8  CHE L   1       4.036   0.459   0.192  1.00  0.00    +0.0083  C
ATOM     18 C29  CHE L   1       4.212   1.824  -0.073  1.00  0.00    -0.0313  C
ATOM     19 C30  CHE L   1       5.490   2.388  -0.086  1.00  0.00    +0.0715  C
ATOM     20 CL31 CHE L   1       5.623   4.083  -0.407  1.00  0.00    -0.0809 Cl
ATOM     21 H35  CHE L   1       7.298  -0.413   0.597  1.00  0.00    +0.0647  H
ATOM     22 H56  CHE L   1       3.343   2.452  -0.262  1.00  0.00    +0.0640  H
BRANCH 14 24
ATOM     23  C1  CHE L   1       8.981   1.482   0.520  1.00  0.00    +0.0431  C
ATOM     24  O2  CHE L   1       7.835   2.237   0.151  1.00  0.00    -0.3464 OA
ATOM     25 H32  CHE L   1       8.883   1.082   1.534  1.00  0.00    +0.0529  H
ATOM     26 H33  CHE L   1       9.843   2.157   0.511  1.00  0.00    +0.0529  H
ATOM     27 H34  CHE L   1       9.177   0.685  -0.205  1.00  0.00    +0.0529  H
ENDBRANCH 14 24
BRANCH 16 28
ATOM     28  C6  CHE L   1       5.066  -1.846   0.615  1.00  0.00    +0.0699  C
ATOM     29  O7  CHE L   1       5.084  -2.115   2.009  1.00  0.00    -0.3904 OA
ATOM     30 H36  CHE L   1       5.921  -2.350   0.150  1.00  0.00    +0.0607  H
ATOM     31 H37  CHE L   1       4.165  -2.276   0.169  1.00  0.00    +0.0607  H
ATOM     32 H38  CHE L   1       5.030  -3.081   2.104  1.00  0.00    +0.2098 HD
ENDBRANCH 16 28
ENDBRANCH 1 17
BRANCH 6 33
ATOM     33 N15  CHE L   1      -2.940  -1.294  -0.928  1.00  0.00    -0.2727 NA
ATOM     34 C16  CHE L   1      -3.363  -0.533  -2.121  1.00  0.00    +0.0049  C
ATOM     35 C17  CHE L   1      -3.701   0.918  -1.787  1.00  0.00    -0.0260  C
ATOM     36 C18  CHE L   1      -4.381   1.135  -0.439  1.00  0.00    +0.0150  C
ATOM     37 N19  CHE L   1      -5.467   0.131  -0.216  1.00  0.00    -0.2006 NA
ATOM     38 C24  CHE L   1      -4.945  -1.047   0.578  1.00  0.00    +0.0269  C
ATOM     39 C25  CHE L   1      -4.088  -1.987  -0.290  1.00  0.00    +0.0175  C
ATOM     40 H42  CHE L   1      -2.603  -0.577  -2.910  1.00  0.00    +0.0431  H
ATOM     41 H43  CHE L   1      -4.245  -1.003  -2.576  1.00  0.00    +0.0431  H
ATOM     42 H44  CHE L   1      -4.341   1.312  -2.587  1.00  0.00    +0.0290  H
ATOM     43 H45  CHE L   1      -2.786   1.523  -1.809  1.00  0.00    +0.0290  H
ATOM     44 H46  CHE L   1      -4.776   2.156  -0.422  1.00  0.00    +0.0438  H
ATOM     45 H47  CHE L   1      -3.645   1.096   0.372  1.00  0.00    +0.0438  H
ATOM     46 H51  CHE L   1      -5.777  -1.643   0.966  1.00  0.00    +0.0450  H
ATOM     47 H52  CHE L   1      -4.376  -0.687   1.443  1.00  0.00    +0.0450  H
ATOM     48 H53  CHE L   1      -3.752  -2.846   0.300  1.00  0.00    +0.0443  H
ATOM     49 H54  CHE L   1      -4.725  -2.426  -1.069  1.00  0.00    +0.0443  H
BRANCH 37 50
ATOM     50 S20  CHE L   1      -6.929   0.751   0.407  1.00  0.00    +0.2124  S
ATOM     51 C21  CHE L   1      -7.529   1.730  -0.956  1.00  0.00    +0.0527  C
ATOM     52 O22  CHE L   1      -6.601   1.624   1.513  1.00  0.00    -0.2110 OA
ATOM     53 O23  CHE L   1      -7.841  -0.361   0.576  1.00  0.00    -0.2110 OA
ATOM     54 H48  CHE L   1      -6.860   2.573  -1.133  1.00  0.00    +0.0403  H
ATOM     55 H49  CHE L   1      -8.520   2.102  -0.687  1.00  0.00    +0.0403  H
ATOM     56 H50  CHE L   1      -7.603   1.093  -1.840  1.00  0.00    +0.0403  H
ENDBRANCH 37 50
ENDBRANCH 6 33
TORSDOF 5
