ROOT
ATOM      1  C1  678 L   1       5.073   1.297  -0.031  1.00  0.00    -0.0128  C
ATOM      2  N2  678 L   1       3.919   0.408  -0.160  1.00  0.00    -0.3053 NA
ATOM      3  C3  678 L   1       2.676   1.188  -0.219  1.00  0.00    -0.0011  C
ATOM      4  C4  678 L   1       1.464   0.275  -0.417  1.00  0.00    -0.0369  C
ATOM      5  C5  678 L   1       1.376  -0.793   0.685  1.00  0.00    -0.0318  C
ATOM      6 C19  678 L   1       2.720  -1.530   0.789  1.00  0.00    -0.0369  C
ATOM      7 C20  678 L   1       3.886  -0.554   0.949  1.00  0.00    -0.0011  C
ATOM      8 H21  678 L   1       6.005   0.721  -0.036  1.00  0.00    +0.0391  H
ATOM      9 H22  678 L   1       5.039   1.891   0.890  1.00  0.00    +0.0391  H
ATOM     10 H23  678 L   1       5.127   1.985  -0.883  1.00  0.00    +0.0391  H
ATOM     11 H24  678 L   1       2.716   1.887  -1.063  1.00  0.00    +0.0426  H
ATOM     12 H25  678 L   1       2.543   1.785   0.693  1.00  0.00    +0.0426  H
ATOM     13 H26  678 L   1       1.528  -0.207  -1.401  1.00  0.00    +0.0280  H
ATOM     14 H27  678 L   1       0.557   0.891  -0.423  1.00  0.00    +0.0280  H
ATOM     15 H28  678 L   1       1.194  -0.284   1.642  1.00  0.00    +0.0306  H
ATOM     16 H35  678 L   1       2.704  -2.216   1.645  1.00  0.00    +0.0280  H
ATOM     17 H36  678 L   1       2.880  -2.144  -0.107  1.00  0.00    +0.0280  H
ATOM     18 H37  678 L   1       3.808  -0.039   1.915  1.00  0.00    +0.0426  H
ATOM     19 H38  678 L   1       4.817  -1.135   0.964  1.00  0.00    +0.0426  H
ENDROOT
BRANCH 5 20
ATOM     20  C6  678 L   1       0.239  -1.797   0.430  1.00  0.00    +0.0125  C
ATOM     21 H29  678 L   1       0.357  -2.255  -0.560  1.00  0.00    +0.0347  H
ATOM     22 H30  678 L   1       0.305  -2.618   1.156  1.00  0.00    +0.0347  H
BRANCH 20 23
ATOM     23  C7  678 L   1      -1.113  -1.190   0.531  1.00  0.00    +0.1594  C
ATOM     24  N8  678 L   1      -1.718  -0.965   1.705  1.00  0.00    -0.1107 NA
ATOM     25  O9  678 L   1      -2.933  -0.388   1.336  1.00  0.00    -0.1922 OA
ATOM     26 C10  678 L   1      -2.933  -0.328  -0.027  1.00  0.00    +0.2162  C
ATOM     27 N18  678 L   1      -1.834  -0.807  -0.572  1.00  0.00    -0.2053 NA
BRANCH 26 28
ATOM     28 C11  678 L   1      -4.125   0.267  -0.699  1.00  0.00    +0.2244  C
ATOM     29 C12  678 L   1      -5.429  -0.330  -0.171  1.00  0.00    -0.0196  C
ATOM     30 O13  678 L   1      -4.047  -0.097  -2.103  1.00  0.00    -0.3732 OA
ATOM     31 H31  678 L   1      -6.288   0.058  -0.730  1.00  0.00    +0.0265  H
ATOM     32 H32  678 L   1      -5.441  -1.420  -0.299  1.00  0.00    +0.0265  H
ATOM     33 H33  678 L   1      -5.582  -0.113   0.892  1.00  0.00    +0.0265  H
ATOM     34 H34  678 L   1      -3.097  -0.106  -2.340  1.00  0.00    +0.2111 HD
BRANCH 28 35
ATOM     35 C14  678 L   1      -4.102   1.791  -0.500  1.00  0.00    +0.4257  C
ATOM     36 F15  678 L   1      -5.142   2.392  -1.126  1.00  0.00    -0.1672  F
ATOM     37 F16  678 L   1      -2.968   2.345  -0.994  1.00  0.00    -0.1672  F
ATOM     38 F17  678 L   1      -4.182   2.133   0.808  1.00  0.00    -0.1672  F
ENDBRANCH 28 35
ENDBRANCH 26 28
ENDBRANCH 20 23
ENDBRANCH 5 20
TORSDOF 4
