ROOT
ATOM      1  C1  CHE L   1       1.516  -1.306  -1.683  1.00  0.00    -0.0021  C
ATOM      2  N2  CHE L   1       0.607  -1.005  -0.579  1.00  0.00    -0.2114  N
ATOM      3  C3  CHE L   1      -0.677  -1.512  -0.686  1.00  0.00    +0.2111  C
ATOM      4  O4  CHE L   1      -1.069  -2.111  -1.689  1.00  0.00    -0.2788 OA
ATOM      5  C5  CHE L   1      -1.569  -1.398   0.532  1.00  0.00    +0.0582  C
ATOM      6  C9  CHE L   1      -0.849  -0.687   1.655  1.00  0.00    +0.0615  C
ATOM      7 O10  CHE L   1      -0.157   0.446   1.170  1.00  0.00    -0.3506 OA
ATOM      8 C11  CHE L   1       0.885   0.162   0.248  1.00  0.00    +0.1680  C
ATOM      9 C12  CHE L   1       0.970   1.384  -0.628  1.00  0.00    -0.0296  C
ATOM     10 C13  CHE L   1       2.052   2.171  -0.730  1.00  0.00    -0.0146  C
ATOM     11 C14  CHE L   1       3.277   1.874   0.046  1.00  0.00    +0.1787  C
ATOM     12 O15  CHE L   1       4.280   2.567  -0.059  1.00  0.00    -0.2879 OA
ATOM     13 C16  CHE L   1       3.245   0.701   0.949  1.00  0.00    -0.0146  C
ATOM     14 C17  CHE L   1       2.150  -0.071   1.032  1.00  0.00    -0.0296  C
ATOM     15 H18  CHE L   1       1.326  -0.616  -2.511  1.00  0.00    +0.0396  H
ATOM     16 H19  CHE L   1       2.557  -1.230  -1.360  1.00  0.00    +0.0396  H
ATOM     17 H20  CHE L   1       1.347  -2.327  -2.042  1.00  0.00    +0.0396  H
ATOM     18 H21  CHE L   1      -1.737  -2.430   0.871  1.00  0.00    +0.0415  H
ATOM     19 H27  CHE L   1      -1.552  -0.362   2.429  1.00  0.00    +0.0568  H
ATOM     20 H28  CHE L   1      -0.140  -1.362   2.151  1.00  0.00    +0.0568  H
ATOM     21 H29  CHE L   1       0.083   1.638  -1.199  1.00  0.00    +0.0619  H
ATOM     22 H30  CHE L   1       2.081   3.046  -1.366  1.00  0.00    +0.0654  H
ATOM     23 H31  CHE L   1       4.141   0.509   1.527  1.00  0.00    +0.0654  H
ATOM     24 H32  CHE L   1       2.162  -0.920   1.708  1.00  0.00    +0.0619  H
ENDROOT
BRANCH 5 25
ATOM     25  C6  CHE L   1      -2.958  -0.848   0.158  1.00  0.00    -0.0167  C
ATOM     26 H22  CHE L   1      -3.357  -1.435  -0.679  1.00  0.00    +0.0295  H
ATOM     27 H23  CHE L   1      -3.630  -1.014   1.010  1.00  0.00    +0.0295  H
BRANCH 25 28
ATOM     28  C7  CHE L   1      -3.008   0.623  -0.230  1.00  0.00    +0.0450  C
ATOM     29  O8  CHE L   1      -2.938   1.424   0.939  1.00  0.00    -0.3950 OA
ATOM     30 H24  CHE L   1      -2.198   0.894  -0.912  1.00  0.00    +0.0557  H
ATOM     31 H25  CHE L   1      -3.961   0.843  -0.722  1.00  0.00    +0.0557  H
ATOM     32 H26  CHE L   1      -2.881   2.352   0.652  1.00  0.00    +0.2094 HD
ENDBRANCH 25 28
ENDBRANCH 5 25
TORSDOF 2
