ROOT
ATOM      1  O1  SEL L   1      -1.145   1.647   1.394  1.00  0.00    -0.2790 OA
ATOM      2  C2  SEL L   1      -1.498   0.767   0.607  1.00  0.00    +0.2078  C
ATOM      3 N16  SEL L   1      -2.846   0.474   0.405  1.00  0.00    -0.2398  N
ATOM      4 C17  SEL L   1      -3.364  -0.162  -0.813  1.00  0.00    +0.0297  C
ATOM      5 C18  SEL L   1      -4.754  -0.768  -0.592  1.00  0.00    +0.0609  C
ATOM      6 O19  SEL L   1      -5.663   0.201  -0.054  1.00  0.00    -0.3772 OA
ATOM      7 C20  SEL L   1      -5.188   0.676   1.214  1.00  0.00    +0.0609  C
ATOM      8 C21  SEL L   1      -3.819   1.346   1.074  1.00  0.00    +0.0297  C
ATOM      9 H35  SEL L   1      -3.415   0.626  -1.574  1.00  0.00    +0.0454  H
ATOM     10 H36  SEL L   1      -2.688  -0.935  -1.180  1.00  0.00    +0.0454  H
ATOM     11 H37  SEL L   1      -5.163  -1.119  -1.544  1.00  0.00    +0.0573  H
ATOM     12 H38  SEL L   1      -4.704  -1.627   0.088  1.00  0.00    +0.0573  H
ATOM     13 H39  SEL L   1      -5.919   1.394   1.598  1.00  0.00    +0.0573  H
ATOM     14 H40  SEL L   1      -5.144  -0.165   1.916  1.00  0.00    +0.0573  H
ATOM     15 H41  SEL L   1      -3.451   1.644   2.062  1.00  0.00    +0.0454  H
ATOM     16 H42  SEL L   1      -3.906   2.249   0.458  1.00  0.00    +0.0454  H
ENDROOT
BRANCH 2 17
ATOM     17  C3  SEL L   1      -0.465  -0.084  -0.127  1.00  0.00    +0.0458  C
ATOM     18  C4  SEL L   1      -0.433  -1.511   0.453  1.00  0.00    -0.0398  C
ATOM     19  C5  SEL L   1       0.945  -2.171   0.339  1.00  0.00    -0.0391  C
ATOM     20  C6  SEL L   1       1.698  -1.659  -0.883  1.00  0.00    +0.0037  C
ATOM     21  N7  SEL L   1       1.930  -0.210  -0.782  1.00  0.00    -0.2734 NA
ATOM     22 C15  SEL L   1       0.921   0.570  -0.022  1.00  0.00    +0.0145  C
ATOM     23 H22  SEL L   1      -0.722  -0.116  -1.192  1.00  0.00    +0.0404  H
ATOM     24 H23  SEL L   1      -0.745  -1.521   1.504  1.00  0.00    +0.0273  H
ATOM     25 H24  SEL L   1      -1.163  -2.131  -0.080  1.00  0.00    +0.0273  H
ATOM     26 H25  SEL L   1       1.524  -1.961   1.247  1.00  0.00    +0.0278  H
ATOM     27 H26  SEL L   1       0.826  -3.259   0.285  1.00  0.00    +0.0278  H
ATOM     28 H27  SEL L   1       1.094  -1.840  -1.781  1.00  0.00    +0.0430  H
ATOM     29 H28  SEL L   1       2.620  -2.230  -1.038  1.00  0.00    +0.0430  H
ATOM     30 H33  SEL L   1       1.223   0.644   1.033  1.00  0.00    +0.0438  H
ATOM     31 H34  SEL L   1       0.865   1.591  -0.418  1.00  0.00    +0.0438  H
BRANCH 21 32
ATOM     32  C8  SEL L   1       3.236   0.256  -0.565  1.00  0.00    +0.0185  C
ATOM     33  C9  SEL L   1       3.591   1.536  -1.031  1.00  0.00    -0.0410  C
ATOM     34 C10  SEL L   1       4.874   2.055  -0.839  1.00  0.00    -0.0250  C
ATOM     35 C11  SEL L   1       5.821   1.295  -0.170  1.00  0.00    +0.1235  C
ATOM     36 F12  SEL L   1       7.052   1.786   0.018  1.00  0.00    -0.2055  F
ATOM     37 C13  SEL L   1       5.506   0.031   0.307  1.00  0.00    -0.0250  C
ATOM     38 C14  SEL L   1       4.220  -0.483   0.110  1.00  0.00    -0.0410  C
ATOM     39 H29  SEL L   1       2.861   2.133  -1.573  1.00  0.00    +0.0634  H
ATOM     40 H30  SEL L   1       5.134   3.040  -1.209  1.00  0.00    +0.0647  H
ATOM     41 H31  SEL L   1       6.258  -0.547   0.835  1.00  0.00    +0.0647  H
ATOM     42 H32  SEL L   1       3.997  -1.463   0.521  1.00  0.00    +0.0634  H
ENDBRANCH 21 32
ENDBRANCH 2 17
TORSDOF 2
