ROOT
ATOM      1  N5  CHE L   1       2.385  -0.338  -0.616  1.00  0.00    -0.3010 NA
ATOM      2  C6  CHE L   1       2.226  -1.090  -1.874  1.00  0.00    +0.0013  C
ATOM      3  C7  CHE L   1       1.443  -0.281  -2.908  1.00  0.00    -0.0137  C
ATOM      4  C8  CHE L   1       0.072   0.135  -2.375  1.00  0.00    +0.0614  C
ATOM      5 C21  CHE L   1       0.243   0.832  -1.026  1.00  0.00    -0.0137  C
ATOM      6 C22  CHE L   1       1.064  -0.016  -0.051  1.00  0.00    +0.0013  C
ATOM      7 H31  CHE L   1       1.732  -2.053  -1.696  1.00  0.00    +0.0427  H
ATOM      8 H32  CHE L   1       3.214  -1.308  -2.300  1.00  0.00    +0.0427  H
ATOM      9 H33  CHE L   1       1.324  -0.888  -3.814  1.00  0.00    +0.0302  H
ATOM     10 H34  CHE L   1       2.017   0.613  -3.184  1.00  0.00    +0.0302  H
ATOM     11 H35  CHE L   1      -0.380   0.822  -3.100  1.00  0.00    +0.0597  H
ATOM     12 H42  CHE L   1       0.746   1.796  -1.179  1.00  0.00    +0.0302  H
ATOM     13 H43  CHE L   1      -0.727   1.053  -0.570  1.00  0.00    +0.0302  H
ATOM     14 H44  CHE L   1       0.518  -0.930   0.210  1.00  0.00    +0.0427  H
ATOM     15 H45  CHE L   1       1.178   0.568   0.869  1.00  0.00    +0.0427  H
ENDROOT
BRANCH 1 16
ATOM     16  C4  CHE L   1       3.203  -1.136   0.332  1.00  0.00    +0.0114  C
ATOM     17 H29  CHE L   1       2.660  -2.031   0.658  1.00  0.00    +0.0439  H
ATOM     18 H30  CHE L   1       4.106  -1.484  -0.190  1.00  0.00    +0.0439  H
BRANCH 16 19
ATOM     19  C3  CHE L   1       3.681  -0.343   1.573  1.00  0.00    +0.0084  C
ATOM     20 H27  CHE L   1       2.821  -0.145   2.224  1.00  0.00    +0.0436  H
ATOM     21 H28  CHE L   1       4.389  -0.960   2.140  1.00  0.00    +0.0436  H
BRANCH 19 23
ATOM     22  C1  CHE L   1       4.473   1.822   2.292  1.00  0.00    -0.0157  C
ATOM     23  N2  CHE L   1       4.333   0.910   1.170  1.00  0.00    -0.3178 NA
ATOM     24 H23  CHE L   1       5.085   1.382   3.086  1.00  0.00    +0.0388  H
ATOM     25 H24  CHE L   1       4.974   2.737   1.959  1.00  0.00    +0.0388  H
ATOM     26 H25  CHE L   1       3.498   2.105   2.701  1.00  0.00    +0.0388  H
ATOM     27 H26  CHE L   1       3.755   1.329   0.435  1.00  0.00    +0.1217 HD
ENDBRANCH 19 23
ENDBRANCH 16 19
ENDBRANCH 1 16
BRANCH 4 28
ATOM     28  O9  CHE L   1      -0.728  -1.052  -2.270  1.00  0.00    -0.3719 OA
BRANCH 28 29
ATOM     29 C10  CHE L   1      -2.135  -0.838  -2.376  1.00  0.00    +0.0731  C
ATOM     30 H36  CHE L   1      -2.358   0.003  -3.043  1.00  0.00    +0.0610  H
ATOM     31 H37  CHE L   1      -2.562  -1.732  -2.846  1.00  0.00    +0.0610  H
BRANCH 29 32
ATOM     32 C11  CHE L   1      -2.790  -0.678  -1.026  1.00  0.00    -0.0214  C
ATOM     33 C12  CHE L   1      -2.513  -1.577   0.014  1.00  0.00    -0.0564  C
ATOM     34 C13  CHE L   1      -3.135  -1.442   1.255  1.00  0.00    -0.0609  C
ATOM     35 C14  CHE L   1      -4.049  -0.409   1.470  1.00  0.00    -0.0501  C
ATOM     36 C15  CHE L   1      -4.346   0.503   0.446  1.00  0.00    +0.0551  C
ATOM     37 C20  CHE L   1      -3.717   0.353  -0.803  1.00  0.00    -0.0448  C
ATOM     38 H38  CHE L   1      -1.803  -2.388  -0.145  1.00  0.00    +0.0621  H
ATOM     39 H39  CHE L   1      -2.909  -2.146   2.053  1.00  0.00    +0.0618  H
ATOM     40 H40  CHE L   1      -4.531  -0.320   2.442  1.00  0.00    +0.0623  H
ATOM     41 H41  CHE L   1      -3.956   1.051  -1.606  1.00  0.00    +0.0626  H
BRANCH 36 42
ATOM     42 C16  CHE L   1      -5.357   1.604   0.659  1.00  0.00    +0.4174  C
ATOM     43 F17  CHE L   1      -6.589   1.273   0.181  1.00  0.00    -0.1659  F
ATOM     44 F18  CHE L   1      -5.015   2.765   0.032  1.00  0.00    -0.1659  F
ATOM     45 F19  CHE L   1      -5.538   1.931   1.970  1.00  0.00    -0.1659  F
ENDBRANCH 36 42
ENDBRANCH 29 32
ENDBRANCH 28 29
ENDBRANCH 4 28
TORSDOF 7
