ROOT
ATOM      1  O1  864 L   1      -1.017   2.108  -1.609  1.00  0.00    -0.2744 OA
ATOM      2  C2  864 L   1      -0.705   0.953  -1.332  1.00  0.00    +0.2270  C
ATOM      3 N11  864 L   1       0.601   0.527  -1.119  1.00  0.00    -0.2408  N
ATOM      4 C12  864 L   1       1.674   1.480  -1.386  1.00  0.00    +0.0071  C
ATOM      5 C13  864 L   1       2.825   1.334  -0.400  1.00  0.00    -0.0299  C
ATOM      6 C14  864 L   1       3.318  -0.117  -0.347  1.00  0.00    +0.0244  C
ATOM      7 C20  864 L   1       2.150  -1.049  -0.003  1.00  0.00    -0.0299  C
ATOM      8 C21  864 L   1       0.999  -0.875  -0.987  1.00  0.00    +0.0071  C
ATOM      9 H33  864 L   1       1.299   2.509  -1.351  1.00  0.00    +0.0431  H
ATOM     10 H34  864 L   1       2.021   1.298  -2.410  1.00  0.00    +0.0431  H
ATOM     11 H35  864 L   1       2.490   1.653   0.596  1.00  0.00    +0.0284  H
ATOM     12 H36  864 L   1       3.643   2.006  -0.687  1.00  0.00    +0.0284  H
ATOM     13 H37  864 L   1       3.682  -0.388  -1.348  1.00  0.00    +0.0381  H
ATOM     14 H39  864 L   1       2.481  -2.095  -0.007  1.00  0.00    +0.0284  H
ATOM     15 H40  864 L   1       1.788  -0.837   1.012  1.00  0.00    +0.0284  H
ATOM     16 H41  864 L   1       0.162  -1.498  -0.660  1.00  0.00    +0.0431  H
ATOM     17 H42  864 L   1       1.292  -1.222  -1.985  1.00  0.00    +0.0431  H
ENDROOT
BRANCH 2 18
ATOM     18  C3  864 L   1      -1.760  -0.078  -1.229  1.00  0.00    -0.0032  C
ATOM     19  C4  864 L   1      -2.655  -0.084  -0.218  1.00  0.00    -0.0588  C
ATOM     20 H22  864 L   1      -1.787  -0.812  -2.024  1.00  0.00    +0.0666  H
BRANCH 19 21
ATOM     21  C5  864 L   1      -2.629   0.913   0.883  1.00  0.00    -0.0192  C
ATOM     22  C6  864 L   1      -1.478   0.896   1.861  1.00  0.00    -0.0460  C
ATOM     23  C7  864 L   1      -2.845   0.480   2.312  1.00  0.00    -0.0460  C
ATOM     24 H23  864 L   1      -3.020   1.887   0.599  1.00  0.00    +0.0346  H
ATOM     25 H24  864 L   1      -1.095   1.853   2.196  1.00  0.00    +0.0271  H
ATOM     26 H25  864 L   1      -0.720   0.126   1.776  1.00  0.00    +0.0271  H
ATOM     27 H26  864 L   1      -3.392   1.153   2.962  1.00  0.00    +0.0271  H
ATOM     28 H27  864 L   1      -3.001  -0.569   2.536  1.00  0.00    +0.0271  H
ENDBRANCH 19 21
BRANCH 19 29
ATOM     29  C8  864 L   1      -3.726  -1.110  -0.170  1.00  0.00    -0.0192  C
ATOM     30  C9  864 L   1      -5.164  -0.674  -0.035  1.00  0.00    -0.0460  C
ATOM     31 C10  864 L   1      -4.680  -1.247  -1.332  1.00  0.00    -0.0460  C
ATOM     32 H28  864 L   1      -3.439  -2.022   0.346  1.00  0.00    +0.0346  H
ATOM     33 H29  864 L   1      -5.395   0.386  -0.008  1.00  0.00    +0.0271  H
ATOM     34 H30  864 L   1      -5.820  -1.281   0.579  1.00  0.00    +0.0271  H
ATOM     35 H31  864 L   1      -4.594  -0.569  -2.174  1.00  0.00    +0.0271  H
ATOM     36 H32  864 L   1      -5.010  -2.244  -1.601  1.00  0.00    +0.0271  H
ENDBRANCH 19 29
ENDBRANCH 2 18
BRANCH 6 37
ATOM     37 C15  864 L   1       4.444  -0.276   0.613  1.00  0.00    +0.1716  C
ATOM     38 N16  864 L   1       4.320  -0.061   1.960  1.00  0.00    -0.1183 NA
ATOM     39 N17  864 L   1       5.513  -0.297   2.486  1.00  0.00    -0.0732 NA
ATOM     40 N18  864 L   1       6.284  -0.636   1.446  1.00  0.00    -0.0821 NA
ATOM     41 N19  864 L   1       5.679  -0.648   0.246  1.00  0.00    -0.1605 NA
ATOM     42 H38  864 L   1       7.267  -0.870   1.562  1.00  0.00    +0.1786 HD
ENDBRANCH 6 37
TORSDOF 4
