ROOT
ATOM      1 C20  CHE L   1       4.090  -0.586   1.100  1.00  0.00    +0.1118  C
ATOM      2 C21  CHE L   1       3.281   0.543   1.236  1.00  0.00    -0.0276  C
ATOM      3 C22  CHE L   1       3.813   1.734   1.749  1.00  0.00    -0.0417  C
ATOM      4 C23  CHE L   1       5.158   1.807   2.132  1.00  0.00    +0.0546  C
ATOM      5 C26  CHE L   1       5.970   0.681   2.006  1.00  0.00    -0.0065  C
ATOM      6 C27  CHE L   1       5.431  -0.498   1.496  1.00  0.00    +0.1544  C
ATOM      7 F28  CHE L   1       6.235  -1.566   1.381  1.00  0.00    -0.2027  F
ATOM      8 H46  CHE L   1       2.232   0.541   0.960  1.00  0.00    +0.0645  H
ATOM      9 H47  CHE L   1       3.167   2.606   1.850  1.00  0.00    +0.0631  H
ATOM     10 H48  CHE L   1       7.018   0.701   2.294  1.00  0.00    +0.0660  H
ENDROOT
BRANCH 1 11
ATOM     11 O19  CHE L   1       3.702  -1.802   0.611  1.00  0.00    -0.3366 OA
BRANCH 11 13
ATOM     12  C1  CHE L   1       2.054  -3.463   0.187  1.00  0.00    -0.0360  C
ATOM     13  C2  CHE L   1       2.376  -1.969   0.096  1.00  0.00    +0.0863  C
ATOM     14 H29  CHE L   1       2.107  -3.797   1.229  1.00  0.00    +0.0255  H
ATOM     15 H30  CHE L   1       2.786  -4.058  -0.371  1.00  0.00    +0.0255  H
ATOM     16 H31  CHE L   1       1.054  -3.687  -0.196  1.00  0.00    +0.0255  H
ATOM     17 H32  CHE L   1       1.636  -1.463   0.726  1.00  0.00    +0.0621  H
BRANCH 13 18
ATOM     18  C3  CHE L   1       2.308  -1.493  -1.368  1.00  0.00    +0.0806  C
ATOM     19 H33  CHE L   1       2.953  -2.133  -1.983  1.00  0.00    +0.0591  H
ATOM     20 H34  CHE L   1       2.725  -0.488  -1.492  1.00  0.00    +0.0591  H
BRANCH 18 21
ATOM     21  O4  CHE L   1       0.985  -1.599  -1.909  1.00  0.00    -0.3421 OA
BRANCH 21 22
ATOM     22  C5  CHE L   1       0.113  -0.628  -1.497  1.00  0.00    +0.0778  C
ATOM     23  C6  CHE L   1       0.395   0.734  -1.546  1.00  0.00    -0.0316  C
ATOM     24  C7  CHE L   1      -0.560   1.650  -1.111  1.00  0.00    -0.0578  C
ATOM     25  C8  CHE L   1      -1.806   1.210  -0.653  1.00  0.00    -0.0429  C
ATOM     26  C9  CHE L   1      -2.121  -0.154  -0.648  1.00  0.00    +0.0304  C
ATOM     27 C18  CHE L   1      -1.143  -1.070  -1.072  1.00  0.00    -0.0130  C
ATOM     28 H35  CHE L   1       1.336   1.103  -1.939  1.00  0.00    +0.0643  H
ATOM     29 H36  CHE L   1      -0.338   2.715  -1.131  1.00  0.00    +0.0619  H
ATOM     30 H37  CHE L   1      -2.490   1.964  -0.282  1.00  0.00    +0.0633  H
ATOM     31 H45  CHE L   1      -1.337  -2.138  -1.113  1.00  0.00    +0.0659  H
BRANCH 26 32
ATOM     32 N10  CHE L   1      -3.396  -0.627  -0.211  1.00  0.00    -0.2065 NA
ATOM     33 C11  CHE L   1      -3.675  -1.921   0.193  1.00  0.00    +0.0100  C
ATOM     34 C12  CHE L   1      -4.993  -1.938   0.570  1.00  0.00    +0.0404  C
ATOM     35 N13  CHE L   1      -5.559  -0.715   0.390  1.00  0.00    -0.2461 NA
ATOM     36 C14  CHE L   1      -4.605   0.056  -0.097  1.00  0.00    +0.0973  C
ATOM     37 H38  CHE L   1      -2.931  -2.702   0.223  1.00  0.00    +0.0767  H
ATOM     38 H39  CHE L   1      -5.562  -2.772   0.961  1.00  0.00    +0.0840  H
BRANCH 36 39
ATOM     39 C15  CHE L   1      -4.936   1.511  -0.572  1.00  0.00    +0.0126  C
ATOM     40 C16  CHE L   1      -5.059   2.602   0.462  1.00  0.00    -0.0432  C
ATOM     41 C17  CHE L   1      -6.285   2.103  -0.244  1.00  0.00    -0.0432  C
ATOM     42 H40  CHE L   1      -4.551   1.761  -1.555  1.00  0.00    +0.0374  H
ATOM     43 H41  CHE L   1      -4.954   2.341   1.510  1.00  0.00    +0.0272  H
ATOM     44 H42  CHE L   1      -4.692   3.588   0.205  1.00  0.00    +0.0272  H
ATOM     45 H43  CHE L   1      -6.990   1.505   0.325  1.00  0.00    +0.0272  H
ATOM     46 H44  CHE L   1      -6.750   2.745  -0.983  1.00  0.00    +0.0272  H
ENDBRANCH 36 39
ENDBRANCH 26 32
ENDBRANCH 21 22
ENDBRANCH 18 21
ENDBRANCH 13 18
ENDBRANCH 11 13
ENDBRANCH 1 11
BRANCH 4 47
ATOM     47 C24  CHE L   1       5.694   3.032   2.649  1.00  0.00    +0.0992  C
ATOM     48 N25  CHE L   1       6.116   4.030   3.062  1.00  0.00    -0.1909 NA
ENDBRANCH 4 47
TORSDOF 8
