ROOT
ATOM      1  C1  CHE L   1      -4.236  -2.114   0.961  1.00  0.00    -0.0468  C
ATOM      2  C2  CHE L   1      -3.708  -1.287  -0.232  1.00  0.00    +0.0183  C
ATOM      3  C3  CHE L   1      -4.125  -2.008  -1.540  1.00  0.00    -0.0468  C
ATOM      4  C4  CHE L   1      -2.163  -1.285  -0.225  1.00  0.00    -0.0190  C
ATOM      5  C5  CHE L   1      -1.554  -0.516   0.944  1.00  0.00    +0.0182  C
ATOM      6 C25  CHE L   1      -2.427   0.647   1.416  1.00  0.00    -0.0190  C
ATOM      7 C26  CHE L   1      -3.443   1.183   0.377  1.00  0.00    +0.0183  C
ATOM      8 C27  CHE L   1      -2.702   1.919  -0.762  1.00  0.00    -0.0468  C
ATOM      9 C28  CHE L   1      -4.274   2.258   1.127  1.00  0.00    -0.0468  C
ATOM     10 N29  CHE L   1      -4.243   0.091  -0.218  1.00  0.00    -0.2898 NA
ATOM     11 H33  CHE L   1      -3.772  -3.107   0.980  1.00  0.00    +0.0247  H
ATOM     12 H34  CHE L   1      -5.319  -2.270   0.905  1.00  0.00    +0.0247  H
ATOM     13 H35  CHE L   1      -4.027  -1.640   1.924  1.00  0.00    +0.0247  H
ATOM     14 H36  CHE L   1      -5.202  -2.194  -1.599  1.00  0.00    +0.0247  H
ATOM     15 H37  CHE L   1      -3.836  -1.424  -2.422  1.00  0.00    +0.0247  H
ATOM     16 H38  CHE L   1      -3.634  -2.985  -1.620  1.00  0.00    +0.0247  H
ATOM     17 H39  CHE L   1      -1.794  -0.875  -1.175  1.00  0.00    +0.0298  H
ATOM     18 H40  CHE L   1      -1.782  -2.316  -0.205  1.00  0.00    +0.0298  H
ATOM     19 H41  CHE L   1      -1.445  -1.206   1.791  1.00  0.00    +0.0466  H
ATOM     20 H50  CHE L   1      -2.990   0.303   2.296  1.00  0.00    +0.0298  H
ATOM     21 H51  CHE L   1      -1.796   1.464   1.789  1.00  0.00    +0.0298  H
ATOM     22 H52  CHE L   1      -2.078   1.256  -1.367  1.00  0.00    +0.0247  H
ATOM     23 H53  CHE L   1      -2.045   2.700  -0.361  1.00  0.00    +0.0247  H
ATOM     24 H54  CHE L   1      -3.403   2.409  -1.447  1.00  0.00    +0.0247  H
ATOM     25 H55  CHE L   1      -4.836   1.821   1.961  1.00  0.00    +0.0247  H
ATOM     26 H56  CHE L   1      -4.979   2.778   0.471  1.00  0.00    +0.0247  H
ATOM     27 H57  CHE L   1      -3.621   3.029   1.553  1.00  0.00    +0.0247  H
ENDROOT
BRANCH 5 28
ATOM     28  N6  CHE L   1      -0.204  -0.059   0.614  1.00  0.00    -0.2510  N
ATOM     29  C7  CHE L   1       0.873  -0.922   0.655  1.00  0.00    +0.2318  C
ATOM     30  O8  CHE L   1       0.793  -2.089   1.020  1.00  0.00    -0.2740 OA
ATOM     31 H42  CHE L   1      -0.126   0.778   0.053  1.00  0.00    +0.1310 HD
BRANCH 29 32
ATOM     32  C9  CHE L   1       2.180  -0.379   0.190  1.00  0.00    +0.0349  C
ATOM     33 C10  CHE L   1       3.148  -1.282  -0.272  1.00  0.00    -0.0474  C
ATOM     34 C11  CHE L   1       4.396  -0.826  -0.704  1.00  0.00    -0.0290  C
ATOM     35 C12  CHE L   1       4.692   0.541  -0.662  1.00  0.00    +0.1014  C
ATOM     36 C22  CHE L   1       3.718   1.445  -0.215  1.00  0.00    +0.0721  C
ATOM     37 CL23 CHE L   1       4.026   3.145  -0.177  1.00  0.00    -0.0808 Cl
ATOM     38 C24  CHE L   1       2.473   0.990   0.225  1.00  0.00    -0.0290  C
ATOM     39 H43  CHE L   1       2.929  -2.349  -0.296  1.00  0.00    +0.0626  H
ATOM     40 H44  CHE L   1       5.119  -1.549  -1.072  1.00  0.00    +0.0644  H
ATOM     41 H49  CHE L   1       1.757   1.705   0.620  1.00  0.00    +0.0640  H
BRANCH 35 42
ATOM     42 O13  CHE L   1       5.902   1.047  -1.091  1.00  0.00    -0.3066 OA
BRANCH 42 43
ATOM     43 C14  CHE L   1       7.035   0.341  -0.751  1.00  0.00    +0.1004  C
ATOM     44 C15  CHE L   1       7.766  -0.214  -1.807  1.00  0.00    -0.0299  C
ATOM     45 C16  CHE L   1       8.940  -0.921  -1.548  1.00  0.00    -0.0592  C
ATOM     46 C17  CHE L   1       9.397  -1.058  -0.238  1.00  0.00    -0.0604  C
ATOM     47 C18  CHE L   1       8.685  -0.478   0.815  1.00  0.00    -0.0418  C
ATOM     48 C19  CHE L   1       7.503   0.235   0.566  1.00  0.00    +0.0822  C
ATOM     49 H45  CHE L   1       7.417  -0.099  -2.831  1.00  0.00    +0.0644  H
ATOM     50 H46  CHE L   1       9.503  -1.359  -2.369  1.00  0.00    +0.0618  H
ATOM     51 H47  CHE L   1      10.315  -1.606  -0.037  1.00  0.00    +0.0618  H
ATOM     52 H48  CHE L   1       9.063  -0.578   1.831  1.00  0.00    +0.0631  H
BRANCH 48 53
ATOM     53 C20  CHE L   1       6.819   0.847   1.667  1.00  0.00    +0.1018  C
ATOM     54 N21  CHE L   1       6.276   1.324   2.576  1.00  0.00    -0.1908 NA
ENDBRANCH 48 53
ENDBRANCH 42 43
ENDBRANCH 35 42
ENDBRANCH 29 32
ENDBRANCH 5 28
BRANCH 10 55
ATOM     55 C30  CHE L   1      -5.693   0.248  -0.356  1.00  0.00    +0.0231  C
ATOM     56 H58  CHE L   1      -6.204  -0.718  -0.437  1.00  0.00    +0.0449  H
ATOM     57 H59  CHE L   1      -6.146   0.670   0.549  1.00  0.00    +0.0449  H
BRANCH 55 58
ATOM     58 C31  CHE L   1      -6.105   1.064  -1.590  1.00  0.00    +0.0570  C
ATOM     59 O32  CHE L   1      -7.526   1.161  -1.670  1.00  0.00    -0.3937 OA
ATOM     60 H60  CHE L   1      -5.704   2.080  -1.570  1.00  0.00    +0.0570  H
ATOM     61 H61  CHE L   1      -5.753   0.579  -2.507  1.00  0.00    +0.0570  H
ATOM     62 H62  CHE L   1      -7.827   1.652  -0.887  1.00  0.00    +0.2095 HD
ENDBRANCH 55 58
ENDBRANCH 10 55
TORSDOF 7
