MODEL 1
REMARK VINA RESULT:    -8.043      0.000      0.000
REMARK INTER + INTRA:         -12.962
REMARK INTER:                 -11.804
REMARK INTRA:                  -1.157
REMARK UNBOUND:                -1.157
ROOT
ATOM      1  N6  665 L   1       6.499  -5.619 -15.000  1.00  0.00    -0.2626 NA
ATOM      2 C16  665 L   1       2.073  -5.678 -12.548  1.00  0.00    +0.0423  A
ATOM      3 C18  665 L   1       3.255  -6.409 -12.421  1.00  0.00    -0.0305  A
ATOM      4 C19  665 L   1       4.345  -6.159 -13.270  1.00  0.00    -0.0131  A
ATOM      5 C20  665 L   1       1.963  -4.690 -13.524  1.00  0.00    -0.0377  A
ATOM      6 C21  665 L   1       4.230  -5.159 -14.258  1.00  0.00    +0.0004  A
ATOM      7 C22  665 L   1       3.034  -4.429 -14.377  1.00  0.00    -0.0506  A
ATOM      8 C26  665 L   1       5.544  -6.875 -13.168  1.00  0.00    -0.0358  A
ATOM      9 C30  665 L   1       5.333  -4.939 -15.084  1.00  0.00    +0.0353  A
ATOM     10 C33  665 L   1       6.573  -6.570 -14.045  1.00  0.00    +0.0281  A
ATOM     11 H48  665 L   1       3.329  -7.139 -11.695  1.00  0.00    +0.0644  H
ATOM     12 H49  665 L   1       1.087  -4.152 -13.617  1.00  0.00    +0.0638  H
ATOM     13 H50  665 L   1       2.950  -3.697 -15.099  1.00  0.00    +0.0625  H
ATOM     14 H51  665 L   1       5.658  -7.614 -12.456  1.00  0.00    +0.0639  H
ATOM     15 H54  665 L   1       5.254  -4.207 -15.808  1.00  0.00    +0.0836  H
ATOM     16 H59  665 L   1       7.452  -7.102 -13.961  1.00  0.00    +0.0830  H
ENDROOT
BRANCH 2 18
ATOM     17  O2  665 L   1      -0.048  -7.795 -12.687  1.00  0.00    -0.2720 OA
ATOM     18  N4  665 L   1       0.998  -5.937 -11.695  1.00  0.00    -0.3255  N
ATOM     19 C10  665 L   1       0.023  -6.942 -11.806  1.00  0.00    +0.2381  C
ATOM     20 H35  665 L   1       0.914  -5.340 -10.917  1.00  0.00    +0.1686 HD
BRANCH 19 21
ATOM     21  C7  665 L   1      -0.993  -6.888 -10.656  1.00  0.00    +0.1122  C
ATOM     22 H39  665 L   1      -0.817  -6.016 -10.061  1.00  0.00    +0.0502  H
BRANCH 21 23
ATOM     23  C8  665 L   1      -2.405  -6.767 -11.206  1.00  0.00    -0.0300  A
ATOM     24 C11  665 L   1      -3.184  -7.911 -11.388  1.00  0.00    -0.0573  A
ATOM     25 C12  665 L   1      -2.923  -5.513 -11.530  1.00  0.00    -0.0573  A
ATOM     26 C13  665 L   1      -4.996  -6.546 -12.217  1.00  0.00    -0.0103  A
ATOM     27 C14  665 L   1      -4.479  -7.800 -11.894  1.00  0.00    -0.0551  A
ATOM     28 C15  665 L   1      -4.218  -5.403 -12.036  1.00  0.00    -0.0551  A
ATOM     29 H42  665 L   1      -2.801  -8.839 -11.148  1.00  0.00    +0.0621  H
ATOM     30 H43  665 L   1      -2.348  -4.667 -11.396  1.00  0.00    +0.0621  H
ATOM     31 H44  665 L   1      -5.055  -8.647 -12.029  1.00  0.00    +0.0621  H
ATOM     32 H45  665 L   1      -4.601  -4.474 -12.276  1.00  0.00    +0.0621  H
BRANCH 26 33
ATOM     33 C17  665 L   1      -6.381  -6.427 -12.758  1.00  0.00    +0.1179  C
ATOM     34 H46  665 L   1      -6.365  -6.578 -13.817  1.00  0.00    +0.0749  H
ATOM     35 H47  665 L   1      -7.007  -7.166 -12.303  1.00  0.00    +0.0749  H
BRANCH 33 36
ATOM     36  O1  665 L   1      -6.891  -5.130 -12.470  1.00  0.00    -0.4564 OA
BRANCH 36 38
ATOM     37  O3  665 L   1      -9.039  -5.331 -13.272  1.00  0.00    -0.2449 OA
ATOM     38 C25  665 L   1      -7.973  -4.739 -13.197  1.00  0.00    +0.3398  C
BRANCH 38 39
ATOM     39 C23  665 L   1      -7.695  -3.468 -13.912  1.00  0.00    +0.0619  A
ATOM     40 C24  665 L   1      -7.210  -3.468 -15.220  1.00  0.00    -0.0362  A
ATOM     41 C27  665 L   1      -7.186  -1.051 -15.209  1.00  0.00    -0.0502  A
ATOM     42 C28  665 L   1      -6.956  -2.259 -15.868  1.00  0.00    -0.0551  A
ATOM     43 C29  665 L   1      -7.924  -2.260 -13.252  1.00  0.00    -0.0473  A
ATOM     44 C31  665 L   1      -7.670  -1.052 -13.900  1.00  0.00    -0.0580  A
ATOM     45 C32  665 L   1      -6.957  -4.746 -15.950  1.00  0.00    -0.0389  C
ATOM     46 C34  665 L   1      -6.914   0.242 -15.901  1.00  0.00    -0.0397  C
ATOM     47 H52  665 L   1      -6.597  -2.258 -16.837  1.00  0.00    +0.0623  H
ATOM     48 H53  665 L   1      -8.283  -2.261 -12.285  1.00  0.00    +0.0626  H
ATOM     49 H55  665 L   1      -7.840  -0.159 -13.412  1.00  0.00    +0.0620  H
ATOM     50 H56  665 L   1      -7.201  -5.573 -15.316  1.00  0.00    +0.0278  H
ATOM     51 H57  665 L   1      -5.924  -4.801 -16.225  1.00  0.00    +0.0278  H
ATOM     52 H58  665 L   1      -7.562  -4.780 -16.831  1.00  0.00    +0.0278  H
ATOM     53 H60  665 L   1      -6.551   0.048 -16.889  1.00  0.00    +0.0278  H
ATOM     54 H61  665 L   1      -6.179   0.792 -15.352  1.00  0.00    +0.0278  H
ATOM     55 H62  665 L   1      -7.817   0.812 -15.959  1.00  0.00    +0.0278  H
ENDBRANCH 38 39
ENDBRANCH 36 38
ENDBRANCH 33 36
ENDBRANCH 26 33
ENDBRANCH 21 23
BRANCH 21 57
ATOM     56  N5  665 L   1       0.501  -8.116  -9.091  1.00  0.00    -0.3600  N
ATOM     57  C9  665 L   1      -0.814  -8.105  -9.726  1.00  0.00    +0.0921  C
ATOM     58 H36  665 L   1       0.579  -8.933  -8.485  1.00  0.00    +0.3450 HD
ATOM     59 H37  665 L   1       0.617  -7.269  -8.535  1.00  0.00    +0.3450 HD
ATOM     60 H38  665 L   1       1.225  -8.153  -9.808  1.00  0.00    +0.3450 HD
ATOM     61 H40  665 L   1      -1.566  -8.072  -8.965  1.00  0.00    +0.0926  H
ATOM     62 H41  665 L   1      -0.904  -8.992 -10.318  1.00  0.00    +0.0926  H
ENDBRANCH 21 57
ENDBRANCH 19 21
ENDBRANCH 2 18
TORSDOF 8
ENDMDL
MODEL 2
REMARK VINA RESULT:    -7.642      3.332      5.478
REMARK INTER + INTRA:         -12.373
REMARK INTER:                 -11.604
REMARK INTRA:                  -0.769
REMARK UNBOUND:                -1.157
ROOT
ATOM      1  N6  665 L   1      -0.455   1.794 -15.145  1.00  0.00    -0.2626 NA
ATOM      2 C16  665 L   1       0.966  -2.898 -13.890  1.00  0.00    +0.0423  A
ATOM      3 C18  665 L   1       0.807  -1.713 -13.169  1.00  0.00    -0.0305  A
ATOM      4 C19  665 L   1       0.387  -0.537 -13.810  1.00  0.00    -0.0131  A
ATOM      5 C20  665 L   1       0.710  -2.923 -15.259  1.00  0.00    -0.0377  A
ATOM      6 C21  665 L   1       0.129  -0.566 -15.197  1.00  0.00    +0.0004  A
ATOM      7 C22  665 L   1       0.293  -1.764 -15.913  1.00  0.00    -0.0506  A
ATOM      8 C26  665 L   1       0.218   0.667 -13.115  1.00  0.00    -0.0358  A
ATOM      9 C30  665 L   1      -0.285   0.623 -15.800  1.00  0.00    +0.0353  A
ATOM     10 C33  665 L   1      -0.198   1.785 -13.820  1.00  0.00    +0.0281  A
ATOM     11 H48  665 L   1       0.998  -1.703 -12.155  1.00  0.00    +0.0644  H
ATOM     12 H49  665 L   1       0.829  -3.800 -15.790  1.00  0.00    +0.0638  H
ATOM     13 H50  665 L   1       0.105  -1.785 -16.927  1.00  0.00    +0.0625  H
ATOM     14 H51  665 L   1       0.400   0.719 -12.100  1.00  0.00    +0.0639  H
ATOM     15 H54  665 L   1      -0.476   0.607 -16.814  1.00  0.00    +0.0836  H
ATOM     16 H59  665 L   1      -0.320   2.666 -13.299  1.00  0.00    +0.0830  H
ENDROOT
BRANCH 2 18
ATOM     17  O2  665 L   1       3.578  -4.367 -14.023  1.00  0.00    -0.2720 OA
ATOM     18  N4  665 L   1       1.382  -4.060 -13.238  1.00  0.00    -0.3255  N
ATOM     19 C10  665 L   1       2.620  -4.717 -13.338  1.00  0.00    +0.2381  C
ATOM     20 H35  665 L   1       0.725  -4.471 -12.631  1.00  0.00    +0.1686 HD
BRANCH 19 21
ATOM     21  C7  665 L   1       2.680  -5.971 -12.453  1.00  0.00    +0.1122  C
ATOM     22 H39  665 L   1       3.092  -5.717 -11.498  1.00  0.00    +0.0502  H
BRANCH 21 23
ATOM     23  C8  665 L   1       1.278  -6.504 -12.201  1.00  0.00    -0.0300  A
ATOM     24 C11  665 L   1       0.696  -6.369 -10.940  1.00  0.00    -0.0573  A
ATOM     25 C12  665 L   1       0.573  -7.128 -13.231  1.00  0.00    -0.0573  A
ATOM     26 C13  665 L   1      -1.293  -7.483 -11.739  1.00  0.00    -0.0103  A
ATOM     27 C14  665 L   1      -0.589  -6.860 -10.709  1.00  0.00    -0.0551  A
ATOM     28 C15  665 L   1      -0.712  -7.618 -12.999  1.00  0.00    -0.0551  A
ATOM     29 H42  665 L   1       1.217  -5.907 -10.178  1.00  0.00    +0.0621  H
ATOM     30 H43  665 L   1       1.004  -7.227 -14.164  1.00  0.00    +0.0621  H
ATOM     31 H44  665 L   1      -1.020  -6.760  -9.776  1.00  0.00    +0.0621  H
ATOM     32 H45  665 L   1      -1.233  -8.080 -13.762  1.00  0.00    +0.0621  H
BRANCH 26 33
ATOM     33 C17  665 L   1      -2.668  -8.007 -11.492  1.00  0.00    +0.1179  C
ATOM     34 H46  665 L   1      -2.855  -8.837 -12.140  1.00  0.00    +0.0749  H
ATOM     35 H47  665 L   1      -2.752  -8.323 -10.474  1.00  0.00    +0.0749  H
BRANCH 33 36
ATOM     36  O1  665 L   1      -3.618  -6.979 -11.750  1.00  0.00    -0.4564 OA
BRANCH 36 38
ATOM     37  O3  665 L   1      -3.852  -7.544 -13.969  1.00  0.00    -0.2449 OA
ATOM     38 C25  665 L   1      -4.287  -7.068 -12.932  1.00  0.00    +0.3398  C
BRANCH 38 39
ATOM     39 C23  665 L   1      -5.653  -6.498 -12.806  1.00  0.00    +0.0619  A
ATOM     40 C24  665 L   1      -6.783  -7.312 -12.889  1.00  0.00    -0.0362  A
ATOM     41 C27  665 L   1      -8.197  -5.378 -12.567  1.00  0.00    -0.0502  A
ATOM     42 C28  665 L   1      -8.055  -6.751 -12.768  1.00  0.00    -0.0551  A
ATOM     43 C29  665 L   1      -5.794  -5.125 -12.605  1.00  0.00    -0.0473  A
ATOM     44 C31  665 L   1      -7.065  -4.564 -12.485  1.00  0.00    -0.0580  A
ATOM     45 C32  665 L   1      -6.661  -8.785 -13.103  1.00  0.00    -0.0389  C
ATOM     46 C34  665 L   1      -9.555  -4.777 -12.439  1.00  0.00    -0.0397  C
ATOM     47 H52  665 L   1      -8.892  -7.352 -12.830  1.00  0.00    +0.0623  H
ATOM     48 H53  665 L   1      -4.957  -4.524 -12.543  1.00  0.00    +0.0626  H
ATOM     49 H55  665 L   1      -7.169  -3.549 -12.336  1.00  0.00    +0.0620  H
ATOM     50 H56  665 L   1      -5.627  -9.050 -13.173  1.00  0.00    +0.0278  H
ATOM     51 H57  665 L   1      -7.161  -9.056 -14.009  1.00  0.00    +0.0278  H
ATOM     52 H58  665 L   1      -7.108  -9.303 -12.281  1.00  0.00    +0.0278  H
ATOM     53 H60  665 L   1     -10.294  -5.545 -12.526  1.00  0.00    +0.0278  H
ATOM     54 H61  665 L   1      -9.700  -4.053 -13.214  1.00  0.00    +0.0278  H
ATOM     55 H62  665 L   1      -9.647  -4.301 -11.485  1.00  0.00    +0.0278  H
ENDBRANCH 38 39
ENDBRANCH 36 38
ENDBRANCH 33 36
ENDBRANCH 26 33
ENDBRANCH 21 23
BRANCH 21 57
ATOM     56  N5  665 L   1       4.952  -6.983 -12.485  1.00  0.00    -0.3600  N
ATOM     57  C9  665 L   1       3.618  -7.023 -13.078  1.00  0.00    +0.0921  C
ATOM     58 H36  665 L   1       5.540  -7.692 -12.923  1.00  0.00    +0.3450 HD
ATOM     59 H37  665 L   1       4.885  -7.168 -11.485  1.00  0.00    +0.3450 HD
ATOM     60 H38  665 L   1       5.362  -6.061 -12.633  1.00  0.00    +0.3450 HD
ATOM     61 H40  665 L   1       3.199  -7.995 -12.922  1.00  0.00    +0.0926  H
ATOM     62 H41  665 L   1       3.712  -6.807 -14.121  1.00  0.00    +0.0926  H
ENDBRANCH 21 57
ENDBRANCH 19 21
ENDBRANCH 2 18
TORSDOF 8
ENDMDL
MODEL 3
REMARK VINA RESULT:    -7.428      1.498      2.028
REMARK INTER + INTRA:         -12.059
REMARK INTER:                 -10.637
REMARK INTRA:                  -1.422
REMARK UNBOUND:                -1.157
ROOT
ATOM      1  N6  665 L   1       6.158  -5.104 -15.460  1.00  0.00    -0.2626 NA
ATOM      2 C16  665 L   1       1.652  -5.599 -13.211  1.00  0.00    +0.0423  A
ATOM      3 C18  665 L   1       2.945  -6.007 -12.878  1.00  0.00    -0.0305  A
ATOM      4 C19  665 L   1       4.027  -5.715 -13.725  1.00  0.00    -0.0131  A
ATOM      5 C20  665 L   1       1.422  -4.898 -14.392  1.00  0.00    -0.0377  A
ATOM      6 C21  665 L   1       3.789  -5.004 -14.921  1.00  0.00    +0.0004  A
ATOM      7 C22  665 L   1       2.483  -4.599 -15.245  1.00  0.00    -0.0506  A
ATOM      8 C26  665 L   1       5.335  -6.109 -13.420  1.00  0.00    -0.0358  A
ATOM      9 C30  665 L   1       4.888  -4.733 -15.738  1.00  0.00    +0.0353  A
ATOM     10 C33  665 L   1       6.348  -5.783 -14.309  1.00  0.00    +0.0281  A
ATOM     11 H48  665 L   1       3.109  -6.526 -12.001  1.00  0.00    +0.0644  H
ATOM     12 H49  665 L   1       0.464  -4.598 -14.635  1.00  0.00    +0.0638  H
ATOM     13 H50  665 L   1       2.309  -4.080 -16.119  1.00  0.00    +0.0625  H
ATOM     14 H51  665 L   1       5.540  -6.631 -12.554  1.00  0.00    +0.0639  H
ATOM     15 H54  665 L   1       4.720  -4.212 -16.613  1.00  0.00    +0.0836  H
ATOM     16 H59  665 L   1       7.308  -6.078 -14.075  1.00  0.00    +0.0830  H
ENDROOT
BRANCH 2 18
ATOM     17  O2  665 L   1       0.106  -8.144 -12.851  1.00  0.00    -0.2720 OA
ATOM     18  N4  665 L   1       0.588  -5.896 -12.357  1.00  0.00    -0.3255  N
ATOM     19 C10  665 L   1      -0.112  -7.107 -12.229  1.00  0.00    +0.2381  C
ATOM     20 H35  665 L   1       0.291  -5.164 -11.771  1.00  0.00    +0.1686 HD
BRANCH 19 21
ATOM     21  C7  665 L   1      -1.222  -7.022 -11.171  1.00  0.00    +0.1122  C
ATOM     22 H39  665 L   1      -1.382  -5.999 -10.899  1.00  0.00    +0.0502  H
BRANCH 21 23
ATOM     23  C8  665 L   1      -2.533  -7.537 -11.743  1.00  0.00    -0.0300  A
ATOM     24 C11  665 L   1      -2.879  -7.253 -13.064  1.00  0.00    -0.0573  A
ATOM     25 C12  665 L   1      -3.392  -8.295 -10.945  1.00  0.00    -0.0573  A
ATOM     26 C13  665 L   1      -4.940  -8.482 -12.790  1.00  0.00    -0.0103  A
ATOM     27 C14  665 L   1      -4.082  -7.725 -13.587  1.00  0.00    -0.0551  A
ATOM     28 C15  665 L   1      -4.595  -8.767 -11.469  1.00  0.00    -0.0551  A
ATOM     29 H42  665 L   1      -2.244  -6.693 -13.654  1.00  0.00    +0.0621  H
ATOM     30 H43  665 L   1      -3.136  -8.505  -9.968  1.00  0.00    +0.0621  H
ATOM     31 H44  665 L   1      -4.338  -7.514 -14.566  1.00  0.00    +0.0621  H
ATOM     32 H45  665 L   1      -5.231  -9.327 -10.879  1.00  0.00    +0.0621  H
BRANCH 26 33
ATOM     33 C17  665 L   1      -6.227  -8.987 -13.350  1.00  0.00    +0.1179  C
ATOM     34 H46  665 L   1      -6.026  -9.703 -14.120  1.00  0.00    +0.0749  H
ATOM     35 H47  665 L   1      -6.797  -9.451 -12.572  1.00  0.00    +0.0749  H
BRANCH 33 36
ATOM     36  O1  665 L   1      -6.965  -7.899 -13.894  1.00  0.00    -0.4564 OA
BRANCH 36 38
ATOM     37  O3  665 L   1      -8.577  -7.835 -12.253  1.00  0.00    -0.2449 OA
ATOM     38 C25  665 L   1      -7.830  -7.281 -13.045  1.00  0.00    +0.3398  C
BRANCH 38 39
ATOM     39 C23  665 L   1      -7.756  -5.806 -13.201  1.00  0.00    +0.0619  A
ATOM     40 C24  665 L   1      -8.740  -5.105 -13.899  1.00  0.00    -0.0362  A
ATOM     41 C27  665 L   1      -7.569  -3.035 -13.467  1.00  0.00    -0.0502  A
ATOM     42 C28  665 L   1      -8.646  -3.720 -14.032  1.00  0.00    -0.0551  A
ATOM     43 C29  665 L   1      -6.679  -5.122 -12.636  1.00  0.00    -0.0473  A
ATOM     44 C31  665 L   1      -6.585  -3.737 -12.769  1.00  0.00    -0.0580  A
ATOM     45 C32  665 L   1      -9.904  -5.812 -14.512  1.00  0.00    -0.0389  C
ATOM     46 C34  665 L   1      -7.467  -1.554 -13.609  1.00  0.00    -0.0397  C
ATOM     47 H52  665 L   1      -9.373  -3.200 -14.549  1.00  0.00    +0.0623  H
ATOM     48 H53  665 L   1      -5.953  -5.641 -12.119  1.00  0.00    +0.0626  H
ATOM     49 H55  665 L   1      -5.789  -3.231 -12.351  1.00  0.00    +0.0620  H
ATOM     50 H56  665 L   1      -9.825  -6.862 -14.320  1.00  0.00    +0.0278  H
ATOM     51 H57  665 L   1      -9.908  -5.642 -15.569  1.00  0.00    +0.0278  H
ATOM     52 H58  665 L   1     -10.812  -5.439 -14.089  1.00  0.00    +0.0278  H
ATOM     53 H60  665 L   1      -8.303  -1.191 -14.169  1.00  0.00    +0.0278  H
ATOM     54 H61  665 L   1      -6.560  -1.306 -14.119  1.00  0.00    +0.0278  H
ATOM     55 H62  665 L   1      -7.466  -1.102 -12.639  1.00  0.00    +0.0278  H
ENDBRANCH 38 39
ENDBRANCH 36 38
ENDBRANCH 33 36
ENDBRANCH 26 33
ENDBRANCH 21 23
BRANCH 21 57
ATOM     56  N5  665 L   1       0.648  -7.700  -9.677  1.00  0.00    -0.3600  N
ATOM     57  C9  665 L   1      -0.796  -7.762  -9.887  1.00  0.00    +0.0921  C
ATOM     58 H36  665 L   1       0.889  -8.199  -8.820  1.00  0.00    +0.3450 HD
ATOM     59 H37  665 L   1       0.938  -6.726  -9.596  1.00  0.00    +0.3450 HD
ATOM     60 H38  665 L   1       1.126  -8.132 -10.468  1.00  0.00    +0.3450 HD
ATOM     61 H40  665 L   1      -1.287  -7.312  -9.049  1.00  0.00    +0.0926  H
ATOM     62 H41  665 L   1      -1.072  -8.791  -9.988  1.00  0.00    +0.0926  H
ENDBRANCH 21 57
ENDBRANCH 19 21
ENDBRANCH 2 18
TORSDOF 8
ENDMDL
MODEL 4
REMARK VINA RESULT:    -7.415      2.432      3.439
REMARK INTER + INTRA:         -12.040
REMARK INTER:                 -10.645
REMARK INTRA:                  -1.395
REMARK UNBOUND:                -1.157
ROOT
ATOM      1  N6  665 L   1       6.883  -6.612 -14.248  1.00  0.00    -0.2626 NA
ATOM      2 C16  665 L   1       2.013  -5.348 -13.709  1.00  0.00    +0.0423  A
ATOM      3 C18  665 L   1       2.866  -6.212 -13.021  1.00  0.00    -0.0305  A
ATOM      4 C19  665 L   1       4.206  -6.357 -13.415  1.00  0.00    -0.0131  A
ATOM      5 C20  665 L   1       2.485  -4.620 -14.799  1.00  0.00    -0.0377  A
ATOM      6 C21  665 L   1       4.680  -5.619 -14.519  1.00  0.00    +0.0004  A
ATOM      7 C22  665 L   1       3.812  -4.752 -15.205  1.00  0.00    -0.0506  A
ATOM      8 C26  665 L   1       5.087  -7.215 -12.745  1.00  0.00    -0.0358  A
ATOM      9 C30  665 L   1       6.018  -5.790 -14.882  1.00  0.00    +0.0353  A
ATOM     10 C33  665 L   1       6.395  -7.303 -13.196  1.00  0.00    +0.0281  A
ATOM     11 H48  665 L   1       2.510  -6.748 -12.214  1.00  0.00    +0.0644  H
ATOM     12 H49  665 L   1       1.851  -3.983 -15.307  1.00  0.00    +0.0638  H
ATOM     13 H50  665 L   1       4.159  -4.212 -16.013  1.00  0.00    +0.0625  H
ATOM     14 H51  665 L   1       4.769  -7.769 -11.934  1.00  0.00    +0.0639  H
ATOM     15 H54  665 L   1       6.370  -5.251 -15.689  1.00  0.00    +0.0836  H
ATOM     16 H59  665 L   1       7.036  -7.937 -12.696  1.00  0.00    +0.0830  H
ENDROOT
BRANCH 2 18
ATOM     17  O2  665 L   1       0.491  -6.765 -11.548  1.00  0.00    -0.2720 OA
ATOM     18  N4  665 L   1       0.683  -5.213 -13.304  1.00  0.00    -0.3255  N
ATOM     19 C10  665 L   1       0.011  -5.908 -12.285  1.00  0.00    +0.2381  C
ATOM     20 H35  665 L   1       0.150  -4.547 -13.794  1.00  0.00    +0.1686 HD
BRANCH 19 21
ATOM     21  C7  665 L   1      -1.453  -5.464 -12.155  1.00  0.00    +0.1122  C
ATOM     22 H39  665 L   1      -1.744  -4.921 -13.030  1.00  0.00    +0.0502  H
BRANCH 21 23
ATOM     23  C8  665 L   1      -2.365  -6.678 -12.066  1.00  0.00    -0.0300  A
ATOM     24 C11  665 L   1      -3.186  -6.855 -10.952  1.00  0.00    -0.0573  A
ATOM     25 C12  665 L   1      -2.381  -7.615 -13.100  1.00  0.00    -0.0573  A
ATOM     26 C13  665 L   1      -4.037  -8.905 -11.904  1.00  0.00    -0.0103  A
ATOM     27 C14  665 L   1      -4.021  -7.969 -10.871  1.00  0.00    -0.0551  A
ATOM     28 C15  665 L   1      -3.216  -8.729 -13.018  1.00  0.00    -0.0551  A
ATOM     29 H42  665 L   1      -3.175  -6.161 -10.187  1.00  0.00    +0.0621  H
ATOM     30 H43  665 L   1      -1.774  -7.485 -13.924  1.00  0.00    +0.0621  H
ATOM     31 H44  665 L   1      -4.629  -8.100 -10.046  1.00  0.00    +0.0621  H
ATOM     32 H45  665 L   1      -3.228  -9.423 -13.783  1.00  0.00    +0.0621  H
BRANCH 26 33
ATOM     33 C17  665 L   1      -4.931 -10.097 -11.817  1.00  0.00    +0.1179  C
ATOM     34 H46  665 L   1      -4.865 -10.659 -12.725  1.00  0.00    +0.0749  H
ATOM     35 H47  665 L   1      -4.628 -10.711 -10.995  1.00  0.00    +0.0749  H
BRANCH 33 36
ATOM     36  O1  665 L   1      -6.273  -9.667 -11.620  1.00  0.00    -0.4564 OA
BRANCH 36 38
ATOM     37  O3  665 L   1      -7.245 -10.288 -13.611  1.00  0.00    -0.2449 OA
ATOM     38 C25  665 L   1      -7.004  -9.458 -12.748  1.00  0.00    +0.3398  C
BRANCH 38 39
ATOM     39 C23  665 L   1      -7.490  -8.056 -12.808  1.00  0.00    +0.0619  A
ATOM     40 C24  665 L   1      -8.753  -7.710 -12.325  1.00  0.00    -0.0362  A
ATOM     41 C27  665 L   1      -8.357  -5.408 -12.945  1.00  0.00    -0.0502  A
ATOM     42 C28  665 L   1      -9.185  -6.385 -12.393  1.00  0.00    -0.0551  A
ATOM     43 C29  665 L   1      -6.662  -7.079 -13.360  1.00  0.00    -0.0473  A
ATOM     44 C31  665 L   1      -7.095  -5.755 -13.429  1.00  0.00    -0.0580  A
ATOM     45 C32  665 L   1      -9.659  -8.736 -11.727  1.00  0.00    -0.0389  C
ATOM     46 C34  665 L   1      -8.818  -3.992 -13.020  1.00  0.00    -0.0397  C
ATOM     47 H52  665 L   1     -10.119  -6.128 -12.036  1.00  0.00    +0.0623  H
ATOM     48 H53  665 L   1      -5.729  -7.336 -13.716  1.00  0.00    +0.0626  H
ATOM     49 H55  665 L   1      -6.481  -5.033 -13.837  1.00  0.00    +0.0620  H
ATOM     50 H56  665 L   1      -9.180  -9.692 -11.750  1.00  0.00    +0.0278  H
ATOM     51 H57  665 L   1     -10.568  -8.779 -12.290  1.00  0.00    +0.0278  H
ATOM     52 H58  665 L   1      -9.880  -8.471 -10.714  1.00  0.00    +0.0278  H
ATOM     53 H60  665 L   1      -9.801  -3.915 -12.605  1.00  0.00    +0.0278  H
ATOM     54 H61  665 L   1      -8.836  -3.676 -14.042  1.00  0.00    +0.0278  H
ATOM     55 H62  665 L   1      -8.148  -3.369 -12.466  1.00  0.00    +0.0278  H
ENDBRANCH 38 39
ENDBRANCH 36 38
ENDBRANCH 33 36
ENDBRANCH 26 33
ENDBRANCH 21 23
BRANCH 21 57
ATOM     56  N5  665 L   1      -0.378  -4.362 -10.201  1.00  0.00    -0.3600  N
ATOM     57  C9  665 L   1      -1.617  -4.503 -10.960  1.00  0.00    +0.0921  C
ATOM     58 H36  665 L   1      -0.527  -3.720  -9.422  1.00  0.00    +0.3450 HD
ATOM     59 H37  665 L   1       0.353  -3.995 -10.809  1.00  0.00    +0.3450 HD
ATOM     60 H38  665 L   1      -0.094  -5.274  -9.841  1.00  0.00    +0.3450 HD
ATOM     61 H40  665 L   1      -1.909  -3.541 -11.328  1.00  0.00    +0.0926  H
ATOM     62 H41  665 L   1      -2.362  -4.908 -10.307  1.00  0.00    +0.0926  H
ENDBRANCH 21 57
ENDBRANCH 19 21
ENDBRANCH 2 18
TORSDOF 8
ENDMDL
MODEL 5
REMARK VINA RESULT:    -7.212      2.798      4.256
REMARK INTER + INTRA:         -11.742
REMARK INTER:                 -10.655
REMARK INTRA:                  -1.087
REMARK UNBOUND:                -1.157
ROOT
ATOM      1  N6  665 L   1       5.861  -4.720 -16.019  1.00  0.00    -0.2626 NA
ATOM      2 C16  665 L   1       1.823  -6.025 -13.261  1.00  0.00    +0.0423  A
ATOM      3 C18  665 L   1       3.197  -6.012 -13.012  1.00  0.00    -0.0305  A
ATOM      4 C19  665 L   1       4.098  -5.584 -14.001  1.00  0.00    -0.0131  A
ATOM      5 C20  665 L   1       1.332  -5.614 -14.498  1.00  0.00    -0.0377  A
ATOM      6 C21  665 L   1       3.597  -5.169 -15.253  1.00  0.00    +0.0004  A
ATOM      7 C22  665 L   1       2.212  -5.188 -15.492  1.00  0.00    -0.0506  A
ATOM      8 C26  665 L   1       5.481  -5.559 -13.782  1.00  0.00    -0.0358  A
ATOM      9 C30  665 L   1       4.523  -4.753 -16.211  1.00  0.00    +0.0353  A
ATOM     10 C33  665 L   1       6.305  -5.125 -14.810  1.00  0.00    +0.0281  A
ATOM     11 H48  665 L   1       3.553  -6.317 -12.093  1.00  0.00    +0.0644  H
ATOM     12 H49  665 L   1       0.316  -5.626 -14.679  1.00  0.00    +0.0638  H
ATOM     13 H50  665 L   1       1.846  -4.884 -16.407  1.00  0.00    +0.0625  H
ATOM     14 H51  665 L   1       5.877  -5.857 -12.878  1.00  0.00    +0.0639  H
ATOM     15 H54  665 L   1       4.161  -4.447 -17.128  1.00  0.00    +0.0836  H
ATOM     16 H59  665 L   1       7.321  -5.110 -14.638  1.00  0.00    +0.0830  H
ENDROOT
BRANCH 2 18
ATOM     17  O2  665 L   1       0.935  -4.661 -10.742  1.00  0.00    -0.2720 OA
ATOM     18  N4  665 L   1       0.940  -6.451 -12.267  1.00  0.00    -0.3255  N
ATOM     19 C10  665 L   1       0.559  -5.775 -11.096  1.00  0.00    +0.2381  C
ATOM     20 H35  665 L   1       0.533  -7.336 -12.405  1.00  0.00    +0.1686 HD
BRANCH 19 21
ATOM     21  C7  665 L   1      -0.439  -6.590 -10.260  1.00  0.00    +0.1122  C
ATOM     22 H39  665 L   1      -0.498  -6.182  -9.272  1.00  0.00    +0.0502  H
BRANCH 21 23
ATOM     23  C8  665 L   1      -1.832  -6.492 -10.861  1.00  0.00    -0.0300  A
ATOM     24 C11  665 L   1      -2.338  -5.252 -11.253  1.00  0.00    -0.0573  A
ATOM     25 C12  665 L   1      -2.605  -7.643 -11.022  1.00  0.00    -0.0573  A
ATOM     26 C13  665 L   1      -4.388  -6.312 -11.964  1.00  0.00    -0.0103  A
ATOM     27 C14  665 L   1      -3.617  -5.163 -11.803  1.00  0.00    -0.0551  A
ATOM     28 C15  665 L   1      -3.883  -7.552 -11.573  1.00  0.00    -0.0551  A
ATOM     29 H42  665 L   1      -1.767  -4.400 -11.134  1.00  0.00    +0.0621  H
ATOM     30 H43  665 L   1      -2.231  -8.560 -10.733  1.00  0.00    +0.0621  H
ATOM     31 H44  665 L   1      -3.991  -4.245 -12.093  1.00  0.00    +0.0621  H
ATOM     32 H45  665 L   1      -4.455  -8.404 -11.692  1.00  0.00    +0.0621  H
BRANCH 26 33
ATOM     33 C17  665 L   1      -5.755  -6.217 -12.554  1.00  0.00    +0.1179  C
ATOM     34 H46  665 L   1      -6.475  -6.577 -11.848  1.00  0.00    +0.0749  H
ATOM     35 H47  665 L   1      -5.970  -5.197 -12.794  1.00  0.00    +0.0749  H
BRANCH 33 36
ATOM     36  O1  665 L   1      -5.815  -7.006 -13.737  1.00  0.00    -0.4564 OA
BRANCH 36 38
ATOM     37  O3  665 L   1      -7.576  -7.082 -15.218  1.00  0.00    -0.2449 OA
ATOM     38 C25  665 L   1      -7.060  -7.370 -14.149  1.00  0.00    +0.3398  C
BRANCH 38 39
ATOM     39 C23  665 L   1      -7.740  -8.185 -13.110  1.00  0.00    +0.0619  A
ATOM     40 C24  665 L   1      -8.897  -7.727 -12.479  1.00  0.00    -0.0362  A
ATOM     41 C27  665 L   1      -8.977  -9.753 -11.162  1.00  0.00    -0.0502  A
ATOM     42 C28  665 L   1      -9.516  -8.513 -11.505  1.00  0.00    -0.0551  A
ATOM     43 C29  665 L   1      -7.201  -9.425 -12.767  1.00  0.00    -0.0473  A
ATOM     44 C31  665 L   1      -7.819 -10.209 -11.793  1.00  0.00    -0.0580  A
ATOM     45 C32  665 L   1      -9.496  -6.404 -12.828  1.00  0.00    -0.0389  C
ATOM     46 C34  665 L   1      -9.637 -10.592 -10.121  1.00  0.00    -0.0397  C
ATOM     47 H52  665 L   1     -10.372  -8.175 -11.038  1.00  0.00    +0.0623  H
ATOM     48 H53  665 L   1      -6.345  -9.762 -13.234  1.00  0.00    +0.0626  H
ATOM     49 H55  665 L   1      -7.420 -11.126 -11.540  1.00  0.00    +0.0620  H
ATOM     50 H56  665 L   1      -8.905  -5.934 -13.585  1.00  0.00    +0.0278  H
ATOM     51 H57  665 L   1      -9.520  -5.783 -11.957  1.00  0.00    +0.0278  H
ATOM     52 H58  665 L   1     -10.493  -6.548 -13.190  1.00  0.00    +0.0278  H
ATOM     53 H60  665 L   1     -10.504 -10.086  -9.752  1.00  0.00    +0.0278  H
ATOM     54 H61  665 L   1      -8.954 -10.765  -9.316  1.00  0.00    +0.0278  H
ATOM     55 H62  665 L   1      -9.927 -11.529 -10.549  1.00  0.00    +0.0278  H
ENDBRANCH 38 39
ENDBRANCH 36 38
ENDBRANCH 33 36
ENDBRANCH 26 33
ENDBRANCH 21 23
BRANCH 21 57
ATOM     56  N5  665 L   1       0.562  -8.314  -8.771  1.00  0.00    -0.3600  N
ATOM     57  C9  665 L   1       0.049  -8.045 -10.112  1.00  0.00    +0.0921  C
ATOM     58 H36  665 L   1       0.872  -9.283  -8.714  1.00  0.00    +0.3450 HD
ATOM     59 H37  665 L   1      -0.177  -8.153  -8.087  1.00  0.00    +0.3450 HD
ATOM     60 H38  665 L   1       1.346  -7.692  -8.576  1.00  0.00    +0.3450 HD
ATOM     61 H40  665 L   1      -0.770  -8.706 -10.309  1.00  0.00    +0.0926  H
ATOM     62 H41  665 L   1       0.846  -8.201 -10.809  1.00  0.00    +0.0926  H
ENDBRANCH 21 57
ENDBRANCH 19 21
ENDBRANCH 2 18
TORSDOF 8
ENDMDL
MODEL 6
REMARK VINA RESULT:    -6.940      3.159      9.853
REMARK INTER + INTRA:         -11.343
REMARK INTER:                 -10.372
REMARK INTRA:                  -0.972
REMARK UNBOUND:                -1.157
ROOT
ATOM      1  N6  665 L   1      -8.752  -1.276 -15.125  1.00  0.00    -0.2626 NA
ATOM      2 C16  665 L   1      -6.535  -5.717 -14.139  1.00  0.00    +0.0423  A
ATOM      3 C18  665 L   1      -6.755  -4.562 -13.387  1.00  0.00    -0.0305  A
ATOM      4 C19  665 L   1      -7.418  -3.459 -13.949  1.00  0.00    -0.0131  A
ATOM      5 C20  665 L   1      -6.971  -5.786 -15.460  1.00  0.00    -0.0377  A
ATOM      6 C21  665 L   1      -7.859  -3.532 -15.287  1.00  0.00    +0.0004  A
ATOM      7 C22  665 L   1      -7.630  -4.700 -16.035  1.00  0.00    -0.0506  A
ATOM      8 C26  665 L   1      -7.655  -2.286 -13.221  1.00  0.00    -0.0358  A
ATOM      9 C30  665 L   1      -8.513  -2.416 -15.812  1.00  0.00    +0.0353  A
ATOM     10 C33  665 L   1      -8.316  -1.241 -13.848  1.00  0.00    +0.0281  A
ATOM     11 H48  665 L   1      -6.429  -4.518 -12.409  1.00  0.00    +0.0644  H
ATOM     12 H49  665 L   1      -6.806  -6.641 -16.014  1.00  0.00    +0.0638  H
ATOM     13 H50  665 L   1      -7.953  -4.754 -17.014  1.00  0.00    +0.0625  H
ATOM     14 H51  665 L   1      -7.344  -2.203 -12.241  1.00  0.00    +0.0639  H
ATOM     15 H54  665 L   1      -8.838  -2.465 -16.791  1.00  0.00    +0.0836  H
ATOM     16 H59  665 L   1      -8.486  -0.383 -13.304  1.00  0.00    +0.0830  H
ENDROOT
BRANCH 2 18
ATOM     17  O2  665 L   1      -7.611  -8.009 -12.532  1.00  0.00    -0.2720 OA
ATOM     18  N4  665 L   1      -5.875  -6.806 -13.565  1.00  0.00    -0.3255  N
ATOM     19 C10  665 L   1      -6.425  -7.856 -12.812  1.00  0.00    +0.2381  C
ATOM     20 H35  665 L   1      -4.902  -6.842 -13.707  1.00  0.00    +0.1686 HD
BRANCH 19 21
ATOM     21  C7  665 L   1      -5.356  -8.861 -12.359  1.00  0.00    +0.1122  C
ATOM     22 H39  665 L   1      -5.193  -9.585 -13.130  1.00  0.00    +0.0502  H
BRANCH 21 23
ATOM     23  C8  665 L   1      -4.030  -8.153 -12.132  1.00  0.00    -0.0300  A
ATOM     24 C11  665 L   1      -3.010  -8.259 -13.079  1.00  0.00    -0.0573  A
ATOM     25 C12  665 L   1      -3.833  -7.395 -10.977  1.00  0.00    -0.0573  A
ATOM     26 C13  665 L   1      -1.597  -6.853 -11.716  1.00  0.00    -0.0103  A
ATOM     27 C14  665 L   1      -1.794  -7.610 -12.870  1.00  0.00    -0.0551  A
ATOM     28 C15  665 L   1      -2.616  -6.746 -10.769  1.00  0.00    -0.0551  A
ATOM     29 H42  665 L   1      -3.156  -8.819 -13.934  1.00  0.00    +0.0621  H
ATOM     30 H43  665 L   1      -4.587  -7.316 -10.277  1.00  0.00    +0.0621  H
ATOM     31 H44  665 L   1      -1.040  -7.689 -13.571  1.00  0.00    +0.0621  H
ATOM     32 H45  665 L   1      -2.470  -6.185  -9.914  1.00  0.00    +0.0621  H
BRANCH 26 33
ATOM     33 C17  665 L   1      -0.296  -6.157 -11.492  1.00  0.00    +0.1179  C
ATOM     34 H46  665 L   1      -0.447  -5.317 -10.848  1.00  0.00    +0.0749  H
ATOM     35 H47  665 L   1       0.397  -6.835 -11.039  1.00  0.00    +0.0749  H
BRANCH 33 36
ATOM     36  O1  665 L   1       0.222  -5.713 -12.741  1.00  0.00    -0.4564 OA
BRANCH 36 38
ATOM     37  O3  665 L   1       0.962  -3.589 -12.252  1.00  0.00    -0.2449 OA
ATOM     38 C25  665 L   1       1.147  -4.717 -12.682  1.00  0.00    +0.3398  C
BRANCH 38 39
ATOM     39 C23  665 L   1       2.452  -5.179 -13.222  1.00  0.00    +0.0619  A
ATOM     40 C24  665 L   1       2.903  -4.758 -14.473  1.00  0.00    -0.0362  A
ATOM     41 C27  665 L   1       4.909  -6.078 -14.191  1.00  0.00    -0.0502  A
ATOM     42 C28  665 L   1       4.132  -5.207 -14.956  1.00  0.00    -0.0551  A
ATOM     43 C29  665 L   1       3.227  -6.049 -12.456  1.00  0.00    -0.0473  A
ATOM     44 C31  665 L   1       4.456  -6.499 -12.940  1.00  0.00    -0.0580  A
ATOM     45 C32  665 L   1       2.094  -3.825 -15.313  1.00  0.00    -0.0389  C
ATOM     46 C34  665 L   1       6.222  -6.560 -14.707  1.00  0.00    -0.0397  C
ATOM     47 H52  665 L   1       4.468  -4.896 -15.882  1.00  0.00    +0.0623  H
ATOM     48 H53  665 L   1       2.893  -6.359 -11.531  1.00  0.00    +0.0626  H
ATOM     49 H55  665 L   1       5.029  -7.143 -12.373  1.00  0.00    +0.0620  H
ATOM     50 H56  665 L   1       1.188  -3.579 -14.800  1.00  0.00    +0.0278  H
ATOM     51 H57  665 L   1       1.860  -4.297 -16.244  1.00  0.00    +0.0278  H
ATOM     52 H58  665 L   1       2.654  -2.933 -15.497  1.00  0.00    +0.0278  H
ATOM     53 H60  665 L   1       6.402  -6.136 -15.673  1.00  0.00    +0.0278  H
ATOM     54 H61  665 L   1       6.206  -7.627 -14.783  1.00  0.00    +0.0278  H
ATOM     55 H62  665 L   1       7.000  -6.262 -14.036  1.00  0.00    +0.0278  H
ENDBRANCH 38 39
ENDBRANCH 36 38
ENDBRANCH 33 36
ENDBRANCH 26 33
ENDBRANCH 21 23
BRANCH 21 57
ATOM     56  N5  665 L   1      -6.959 -10.523 -11.431  1.00  0.00    -0.3600  N
ATOM     57  C9  665 L   1      -5.842  -9.636 -11.117  1.00  0.00    +0.0921  C
ATOM     58 H36  665 L   1      -7.249 -11.016 -10.587  1.00  0.00    +0.3450 HD
ATOM     59 H37  665 L   1      -6.667 -11.199 -12.136  1.00  0.00    +0.3450 HD
ATOM     60 H38  665 L   1      -7.739  -9.973 -11.790  1.00  0.00    +0.3450 HD
ATOM     61 H40  665 L   1      -5.031 -10.222 -10.736  1.00  0.00    +0.0926  H
ATOM     62 H41  665 L   1      -6.177  -8.925 -10.391  1.00  0.00    +0.0926  H
ENDBRANCH 21 57
ENDBRANCH 19 21
ENDBRANCH 2 18
TORSDOF 8
ENDMDL
MODEL 7
REMARK VINA RESULT:    -6.884      3.458      8.933
REMARK INTER + INTRA:         -11.261
REMARK INTER:                 -10.137
REMARK INTRA:                  -1.124
REMARK UNBOUND:                -1.157
ROOT
ATOM      1  N6  665 L   1      -8.704  -1.426 -15.130  1.00  0.00    -0.2626 NA
ATOM      2 C16  665 L   1      -6.320  -5.769 -14.101  1.00  0.00    +0.0423  A
ATOM      3 C18  665 L   1      -6.578  -4.613 -13.363  1.00  0.00    -0.0305  A
ATOM      4 C19  665 L   1      -7.285  -3.543 -13.934  1.00  0.00    -0.0131  A
ATOM      5 C20  665 L   1      -6.762  -5.872 -15.418  1.00  0.00    -0.0377  A
ATOM      6 C21  665 L   1      -7.730  -3.650 -15.269  1.00  0.00    +0.0004  A
ATOM      7 C22  665 L   1      -7.464  -4.819 -16.002  1.00  0.00    -0.0506  A
ATOM      8 C26  665 L   1      -7.560  -2.370 -13.221  1.00  0.00    -0.0358  A
ATOM      9 C30  665 L   1      -8.429  -2.566 -15.804  1.00  0.00    +0.0353  A
ATOM     10 C33  665 L   1      -8.262  -1.358 -13.857  1.00  0.00    +0.0281  A
ATOM     11 H48  665 L   1      -6.248  -4.545 -12.387  1.00  0.00    +0.0644  H
ATOM     12 H49  665 L   1      -6.568  -6.728 -15.961  1.00  0.00    +0.0638  H
ATOM     13 H50  665 L   1      -7.790  -4.898 -16.978  1.00  0.00    +0.0625  H
ATOM     14 H51  665 L   1      -7.246  -2.262 -12.244  1.00  0.00    +0.0639  H
ATOM     15 H54  665 L   1      -8.757  -2.640 -16.780  1.00  0.00    +0.0836  H
ATOM     16 H59  665 L   1      -8.460  -0.499 -13.322  1.00  0.00    +0.0830  H
ENDROOT
BRANCH 2 18
ATOM     17  O2  665 L   1      -7.309  -8.110 -12.508  1.00  0.00    -0.2720 OA
ATOM     18  N4  665 L   1      -5.617  -6.826 -13.517  1.00  0.00    -0.3255  N
ATOM     19 C10  665 L   1      -6.127  -7.901 -12.771  1.00  0.00    +0.2381  C
ATOM     20 H35  665 L   1      -4.642  -6.815 -13.645  1.00  0.00    +0.1686 HD
BRANCH 19 21
ATOM     21  C7  665 L   1      -5.018  -8.854 -12.302  1.00  0.00    +0.1122  C
ATOM     22 H39  665 L   1      -4.838  -9.594 -13.055  1.00  0.00    +0.0502  H
BRANCH 21 23
ATOM     23  C8  665 L   1      -3.716  -8.093 -12.112  1.00  0.00    -0.0300  A
ATOM     24 C11  665 L   1      -2.711  -8.174 -13.077  1.00  0.00    -0.0573  A
ATOM     25 C12  665 L   1      -3.525  -7.311 -10.972  1.00  0.00    -0.0573  A
ATOM     26 C13  665 L   1      -1.327  -6.695 -11.762  1.00  0.00    -0.0103  A
ATOM     27 C14  665 L   1      -1.517  -7.477 -12.901  1.00  0.00    -0.0551  A
ATOM     28 C15  665 L   1      -2.330  -6.613 -10.797  1.00  0.00    -0.0551  A
ATOM     29 H42  665 L   1      -2.852  -8.753 -13.921  1.00  0.00    +0.0621  H
ATOM     30 H43  665 L   1      -4.268  -7.250 -10.258  1.00  0.00    +0.0621  H
ATOM     31 H44  665 L   1      -0.774  -7.538 -13.616  1.00  0.00    +0.0621  H
ATOM     32 H45  665 L   1      -2.189  -6.035  -9.953  1.00  0.00    +0.0621  H
BRANCH 26 33
ATOM     33 C17  665 L   1      -0.049  -5.948 -11.575  1.00  0.00    +0.1179  C
ATOM     34 H46  665 L   1      -0.263  -4.950 -11.257  1.00  0.00    +0.0749  H
ATOM     35 H47  665 L   1       0.546  -6.439 -10.833  1.00  0.00    +0.0749  H
BRANCH 33 36
ATOM     36  O1  665 L   1       0.663  -5.914 -12.807  1.00  0.00    -0.4564 OA
BRANCH 36 38
ATOM     37  O3  665 L   1       2.849  -5.275 -12.474  1.00  0.00    -0.2449 OA
ATOM     38 C25  665 L   1       1.713  -5.051 -12.864  1.00  0.00    +0.3398  C
BRANCH 38 39
ATOM     39 C23  665 L   1       1.302  -3.762 -13.476  1.00  0.00    +0.0619  A
ATOM     40 C24  665 L   1       1.297  -3.590 -14.861  1.00  0.00    -0.0362  A
ATOM     41 C27  665 L   1       0.521  -1.319 -14.575  1.00  0.00    -0.0502  A
ATOM     42 C28  665 L   1       0.906  -2.369 -15.409  1.00  0.00    -0.0551  A
ATOM     43 C29  665 L   1       0.917  -2.713 -12.641  1.00  0.00    -0.0473  A
ATOM     44 C31  665 L   1       0.527  -1.491 -13.190  1.00  0.00    -0.0580  A
ATOM     45 C32  665 L   1       1.703  -4.697 -15.777  1.00  0.00    -0.0389  C
ATOM     46 C34  665 L   1       0.105  -0.013 -15.161  1.00  0.00    -0.0397  C
ATOM     47 H52  665 L   1       0.903  -2.241 -16.434  1.00  0.00    +0.0623  H
ATOM     48 H53  665 L   1       0.920  -2.840 -11.618  1.00  0.00    +0.0626  H
ATOM     49 H55  665 L   1       0.242  -0.715 -12.572  1.00  0.00    +0.0620  H
ATOM     50 H56  665 L   1       1.971  -5.558 -15.201  1.00  0.00    +0.0278  H
ATOM     51 H57  665 L   1       2.542  -4.385 -16.363  1.00  0.00    +0.0278  H
ATOM     52 H58  665 L   1       0.887  -4.941 -16.426  1.00  0.00    +0.0278  H
ATOM     53 H60  665 L   1       0.162  -0.065 -16.228  1.00  0.00    +0.0278  H
ATOM     54 H61  665 L   1       0.753   0.761 -14.806  1.00  0.00    +0.0278  H
ATOM     55 H62  665 L   1      -0.901   0.204 -14.869  1.00  0.00    +0.0278  H
ENDBRANCH 38 39
ENDBRANCH 36 38
ENDBRANCH 33 36
ENDBRANCH 26 33
ENDBRANCH 21 23
BRANCH 21 57
ATOM     56  N5  665 L   1      -6.481 -10.613 -11.325  1.00  0.00    -0.3600  N
ATOM     57  C9  665 L   1      -5.462  -9.609 -11.033  1.00  0.00    +0.0921  C
ATOM     58 H36  665 L   1      -6.747 -11.090 -10.463  1.00  0.00    +0.3450 HD
ATOM     59 H37  665 L   1      -6.109 -11.293 -11.988  1.00  0.00    +0.3450 HD
ATOM     60 H38  665 L   1      -7.300 -10.159 -11.729  1.00  0.00    +0.3450 HD
ATOM     61 H40  665 L   1      -4.610 -10.095 -10.604  1.00  0.00    +0.0926  H
ATOM     62 H41  665 L   1      -5.882  -8.898 -10.353  1.00  0.00    +0.0926  H
ENDBRANCH 21 57
ENDBRANCH 19 21
ENDBRANCH 2 18
TORSDOF 8
ENDMDL
MODEL 8
REMARK VINA RESULT:    -6.445      3.426     10.328
REMARK INTER + INTRA:         -10.616
REMARK INTER:                  -9.084
REMARK INTRA:                  -1.532
REMARK UNBOUND:                -1.157
ROOT
ATOM      1  N6  665 L   1      -9.739  -8.042 -13.024  1.00  0.00    -0.2626 NA
ATOM      2 C16  665 L   1      -4.833  -8.609 -11.921  1.00  0.00    +0.0423  A
ATOM      3 C18  665 L   1      -5.548  -7.689 -12.690  1.00  0.00    -0.0305  A
ATOM      4 C19  665 L   1      -6.943  -7.791 -12.812  1.00  0.00    -0.0131  A
ATOM      5 C20  665 L   1      -5.500  -9.642 -11.266  1.00  0.00    -0.0377  A
ATOM      6 C21  665 L   1      -7.615  -8.838 -12.148  1.00  0.00    +0.0004  A
ATOM      7 C22  665 L   1      -6.885  -9.759 -11.377  1.00  0.00    -0.0506  A
ATOM      8 C26  665 L   1      -7.689  -6.884 -13.575  1.00  0.00    -0.0358  A
ATOM      9 C30  665 L   1      -9.002  -8.908 -12.293  1.00  0.00    +0.0353  A
ATOM     10 C33  665 L   1      -9.063  -7.053 -13.646  1.00  0.00    +0.0281  A
ATOM     11 H48  665 L   1      -5.047  -6.926 -13.172  1.00  0.00    +0.0644  H
ATOM     12 H49  665 L   1      -4.969 -10.321 -10.699  1.00  0.00    +0.0638  H
ATOM     13 H50  665 L   1      -7.376 -10.525 -10.891  1.00  0.00    +0.0625  H
ATOM     14 H51  665 L   1      -7.226  -6.108 -14.073  1.00  0.00    +0.0639  H
ATOM     15 H54  665 L   1      -9.499  -9.672 -11.808  1.00  0.00    +0.0836  H
ATOM     16 H59  665 L   1      -9.603  -6.380 -14.210  1.00  0.00    +0.0830  H
ENDROOT
BRANCH 2 18
ATOM     17  O2  665 L   1      -3.169  -6.600 -10.440  1.00  0.00    -0.2720 OA
ATOM     18  N4  665 L   1      -3.446  -8.493 -11.808  1.00  0.00    -0.3255  N
ATOM     19 C10  665 L   1      -2.710  -7.526 -11.105  1.00  0.00    +0.2381  C
ATOM     20 H35  665 L   1      -2.918  -9.175 -12.282  1.00  0.00    +0.1686 HD
BRANCH 19 21
ATOM     21  C7  665 L   1      -1.195  -7.750 -11.232  1.00  0.00    +0.1122  C
ATOM     22 H39  665 L   1      -0.990  -8.799 -11.280  1.00  0.00    +0.0502  H
BRANCH 21 23
ATOM     23  C8  665 L   1      -0.680  -7.140 -12.526  1.00  0.00    -0.0300  A
ATOM     24 C11  665 L   1      -0.495  -5.760 -12.622  1.00  0.00    -0.0573  A
ATOM     25 C12  665 L   1      -0.392  -7.960 -13.617  1.00  0.00    -0.0573  A
ATOM     26 C13  665 L   1       0.265  -6.020 -14.900  1.00  0.00    -0.0103  A
ATOM     27 C14  665 L   1      -0.023  -5.201 -13.809  1.00  0.00    -0.0551  A
ATOM     28 C15  665 L   1       0.080  -7.399 -14.804  1.00  0.00    -0.0551  A
ATOM     29 H42  665 L   1      -0.708  -5.153 -11.814  1.00  0.00    +0.0621  H
ATOM     30 H43  665 L   1      -0.529  -8.980 -13.546  1.00  0.00    +0.0621  H
ATOM     31 H44  665 L   1       0.114  -4.180 -13.880  1.00  0.00    +0.0621  H
ATOM     32 H45  665 L   1       0.293  -8.006 -15.612  1.00  0.00    +0.0621  H
BRANCH 26 33
ATOM     33 C17  665 L   1       0.770  -5.422 -16.169  1.00  0.00    +0.1179  C
ATOM     34 H46  665 L   1       0.348  -5.944 -17.003  1.00  0.00    +0.0749  H
ATOM     35 H47  665 L   1       0.489  -4.391 -16.215  1.00  0.00    +0.0749  H
BRANCH 33 36
ATOM     36  O1  665 L   1       2.189  -5.529 -16.210  1.00  0.00    -0.4564 OA
BRANCH 36 38
ATOM     37  O3  665 L   1       2.676  -3.428 -15.406  1.00  0.00    -0.2449 OA
ATOM     38 C25  665 L   1       2.877  -4.632 -15.453  1.00  0.00    +0.3398  C
BRANCH 38 39
ATOM     39 C23  665 L   1       3.936  -5.313 -14.665  1.00  0.00    +0.0619  A
ATOM     40 C24  665 L   1       5.280  -5.209 -15.024  1.00  0.00    -0.0362  A
ATOM     41 C27  665 L   1       5.887  -6.613 -13.153  1.00  0.00    -0.0502  A
ATOM     42 C28  665 L   1       6.255  -5.858 -14.267  1.00  0.00    -0.0551  A
ATOM     43 C29  665 L   1       3.567  -6.067 -13.551  1.00  0.00    -0.0473  A
ATOM     44 C31  665 L   1       4.542  -6.717 -12.795  1.00  0.00    -0.0580  A
ATOM     45 C32  665 L   1       5.703  -4.407 -16.211  1.00  0.00    -0.0389  C
ATOM     46 C34  665 L   1       6.928  -7.309 -12.344  1.00  0.00    -0.0397  C
ATOM     47 H52  665 L   1       7.250  -5.782 -14.532  1.00  0.00    +0.0623  H
ATOM     48 H53  665 L   1       2.573  -6.143 -13.286  1.00  0.00    +0.0626  H
ATOM     49 H55  665 L   1       4.269  -7.275 -11.971  1.00  0.00    +0.0620  H
ATOM     50 H56  665 L   1       4.840  -3.977 -16.676  1.00  0.00    +0.0278  H
ATOM     51 H57  665 L   1       6.206  -5.042 -16.910  1.00  0.00    +0.0278  H
ATOM     52 H58  665 L   1       6.365  -3.627 -15.898  1.00  0.00    +0.0278  H
ATOM     53 H60  665 L   1       7.894  -7.117 -12.763  1.00  0.00    +0.0278  H
ATOM     54 H61  665 L   1       6.740  -8.362 -12.349  1.00  0.00    +0.0278  H
ATOM     55 H62  665 L   1       6.900  -6.946 -11.337  1.00  0.00    +0.0278  H
ENDBRANCH 38 39
ENDBRANCH 36 38
ENDBRANCH 33 36
ENDBRANCH 26 33
ENDBRANCH 21 23
BRANCH 21 57
ATOM     56  N5  665 L   1       0.935  -7.615  -9.954  1.00  0.00    -0.3600  N
ATOM     57  C9  665 L   1      -0.468  -7.212  -9.983  1.00  0.00    +0.0921  C
ATOM     58 H36  665 L   1       1.380  -7.240  -9.117  1.00  0.00    +0.3450 HD
ATOM     59 H37  665 L   1       1.410  -7.254 -10.782  1.00  0.00    +0.3450 HD
ATOM     60 H38  665 L   1       0.996  -8.633  -9.945  1.00  0.00    +0.3450 HD
ATOM     61 H40  665 L   1      -0.521  -6.143  -9.986  1.00  0.00    +0.0926  H
ATOM     62 H41  665 L   1      -0.948  -7.618  -9.118  1.00  0.00    +0.0926  H
ENDBRANCH 21 57
ENDBRANCH 19 21
ENDBRANCH 2 18
TORSDOF 8
ENDMDL
MODEL 9
REMARK VINA RESULT:    -6.440      3.231      9.259
REMARK INTER + INTRA:         -10.610
REMARK INTER:                  -9.604
REMARK INTRA:                  -1.005
REMARK UNBOUND:                -1.157
ROOT
ATOM      1  N6  665 L   1      -8.934  -0.753 -15.208  1.00  0.00    -0.2626 NA
ATOM      2 C16  665 L   1      -6.592  -5.156 -14.346  1.00  0.00    +0.0423  A
ATOM      3 C18  665 L   1      -6.803  -4.010 -13.578  1.00  0.00    -0.0305  A
ATOM      4 C19  665 L   1      -7.511  -2.917 -14.104  1.00  0.00    -0.0131  A
ATOM      5 C20  665 L   1      -7.083  -5.225 -15.648  1.00  0.00    -0.0377  A
ATOM      6 C21  665 L   1      -8.006  -2.991 -15.422  1.00  0.00    +0.0004  A
ATOM      7 C22  665 L   1      -7.787  -4.149 -16.187  1.00  0.00    -0.0506  A
ATOM      8 C26  665 L   1      -7.739  -1.753 -13.359  1.00  0.00    -0.0358  A
ATOM      9 C30  665 L   1      -8.703  -1.885 -15.912  1.00  0.00    +0.0353  A
ATOM     10 C33  665 L   1      -8.445  -0.717 -13.950  1.00  0.00    +0.0281  A
ATOM     11 H48  665 L   1      -6.437  -3.965 -12.614  1.00  0.00    +0.0644  H
ATOM     12 H49  665 L   1      -6.925  -6.074 -16.214  1.00  0.00    +0.0638  H
ATOM     13 H50  665 L   1      -8.149  -4.204 -17.151  1.00  0.00    +0.0625  H
ATOM     14 H51  665 L   1      -7.388  -1.670 -12.392  1.00  0.00    +0.0639  H
ATOM     15 H54  665 L   1      -9.068  -1.934 -16.876  1.00  0.00    +0.0836  H
ATOM     16 H59  665 L   1      -8.609   0.134 -13.393  1.00  0.00    +0.0830  H
ENDROOT
BRANCH 2 18
ATOM     17  O2  665 L   1      -4.954  -5.347 -11.841  1.00  0.00    -0.2720 OA
ATOM     18  N4  665 L   1      -5.888  -6.235 -13.808  1.00  0.00    -0.3255  N
ATOM     19 C10  665 L   1      -5.126  -6.274 -12.629  1.00  0.00    +0.2381  C
ATOM     20 H35  665 L   1      -5.931  -7.074 -14.320  1.00  0.00    +0.1686 HD
BRANCH 19 21
ATOM     21  C7  665 L   1      -4.507  -7.659 -12.388  1.00  0.00    +0.1122  C
ATOM     22 H39  665 L   1      -4.733  -8.302 -13.214  1.00  0.00    +0.0502  H
BRANCH 21 23
ATOM     23  C8  665 L   1      -2.992  -7.553 -12.313  1.00  0.00    -0.0300  A
ATOM     24 C11  665 L   1      -2.374  -7.230 -11.105  1.00  0.00    -0.0573  A
ATOM     25 C12  665 L   1      -2.220  -7.778 -13.454  1.00  0.00    -0.0573  A
ATOM     26 C13  665 L   1      -0.213  -7.357 -12.177  1.00  0.00    -0.0103  A
ATOM     27 C14  665 L   1      -0.984  -7.132 -11.037  1.00  0.00    -0.0551  A
ATOM     28 C15  665 L   1      -0.831  -7.679 -13.385  1.00  0.00    -0.0551  A
ATOM     29 H42  665 L   1      -2.945  -7.064 -10.261  1.00  0.00    +0.0621  H
ATOM     30 H43  665 L   1      -2.678  -8.016 -14.348  1.00  0.00    +0.0621  H
ATOM     31 H44  665 L   1      -0.527  -6.893 -10.143  1.00  0.00    +0.0621  H
ATOM     32 H45  665 L   1      -0.260  -7.846 -14.229  1.00  0.00    +0.0621  H
BRANCH 26 33
ATOM     33 C17  665 L   1       1.273  -7.252 -12.104  1.00  0.00    +0.1179  C
ATOM     34 H46  665 L   1       1.547  -6.615 -11.290  1.00  0.00    +0.0749  H
ATOM     35 H47  665 L   1       1.693  -8.225 -11.953  1.00  0.00    +0.0749  H
BRANCH 33 36
ATOM     36  O1  665 L   1       1.768  -6.707 -13.322  1.00  0.00    -0.4564 OA
BRANCH 36 38
ATOM     37  O3  665 L   1       3.665  -5.562 -12.697  1.00  0.00    -0.2449 OA
ATOM     38 C25  665 L   1       2.554  -5.603 -13.205  1.00  0.00    +0.3398  C
BRANCH 38 39
ATOM     39 C23  665 L   1       1.881  -4.414 -13.786  1.00  0.00    +0.0619  A
ATOM     40 C24  665 L   1       1.075  -3.587 -13.002  1.00  0.00    -0.0362  A
ATOM     41 C27  665 L   1       0.635  -2.193 -14.927  1.00  0.00    -0.0502  A
ATOM     42 C28  665 L   1       0.453  -2.476 -13.573  1.00  0.00    -0.0551  A
ATOM     43 C29  665 L   1       2.063  -4.131 -15.140  1.00  0.00    -0.0473  A
ATOM     44 C31  665 L   1       1.440  -3.021 -15.711  1.00  0.00    -0.0580  A
ATOM     45 C32  665 L   1       0.865  -3.866 -11.550  1.00  0.00    -0.0389  C
ATOM     46 C34  665 L   1      -0.030  -1.007 -15.539  1.00  0.00    -0.0397  C
ATOM     47 H52  665 L   1      -0.143  -1.864 -12.994  1.00  0.00    +0.0623  H
ATOM     48 H53  665 L   1       2.659  -4.742 -15.719  1.00  0.00    +0.0626  H
ATOM     49 H55  665 L   1       1.575  -2.812 -16.712  1.00  0.00    +0.0620  H
ATOM     50 H56  665 L   1       1.407  -4.746 -11.274  1.00  0.00    +0.0278  H
ATOM     51 H57  665 L   1      -0.178  -4.017 -11.364  1.00  0.00    +0.0278  H
ATOM     52 H58  665 L   1       1.212  -3.035 -10.973  1.00  0.00    +0.0278  H
ATOM     53 H60  665 L   1      -0.601  -0.495 -14.793  1.00  0.00    +0.0278  H
ATOM     54 H61  665 L   1      -0.679  -1.328 -16.327  1.00  0.00    +0.0278  H
ATOM     55 H62  665 L   1       0.712  -0.346 -15.935  1.00  0.00    +0.0278  H
ENDBRANCH 38 39
ENDBRANCH 36 38
ENDBRANCH 33 36
ENDBRANCH 26 33
ENDBRANCH 21 23
BRANCH 21 57
ATOM     56  N5  665 L   1      -5.167  -9.767 -11.243  1.00  0.00    -0.3600  N
ATOM     57  C9  665 L   1      -5.125  -8.311 -11.135  1.00  0.00    +0.0921  C
ATOM     58 H36  665 L   1      -5.580 -10.159 -10.396  1.00  0.00    +0.3450 HD
ATOM     59 H37  665 L   1      -4.220 -10.126 -11.356  1.00  0.00    +0.3450 HD
ATOM     60 H38  665 L   1      -5.730 -10.031 -12.051  1.00  0.00    +0.3450 HD
ATOM     61 H40  665 L   1      -4.538  -8.044 -10.281  1.00  0.00    +0.0926  H
ATOM     62 H41  665 L   1      -6.130  -7.956 -11.036  1.00  0.00    +0.0926  H
ENDBRANCH 21 57
ENDBRANCH 19 21
ENDBRANCH 2 18
TORSDOF 8
ENDMDL
MODEL 10
REMARK VINA RESULT:    -6.403      3.217      5.013
REMARK INTER + INTRA:         -10.555
REMARK INTER:                  -8.540
REMARK INTRA:                  -2.015
REMARK UNBOUND:                -1.157
ROOT
ATOM      1  N6  665 L   1       1.570  -5.536 -13.404  1.00  0.00    -0.2626 NA
ATOM      2 C16  665 L   1      -2.560  -7.663 -11.395  1.00  0.00    +0.0423  A
ATOM      3 C18  665 L   1      -2.010  -7.649 -12.678  1.00  0.00    -0.0305  A
ATOM      4 C19  665 L   1      -0.819  -6.952 -12.938  1.00  0.00    -0.0131  A
ATOM      5 C20  665 L   1      -1.930  -6.980 -10.357  1.00  0.00    -0.0377  A
ATOM      6 C21  665 L   1      -0.184  -6.262 -11.884  1.00  0.00    +0.0004  A
ATOM      7 C22  665 L   1      -0.748  -6.282 -10.596  1.00  0.00    -0.0506  A
ATOM      8 C26  665 L   1      -0.242  -6.919 -14.213  1.00  0.00    -0.0358  A
ATOM      9 C30  665 L   1       0.997  -5.579 -12.180  1.00  0.00    +0.0353  A
ATOM     10 C33  665 L   1       0.935  -6.207 -14.388  1.00  0.00    +0.0281  A
ATOM     11 H48  665 L   1      -2.482  -8.158 -13.442  1.00  0.00    +0.0644  H
ATOM     12 H49  665 L   1      -2.340  -6.992  -9.409  1.00  0.00    +0.0638  H
ATOM     13 H50  665 L   1      -0.284  -5.777  -9.825  1.00  0.00    +0.0625  H
ATOM     14 H51  665 L   1      -0.683  -7.414 -15.004  1.00  0.00    +0.0639  H
ATOM     15 H54  665 L   1       1.465  -5.073 -11.411  1.00  0.00    +0.0836  H
ATOM     16 H59  665 L   1       1.352  -6.190 -15.331  1.00  0.00    +0.0830  H
ENDROOT
BRANCH 2 18
ATOM     17  O2  665 L   1      -3.267 -10.526 -11.943  1.00  0.00    -0.2720 OA
ATOM     18  N4  665 L   1      -3.744  -8.363 -11.153  1.00  0.00    -0.3255  N
ATOM     19 C10  665 L   1      -4.031  -9.708 -11.435  1.00  0.00    +0.2381  C
ATOM     20 H35  665 L   1      -4.468  -7.848 -10.731  1.00  0.00    +0.1686 HD
BRANCH 19 21
ATOM     21  C7  665 L   1      -5.456 -10.094 -11.011  1.00  0.00    +0.1122  C
ATOM     22 H39  665 L   1      -5.716  -9.576 -10.112  1.00  0.00    +0.0502  H
BRANCH 21 23
ATOM     23  C8  665 L   1      -6.455  -9.664 -12.073  1.00  0.00    -0.0300  A
ATOM     24 C11  665 L   1      -7.730  -9.238 -11.701  1.00  0.00    -0.0573  A
ATOM     25 C12  665 L   1      -6.096  -9.695 -13.422  1.00  0.00    -0.0573  A
ATOM     26 C13  665 L   1      -8.288  -8.875 -14.023  1.00  0.00    -0.0103  A
ATOM     27 C14  665 L   1      -8.646  -8.844 -12.676  1.00  0.00    -0.0551  A
ATOM     28 C15  665 L   1      -7.013  -9.301 -14.396  1.00  0.00    -0.0551  A
ATOM     29 H42  665 L   1      -7.996  -9.215 -10.703  1.00  0.00    +0.0621  H
ATOM     30 H43  665 L   1      -5.153 -10.010 -13.697  1.00  0.00    +0.0621  H
ATOM     31 H44  665 L   1      -9.590  -8.529 -12.400  1.00  0.00    +0.0621  H
ATOM     32 H45  665 L   1      -6.748  -9.324 -15.394  1.00  0.00    +0.0621  H
BRANCH 26 33
ATOM     33 C17  665 L   1      -9.268  -8.453 -15.066  1.00  0.00    +0.1179  C
ATOM     34 H46  665 L   1      -8.766  -8.343 -16.004  1.00  0.00    +0.0749  H
ATOM     35 H47  665 L   1     -10.034  -9.195 -15.156  1.00  0.00    +0.0749  H
BRANCH 33 36
ATOM     36  O1  665 L   1      -9.852  -7.211 -14.690  1.00  0.00    -0.4564 OA
BRANCH 36 38
ATOM     37  O3  665 L   1      -9.515  -5.438 -16.118  1.00  0.00    -0.2449 OA
ATOM     38 C25  665 L   1      -9.214  -6.094 -15.133  1.00  0.00    +0.3398  C
BRANCH 38 39
ATOM     39 C23  665 L   1      -8.069  -5.757 -14.249  1.00  0.00    +0.0619  A
ATOM     40 C24  665 L   1      -8.271  -5.158 -13.005  1.00  0.00    -0.0362  A
ATOM     41 C27  665 L   1      -5.884  -5.142 -12.626  1.00  0.00    -0.0502  A
ATOM     42 C28  665 L   1      -7.178  -4.851 -12.194  1.00  0.00    -0.0551  A
ATOM     43 C29  665 L   1      -6.775  -6.048 -14.682  1.00  0.00    -0.0473  A
ATOM     44 C31  665 L   1      -5.683  -5.741 -13.871  1.00  0.00    -0.0580  A
ATOM     45 C32  665 L   1      -9.646  -4.837 -12.517  1.00  0.00    -0.0389  C
ATOM     46 C34  665 L   1      -4.715  -4.814 -11.761  1.00  0.00    -0.0397  C
ATOM     47 H52  665 L   1      -7.327  -4.408 -11.274  1.00  0.00    +0.0623  H
ATOM     48 H53  665 L   1      -6.627  -6.491 -15.601  1.00  0.00    +0.0626  H
ATOM     49 H55  665 L   1      -4.726  -5.956 -14.191  1.00  0.00    +0.0620  H
ATOM     50 H56  665 L   1     -10.364  -5.134 -13.253  1.00  0.00    +0.0278  H
ATOM     51 H57  665 L   1      -9.726  -3.784 -12.345  1.00  0.00    +0.0278  H
ATOM     52 H58  665 L   1      -9.832  -5.362 -11.604  1.00  0.00    +0.0278  H
ATOM     53 H60  665 L   1      -5.059  -4.364 -10.853  1.00  0.00    +0.0278  H
ATOM     54 H61  665 L   1      -4.071  -4.132 -12.275  1.00  0.00    +0.0278  H
ATOM     55 H62  665 L   1      -4.177  -5.710 -11.533  1.00  0.00    +0.0278  H
ENDBRANCH 38 39
ENDBRANCH 36 38
ENDBRANCH 33 36
ENDBRANCH 26 33
ENDBRANCH 21 23
BRANCH 21 57
ATOM     56  N5  665 L   1      -6.020 -11.849  -9.340  1.00  0.00    -0.3600  N
ATOM     57  C9  665 L   1      -5.530 -11.602 -10.694  1.00  0.00    +0.0921  C
ATOM     58 H36  665 L   1      -6.056 -12.854  -9.170  1.00  0.00    +0.3450 HD
ATOM     59 H37  665 L   1      -6.956 -11.455  -9.241  1.00  0.00    +0.3450 HD
ATOM     60 H38  665 L   1      -5.393 -11.411  -8.666  1.00  0.00    +0.3450 HD
ATOM     61 H40  665 L   1      -6.191 -12.070 -11.393  1.00  0.00    +0.0926  H
ATOM     62 H41  665 L   1      -4.542 -12.006 -10.768  1.00  0.00    +0.0926  H
ENDBRANCH 21 57
ENDBRANCH 19 21
ENDBRANCH 2 18
TORSDOF 8
ENDMDL
MODEL 11
REMARK VINA RESULT:    -6.340      2.393      4.143
REMARK INTER + INTRA:         -10.463
REMARK INTER:                  -9.477
REMARK INTRA:                  -0.986
REMARK UNBOUND:                -1.157
ROOT
ATOM      1  N6  665 L   1       2.094  -4.977 -12.206  1.00  0.00    -0.2626 NA
ATOM      2 C16  665 L   1      -2.422  -7.091 -11.340  1.00  0.00    +0.0423  A
ATOM      3 C18  665 L   1      -1.152  -7.606 -11.605  1.00  0.00    -0.0305  A
ATOM      4 C19  665 L   1      -0.060  -6.746 -11.807  1.00  0.00    -0.0131  A
ATOM      5 C20  665 L   1      -2.619  -5.714 -11.274  1.00  0.00    -0.0377  A
ATOM      6 C21  665 L   1      -0.263  -5.351 -11.740  1.00  0.00    +0.0004  A
ATOM      7 C22  665 L   1      -1.547  -4.845 -11.473  1.00  0.00    -0.0506  A
ATOM      8 C26  665 L   1       1.226  -7.231 -12.075  1.00  0.00    -0.0358  A
ATOM      9 C30  665 L   1       0.845  -4.528 -11.947  1.00  0.00    +0.0353  A
ATOM     10 C33  665 L   1       2.251  -6.317 -12.264  1.00  0.00    +0.0281  A
ATOM     11 H48  665 L   1      -1.013  -8.627 -11.652  1.00  0.00    +0.0644  H
ATOM     12 H49  665 L   1      -3.559  -5.336 -11.079  1.00  0.00    +0.0638  H
ATOM     13 H50  665 L   1      -1.696  -3.825 -11.424  1.00  0.00    +0.0625  H
ATOM     14 H51  665 L   1       1.406  -8.245 -12.131  1.00  0.00    +0.0639  H
ATOM     15 H54  665 L   1       0.701  -3.507 -11.899  1.00  0.00    +0.0836  H
ATOM     16 H59  665 L   1       3.194  -6.684 -12.459  1.00  0.00    +0.0830  H
ENDROOT
BRANCH 2 18
ATOM     17  O2  665 L   1      -3.131  -9.652 -12.730  1.00  0.00    -0.2720 OA
ATOM     18  N4  665 L   1      -3.497  -7.959 -11.140  1.00  0.00    -0.3255  N
ATOM     19 C10  665 L   1      -3.791  -9.150 -11.824  1.00  0.00    +0.2381  C
ATOM     20 H35  665 L   1      -4.128  -7.704 -10.429  1.00  0.00    +0.1686 HD
BRANCH 19 21
ATOM     21  C7  665 L   1      -5.073  -9.814 -11.299  1.00  0.00    +0.1122  C
ATOM     22 H39  665 L   1      -5.194  -9.589 -10.260  1.00  0.00    +0.0502  H
BRANCH 21 23
ATOM     23  C8  665 L   1      -6.289  -9.252 -12.018  1.00  0.00    -0.0300  A
ATOM     24 C11  665 L   1      -7.572  -9.588 -11.585  1.00  0.00    -0.0573  A
ATOM     25 C12  665 L   1      -6.122  -8.400 -13.110  1.00  0.00    -0.0573  A
ATOM     26 C13  665 L   1      -8.521  -8.221 -13.337  1.00  0.00    -0.0103  A
ATOM     27 C14  665 L   1      -8.688  -9.073 -12.245  1.00  0.00    -0.0551  A
ATOM     28 C15  665 L   1      -7.238  -7.886 -13.770  1.00  0.00    -0.0551  A
ATOM     29 H42  665 L   1      -7.696 -10.218 -10.777  1.00  0.00    +0.0621  H
ATOM     30 H43  665 L   1      -5.173  -8.152 -13.430  1.00  0.00    +0.0621  H
ATOM     31 H44  665 L   1      -9.638  -9.321 -11.925  1.00  0.00    +0.0621  H
ATOM     32 H45  665 L   1      -7.114  -7.255 -14.578  1.00  0.00    +0.0621  H
BRANCH 26 33
ATOM     33 C17  665 L   1      -9.713  -7.670 -14.042  1.00  0.00    +0.1179  C
ATOM     34 H46  665 L   1      -9.999  -8.332 -14.833  1.00  0.00    +0.0749  H
ATOM     35 H47  665 L   1     -10.524  -7.571 -13.350  1.00  0.00    +0.0749  H
BRANCH 33 36
ATOM     36  O1  665 L   1      -9.393  -6.393 -14.584  1.00  0.00    -0.4564 OA
BRANCH 36 38
ATOM     37  O3  665 L   1      -9.906  -5.357 -12.593  1.00  0.00    -0.2449 OA
ATOM     38 C25  665 L   1      -9.400  -5.354 -13.705  1.00  0.00    +0.3398  C
BRANCH 38 39
ATOM     39 C23  665 L   1      -8.699  -4.177 -14.278  1.00  0.00    +0.0619  A
ATOM     40 C24  665 L   1      -7.525  -3.688 -13.703  1.00  0.00    -0.0362  A
ATOM     41 C27  665 L   1      -7.420  -1.961 -15.391  1.00  0.00    -0.0502  A
ATOM     42 C28  665 L   1      -6.885  -2.581 -14.261  1.00  0.00    -0.0551  A
ATOM     43 C29  665 L   1      -9.234  -3.558 -15.408  1.00  0.00    -0.0473  A
ATOM     44 C31  665 L   1      -8.595  -2.450 -15.965  1.00  0.00    -0.0580  A
ATOM     45 C32  665 L   1      -6.930  -4.333 -12.495  1.00  0.00    -0.0389  C
ATOM     46 C34  665 L   1      -6.738  -0.777 -15.987  1.00  0.00    -0.0397  C
ATOM     47 H52  665 L   1      -6.017  -2.218 -13.837  1.00  0.00    +0.0623  H
ATOM     48 H53  665 L   1     -10.101  -3.920 -15.832  1.00  0.00    +0.0626  H
ATOM     49 H55  665 L   1      -8.990  -1.993 -16.800  1.00  0.00    +0.0620  H
ATOM     50 H56  665 L   1      -7.538  -5.162 -12.197  1.00  0.00    +0.0278  H
ATOM     51 H57  665 L   1      -6.883  -3.621 -11.698  1.00  0.00    +0.0278  H
ATOM     52 H58  665 L   1      -5.943  -4.677 -12.723  1.00  0.00    +0.0278  H
ATOM     53 H60  665 L   1      -5.861  -0.547 -15.420  1.00  0.00    +0.0278  H
ATOM     54 H61  665 L   1      -7.402   0.062 -15.973  1.00  0.00    +0.0278  H
ATOM     55 H62  665 L   1      -6.462  -0.995 -16.997  1.00  0.00    +0.0278  H
ENDBRANCH 38 39
ENDBRANCH 36 38
ENDBRANCH 33 36
ENDBRANCH 26 33
ENDBRANCH 21 23
BRANCH 21 57
ATOM     56  N5  665 L   1      -3.680 -11.842 -10.925  1.00  0.00    -0.3600  N
ATOM     57  C9  665 L   1      -4.965 -11.349 -11.413  1.00  0.00    +0.0921  C
ATOM     58 H36  665 L   1      -3.649 -12.857 -11.016  1.00  0.00    +0.3450 HD
ATOM     59 H37  665 L   1      -3.567 -11.585  -9.945  1.00  0.00    +0.3450 HD
ATOM     60 H38  665 L   1      -2.927 -11.427 -11.473  1.00  0.00    +0.3450 HD
ATOM     61 H40  665 L   1      -5.749 -11.794 -10.835  1.00  0.00    +0.0926  H
ATOM     62 H41  665 L   1      -5.051 -11.612 -12.446  1.00  0.00    +0.0926  H
ENDBRANCH 21 57
ENDBRANCH 19 21
ENDBRANCH 2 18
TORSDOF 8
ENDMDL
MODEL 12
REMARK VINA RESULT:    -6.171      2.804      4.704
REMARK INTER + INTRA:         -10.214
REMARK INTER:                  -8.685
REMARK INTRA:                  -1.529
REMARK UNBOUND:                -1.157
ROOT
ATOM      1  N6  665 L   1       1.470  -5.024 -12.451  1.00  0.00    -0.2626 NA
ATOM      2 C16  665 L   1      -2.684  -7.885 -12.040  1.00  0.00    +0.0423  A
ATOM      3 C18  665 L   1      -2.117  -6.889 -11.243  1.00  0.00    -0.0305  A
ATOM      4 C19  665 L   1      -0.924  -6.257 -11.629  1.00  0.00    -0.0131  A
ATOM      5 C20  665 L   1      -2.069  -8.263 -13.231  1.00  0.00    -0.0377  A
ATOM      6 C21  665 L   1      -0.303  -6.643 -12.836  1.00  0.00    +0.0004  A
ATOM      7 C22  665 L   1      -0.883  -7.647 -13.630  1.00  0.00    -0.0506  A
ATOM      8 C26  665 L   1      -0.330  -5.255 -10.852  1.00  0.00    -0.0358  A
ATOM      9 C30  665 L   1       0.882  -5.994 -13.187  1.00  0.00    +0.0353  A
ATOM     10 C33  665 L   1       0.849  -4.681 -11.303  1.00  0.00    +0.0281  A
ATOM     11 H48  665 L   1      -2.579  -6.614 -10.361  1.00  0.00    +0.0644  H
ATOM     12 H49  665 L   1      -2.490  -9.000 -13.817  1.00  0.00    +0.0638  H
ATOM     13 H50  665 L   1      -0.430  -7.929 -14.513  1.00  0.00    +0.0625  H
ATOM     14 H51  665 L   1      -0.760  -4.952  -9.965  1.00  0.00    +0.0639  H
ATOM     15 H54  665 L   1       1.339  -6.272 -14.070  1.00  0.00    +0.0836  H
ATOM     16 H59  665 L   1       1.278  -3.944 -10.723  1.00  0.00    +0.0830  H
ENDROOT
BRANCH 2 18
ATOM     17  O2  665 L   1      -3.257 -10.760 -11.407  1.00  0.00    -0.2720 OA
ATOM     18  N4  665 L   1      -3.872  -8.502 -11.642  1.00  0.00    -0.3255  N
ATOM     19 C10  665 L   1      -4.093  -9.861 -11.362  1.00  0.00    +0.2381  C
ATOM     20 H35  665 L   1      -4.652  -7.911 -11.545  1.00  0.00    +0.1686 HD
BRANCH 19 21
ATOM     21  C7  665 L   1      -5.548 -10.136 -10.955  1.00  0.00    +0.1122  C
ATOM     22 H39  665 L   1      -5.777  -9.603 -10.056  1.00  0.00    +0.0502  H
BRANCH 21 23
ATOM     23  C8  665 L   1      -6.499  -9.622 -12.025  1.00  0.00    -0.0300  A
ATOM     24 C11  665 L   1      -6.239  -9.878 -13.372  1.00  0.00    -0.0573  A
ATOM     25 C12  665 L   1      -7.633  -8.896 -11.660  1.00  0.00    -0.0573  A
ATOM     26 C13  665 L   1      -8.244  -8.680 -13.988  1.00  0.00    -0.0103  A
ATOM     27 C14  665 L   1      -7.111  -9.406 -14.353  1.00  0.00    -0.0551  A
ATOM     28 C15  665 L   1      -8.505  -8.424 -12.641  1.00  0.00    -0.0551  A
ATOM     29 H42  665 L   1      -5.400 -10.416 -13.642  1.00  0.00    +0.0621  H
ATOM     30 H43  665 L   1      -7.826  -8.706 -10.664  1.00  0.00    +0.0621  H
ATOM     31 H44  665 L   1      -6.918  -9.596 -15.349  1.00  0.00    +0.0621  H
ATOM     32 H45  665 L   1      -9.344  -7.886 -12.371  1.00  0.00    +0.0621  H
BRANCH 26 33
ATOM     33 C17  665 L   1      -9.177  -8.176 -15.036  1.00  0.00    +0.1179  C
ATOM     34 H46  665 L   1      -8.859  -8.526 -15.996  1.00  0.00    +0.0749  H
ATOM     35 H47  665 L   1     -10.166  -8.532 -14.836  1.00  0.00    +0.0749  H
BRANCH 33 36
ATOM     36  O1  665 L   1      -9.175  -6.753 -15.026  1.00  0.00    -0.4564 OA
BRANCH 36 38
ATOM     37  O3  665 L   1      -7.204  -6.652 -16.210  1.00  0.00    -0.2449 OA
ATOM     38 C25  665 L   1      -8.035  -6.154 -15.465  1.00  0.00    +0.3398  C
BRANCH 38 39
ATOM     39 C23  665 L   1      -7.915  -4.781 -14.913  1.00  0.00    +0.0619  A
ATOM     40 C24  665 L   1      -7.131  -4.523 -13.788  1.00  0.00    -0.0362  A
ATOM     41 C27  665 L   1      -7.725  -2.183 -13.913  1.00  0.00    -0.0502  A
ATOM     42 C28  665 L   1      -7.036  -3.224 -13.289  1.00  0.00    -0.0551  A
ATOM     43 C29  665 L   1      -8.604  -3.742 -15.537  1.00  0.00    -0.0473  A
ATOM     44 C31  665 L   1      -8.510  -2.443 -15.038  1.00  0.00    -0.0580  A
ATOM     45 C32  665 L   1      -6.382  -5.617 -13.101  1.00  0.00    -0.0389  C
ATOM     46 C34  665 L   1      -7.626  -0.795 -13.380  1.00  0.00    -0.0397  C
ATOM     47 H52  665 L   1      -6.457  -3.031 -12.456  1.00  0.00    +0.0623  H
ATOM     48 H53  665 L   1      -9.183  -3.933 -16.369  1.00  0.00    +0.0626  H
ATOM     49 H55  665 L   1      -9.020  -1.674 -15.500  1.00  0.00    +0.0620  H
ATOM     50 H56  665 L   1      -6.560  -6.543 -13.606  1.00  0.00    +0.0278  H
ATOM     51 H57  665 L   1      -6.714  -5.694 -12.086  1.00  0.00    +0.0278  H
ATOM     52 H58  665 L   1      -5.335  -5.397 -13.117  1.00  0.00    +0.0278  H
ATOM     53 H60  665 L   1      -6.986  -0.787 -12.522  1.00  0.00    +0.0278  H
ATOM     54 H61  665 L   1      -8.599  -0.448 -13.103  1.00  0.00    +0.0278  H
ATOM     55 H62  665 L   1      -7.219  -0.152 -14.132  1.00  0.00    +0.0278  H
ENDBRANCH 38 39
ENDBRANCH 36 38
ENDBRANCH 33 36
ENDBRANCH 26 33
ENDBRANCH 21 23
BRANCH 21 57
ATOM     56  N5  665 L   1      -6.252 -11.850  -9.295  1.00  0.00    -0.3600  N
ATOM     57  C9  665 L   1      -5.745 -11.634 -10.648  1.00  0.00    +0.0921  C
ATOM     58 H36  665 L   1      -6.369 -12.850  -9.132  1.00  0.00    +0.3450 HD
ATOM     59 H37  665 L   1      -7.152 -11.382  -9.191  1.00  0.00    +0.3450 HD
ATOM     60 H38  665 L   1      -5.591 -11.469  -8.619  1.00  0.00    +0.3450 HD
ATOM     61 H40  665 L   1      -6.442 -12.042 -11.349  1.00  0.00    +0.0926  H
ATOM     62 H41  665 L   1      -4.793 -12.117 -10.726  1.00  0.00    +0.0926  H
ENDBRANCH 21 57
ENDBRANCH 19 21
ENDBRANCH 2 18
TORSDOF 8
ENDMDL
MODEL 13
REMARK VINA RESULT:    -6.150      7.103      9.805
REMARK INTER + INTRA:         -10.184
REMARK INTER:                  -9.933
REMARK INTRA:                  -0.251
REMARK UNBOUND:                -1.157
ROOT
ATOM      1  N6  665 L   1       5.787   7.650 -15.246  1.00  0.00    -0.2626 NA
ATOM      2 C16  665 L   1       2.118   4.181 -15.587  1.00  0.00    +0.0423  A
ATOM      3 C18  665 L   1       3.466   4.196 -15.947  1.00  0.00    -0.0305  A
ATOM      4 C19  665 L   1       4.254   5.336 -15.720  1.00  0.00    -0.0131  A
ATOM      5 C20  665 L   1       1.538   5.303 -15.000  1.00  0.00    -0.0377  A
ATOM      6 C21  665 L   1       3.663   6.471 -15.125  1.00  0.00    +0.0004  A
ATOM      7 C22  665 L   1       2.304   6.444 -14.768  1.00  0.00    -0.0506  A
ATOM      8 C26  665 L   1       5.609   5.383 -16.070  1.00  0.00    -0.0358  A
ATOM      9 C30  665 L   1       4.476   7.586 -14.917  1.00  0.00    +0.0353  A
ATOM     10 C33  665 L   1       6.318   6.547 -15.814  1.00  0.00    +0.0281  A
ATOM     11 H48  665 L   1       3.889   3.361 -16.382  1.00  0.00    +0.0644  H
ATOM     12 H49  665 L   1       0.540   5.289 -14.736  1.00  0.00    +0.0638  H
ATOM     13 H50  665 L   1       1.872   7.274 -14.333  1.00  0.00    +0.0625  H
ATOM     14 H51  665 L   1       6.069   4.569 -16.507  1.00  0.00    +0.0639  H
ATOM     15 H54  665 L   1       4.049   8.419 -14.481  1.00  0.00    +0.0836  H
ATOM     16 H59  665 L   1       7.315   6.570 -16.074  1.00  0.00    +0.0830  H
ENDROOT
BRANCH 2 18
ATOM     17  O2  665 L   1       0.337   2.637 -13.733  1.00  0.00    -0.2720 OA
ATOM     18  N4  665 L   1       1.348   3.038 -15.817  1.00  0.00    -0.3255  N
ATOM     19 C10  665 L   1       0.531   2.344 -14.910  1.00  0.00    +0.2381  C
ATOM     20 H35  665 L   1       1.383   2.674 -16.731  1.00  0.00    +0.1686 HD
BRANCH 19 21
ATOM     21  C7  665 L   1      -0.149   1.131 -15.560  1.00  0.00    +0.1122  C
ATOM     22 H39  665 L   1       0.206   1.014 -16.563  1.00  0.00    +0.0502  H
BRANCH 21 23
ATOM     23  C8  665 L   1       0.216  -0.141 -14.811  1.00  0.00    -0.0300  A
ATOM     24 C11  665 L   1       0.198  -0.160 -13.416  1.00  0.00    -0.0573  A
ATOM     25 C12  665 L   1       0.570  -1.291 -15.520  1.00  0.00    -0.0573  A
ATOM     26 C13  665 L   1       0.888  -2.475 -13.438  1.00  0.00    -0.0103  A
ATOM     27 C14  665 L   1       0.535  -1.327 -12.730  1.00  0.00    -0.0551  A
ATOM     28 C15  665 L   1       0.907  -2.457 -14.833  1.00  0.00    -0.0551  A
ATOM     29 H42  665 L   1      -0.063   0.690 -12.892  1.00  0.00    +0.0621  H
ATOM     30 H43  665 L   1       0.583  -1.277 -16.552  1.00  0.00    +0.0621  H
ATOM     31 H44  665 L   1       0.522  -1.341 -11.698  1.00  0.00    +0.0621  H
ATOM     32 H45  665 L   1       1.168  -3.307 -15.357  1.00  0.00    +0.0621  H
BRANCH 26 33
ATOM     33 C17  665 L   1       1.248  -3.723 -12.705  1.00  0.00    +0.1179  C
ATOM     34 H46  665 L   1       1.992  -4.259 -13.255  1.00  0.00    +0.0749  H
ATOM     35 H47  665 L   1       1.631  -3.471 -11.738  1.00  0.00    +0.0749  H
BRANCH 33 36
ATOM     36  O1  665 L   1       0.088  -4.535 -12.557  1.00  0.00    -0.4564 OA
BRANCH 36 38
ATOM     37  O3  665 L   1       0.439  -4.673 -10.287  1.00  0.00    -0.2449 OA
ATOM     38 C25  665 L   1      -0.171  -4.983 -11.299  1.00  0.00    +0.3398  C
BRANCH 38 39
ATOM     39 C23  665 L   1      -1.319  -5.925 -11.302  1.00  0.00    +0.0619  A
ATOM     40 C24  665 L   1      -1.187  -7.224 -10.810  1.00  0.00    -0.0362  A
ATOM     41 C27  665 L   1      -3.507  -7.656 -11.333  1.00  0.00    -0.0502  A
ATOM     42 C28  665 L   1      -2.282  -8.088 -10.825  1.00  0.00    -0.0551  A
ATOM     43 C29  665 L   1      -2.544  -5.491 -11.810  1.00  0.00    -0.0473  A
ATOM     44 C31  665 L   1      -3.638  -6.357 -11.826  1.00  0.00    -0.0580  A
ATOM     45 C32  665 L   1       0.113  -7.713 -10.260  1.00  0.00    -0.0389  C
ATOM     46 C34  665 L   1      -4.677  -8.580 -11.350  1.00  0.00    -0.0397  C
ATOM     47 H52  665 L   1      -2.185  -9.050 -10.461  1.00  0.00    +0.0623  H
ATOM     48 H53  665 L   1      -2.641  -4.531 -12.173  1.00  0.00    +0.0626  H
ATOM     49 H55  665 L   1      -4.544  -6.036 -12.201  1.00  0.00    +0.0620  H
ATOM     50 H56  665 L   1       0.842  -6.932 -10.321  1.00  0.00    +0.0278  H
ATOM     51 H57  665 L   1       0.445  -8.557 -10.827  1.00  0.00    +0.0278  H
ATOM     52 H58  665 L   1      -0.018  -8.000  -9.238  1.00  0.00    +0.0278  H
ATOM     53 H60  665 L   1      -4.392  -9.524 -10.937  1.00  0.00    +0.0278  H
ATOM     54 H61  665 L   1      -5.008  -8.717 -12.358  1.00  0.00    +0.0278  H
ATOM     55 H62  665 L   1      -5.471  -8.161 -10.768  1.00  0.00    +0.0278  H
ENDBRANCH 38 39
ENDBRANCH 36 38
ENDBRANCH 33 36
ENDBRANCH 26 33
ENDBRANCH 21 23
BRANCH 21 57
ATOM     56  N5  665 L   1      -2.019   2.772 -15.566  1.00  0.00    -0.3600  N
ATOM     57  C9  665 L   1      -1.672   1.356 -15.651  1.00  0.00    +0.0921  C
ATOM     58 H36  665 L   1      -3.032   2.879 -15.631  1.00  0.00    +0.3450 HD
ATOM     59 H37  665 L   1      -1.575   3.277 -16.333  1.00  0.00    +0.3450 HD
ATOM     60 H38  665 L   1      -1.693   3.149 -14.677  1.00  0.00    +0.3450 HD
ATOM     61 H40  665 L   1      -2.024   0.968 -16.584  1.00  0.00    +0.0926  H
ATOM     62 H41  665 L   1      -2.133   0.852 -14.827  1.00  0.00    +0.0926  H
ENDBRANCH 21 57
ENDBRANCH 19 21
ENDBRANCH 2 18
TORSDOF 8
ENDMDL
MODEL 14
REMARK VINA RESULT:    -6.116      4.772      8.962
REMARK INTER + INTRA:         -10.134
REMARK INTER:                  -9.204
REMARK INTRA:                  -0.930
REMARK UNBOUND:                -1.157
ROOT
ATOM      1  N6  665 L   1      -8.115  -9.790 -11.733  1.00  0.00    -0.2626 NA
ATOM      2 C16  665 L   1      -3.516  -7.768 -12.338  1.00  0.00    +0.0423  A
ATOM      3 C18  665 L   1      -4.002  -8.857 -11.612  1.00  0.00    -0.0305  A
ATOM      4 C19  665 L   1      -5.367  -9.182 -11.641  1.00  0.00    -0.0131  A
ATOM      5 C20  665 L   1      -4.385  -6.990 -13.099  1.00  0.00    -0.0377  A
ATOM      6 C21  665 L   1      -6.245  -8.392 -12.413  1.00  0.00    +0.0004  A
ATOM      7 C22  665 L   1      -5.744  -7.298 -13.139  1.00  0.00    -0.0506  A
ATOM      8 C26  665 L   1      -5.886 -10.268 -10.925  1.00  0.00    -0.0358  A
ATOM      9 C30  665 L   1      -7.595  -8.745 -12.417  1.00  0.00    +0.0353  A
ATOM     10 C33  665 L   1      -7.247 -10.523 -11.005  1.00  0.00    +0.0281  A
ATOM     11 H48  665 L   1      -3.352  -9.429 -11.050  1.00  0.00    +0.0644  H
ATOM     12 H49  665 L   1      -4.022  -6.185 -13.634  1.00  0.00    +0.0638  H
ATOM     13 H50  665 L   1      -6.385  -6.720 -13.704  1.00  0.00    +0.0625  H
ATOM     14 H51  665 L   1      -5.270 -10.864 -10.351  1.00  0.00    +0.0639  H
ATOM     15 H54  665 L   1      -8.241  -8.171 -12.981  1.00  0.00    +0.0836  H
ATOM     16 H59  665 L   1      -7.618 -11.325 -10.474  1.00  0.00    +0.0830  H
ENDROOT
BRANCH 2 18
ATOM     17  O2  665 L   1      -2.033  -5.741 -10.698  1.00  0.00    -0.2720 OA
ATOM     18  N4  665 L   1      -2.154  -7.458 -12.300  1.00  0.00    -0.3255  N
ATOM     19 C10  665 L   1      -1.505  -6.490 -11.516  1.00  0.00    +0.2381  C
ATOM     20 H35  665 L   1      -1.577  -7.985 -12.898  1.00  0.00    +0.1686 HD
BRANCH 19 21
ATOM     21  C7  665 L   1       0.009  -6.464 -11.771  1.00  0.00    +0.1122  C
ATOM     22 H39  665 L   1       0.322  -7.402 -12.179  1.00  0.00    +0.0502  H
BRANCH 21 23
ATOM     23  C8  665 L   1       0.350  -5.399 -12.802  1.00  0.00    -0.0300  A
ATOM     24 C11  665 L   1       0.705  -5.771 -14.099  1.00  0.00    -0.0573  A
ATOM     25 C12  665 L   1       0.306  -4.049 -12.452  1.00  0.00    -0.0573  A
ATOM     26 C13  665 L   1       0.975  -3.446 -14.694  1.00  0.00    -0.0103  A
ATOM     27 C14  665 L   1       1.019  -4.795 -15.044  1.00  0.00    -0.0551  A
ATOM     28 C15  665 L   1       0.620  -3.073 -13.398  1.00  0.00    -0.0551  A
ATOM     29 H42  665 L   1       0.737  -6.770 -14.359  1.00  0.00    +0.0621  H
ATOM     30 H43  665 L   1       0.043  -3.774 -11.493  1.00  0.00    +0.0621  H
ATOM     31 H44  665 L   1       1.282  -5.071 -16.004  1.00  0.00    +0.0621  H
ATOM     32 H45  665 L   1       0.588  -2.074 -13.138  1.00  0.00    +0.0621  H
BRANCH 26 33
ATOM     33 C17  665 L   1       1.309  -2.401 -15.705  1.00  0.00    +0.1179  C
ATOM     34 H46  665 L   1       2.288  -2.584 -16.096  1.00  0.00    +0.0749  H
ATOM     35 H47  665 L   1       0.595  -2.433 -16.500  1.00  0.00    +0.0749  H
BRANCH 33 36
ATOM     36  O1  665 L   1       1.276  -1.119 -15.087  1.00  0.00    -0.4564 OA
BRANCH 36 38
ATOM     37  O3  665 L   1      -0.602  -0.379 -16.194  1.00  0.00    -0.2449 OA
ATOM     38 C25  665 L   1       0.496  -0.185 -15.696  1.00  0.00    +0.3398  C
BRANCH 38 39
ATOM     39 C23  665 L   1       1.162   1.143 -15.684  1.00  0.00    +0.0619  A
ATOM     40 C24  665 L   1       0.519   2.266 -15.162  1.00  0.00    -0.0362  A
ATOM     41 C27  665 L   1       2.454   3.615 -15.687  1.00  0.00    -0.0502  A
ATOM     42 C28  665 L   1       1.166   3.502 -15.163  1.00  0.00    -0.0551  A
ATOM     43 C29  665 L   1       2.449   1.256 -16.208  1.00  0.00    -0.0473  A
ATOM     44 C31  665 L   1       3.096   2.492 -16.210  1.00  0.00    -0.0580  A
ATOM     45 C32  665 L   1      -0.859   2.173 -14.593  1.00  0.00    -0.0389  C
ATOM     46 C34  665 L   1       3.147   4.936 -15.690  1.00  0.00    -0.0397  C
ATOM     47 H52  665 L   1       0.692   4.334 -14.776  1.00  0.00    +0.0623  H
ATOM     48 H53  665 L   1       2.924   0.425 -16.593  1.00  0.00    +0.0626  H
ATOM     49 H55  665 L   1       4.049   2.575 -16.597  1.00  0.00    +0.0620  H
ATOM     50 H56  665 L   1      -1.208   1.164 -14.668  1.00  0.00    +0.0278  H
ATOM     51 H57  665 L   1      -1.514   2.819 -15.139  1.00  0.00    +0.0278  H
ATOM     52 H58  665 L   1      -0.842   2.470 -13.565  1.00  0.00    +0.0278  H
ATOM     53 H60  665 L   1       2.508   5.674 -15.253  1.00  0.00    +0.0278  H
ATOM     54 H61  665 L   1       3.379   5.215 -16.696  1.00  0.00    +0.0278  H
ATOM     55 H62  665 L   1       4.050   4.866 -15.121  1.00  0.00    +0.0278  H
ENDBRANCH 38 39
ENDBRANCH 36 38
ENDBRANCH 33 36
ENDBRANCH 26 33
ENDBRANCH 21 23
BRANCH 21 57
ATOM     56  N5  665 L   1       0.535  -7.384  -9.521  1.00  0.00    -0.3600  N
ATOM     57  C9  665 L   1       0.773  -6.279 -10.444  1.00  0.00    +0.0921  C
ATOM     58 H36  665 L   1       1.056  -7.226  -8.658  1.00  0.00    +0.3450 HD
ATOM     59 H37  665 L   1       0.843  -8.257  -9.948  1.00  0.00    +0.3450 HD
ATOM     60 H38  665 L   1      -0.462  -7.443  -9.310  1.00  0.00    +0.3450 HD
ATOM     61 H40  665 L   1       1.821  -6.222 -10.654  1.00  0.00    +0.0926  H
ATOM     62 H41  665 L   1       0.424  -5.379  -9.982  1.00  0.00    +0.0926  H
ENDBRANCH 21 57
ENDBRANCH 19 21
ENDBRANCH 2 18
TORSDOF 8
ENDMDL
MODEL 15
REMARK VINA RESULT:    -5.948      3.169      4.985
REMARK INTER + INTRA:          -9.887
REMARK INTER:                  -7.661
REMARK INTRA:                  -2.226
REMARK UNBOUND:                -1.157
ROOT
ATOM      1  N6  665 L   1       1.315  -4.065 -11.982  1.00  0.00    -0.2626 NA
ATOM      2 C16  665 L   1      -2.089  -7.688 -12.928  1.00  0.00    +0.0423  A
ATOM      3 C18  665 L   1      -0.758  -7.495 -13.301  1.00  0.00    -0.0305  A
ATOM      4 C19  665 L   1      -0.053  -6.360 -12.871  1.00  0.00    -0.0131  A
ATOM      5 C20  665 L   1      -2.733  -6.752 -12.122  1.00  0.00    -0.0377  A
ATOM      6 C21  665 L   1      -0.708  -5.413 -12.056  1.00  0.00    +0.0004  A
ATOM      7 C22  665 L   1      -2.048  -5.618 -11.686  1.00  0.00    -0.0506  A
ATOM      8 C26  665 L   1       1.283  -6.137 -13.229  1.00  0.00    -0.0358  A
ATOM      9 C30  665 L   1       0.025  -4.297 -11.648  1.00  0.00    +0.0353  A
ATOM     10 C33  665 L   1       1.909  -4.991 -12.764  1.00  0.00    +0.0281  A
ATOM     11 H48  665 L   1      -0.288  -8.194 -13.898  1.00  0.00    +0.0644  H
ATOM     12 H49  665 L   1      -3.717  -6.897 -11.848  1.00  0.00    +0.0638  H
ATOM     13 H50  665 L   1      -2.527  -4.926 -11.090  1.00  0.00    +0.0625  H
ATOM     14 H51  665 L   1       1.788  -6.811 -13.824  1.00  0.00    +0.0639  H
ATOM     15 H54  665 L   1      -0.450  -3.602 -11.051  1.00  0.00    +0.0836  H
ATOM     16 H59  665 L   1       2.893  -4.837 -13.032  1.00  0.00    +0.0830  H
ENDROOT
BRANCH 2 18
ATOM     17  O2  665 L   1      -2.691  -8.646 -15.706  1.00  0.00    -0.2720 OA
ATOM     18  N4  665 L   1      -2.776  -8.823 -13.362  1.00  0.00    -0.3255  N
ATOM     19 C10  665 L   1      -3.040  -9.228 -14.682  1.00  0.00    +0.2381  C
ATOM     20 H35  665 L   1      -3.119  -9.415 -12.655  1.00  0.00    +0.1686 HD
BRANCH 19 21
ATOM     21  C7  665 L   1      -3.830 -10.544 -14.734  1.00  0.00    +0.1122  C
ATOM     22 H39  665 L   1      -3.497 -11.194 -13.952  1.00  0.00    +0.0502  H
BRANCH 21 23
ATOM     23  C8  665 L   1      -5.308 -10.280 -14.489  1.00  0.00    -0.0300  A
ATOM     24 C11  665 L   1      -6.045  -9.533 -15.408  1.00  0.00    -0.0573  A
ATOM     25 C12  665 L   1      -5.927 -10.786 -13.345  1.00  0.00    -0.0573  A
ATOM     26 C13  665 L   1      -8.018  -9.796 -14.040  1.00  0.00    -0.0103  A
ATOM     27 C14  665 L   1      -7.400  -9.290 -15.182  1.00  0.00    -0.0551  A
ATOM     28 C15  665 L   1      -7.281 -10.543 -13.120  1.00  0.00    -0.0551  A
ATOM     29 H42  665 L   1      -5.588  -9.158 -16.254  1.00  0.00    +0.0621  H
ATOM     30 H43  665 L   1      -5.381 -11.339 -12.666  1.00  0.00    +0.0621  H
ATOM     31 H44  665 L   1      -7.945  -8.737 -15.863  1.00  0.00    +0.0621  H
ATOM     32 H45  665 L   1      -7.739 -10.917 -12.274  1.00  0.00    +0.0621  H
BRANCH 26 33
ATOM     33 C17  665 L   1      -9.467  -9.537 -13.799  1.00  0.00    +0.1179  C
ATOM     34 H46  665 L   1     -10.038  -9.904 -14.626  1.00  0.00    +0.0749  H
ATOM     35 H47  665 L   1      -9.775 -10.036 -12.904  1.00  0.00    +0.0749  H
BRANCH 33 36
ATOM     36  O1  665 L   1      -9.680  -8.137 -13.658  1.00  0.00    -0.4564 OA
BRANCH 36 38
ATOM     37  O3  665 L   1      -9.278  -8.110 -11.392  1.00  0.00    -0.2449 OA
ATOM     38 C25  665 L   1      -9.248  -7.582 -12.493  1.00  0.00    +0.3398  C
BRANCH 38 39
ATOM     39 C23  665 L   1      -8.720  -6.214 -12.727  1.00  0.00    +0.0619  A
ATOM     40 C24  665 L   1      -7.347  -5.971 -12.784  1.00  0.00    -0.0362  A
ATOM     41 C27  665 L   1      -7.780  -3.624 -13.166  1.00  0.00    -0.0502  A
ATOM     42 C28  665 L   1      -6.878  -4.676 -13.005  1.00  0.00    -0.0551  A
ATOM     43 C29  665 L   1      -9.623  -5.162 -12.888  1.00  0.00    -0.0473  A
ATOM     44 C31  665 L   1      -9.153  -3.867 -13.108  1.00  0.00    -0.0580  A
ATOM     45 C32  665 L   1      -6.360  -7.079 -12.616  1.00  0.00    -0.0389  C
ATOM     46 C34  665 L   1      -7.279  -2.239 -13.401  1.00  0.00    -0.0397  C
ATOM     47 H52  665 L   1      -5.862  -4.496 -13.047  1.00  0.00    +0.0623  H
ATOM     48 H53  665 L   1     -10.637  -5.343 -12.847  1.00  0.00    +0.0626  H
ATOM     49 H55  665 L   1      -9.821  -3.090 -13.228  1.00  0.00    +0.0620  H
ATOM     50 H56  665 L   1      -6.880  -8.000 -12.457  1.00  0.00    +0.0278  H
ATOM     51 H57  665 L   1      -5.734  -6.873 -11.773  1.00  0.00    +0.0278  H
ATOM     52 H58  665 L   1      -5.757  -7.156 -13.496  1.00  0.00    +0.0278  H
ATOM     53 H60  665 L   1      -6.210  -2.244 -13.414  1.00  0.00    +0.0278  H
ATOM     54 H61  665 L   1      -7.623  -1.598 -12.617  1.00  0.00    +0.0278  H
ATOM     55 H62  665 L   1      -7.646  -1.882 -14.340  1.00  0.00    +0.0278  H
ENDBRANCH 38 39
ENDBRANCH 36 38
ENDBRANCH 33 36
ENDBRANCH 26 33
ENDBRANCH 21 23
BRANCH 21 57
ATOM     56  N5  665 L   1      -2.159 -11.646 -16.211  1.00  0.00    -0.3600  N
ATOM     57  C9  665 L   1      -3.564 -11.275 -16.065  1.00  0.00    +0.0921  C
ATOM     58 H36  665 L   1      -2.025 -12.127 -17.100  1.00  0.00    +0.3450 HD
ATOM     59 H37  665 L   1      -1.890 -12.265 -15.446  1.00  0.00    +0.3450 HD
ATOM     60 H38  665 L   1      -1.582 -10.806 -16.187  1.00  0.00    +0.3450 HD
ATOM     61 H40  665 L   1      -4.162 -12.163 -16.097  1.00  0.00    +0.0926  H
ATOM     62 H41  665 L   1      -3.817 -10.612 -16.865  1.00  0.00    +0.0926  H
ENDBRANCH 21 57
ENDBRANCH 19 21
ENDBRANCH 2 18
TORSDOF 8
ENDMDL
MODEL 16
REMARK VINA RESULT:    -5.893      3.573      5.051
REMARK INTER + INTRA:          -9.806
REMARK INTER:                  -8.784
REMARK INTRA:                  -1.022
REMARK UNBOUND:                -1.157
ROOT
ATOM      1  N6  665 L   1       0.928   2.309 -15.634  1.00  0.00    -0.2626 NA
ATOM      2 C16  665 L   1       0.513  -2.373 -13.760  1.00  0.00    +0.0423  A
ATOM      3 C18  665 L   1       0.387  -1.099 -13.205  1.00  0.00    -0.0305  A
ATOM      4 C19  665 L   1       0.563   0.047 -13.999  1.00  0.00    -0.0131  A
ATOM      5 C20  665 L   1       0.817  -2.521 -15.111  1.00  0.00    -0.0377  A
ATOM      6 C21  665 L   1       0.871  -0.107 -15.366  1.00  0.00    +0.0004  A
ATOM      7 C22  665 L   1       0.996  -1.396 -15.914  1.00  0.00    -0.0506  A
ATOM      8 C26  665 L   1       0.443   1.339 -13.472  1.00  0.00    -0.0358  A
ATOM      9 C30  665 L   1       1.040   1.054 -16.123  1.00  0.00    +0.0353  A
ATOM     10 C33  665 L   1       0.633   2.418 -14.321  1.00  0.00    +0.0281  A
ATOM     11 H48  665 L   1       0.161  -0.997 -12.203  1.00  0.00    +0.0644  H
ATOM     12 H49  665 L   1       0.910  -3.465 -15.518  1.00  0.00    +0.0638  H
ATOM     13 H50  665 L   1       1.222  -1.508 -16.914  1.00  0.00    +0.0625  H
ATOM     14 H51  665 L   1       0.219   1.483 -12.476  1.00  0.00    +0.0639  H
ATOM     15 H54  665 L   1       1.266   0.946 -17.125  1.00  0.00    +0.0836  H
ATOM     16 H59  665 L   1       0.542   3.365 -13.924  1.00  0.00    +0.0830  H
ENDROOT
BRANCH 2 18
ATOM     17  O2  665 L   1       2.347  -4.685 -13.226  1.00  0.00    -0.2720 OA
ATOM     18  N4  665 L   1       0.332  -3.502 -12.958  1.00  0.00    -0.3255  N
ATOM     19 C10  665 L   1       1.224  -4.567 -12.744  1.00  0.00    +0.2381  C
ATOM     20 H35  665 L   1      -0.527  -3.559 -12.483  1.00  0.00    +0.1686 HD
BRANCH 19 21
ATOM     21  C7  665 L   1       0.644  -5.619 -11.787  1.00  0.00    +0.1122  C
ATOM     22 H39  665 L   1       0.131  -5.132 -10.985  1.00  0.00    +0.0502  H
BRANCH 21 23
ATOM     23  C8  665 L   1      -0.382  -6.479 -12.510  1.00  0.00    -0.0300  A
ATOM     24 C11  665 L   1      -1.441  -7.046 -11.801  1.00  0.00    -0.0573  A
ATOM     25 C12  665 L   1      -0.264  -6.700 -13.883  1.00  0.00    -0.0573  A
ATOM     26 C13  665 L   1      -2.263  -8.056 -13.835  1.00  0.00    -0.0103  A
ATOM     27 C14  665 L   1      -2.381  -7.835 -12.463  1.00  0.00    -0.0551  A
ATOM     28 C15  665 L   1      -1.204  -7.489 -14.545  1.00  0.00    -0.0551  A
ATOM     29 H42  665 L   1      -1.528  -6.882 -10.785  1.00  0.00    +0.0621  H
ATOM     30 H43  665 L   1       0.520  -6.280 -14.407  1.00  0.00    +0.0621  H
ATOM     31 H44  665 L   1      -3.165  -8.255 -11.938  1.00  0.00    +0.0621  H
ATOM     32 H45  665 L   1      -1.117  -7.653 -15.560  1.00  0.00    +0.0621  H
BRANCH 26 33
ATOM     33 C17  665 L   1      -3.268  -8.899 -14.544  1.00  0.00    +0.1179  C
ATOM     34 H46  665 L   1      -2.795  -9.414 -15.354  1.00  0.00    +0.0749  H
ATOM     35 H47  665 L   1      -3.682  -9.612 -13.862  1.00  0.00    +0.0749  H
BRANCH 33 36
ATOM     36  O1  665 L   1      -4.308  -8.069 -15.050  1.00  0.00    -0.4564 OA
BRANCH 36 38
ATOM     37  O3  665 L   1      -6.083  -9.107 -14.016  1.00  0.00    -0.2449 OA
ATOM     38 C25  665 L   1      -5.483  -8.102 -14.366  1.00  0.00    +0.3398  C
BRANCH 38 39
ATOM     39 C23  665 L   1      -5.967  -6.725 -14.087  1.00  0.00    +0.0619  A
ATOM     40 C24  665 L   1      -5.800  -6.144 -12.830  1.00  0.00    -0.0362  A
ATOM     41 C27  665 L   1      -6.896  -4.138 -13.614  1.00  0.00    -0.0502  A
ATOM     42 C28  665 L   1      -6.264  -4.850 -12.594  1.00  0.00    -0.0551  A
ATOM     43 C29  665 L   1      -6.599  -6.014 -15.107  1.00  0.00    -0.0473  A
ATOM     44 C31  665 L   1      -7.064  -4.720 -14.871  1.00  0.00    -0.0580  A
ATOM     45 C32  665 L   1      -5.126  -6.883 -11.721  1.00  0.00    -0.0389  C
ATOM     46 C34  665 L   1      -7.394  -2.755 -13.363  1.00  0.00    -0.0397  C
ATOM     47 H52  665 L   1      -6.141  -4.419 -11.664  1.00  0.00    +0.0623  H
ATOM     48 H53  665 L   1      -6.721  -6.445 -16.037  1.00  0.00    +0.0626  H
ATOM     49 H55  665 L   1      -7.531  -4.194 -15.626  1.00  0.00    +0.0620  H
ATOM     50 H56  665 L   1      -4.833  -7.853 -12.065  1.00  0.00    +0.0278  H
ATOM     51 H57  665 L   1      -5.803  -6.986 -10.898  1.00  0.00    +0.0278  H
ATOM     52 H58  665 L   1      -4.261  -6.339 -11.404  1.00  0.00    +0.0278  H
ATOM     53 H60  665 L   1      -7.179  -2.476 -12.353  1.00  0.00    +0.0278  H
ATOM     54 H61  665 L   1      -8.450  -2.721 -13.526  1.00  0.00    +0.0278  H
ATOM     55 H62  665 L   1      -6.908  -2.074 -14.031  1.00  0.00    +0.0278  H
ENDBRANCH 38 39
ENDBRANCH 36 38
ENDBRANCH 33 36
ENDBRANCH 26 33
ENDBRANCH 21 23
BRANCH 21 57
ATOM     56  N5  665 L   1       2.434  -7.313 -12.128  1.00  0.00    -0.3600  N
ATOM     57  C9  665 L   1       1.779  -6.448 -11.152  1.00  0.00    +0.0921  C
ATOM     58 H36  665 L   1       3.177  -7.842 -11.670  1.00  0.00    +0.3450 HD
ATOM     59 H37  665 L   1       2.833  -6.743 -12.874  1.00  0.00    +0.3450 HD
ATOM     60 H38  665 L   1       1.750  -7.959 -12.523  1.00  0.00    +0.3450 HD
ATOM     61 H40  665 L   1       2.505  -5.779 -10.739  1.00  0.00    +0.0926  H
ATOM     62 H41  665 L   1       1.352  -7.068 -10.392  1.00  0.00    +0.0926  H
ENDBRANCH 21 57
ENDBRANCH 19 21
ENDBRANCH 2 18
TORSDOF 8
ENDMDL
MODEL 17
REMARK VINA RESULT:    -5.833      3.081      5.073
REMARK INTER + INTRA:          -9.719
REMARK INTER:                  -8.729
REMARK INTRA:                  -0.990
REMARK UNBOUND:                -1.157
ROOT
ATOM      1  N6  665 L   1       6.218  -7.192 -14.208  1.00  0.00    -0.2626 NA
ATOM      2 C16  665 L   1       1.383  -6.055 -13.239  1.00  0.00    +0.0423  A
ATOM      3 C18  665 L   1       2.273  -7.000 -12.725  1.00  0.00    -0.0305  A
ATOM      4 C19  665 L   1       3.589  -7.078 -13.206  1.00  0.00    -0.0131  A
ATOM      5 C20  665 L   1       1.795  -5.179 -14.240  1.00  0.00    -0.0377  A
ATOM      6 C21  665 L   1       4.003  -6.189 -14.220  1.00  0.00    +0.0004  A
ATOM      7 C22  665 L   1       3.098  -5.242 -14.730  1.00  0.00    -0.0506  A
ATOM      8 C26  665 L   1       4.506  -8.014 -12.711  1.00  0.00    -0.0358  A
ATOM      9 C30  665 L   1       5.319  -6.296 -14.674  1.00  0.00    +0.0353  A
ATOM     10 C33  665 L   1       5.787  -8.028 -13.239  1.00  0.00    +0.0281  A
ATOM     11 H48  665 L   1       1.960  -7.646 -11.983  1.00  0.00    +0.0644  H
ATOM     12 H49  665 L   1       1.134  -4.482 -14.619  1.00  0.00    +0.0638  H
ATOM     13 H50  665 L   1       3.400  -4.592 -15.472  1.00  0.00    +0.0625  H
ATOM     14 H51  665 L   1       4.232  -8.678 -11.970  1.00  0.00    +0.0639  H
ATOM     15 H54  665 L   1       5.626  -5.647 -15.416  1.00  0.00    +0.0836  H
ATOM     16 H59  665 L   1       6.454  -8.720 -12.867  1.00  0.00    +0.0830  H
ENDROOT
BRANCH 2 18
ATOM     17  O2  665 L   1      -0.587  -8.244 -12.668  1.00  0.00    -0.2720 OA
ATOM     18  N4  665 L   1       0.077  -5.989 -12.748  1.00  0.00    -0.3255  N
ATOM     19 C10  665 L   1      -0.813  -7.048 -12.503  1.00  0.00    +0.2381  C
ATOM     20 H35  665 L   1      -0.262  -5.087 -12.549  1.00  0.00    +0.1686 HD
BRANCH 19 21
ATOM     21  C7  665 L   1      -2.162  -6.551 -11.962  1.00  0.00    +0.1122  C
ATOM     22 H39  665 L   1      -2.187  -5.482 -11.983  1.00  0.00    +0.0502  H
BRANCH 21 23
ATOM     23  C8  665 L   1      -3.296  -7.036 -12.852  1.00  0.00    -0.0300  A
ATOM     24 C11  665 L   1      -4.591  -6.553 -12.659  1.00  0.00    -0.0573  A
ATOM     25 C12  665 L   1      -3.042  -7.964 -13.862  1.00  0.00    -0.0573  A
ATOM     26 C13  665 L   1      -5.376  -7.926 -14.484  1.00  0.00    -0.0103  A
ATOM     27 C14  665 L   1      -5.630  -6.999 -13.474  1.00  0.00    -0.0551  A
ATOM     28 C15  665 L   1      -4.082  -8.409 -14.678  1.00  0.00    -0.0551  A
ATOM     29 H42  665 L   1      -4.779  -5.866 -11.911  1.00  0.00    +0.0621  H
ATOM     30 H43  665 L   1      -2.084  -8.322 -14.005  1.00  0.00    +0.0621  H
ATOM     31 H44  665 L   1      -6.588  -6.641 -13.331  1.00  0.00    +0.0621  H
ATOM     32 H45  665 L   1      -3.893  -9.096 -15.425  1.00  0.00    +0.0621  H
BRANCH 26 33
ATOM     33 C17  665 L   1      -6.488  -8.402 -15.357  1.00  0.00    +0.1179  C
ATOM     34 H46  665 L   1      -6.507  -7.825 -16.258  1.00  0.00    +0.0749  H
ATOM     35 H47  665 L   1      -6.336  -9.434 -15.598  1.00  0.00    +0.0749  H
BRANCH 33 36
ATOM     36  O1  665 L   1      -7.725  -8.253 -14.670  1.00  0.00    -0.4564 OA
BRANCH 36 38
ATOM     37  O3  665 L   1      -9.308  -9.892 -14.990  1.00  0.00    -0.2449 OA
ATOM     38 C25  665 L   1      -8.380  -9.405 -14.363  1.00  0.00    +0.3398  C
BRANCH 38 39
ATOM     39 C23  665 L   1      -7.814 -10.020 -13.135  1.00  0.00    +0.0619  A
ATOM     40 C24  665 L   1      -8.081  -9.487 -11.874  1.00  0.00    -0.0362  A
ATOM     41 C27  665 L   1      -6.726 -11.212 -10.860  1.00  0.00    -0.0502  A
ATOM     42 C28  665 L   1      -7.537 -10.083 -10.737  1.00  0.00    -0.0551  A
ATOM     43 C29  665 L   1      -7.004 -11.149 -13.259  1.00  0.00    -0.0473  A
ATOM     44 C31  665 L   1      -6.459 -11.745 -12.122  1.00  0.00    -0.0580  A
ATOM     45 C32  665 L   1      -8.947  -8.280 -11.713  1.00  0.00    -0.0389  C
ATOM     46 C34  665 L   1      -6.143 -11.849  -9.645  1.00  0.00    -0.0397  C
ATOM     47 H52  665 L   1      -7.734  -9.689  -9.803  1.00  0.00    +0.0623  H
ATOM     48 H53  665 L   1      -6.808 -11.543 -14.192  1.00  0.00    +0.0626  H
ATOM     49 H55  665 L   1      -5.860 -12.579 -12.213  1.00  0.00    +0.0620  H
ATOM     50 H56  665 L   1      -9.280  -7.950 -12.675  1.00  0.00    +0.0278  H
ATOM     51 H57  665 L   1      -8.387  -7.500 -11.242  1.00  0.00    +0.0278  H
ATOM     52 H58  665 L   1      -9.793  -8.526 -11.106  1.00  0.00    +0.0278  H
ATOM     53 H60  665 L   1      -6.453 -11.310  -8.775  1.00  0.00    +0.0278  H
ATOM     54 H61  665 L   1      -5.075 -11.836  -9.711  1.00  0.00    +0.0278  H
ATOM     55 H62  665 L   1      -6.483 -12.862  -9.575  1.00  0.00    +0.0278  H
ENDBRANCH 38 39
ENDBRANCH 36 38
ENDBRANCH 33 36
ENDBRANCH 26 33
ENDBRANCH 21 23
BRANCH 21 57
ATOM     56  N5  665 L   1      -1.062  -7.330  -9.871  1.00  0.00    -0.3600  N
ATOM     57  C9  665 L   1      -2.336  -6.971 -10.488  1.00  0.00    +0.0921  C
ATOM     58 H36  665 L   1      -1.218  -7.600  -8.900  1.00  0.00    +0.3450 HD
ATOM     59 H37  665 L   1      -0.431  -6.529  -9.903  1.00  0.00    +0.3450 HD
ATOM     60 H38  665 L   1      -0.645  -8.110 -10.379  1.00  0.00    +0.3450 HD
ATOM     61 H40  665 L   1      -2.767  -6.156  -9.945  1.00  0.00    +0.0926  H
ATOM     62 H41  665 L   1      -2.971  -7.831 -10.460  1.00  0.00    +0.0926  H
ENDBRANCH 21 57
ENDBRANCH 19 21
ENDBRANCH 2 18
TORSDOF 8
ENDMDL
MODEL 18
REMARK VINA RESULT:    -5.788      4.491      8.524
REMARK INTER + INTRA:          -9.652
REMARK INTER:                  -9.170
REMARK INTRA:                  -0.482
REMARK UNBOUND:                -1.157
ROOT
ATOM      1  N6  665 L   1      -7.806  -8.431 -12.803  1.00  0.00    -0.2626 NA
ATOM      2 C16  665 L   1      -2.946  -7.333 -11.921  1.00  0.00    +0.0423  A
ATOM      3 C18  665 L   1      -4.008  -6.622 -12.481  1.00  0.00    -0.0305  A
ATOM      4 C19  665 L   1      -5.279  -7.208 -12.596  1.00  0.00    -0.0131  A
ATOM      5 C20  665 L   1      -3.137  -8.637 -11.469  1.00  0.00    -0.0377  A
ATOM      6 C21  665 L   1      -5.469  -8.529 -12.138  1.00  0.00    +0.0004  A
ATOM      7 C22  665 L   1      -4.392  -9.235 -11.576  1.00  0.00    -0.0506  A
ATOM      8 C26  665 L   1      -6.365  -6.521 -13.153  1.00  0.00    -0.0358  A
ATOM      9 C30  665 L   1      -6.746  -9.078 -12.269  1.00  0.00    +0.0353  A
ATOM     10 C33  665 L   1      -7.587  -7.170 -13.232  1.00  0.00    +0.0281  A
ATOM     11 H48  665 L   1      -3.859  -5.656 -12.813  1.00  0.00    +0.0644  H
ATOM     12 H49  665 L   1      -2.350  -9.161 -11.056  1.00  0.00    +0.0638  H
ATOM     13 H50  665 L   1      -4.531 -10.201 -11.241  1.00  0.00    +0.0625  H
ATOM     14 H51  665 L   1      -6.256  -5.555 -13.497  1.00  0.00    +0.0639  H
ATOM     15 H54  665 L   1      -6.890 -10.044 -11.935  1.00  0.00    +0.0836  H
ATOM     16 H59  665 L   1      -8.380  -6.655 -13.643  1.00  0.00    +0.0830  H
ENDROOT
BRANCH 2 18
ATOM     17  O2  665 L   1      -0.323  -8.095 -13.161  1.00  0.00    -0.2720 OA
ATOM     18  N4  665 L   1      -1.688  -6.736 -11.812  1.00  0.00    -0.3255  N
ATOM     19 C10  665 L   1      -0.482  -7.136 -12.410  1.00  0.00    +0.2381  C
ATOM     20 H35  665 L   1      -1.642  -5.933 -11.245  1.00  0.00    +0.1686 HD
BRANCH 19 21
ATOM     21  C7  665 L   1       0.682  -6.206 -12.037  1.00  0.00    +0.1122  C
ATOM     22 H39  665 L   1       1.604  -6.748 -12.081  1.00  0.00    +0.0502  H
BRANCH 21 23
ATOM     23  C8  665 L   1       0.790  -5.069 -13.041  1.00  0.00    -0.0300  A
ATOM     24 C11  665 L   1       1.136  -5.337 -14.365  1.00  0.00    -0.0573  A
ATOM     25 C12  665 L   1       0.542  -3.756 -12.637  1.00  0.00    -0.0573  A
ATOM     26 C13  665 L   1       0.988  -2.983 -14.882  1.00  0.00    -0.0103  A
ATOM     27 C14  665 L   1       1.236  -4.294 -15.285  1.00  0.00    -0.0551  A
ATOM     28 C15  665 L   1       0.642  -2.713 -13.558  1.00  0.00    -0.0551  A
ATOM     29 H42  665 L   1       1.319  -6.309 -14.664  1.00  0.00    +0.0621  H
ATOM     30 H43  665 L   1       0.286  -3.557 -11.658  1.00  0.00    +0.0621  H
ATOM     31 H44  665 L   1       1.492  -4.494 -16.266  1.00  0.00    +0.0621  H
ATOM     32 H45  665 L   1       0.459  -1.742 -13.260  1.00  0.00    +0.0621  H
BRANCH 26 33
ATOM     33 C17  665 L   1       1.095  -1.867 -15.867  1.00  0.00    +0.1179  C
ATOM     34 H46  665 L   1       2.096  -1.813 -16.239  1.00  0.00    +0.0749  H
ATOM     35 H47  665 L   1       0.421  -2.042 -16.679  1.00  0.00    +0.0749  H
BRANCH 33 36
ATOM     36  O1  665 L   1       0.759  -0.640 -15.228  1.00  0.00    -0.4564 OA
BRANCH 36 38
ATOM     37  O3  665 L   1       2.403   0.637 -16.209  1.00  0.00    -0.2449 OA
ATOM     38 C25  665 L   1       1.262   0.487 -15.800  1.00  0.00    +0.3398  C
BRANCH 38 39
ATOM     39 C23  665 L   1       0.225   1.549 -15.868  1.00  0.00    +0.0619  A
ATOM     40 C24  665 L   1       0.553   2.890 -15.663  1.00  0.00    -0.0362  A
ATOM     41 C27  665 L   1      -1.760   3.505 -16.006  1.00  0.00    -0.0502  A
ATOM     42 C28  665 L   1      -0.440   3.867 -15.733  1.00  0.00    -0.0551  A
ATOM     43 C29  665 L   1      -1.093   1.186 -16.142  1.00  0.00    -0.0473  A
ATOM     44 C31  665 L   1      -2.086   2.163 -16.210  1.00  0.00    -0.0580  A
ATOM     45 C32  665 L   1       1.957   3.306 -15.370  1.00  0.00    -0.0389  C
ATOM     46 C34  665 L   1      -2.822   4.548 -16.079  1.00  0.00    -0.0397  C
ATOM     47 H52  665 L   1      -0.199   4.859 -15.581  1.00  0.00    +0.0623  H
ATOM     48 H53  665 L   1      -1.334   0.195 -16.294  1.00  0.00    +0.0626  H
ATOM     49 H55  665 L   1      -3.062   1.895 -16.413  1.00  0.00    +0.0620  H
ATOM     50 H56  665 L   1       2.588   2.442 -15.353  1.00  0.00    +0.0278  H
ATOM     51 H57  665 L   1       1.993   3.793 -14.418  1.00  0.00    +0.0278  H
ATOM     52 H58  665 L   1       2.295   3.980 -16.129  1.00  0.00    +0.0278  H
ATOM     53 H60  665 L   1      -2.390   5.510 -15.898  1.00  0.00    +0.0278  H
ATOM     54 H61  665 L   1      -3.570   4.348 -15.342  1.00  0.00    +0.0278  H
ATOM     55 H62  665 L   1      -3.267   4.536 -17.052  1.00  0.00    +0.0278  H
ENDBRANCH 38 39
ENDBRANCH 36 38
ENDBRANCH 33 36
ENDBRANCH 26 33
ENDBRANCH 21 23
BRANCH 21 57
ATOM     56  N5  665 L   1       1.116  -6.641  -9.626  1.00  0.00    -0.3600  N
ATOM     57  C9  665 L   1       0.527  -5.710 -10.585  1.00  0.00    +0.0921  C
ATOM     58 H36  665 L   1       0.993  -6.278  -8.680  1.00  0.00    +0.3450 HD
ATOM     59 H37  665 L   1       2.111  -6.747  -9.823  1.00  0.00    +0.3450 HD
ATOM     60 H38  665 L   1       0.656  -7.547  -9.705  1.00  0.00    +0.3450 HD
ATOM     61 H40  665 L   1       1.012  -4.761 -10.489  1.00  0.00    +0.0926  H
ATOM     62 H41  665 L   1      -0.519  -5.631 -10.370  1.00  0.00    +0.0926  H
ENDBRANCH 21 57
ENDBRANCH 19 21
ENDBRANCH 2 18
TORSDOF 8
ENDMDL
MODEL 19
REMARK VINA RESULT:    -5.692      3.643      9.571
REMARK INTER + INTRA:          -9.511
REMARK INTER:                  -8.906
REMARK INTRA:                  -0.605
REMARK UNBOUND:                -1.157
ROOT
ATOM      1  N6  665 L   1      -9.495  -3.400 -12.791  1.00  0.00    -0.2626 NA
ATOM      2 C16  665 L   1      -6.899  -7.722 -13.229  1.00  0.00    +0.0423  A
ATOM      3 C18  665 L   1      -6.580  -6.380 -13.443  1.00  0.00    -0.0305  A
ATOM      4 C19  665 L   1      -7.537  -5.375 -13.231  1.00  0.00    -0.0131  A
ATOM      5 C20  665 L   1      -8.177  -8.078 -12.802  1.00  0.00    -0.0377  A
ATOM      6 C21  665 L   1      -8.830  -5.739 -12.799  1.00  0.00    +0.0004  A
ATOM      7 C22  665 L   1      -9.140  -7.093 -12.587  1.00  0.00    -0.0506  A
ATOM      8 C26  665 L   1      -7.249  -4.020 -13.436  1.00  0.00    -0.0358  A
ATOM      9 C30  665 L   1      -9.756  -4.713 -12.599  1.00  0.00    +0.0353  A
ATOM     10 C33  665 L   1      -8.249  -3.088 -13.206  1.00  0.00    +0.0281  A
ATOM     11 H48  665 L   1      -5.631  -6.124 -13.759  1.00  0.00    +0.0644  H
ATOM     12 H49  665 L   1      -8.410  -9.071 -12.645  1.00  0.00    +0.0638  H
ATOM     13 H50  665 L   1     -10.085  -7.360 -12.271  1.00  0.00    +0.0625  H
ATOM     14 H51  665 L   1      -6.312  -3.723 -13.753  1.00  0.00    +0.0639  H
ATOM     15 H54  665 L   1     -10.703  -4.974 -12.282  1.00  0.00    +0.0836  H
ATOM     16 H59  665 L   1      -8.026  -2.094 -13.359  1.00  0.00    +0.0830  H
ENDROOT
BRANCH 2 18
ATOM     17  O2  665 L   1      -5.829  -9.822 -11.373  1.00  0.00    -0.2720 OA
ATOM     18  N4  665 L   1      -5.936  -8.709 -13.443  1.00  0.00    -0.3255  N
ATOM     19 C10  665 L   1      -5.461  -9.671 -12.535  1.00  0.00    +0.2381  C
ATOM     20 H35  665 L   1      -5.539  -8.735 -14.343  1.00  0.00    +0.1686 HD
BRANCH 19 21
ATOM     21  C7  665 L   1      -4.394 -10.579 -13.165  1.00  0.00    +0.1122  C
ATOM     22 H39  665 L   1      -4.779 -11.017 -14.062  1.00  0.00    +0.0502  H
BRANCH 21 23
ATOM     23  C8  665 L   1      -3.174  -9.762 -13.560  1.00  0.00    -0.0300  A
ATOM     24 C11  665 L   1      -2.401 -10.147 -14.656  1.00  0.00    -0.0573  A
ATOM     25 C12  665 L   1      -2.828  -8.626 -12.827  1.00  0.00    -0.0573  A
ATOM     26 C13  665 L   1      -0.936  -8.262 -14.285  1.00  0.00    -0.0103  A
ATOM     27 C14  665 L   1      -1.282  -9.397 -15.017  1.00  0.00    -0.0551  A
ATOM     28 C15  665 L   1      -1.709  -7.877 -13.189  1.00  0.00    -0.0551  A
ATOM     29 H42  665 L   1      -2.657 -10.987 -15.199  1.00  0.00    +0.0621  H
ATOM     30 H43  665 L   1      -3.400  -8.341 -12.017  1.00  0.00    +0.0621  H
ATOM     31 H44  665 L   1      -0.710  -9.682 -15.829  1.00  0.00    +0.0621  H
ATOM     32 H45  665 L   1      -1.453  -7.037 -12.647  1.00  0.00    +0.0621  H
BRANCH 26 33
ATOM     33 C17  665 L   1       0.261  -7.460 -14.672  1.00  0.00    +0.1179  C
ATOM     34 H46  665 L   1       0.273  -7.326 -15.733  1.00  0.00    +0.0749  H
ATOM     35 H47  665 L   1       0.220  -6.505 -14.192  1.00  0.00    +0.0749  H
BRANCH 33 36
ATOM     36  O1  665 L   1       1.440  -8.146 -14.266  1.00  0.00    -0.4564 OA
BRANCH 36 38
ATOM     37  O3  665 L   1       3.450  -7.792 -13.202  1.00  0.00    -0.2449 OA
ATOM     38 C25  665 L   1       2.371  -7.396 -13.616  1.00  0.00    +0.3398  C
BRANCH 38 39
ATOM     39 C23  665 L   1       1.906  -5.994 -13.466  1.00  0.00    +0.0619  A
ATOM     40 C24  665 L   1       1.273  -5.566 -12.298  1.00  0.00    -0.0362  A
ATOM     41 C27  665 L   1       1.048  -3.349 -13.234  1.00  0.00    -0.0502  A
ATOM     42 C28  665 L   1       0.845  -4.244 -12.182  1.00  0.00    -0.0551  A
ATOM     43 C29  665 L   1       2.109  -5.100 -14.517  1.00  0.00    -0.0473  A
ATOM     44 C31  665 L   1       1.680  -3.778 -14.402  1.00  0.00    -0.0580  A
ATOM     45 C32  665 L   1       1.044  -6.502 -11.157  1.00  0.00    -0.0389  C
ATOM     46 C34  665 L   1       0.589  -1.936 -13.112  1.00  0.00    -0.0397  C
ATOM     47 H52  665 L   1       0.376  -3.927 -11.319  1.00  0.00    +0.0623  H
ATOM     48 H53  665 L   1       2.578  -5.417 -15.380  1.00  0.00    +0.0626  H
ATOM     49 H55  665 L   1       1.831  -3.117 -15.179  1.00  0.00    +0.0620  H
ATOM     50 H56  665 L   1       1.429  -7.469 -11.405  1.00  0.00    +0.0278  H
ATOM     51 H57  665 L   1      -0.006  -6.576 -10.961  1.00  0.00    +0.0278  H
ATOM     52 H58  665 L   1       1.543  -6.132 -10.286  1.00  0.00    +0.0278  H
ATOM     53 H60  665 L   1       0.131  -1.791 -12.156  1.00  0.00    +0.0278  H
ATOM     54 H61  665 L   1      -0.120  -1.723 -13.884  1.00  0.00    +0.0278  H
ATOM     55 H62  665 L   1       1.429  -1.279 -13.207  1.00  0.00    +0.0278  H
ENDBRANCH 38 39
ENDBRANCH 36 38
ENDBRANCH 33 36
ENDBRANCH 26 33
ENDBRANCH 21 23
BRANCH 21 57
ATOM     56  N5  665 L   1      -3.476 -11.269 -10.957  1.00  0.00    -0.3600  N
ATOM     57  C9  665 L   1      -4.052 -11.743 -12.213  1.00  0.00    +0.0921  C
ATOM     58 H36  665 L   1      -3.266 -12.066 -10.357  1.00  0.00    +0.3450 HD
ATOM     59 H37  665 L   1      -4.143 -10.657 -10.488  1.00  0.00    +0.3450 HD
ATOM     60 H38  665 L   1      -2.619 -10.752 -11.151  1.00  0.00    +0.3450 HD
ATOM     61 H40  665 L   1      -4.948 -12.289 -11.999  1.00  0.00    +0.0926  H
ATOM     62 H41  665 L   1      -3.328 -12.366 -12.695  1.00  0.00    +0.0926  H
ENDBRANCH 21 57
ENDBRANCH 19 21
ENDBRANCH 2 18
TORSDOF 8
ENDMDL
MODEL 20
REMARK VINA RESULT:    -5.685      4.287      9.424
REMARK INTER + INTRA:          -9.502
REMARK INTER:                  -7.978
REMARK INTRA:                  -1.523
REMARK UNBOUND:                -1.157
ROOT
ATOM      1  N6  665 L   1      -7.949  -1.265 -15.388  1.00  0.00    -0.2626 NA
ATOM      2 C16  665 L   1      -7.747  -5.927 -13.429  1.00  0.00    +0.0423  A
ATOM      3 C18  665 L   1      -8.338  -5.387 -14.572  1.00  0.00    -0.0305  A
ATOM      4 C19  665 L   1      -8.218  -4.018 -14.860  1.00  0.00    -0.0131  A
ATOM      5 C20  665 L   1      -7.031  -5.109 -12.558  1.00  0.00    -0.0377  A
ATOM      6 C21  665 L   1      -7.493  -3.192 -13.976  1.00  0.00    +0.0004  A
ATOM      7 C22  665 L   1      -6.902  -3.747 -12.827  1.00  0.00    -0.0506  A
ATOM      8 C26  665 L   1      -8.799  -3.446 -15.998  1.00  0.00    -0.0358  A
ATOM      9 C30  665 L   1      -7.396  -1.836 -14.294  1.00  0.00    +0.0353  A
ATOM     10 C33  665 L   1      -8.636  -2.085 -16.211  1.00  0.00    +0.0281  A
ATOM     11 H48  665 L   1      -8.866  -6.000 -15.213  1.00  0.00    +0.0644  H
ATOM     12 H49  665 L   1      -6.595  -5.511 -11.713  1.00  0.00    +0.0638  H
ATOM     13 H50  665 L   1      -6.371  -3.143 -12.181  1.00  0.00    +0.0625  H
ATOM     14 H51  665 L   1      -9.336  -4.024 -16.663  1.00  0.00    +0.0639  H
ATOM     15 H54  665 L   1      -6.865  -1.227 -13.650  1.00  0.00    +0.0836  H
ATOM     16 H59  665 L   1      -9.067  -1.674 -17.052  1.00  0.00    +0.0830  H
ENDROOT
BRANCH 2 18
ATOM     17  O2  665 L   1      -9.906  -7.425 -11.983  1.00  0.00    -0.2720 OA
ATOM     18  N4  665 L   1      -7.873  -7.291 -13.158  1.00  0.00    -0.3255  N
ATOM     19 C10  665 L   1      -8.906  -7.947 -12.467  1.00  0.00    +0.2381  C
ATOM     20 H35  665 L   1      -7.147  -7.865 -13.493  1.00  0.00    +0.1686 HD
BRANCH 19 21
ATOM     21  C7  665 L   1      -8.669  -9.463 -12.383  1.00  0.00    +0.1122  C
ATOM     22 H39  665 L   1      -9.347  -9.969 -13.038  1.00  0.00    +0.0502  H
BRANCH 21 23
ATOM     23  C8  665 L   1      -7.263  -9.803 -12.853  1.00  0.00    -0.0300  A
ATOM     24 C11  665 L   1      -6.221  -9.893 -11.930  1.00  0.00    -0.0573  A
ATOM     25 C12  665 L   1      -7.016 -10.025 -14.208  1.00  0.00    -0.0573  A
ATOM     26 C13  665 L   1      -4.685 -10.426 -13.715  1.00  0.00    -0.0103  A
ATOM     27 C14  665 L   1      -4.932 -10.204 -12.362  1.00  0.00    -0.0551  A
ATOM     28 C15  665 L   1      -5.726 -10.335 -14.639  1.00  0.00    -0.0551  A
ATOM     29 H42  665 L   1      -6.404  -9.729 -10.927  1.00  0.00    +0.0621  H
ATOM     30 H43  665 L   1      -7.787  -9.958 -14.891  1.00  0.00    +0.0621  H
ATOM     31 H44  665 L   1      -4.161 -10.270 -11.678  1.00  0.00    +0.0621  H
ATOM     32 H45  665 L   1      -5.543 -10.499 -15.642  1.00  0.00    +0.0621  H
BRANCH 26 33
ATOM     33 C17  665 L   1      -3.306 -10.759 -14.177  1.00  0.00    +0.1179  C
ATOM     34 H46  665 L   1      -3.056 -11.752 -13.868  1.00  0.00    +0.0749  H
ATOM     35 H47  665 L   1      -3.262 -10.696 -15.245  1.00  0.00    +0.0749  H
BRANCH 33 36
ATOM     36  O1  665 L   1      -2.382  -9.837 -13.610  1.00  0.00    -0.4564 OA
BRANCH 36 38
ATOM     37  O3  665 L   1      -2.686  -8.373 -15.360  1.00  0.00    -0.2449 OA
ATOM     38 C25  665 L   1      -2.274  -8.636 -14.241  1.00  0.00    +0.3398  C
BRANCH 38 39
ATOM     39 C23  665 L   1      -1.569  -7.652 -13.380  1.00  0.00    +0.0619  A
ATOM     40 C24  665 L   1      -2.277  -6.810 -12.520  1.00  0.00    -0.0362  A
ATOM     41 C27  665 L   1      -0.199  -5.819 -11.785  1.00  0.00    -0.0502  A
ATOM     42 C28  665 L   1      -1.591  -5.895 -11.723  1.00  0.00    -0.0551  A
ATOM     43 C29  665 L   1      -0.178  -7.577 -13.443  1.00  0.00    -0.0473  A
ATOM     44 C31  665 L   1       0.508  -6.660 -12.645  1.00  0.00    -0.0580  A
ATOM     45 C32  665 L   1      -3.766  -6.871 -12.433  1.00  0.00    -0.0389  C
ATOM     46 C34  665 L   1       0.535  -4.839 -10.934  1.00  0.00    -0.0397  C
ATOM     47 H52  665 L   1      -2.113  -5.271 -11.086  1.00  0.00    +0.0623  H
ATOM     48 H53  665 L   1       0.344  -8.199 -14.078  1.00  0.00    +0.0626  H
ATOM     49 H55  665 L   1       1.537  -6.605 -12.692  1.00  0.00    +0.0620  H
ATOM     50 H56  665 L   1      -4.133  -7.621 -13.103  1.00  0.00    +0.0278  H
ATOM     51 H57  665 L   1      -4.178  -5.921 -12.700  1.00  0.00    +0.0278  H
ATOM     52 H58  665 L   1      -4.056  -7.115 -11.432  1.00  0.00    +0.0278  H
ATOM     53 H60  665 L   1      -0.164  -4.285 -10.344  1.00  0.00    +0.0278  H
ATOM     54 H61  665 L   1       1.087  -4.168 -11.557  1.00  0.00    +0.0278  H
ATOM     55 H62  665 L   1       1.209  -5.362 -10.288  1.00  0.00    +0.0278  H
ENDBRANCH 38 39
ENDBRANCH 36 38
ENDBRANCH 33 36
ENDBRANCH 26 33
ENDBRANCH 21 23
BRANCH 21 57
ATOM     56  N5  665 L   1      -9.874 -11.114 -10.965  1.00  0.00    -0.3600  N
ATOM     57  C9  665 L   1      -8.964  -9.972 -10.957  1.00  0.00    +0.0921  C
ATOM     58 H36  665 L   1     -10.043 -11.421 -10.007  1.00  0.00    +0.3450 HD
ATOM     59 H37  665 L   1      -9.457 -11.877 -11.497  1.00  0.00    +0.3450 HD
ATOM     60 H38  665 L   1     -10.757 -10.842 -11.396  1.00  0.00    +0.3450 HD
ATOM     61 H40  665 L   1      -8.043 -10.265 -10.498  1.00  0.00    +0.0926  H
ATOM     62 H41  665 L   1      -9.431  -9.179 -10.411  1.00  0.00    +0.0926  H
ENDBRANCH 21 57
ENDBRANCH 19 21
ENDBRANCH 2 18
TORSDOF 8
ENDMDL
