MODEL 1
REMARK VINA RESULT:    -8.079      0.000      0.000
REMARK INTER + INTRA:         -13.005
REMARK INTER:                 -11.858
REMARK INTRA:                  -1.147
REMARK UNBOUND:                -1.147
ROOT
ATOM      1  N6  665 L   1       6.513  -5.565 -15.045  1.00  0.00    -0.2626 NA
ATOM      2 C16  665 L   1       2.085  -5.642 -12.595  1.00  0.00    +0.0423  A
ATOM      3 C18  665 L   1       3.279  -6.351 -12.451  1.00  0.00    -0.0305  A
ATOM      4 C19  665 L   1       4.366  -6.103 -13.304  1.00  0.00    -0.0131  A
ATOM      5 C20  665 L   1       1.960  -4.678 -13.592  1.00  0.00    -0.0377  A
ATOM      6 C21  665 L   1       4.235  -5.126 -14.314  1.00  0.00    +0.0004  A
ATOM      7 C22  665 L   1       3.029  -4.418 -14.449  1.00  0.00    -0.0506  A
ATOM      8 C26  665 L   1       5.576  -6.797 -13.186  1.00  0.00    -0.0358  A
ATOM      9 C30  665 L   1       5.336  -4.906 -15.144  1.00  0.00    +0.0353  A
ATOM     10 C33  665 L   1       6.601  -6.494 -14.068  1.00  0.00    +0.0281  A
ATOM     11 H48  665 L   1       3.364  -7.064 -11.709  1.00  0.00    +0.0644  H
ATOM     12 H49  665 L   1       1.076  -4.156 -13.696  1.00  0.00    +0.0638  H
ATOM     13 H50  665 L   1       2.933  -3.703 -15.187  1.00  0.00    +0.0625  H
ATOM     14 H51  665 L   1       5.701  -7.517 -12.458  1.00  0.00    +0.0639  H
ATOM     15 H54  665 L   1       5.246  -4.192 -15.884  1.00  0.00    +0.0836  H
ATOM     16 H59  665 L   1       7.488  -7.010 -13.972  1.00  0.00    +0.0830  H
ENDROOT
BRANCH 2 18
ATOM     17  O2  665 L   1      -0.045  -7.749 -12.731  1.00  0.00    -0.2720 OA
ATOM     18  N4  665 L   1       1.014  -5.900 -11.736  1.00  0.00    -0.3255  N
ATOM     19 C10  665 L   1       0.034  -6.900 -11.846  1.00  0.00    +0.2381  C
ATOM     20 H35  665 L   1       0.937  -5.306 -10.956  1.00  0.00    +0.1686 HD
BRANCH 19 21
ATOM     21  C7  665 L   1      -0.976  -6.846 -10.690  1.00  0.00    +0.1122  C
ATOM     22 H39  665 L   1      -0.799  -5.972 -10.099  1.00  0.00    +0.0502  H
BRANCH 21 23
ATOM     23  C8  665 L   1      -2.391  -6.733 -11.233  1.00  0.00    -0.0300  A
ATOM     24 C11  665 L   1      -2.917  -5.481 -11.557  1.00  0.00    -0.0573  A
ATOM     25 C12  665 L   1      -3.166  -7.881 -11.408  1.00  0.00    -0.0573  A
ATOM     26 C13  665 L   1      -4.989  -6.525 -12.229  1.00  0.00    -0.0103  A
ATOM     27 C14  665 L   1      -4.216  -5.378 -12.054  1.00  0.00    -0.0551  A
ATOM     28 C15  665 L   1      -4.465  -7.776 -11.905  1.00  0.00    -0.0551  A
ATOM     29 H42  665 L   1      -2.344  -4.632 -11.428  1.00  0.00    +0.0621  H
ATOM     30 H43  665 L   1      -2.777  -8.806 -11.169  1.00  0.00    +0.0621  H
ATOM     31 H44  665 L   1      -4.605  -4.452 -12.294  1.00  0.00    +0.0621  H
ATOM     32 H45  665 L   1      -5.037  -8.626 -12.034  1.00  0.00    +0.0621  H
BRANCH 26 33
ATOM     33 C17  665 L   1      -6.379  -6.414 -12.761  1.00  0.00    +0.1179  C
ATOM     34 H46  665 L   1      -6.372  -6.590 -13.816  1.00  0.00    +0.0749  H
ATOM     35 H47  665 L   1      -7.003  -7.140 -12.283  1.00  0.00    +0.0749  H
BRANCH 33 36
ATOM     36  O1  665 L   1      -6.882  -5.109 -12.499  1.00  0.00    -0.4564 OA
BRANCH 36 38
ATOM     37  O3  665 L   1      -9.021  -5.361 -13.309  1.00  0.00    -0.2449 OA
ATOM     38 C25  665 L   1      -7.976  -4.737 -13.217  1.00  0.00    +0.3398  C
BRANCH 38 39
ATOM     39 C23  665 L   1      -7.739  -3.439 -13.900  1.00  0.00    +0.0619  A
ATOM     40 C24  665 L   1      -7.259  -3.390 -15.209  1.00  0.00    -0.0362  A
ATOM     41 C27  665 L   1      -7.310  -0.975 -15.136  1.00  0.00    -0.0502  A
ATOM     42 C28  665 L   1      -7.045  -2.158 -15.826  1.00  0.00    -0.0551  A
ATOM     43 C29  665 L   1      -8.004  -2.257 -13.209  1.00  0.00    -0.0473  A
ATOM     44 C31  665 L   1      -7.789  -1.024 -13.826  1.00  0.00    -0.0580  A
ATOM     45 C32  665 L   1      -6.968  -4.641 -15.972  1.00  0.00    -0.0389  C
ATOM     46 C34  665 L   1      -7.080   0.343 -15.795  1.00  0.00    -0.0397  C
ATOM     47 H52  665 L   1      -6.689  -2.121 -16.795  1.00  0.00    +0.0623  H
ATOM     48 H53  665 L   1      -8.360  -2.294 -12.241  1.00  0.00    +0.0626  H
ATOM     49 H55  665 L   1      -7.986  -0.150 -13.315  1.00  0.00    +0.0620  H
ATOM     50 H56  665 L   1      -7.185  -5.491 -15.359  1.00  0.00    +0.0278  H
ATOM     51 H57  665 L   1      -5.935  -4.656 -16.251  1.00  0.00    +0.0278  H
ATOM     52 H58  665 L   1      -7.575  -4.671 -16.852  1.00  0.00    +0.0278  H
ATOM     53 H60  665 L   1      -6.715   0.186 -16.788  1.00  0.00    +0.0278  H
ATOM     54 H61  665 L   1      -6.361   0.902 -15.233  1.00  0.00    +0.0278  H
ATOM     55 H62  665 L   1      -8.001   0.886 -15.836  1.00  0.00    +0.0278  H
ENDBRANCH 38 39
ENDBRANCH 36 38
ENDBRANCH 33 36
ENDBRANCH 26 33
ENDBRANCH 21 23
BRANCH 21 57
ATOM     56  N5  665 L   1       0.533  -8.066  -9.134  1.00  0.00    -0.3600  N
ATOM     57  C9  665 L   1      -0.787  -8.060  -9.758  1.00  0.00    +0.0921  C
ATOM     58 H36  665 L   1       0.618  -8.881  -8.526  1.00  0.00    +0.3450 HD
ATOM     59 H37  665 L   1       0.652  -7.217  -8.582  1.00  0.00    +0.3450 HD
ATOM     60 H38  665 L   1       1.251  -8.104  -9.857  1.00  0.00    +0.3450 HD
ATOM     61 H40  665 L   1      -1.533  -8.026  -8.991  1.00  0.00    +0.0926  H
ATOM     62 H41  665 L   1      -0.880  -8.949 -10.346  1.00  0.00    +0.0926  H
ENDBRANCH 21 57
ENDBRANCH 19 21
ENDBRANCH 2 18
TORSDOF 8
ENDMDL
MODEL 2
REMARK VINA RESULT:    -7.677      3.313      5.420
REMARK INTER + INTRA:         -12.414
REMARK INTER:                 -11.614
REMARK INTRA:                  -0.800
REMARK UNBOUND:                -1.147
ROOT
ATOM      1  N6  665 L   1      -0.420   1.839 -14.945  1.00  0.00    -0.2626 NA
ATOM      2 C16  665 L   1       0.948  -2.896 -13.797  1.00  0.00    +0.0423  A
ATOM      3 C18  665 L   1       0.811  -1.725 -13.050  1.00  0.00    -0.0305  A
ATOM      4 C19  665 L   1       0.402  -0.530 -13.664  1.00  0.00    -0.0131  A
ATOM      5 C20  665 L   1       0.679  -2.890 -15.164  1.00  0.00    -0.0377  A
ATOM      6 C21  665 L   1       0.131  -0.528 -15.048  1.00  0.00    +0.0004  A
ATOM      7 C22  665 L   1       0.273  -1.713 -15.790  1.00  0.00    -0.0506  A
ATOM      8 C26  665 L   1       0.256   0.661 -12.943  1.00  0.00    -0.0358  A
ATOM      9 C30  665 L   1      -0.272   0.679 -15.624  1.00  0.00    +0.0353  A
ATOM     10 C33  665 L   1      -0.152   1.799 -13.622  1.00  0.00    +0.0281  A
ATOM     11 H48  665 L   1       1.011  -1.737 -12.038  1.00  0.00    +0.0644  H
ATOM     12 H49  665 L   1       0.782  -3.758 -15.713  1.00  0.00    +0.0638  H
ATOM     13 H50  665 L   1       0.075  -1.711 -16.802  1.00  0.00    +0.0625  H
ATOM     14 H51  665 L   1       0.447   0.691 -11.930  1.00  0.00    +0.0639  H
ATOM     15 H54  665 L   1      -0.472   0.685 -16.637  1.00  0.00    +0.0836  H
ATOM     16 H59  665 L   1      -0.257   2.671 -13.082  1.00  0.00    +0.0830  H
ENDROOT
BRANCH 2 18
ATOM     17  O2  665 L   1       3.534  -4.403 -13.990  1.00  0.00    -0.2720 OA
ATOM     18  N4  665 L   1       1.354  -4.077 -13.171  1.00  0.00    -0.3255  N
ATOM     19 C10  665 L   1       2.579  -4.751 -13.300  1.00  0.00    +0.2381  C
ATOM     20 H35  665 L   1       0.698  -4.489 -12.564  1.00  0.00    +0.1686 HD
BRANCH 19 21
ATOM     21  C7  665 L   1       2.631  -6.022 -12.439  1.00  0.00    +0.1122  C
ATOM     22 H39  665 L   1       3.035  -5.788 -11.476  1.00  0.00    +0.0502  H
BRANCH 21 23
ATOM     23  C8  665 L   1       1.226  -6.559 -12.209  1.00  0.00    -0.0300  A
ATOM     24 C11  665 L   1       0.648  -6.482 -10.942  1.00  0.00    -0.0573  A
ATOM     25 C12  665 L   1       0.516  -7.128 -13.267  1.00  0.00    -0.0573  A
ATOM     26 C13  665 L   1      -1.349  -7.544 -11.788  1.00  0.00    -0.0103  A
ATOM     27 C14  665 L   1      -0.639  -6.975 -10.732  1.00  0.00    -0.0551  A
ATOM     28 C15  665 L   1      -0.772  -7.621 -13.055  1.00  0.00    -0.0551  A
ATOM     29 H42  665 L   1       1.174  -6.060 -10.159  1.00  0.00    +0.0621  H
ATOM     30 H43  665 L   1       0.943  -7.185 -14.204  1.00  0.00    +0.0621  H
ATOM     31 H44  665 L   1      -1.067  -6.918  -9.793  1.00  0.00    +0.0621  H
ATOM     32 H45  665 L   1      -1.297  -8.043 -13.838  1.00  0.00    +0.0621  H
BRANCH 26 33
ATOM     33 C17  665 L   1      -2.727  -8.071 -11.564  1.00  0.00    +0.1179  C
ATOM     34 H46  665 L   1      -2.918  -8.872 -12.246  1.00  0.00    +0.0749  H
ATOM     35 H47  665 L   1      -2.812  -8.430 -10.559  1.00  0.00    +0.0749  H
BRANCH 33 36
ATOM     36  O1  665 L   1      -3.672  -7.028 -11.776  1.00  0.00    -0.4564 OA
BRANCH 36 38
ATOM     37  O3  665 L   1      -3.890  -7.485 -14.022  1.00  0.00    -0.2449 OA
ATOM     38 C25  665 L   1      -4.330  -7.053 -12.967  1.00  0.00    +0.3398  C
BRANCH 38 39
ATOM     39 C23  665 L   1      -5.690  -6.474 -12.828  1.00  0.00    +0.0619  A
ATOM     40 C24  665 L   1      -6.828  -7.276 -12.927  1.00  0.00    -0.0362  A
ATOM     41 C27  665 L   1      -8.224  -5.337 -12.561  1.00  0.00    -0.0502  A
ATOM     42 C28  665 L   1      -8.094  -6.706 -12.793  1.00  0.00    -0.0551  A
ATOM     43 C29  665 L   1      -5.819  -5.105 -12.596  1.00  0.00    -0.0473  A
ATOM     44 C31  665 L   1      -7.085  -4.536 -12.463  1.00  0.00    -0.0580  A
ATOM     45 C32  665 L   1      -6.719  -8.745 -13.173  1.00  0.00    -0.0389  C
ATOM     46 C34  665 L   1      -9.577  -4.727 -12.419  1.00  0.00    -0.0397  C
ATOM     47 H52  665 L   1      -8.937  -7.299 -12.866  1.00  0.00    +0.0623  H
ATOM     48 H53  665 L   1      -4.977  -4.513 -12.522  1.00  0.00    +0.0626  H
ATOM     49 H55  665 L   1      -7.180  -3.523 -12.291  1.00  0.00    +0.0620  H
ATOM     50 H56  665 L   1      -5.687  -9.018 -13.250  1.00  0.00    +0.0278  H
ATOM     51 H57  665 L   1      -7.222  -8.992 -14.084  1.00  0.00    +0.0278  H
ATOM     52 H58  665 L   1      -7.170  -9.277 -12.362  1.00  0.00    +0.0278  H
ATOM     53 H60  665 L   1     -10.323  -5.487 -12.521  1.00  0.00    +0.0278  H
ATOM     54 H61  665 L   1      -9.716  -3.985 -13.177  1.00  0.00    +0.0278  H
ATOM     55 H62  665 L   1      -9.663  -4.272 -11.454  1.00  0.00    +0.0278  H
ENDBRANCH 38 39
ENDBRANCH 36 38
ENDBRANCH 33 36
ENDBRANCH 26 33
ENDBRANCH 21 23
BRANCH 21 57
ATOM     56  N5  665 L   1       4.922  -6.987 -12.522  1.00  0.00    -0.3600  N
ATOM     57  C9  665 L   1       3.573  -7.063 -13.076  1.00  0.00    +0.0921  C
ATOM     58 H36  665 L   1       5.513  -7.690 -12.967  1.00  0.00    +0.3450 HD
ATOM     59 H37  665 L   1       4.887  -7.161 -11.518  1.00  0.00    +0.3450 HD
ATOM     60 H38  665 L   1       5.308  -6.059 -12.693  1.00  0.00    +0.3450 HD
ATOM     61 H40  665 L   1       3.179  -8.042 -12.897  1.00  0.00    +0.0926  H
ATOM     62 H41  665 L   1       3.634  -6.859 -14.125  1.00  0.00    +0.0926  H
ENDBRANCH 21 57
ENDBRANCH 19 21
ENDBRANCH 2 18
TORSDOF 8
ENDMDL
MODEL 3
REMARK VINA RESULT:    -7.433      1.374      2.046
REMARK INTER + INTRA:         -12.056
REMARK INTER:                 -10.424
REMARK INTRA:                  -1.632
REMARK UNBOUND:                -1.147
ROOT
ATOM      1  N6  665 L   1       5.921  -4.746 -15.923  1.00  0.00    -0.2626 NA
ATOM      2 C16  665 L   1       1.531  -5.473 -13.515  1.00  0.00    +0.0423  A
ATOM      3 C18  665 L   1       2.866  -5.686 -13.169  1.00  0.00    -0.0305  A
ATOM      4 C19  665 L   1       3.896  -5.378 -14.073  1.00  0.00    -0.0131  A
ATOM      5 C20  665 L   1       1.206  -4.953 -14.765  1.00  0.00    -0.0377  A
ATOM      6 C21  665 L   1       3.563  -4.852 -15.339  1.00  0.00    +0.0004  A
ATOM      7 C22  665 L   1       2.215  -4.643 -15.676  1.00  0.00    -0.0506  A
ATOM      8 C26  665 L   1       5.245  -5.580 -13.756  1.00  0.00    -0.0358  A
ATOM      9 C30  665 L   1       4.613  -4.560 -16.211  1.00  0.00    +0.0353  A
ATOM     10 C33  665 L   1       6.202  -5.252 -14.704  1.00  0.00    +0.0281  A
ATOM     11 H48  665 L   1       3.099  -6.071 -12.240  1.00  0.00    +0.0644  H
ATOM     12 H49  665 L   1       0.217  -4.798 -15.018  1.00  0.00    +0.0638  H
ATOM     13 H50  665 L   1       1.972  -4.258 -16.601  1.00  0.00    +0.0625  H
ATOM     14 H51  665 L   1       5.519  -5.964 -12.839  1.00  0.00    +0.0639  H
ATOM     15 H54  665 L   1       4.375  -4.173 -17.138  1.00  0.00    +0.0836  H
ATOM     16 H59  665 L   1       7.193  -5.403 -14.461  1.00  0.00    +0.0830  H
ENDROOT
BRANCH 2 18
ATOM     17  O2  665 L   1       0.520  -8.134 -12.568  1.00  0.00    -0.2720 OA
ATOM     18  N4  665 L   1       0.518  -5.782 -12.604  1.00  0.00    -0.3255  N
ATOM     19 C10  665 L   1       0.074  -7.051 -12.196  1.00  0.00    +0.2381  C
ATOM     20 H35  665 L   1       0.057  -5.014 -12.197  1.00  0.00    +0.1686 HD
BRANCH 19 21
ATOM     21  C7  665 L   1      -1.068  -6.960 -11.173  1.00  0.00    +0.1122  C
ATOM     22 H39  665 L   1      -1.211  -5.940 -10.884  1.00  0.00    +0.0502  H
BRANCH 21 23
ATOM     23  C8  665 L   1      -2.372  -7.429 -11.798  1.00  0.00    -0.0300  A
ATOM     24 C11  665 L   1      -3.386  -7.947 -10.992  1.00  0.00    -0.0573  A
ATOM     25 C12  665 L   1      -2.555  -7.342 -13.179  1.00  0.00    -0.0573  A
ATOM     26 C13  665 L   1      -4.765  -8.290 -12.945  1.00  0.00    -0.0103  A
ATOM     27 C14  665 L   1      -4.582  -8.378 -11.566  1.00  0.00    -0.0551  A
ATOM     28 C15  665 L   1      -3.751  -7.773 -13.752  1.00  0.00    -0.0551  A
ATOM     29 H42  665 L   1      -3.251  -8.011  -9.970  1.00  0.00    +0.0621  H
ATOM     30 H43  665 L   1      -1.805  -6.959 -13.775  1.00  0.00    +0.0621  H
ATOM     31 H44  665 L   1      -5.333  -8.761 -10.968  1.00  0.00    +0.0621  H
ATOM     32 H45  665 L   1      -3.886  -7.708 -14.773  1.00  0.00    +0.0621  H
BRANCH 26 33
ATOM     33 C17  665 L   1      -6.044  -8.750 -13.559  1.00  0.00    +0.1179  C
ATOM     34 H46  665 L   1      -5.832  -9.426 -14.361  1.00  0.00    +0.0749  H
ATOM     35 H47  665 L   1      -6.636  -9.248 -12.820  1.00  0.00    +0.0749  H
BRANCH 33 36
ATOM     36  O1  665 L   1      -6.759  -7.626 -14.061  1.00  0.00    -0.4564 OA
BRANCH 36 38
ATOM     37  O3  665 L   1      -8.217  -7.568 -12.281  1.00  0.00    -0.2449 OA
ATOM     38 C25  665 L   1      -7.606  -7.020 -13.186  1.00  0.00    +0.3398  C
BRANCH 38 39
ATOM     39 C23  665 L   1      -7.705  -5.566 -13.472  1.00  0.00    +0.0619  A
ATOM     40 C24  665 L   1      -6.805  -4.659 -12.912  1.00  0.00    -0.0362  A
ATOM     41 C27  665 L   1      -7.934  -2.844 -14.040  1.00  0.00    -0.0502  A
ATOM     42 C28  665 L   1      -6.920  -3.298 -13.197  1.00  0.00    -0.0551  A
ATOM     43 C29  665 L   1      -8.720  -5.113 -14.315  1.00  0.00    -0.0473  A
ATOM     44 C31  665 L   1      -8.835  -3.752 -14.599  1.00  0.00    -0.0580  A
ATOM     45 C32  665 L   1      -5.708  -5.117 -12.008  1.00  0.00    -0.0389  C
ATOM     46 C34  665 L   1      -8.059  -1.390 -14.344  1.00  0.00    -0.0397  C
ATOM     47 H52  665 L   1      -6.254  -2.626 -12.783  1.00  0.00    +0.0623  H
ATOM     48 H53  665 L   1      -9.384  -5.784 -14.729  1.00  0.00    +0.0626  H
ATOM     49 H55  665 L   1      -9.585  -3.417 -15.223  1.00  0.00    +0.0620  H
ATOM     50 H56  665 L   1      -5.760  -6.180 -11.894  1.00  0.00    +0.0278  H
ATOM     51 H57  665 L   1      -5.817  -4.651 -11.051  1.00  0.00    +0.0278  H
ATOM     52 H58  665 L   1      -4.762  -4.849 -12.428  1.00  0.00    +0.0278  H
ATOM     53 H60  665 L   1      -7.289  -0.851 -13.833  1.00  0.00    +0.0278  H
ATOM     54 H61  665 L   1      -9.016  -1.038 -14.021  1.00  0.00    +0.0278  H
ATOM     55 H62  665 L   1      -7.960  -1.236 -15.399  1.00  0.00    +0.0278  H
ENDBRANCH 38 39
ENDBRANCH 36 38
ENDBRANCH 33 36
ENDBRANCH 26 33
ENDBRANCH 21 23
BRANCH 21 57
ATOM     56  N5  665 L   1       0.688  -7.524  -9.503  1.00  0.00    -0.3600  N
ATOM     57  C9  665 L   1      -0.703  -7.738  -9.892  1.00  0.00    +0.0921  C
ATOM     58 H36  665 L   1       0.889  -8.052  -8.654  1.00  0.00    +0.3450 HD
ATOM     59 H37  665 L   1       0.843  -6.531  -9.329  1.00  0.00    +0.3450 HD
ATOM     60 H38  665 L   1       1.304  -7.837 -10.254  1.00  0.00    +0.3450 HD
ATOM     61 H40  665 L   1      -1.340  -7.412  -9.096  1.00  0.00    +0.0926  H
ATOM     62 H41  665 L   1      -0.835  -8.781 -10.088  1.00  0.00    +0.0926  H
ENDBRANCH 21 57
ENDBRANCH 19 21
ENDBRANCH 2 18
TORSDOF 8
ENDMDL
MODEL 4
REMARK VINA RESULT:    -7.397      2.117      3.280
REMARK INTER + INTRA:         -12.003
REMARK INTER:                 -10.349
REMARK INTRA:                  -1.654
REMARK UNBOUND:                -1.147
ROOT
ATOM      1  N6  665 L   1       6.961  -6.652 -14.310  1.00  0.00    -0.2626 NA
ATOM      2 C16  665 L   1       2.024  -6.436 -13.218  1.00  0.00    +0.0423  A
ATOM      3 C18  665 L   1       2.935  -5.521 -13.749  1.00  0.00    -0.0305  A
ATOM      4 C19  665 L   1       4.278  -5.880 -13.943  1.00  0.00    -0.0131  A
ATOM      5 C20  665 L   1       2.442  -7.719 -12.874  1.00  0.00    -0.0377  A
ATOM      6 C21  665 L   1       4.698  -7.181 -13.593  1.00  0.00    +0.0004  A
ATOM      7 C22  665 L   1       3.773  -8.093 -13.059  1.00  0.00    -0.0506  A
ATOM      8 C26  665 L   1       5.216  -4.986 -14.473  1.00  0.00    -0.0358  A
ATOM      9 C30  665 L   1       6.041  -7.501 -13.799  1.00  0.00    +0.0353  A
ATOM     10 C33  665 L   1       6.524  -5.416 -14.633  1.00  0.00    +0.0281  A
ATOM     11 H48  665 L   1       2.618  -4.572 -14.002  1.00  0.00    +0.0644  H
ATOM     12 H49  665 L   1       1.767  -8.394 -12.481  1.00  0.00    +0.0638  H
ATOM     13 H50  665 L   1       4.080  -9.044 -12.802  1.00  0.00    +0.0625  H
ATOM     14 H51  665 L   1       4.939  -4.028 -14.739  1.00  0.00    +0.0639  H
ATOM     15 H54  665 L   1       6.353  -8.452 -13.544  1.00  0.00    +0.0836  H
ATOM     16 H59  665 L   1       7.206  -4.750 -15.025  1.00  0.00    +0.0830  H
ENDROOT
BRANCH 2 18
ATOM     17  O2  665 L   1       0.177  -6.928 -10.907  1.00  0.00    -0.2720 OA
ATOM     18  N4  665 L   1       0.691  -6.064 -13.033  1.00  0.00    -0.3255  N
ATOM     19 C10  665 L   1      -0.138  -6.325 -11.930  1.00  0.00    +0.2381  C
ATOM     20 H35  665 L   1       0.281  -5.555 -13.769  1.00  0.00    +0.1686 HD
BRANCH 19 21
ATOM     21  C7  665 L   1      -1.547  -5.742 -12.118  1.00  0.00    +0.1122  C
ATOM     22 H39  665 L   1      -1.610  -5.255 -13.068  1.00  0.00    +0.0502  H
BRANCH 21 23
ATOM     23  C8  665 L   1      -2.581  -6.856 -12.123  1.00  0.00    -0.0300  A
ATOM     24 C11  665 L   1      -2.591  -7.794 -13.155  1.00  0.00    -0.0573  A
ATOM     25 C12  665 L   1      -3.520  -6.941 -11.094  1.00  0.00    -0.0573  A
ATOM     26 C13  665 L   1      -4.479  -8.900 -12.132  1.00  0.00    -0.0103  A
ATOM     27 C14  665 L   1      -3.541  -8.816 -13.160  1.00  0.00    -0.0551  A
ATOM     28 C15  665 L   1      -4.470  -7.963 -11.100  1.00  0.00    -0.0551  A
ATOM     29 H42  665 L   1      -1.897  -7.732 -13.917  1.00  0.00    +0.0621  H
ATOM     30 H43  665 L   1      -3.512  -6.247 -10.330  1.00  0.00    +0.0621  H
ATOM     31 H44  665 L   1      -3.549  -9.510 -13.925  1.00  0.00    +0.0621  H
ATOM     32 H45  665 L   1      -5.164  -8.025 -10.338  1.00  0.00    +0.0621  H
BRANCH 26 33
ATOM     33 C17  665 L   1      -5.495  -9.993 -12.137  1.00  0.00    +0.1179  C
ATOM     34 H46  665 L   1      -5.353 -10.609 -13.000  1.00  0.00    +0.0749  H
ATOM     35 H47  665 L   1      -5.385 -10.586 -11.253  1.00  0.00    +0.0749  H
BRANCH 33 36
ATOM     36  O1  665 L   1      -6.799  -9.425 -12.168  1.00  0.00    -0.4564 OA
BRANCH 36 38
ATOM     37  O3  665 L   1      -7.442  -9.611 -14.370  1.00  0.00    -0.2449 OA
ATOM     38 C25  665 L   1      -7.212  -8.945 -13.372  1.00  0.00    +0.3398  C
BRANCH 38 39
ATOM     39 C23  665 L   1      -7.354  -7.467 -13.328  1.00  0.00    +0.0619  A
ATOM     40 C24  665 L   1      -8.460  -6.867 -12.726  1.00  0.00    -0.0362  A
ATOM     41 C27  665 L   1      -7.572  -4.687 -13.274  1.00  0.00    -0.0502  A
ATOM     42 C28  665 L   1      -8.568  -5.476 -12.699  1.00  0.00    -0.0551  A
ATOM     43 C29  665 L   1      -6.358  -6.678 -13.904  1.00  0.00    -0.0473  A
ATOM     44 C31  665 L   1      -6.467  -5.288 -13.877  1.00  0.00    -0.0580  A
ATOM     45 C32  665 L   1      -9.540  -7.688 -12.101  1.00  0.00    -0.0389  C
ATOM     46 C34  665 L   1      -7.688  -3.200 -13.247  1.00  0.00    -0.0397  C
ATOM     47 H52  665 L   1      -9.387  -5.031 -12.253  1.00  0.00    +0.0623  H
ATOM     48 H53  665 L   1      -5.540  -7.123 -14.348  1.00  0.00    +0.0626  H
ATOM     49 H55  665 L   1      -5.730  -4.704 -14.303  1.00  0.00    +0.0620  H
ATOM     50 H56  665 L   1      -9.304  -8.727 -12.207  1.00  0.00    +0.0278  H
ATOM     51 H57  665 L   1     -10.470  -7.482 -12.587  1.00  0.00    +0.0278  H
ATOM     52 H58  665 L   1      -9.618  -7.444 -11.063  1.00  0.00    +0.0278  H
ATOM     53 H60  665 L   1      -8.593  -2.922 -12.748  1.00  0.00    +0.0278  H
ATOM     54 H61  665 L   1      -7.703  -2.825 -14.248  1.00  0.00    +0.0278  H
ATOM     55 H62  665 L   1      -6.851  -2.787 -12.723  1.00  0.00    +0.0278  H
ENDBRANCH 38 39
ENDBRANCH 36 38
ENDBRANCH 33 36
ENDBRANCH 26 33
ENDBRANCH 21 23
BRANCH 21 57
ATOM     56  N5  665 L   1      -0.625  -4.317 -10.298  1.00  0.00    -0.3600  N
ATOM     57  C9  665 L   1      -1.828  -4.667 -11.048  1.00  0.00    +0.0921  C
ATOM     58 H36  665 L   1      -0.852  -3.605  -9.604  1.00  0.00    +0.3450 HD
ATOM     59 H37  665 L   1       0.080  -3.953 -10.939  1.00  0.00    +0.3450 HD
ATOM     60 H38  665 L   1      -0.262  -5.147  -9.830  1.00  0.00    +0.3450 HD
ATOM     61 H40  665 L   1      -2.204  -3.789 -11.530  1.00  0.00    +0.0926  H
ATOM     62 H41  665 L   1      -2.544  -5.064 -10.359  1.00  0.00    +0.0926  H
ENDBRANCH 21 57
ENDBRANCH 19 21
ENDBRANCH 2 18
TORSDOF 8
ENDMDL
MODEL 5
REMARK VINA RESULT:    -7.341      4.029      6.638
REMARK INTER + INTRA:         -11.922
REMARK INTER:                 -11.235
REMARK INTRA:                  -0.687
REMARK UNBOUND:                -1.147
ROOT
ATOM      1  N6  665 L   1      -0.384   1.758 -14.888  1.00  0.00    -0.2626 NA
ATOM      2 C16  665 L   1       0.982  -3.020 -13.937  1.00  0.00    +0.0423  A
ATOM      3 C18  665 L   1       0.848  -1.880 -13.142  1.00  0.00    -0.0305  A
ATOM      4 C19  665 L   1       0.438  -0.661 -13.706  1.00  0.00    -0.0131  A
ATOM      5 C20  665 L   1       0.712  -2.958 -15.302  1.00  0.00    -0.0377  A
ATOM      6 C21  665 L   1       0.166  -0.602 -15.089  1.00  0.00    +0.0004  A
ATOM      7 C22  665 L   1       0.306  -1.756 -15.879  1.00  0.00    -0.0506  A
ATOM      8 C26  665 L   1       0.293   0.500 -12.937  1.00  0.00    -0.0358  A
ATOM      9 C30  665 L   1      -0.238   0.627 -15.614  1.00  0.00    +0.0353  A
ATOM     10 C33  665 L   1      -0.114   1.665 -13.568  1.00  0.00    +0.0281  A
ATOM     11 H48  665 L   1       1.049  -1.934 -12.132  1.00  0.00    +0.0644  H
ATOM     12 H49  665 L   1       0.814  -3.803 -15.886  1.00  0.00    +0.0638  H
ATOM     13 H50  665 L   1       0.106  -1.713 -16.890  1.00  0.00    +0.0625  H
ATOM     14 H51  665 L   1       0.486   0.488 -11.923  1.00  0.00    +0.0639  H
ATOM     15 H54  665 L   1      -0.439   0.675 -16.626  1.00  0.00    +0.0836  H
ATOM     16 H59  665 L   1      -0.219   2.514 -12.993  1.00  0.00    +0.0830  H
ENDROOT
BRANCH 2 18
ATOM     17  O2  665 L   1       3.648  -4.394 -13.991  1.00  0.00    -0.2720 OA
ATOM     18  N4  665 L   1       1.389  -4.226 -13.361  1.00  0.00    -0.3255  N
ATOM     19 C10  665 L   1       2.654  -4.834 -13.420  1.00  0.00    +0.2381  C
ATOM     20 H35  665 L   1       0.702  -4.710 -12.848  1.00  0.00    +0.1686 HD
BRANCH 19 21
ATOM     21  C7  665 L   1       2.690  -6.163 -12.650  1.00  0.00    +0.1122  C
ATOM     22 H39  665 L   1       3.232  -6.034 -11.736  1.00  0.00    +0.0502  H
BRANCH 21 23
ATOM     23  C8  665 L   1       1.281  -6.590 -12.272  1.00  0.00    -0.0300  A
ATOM     24 C11  665 L   1       0.890  -6.599 -10.932  1.00  0.00    -0.0573  A
ATOM     25 C12  665 L   1       0.378  -6.974 -13.264  1.00  0.00    -0.0573  A
ATOM     26 C13  665 L   1      -1.305  -7.375 -11.578  1.00  0.00    -0.0103  A
ATOM     27 C14  665 L   1      -0.403  -6.993 -10.586  1.00  0.00    -0.0551  A
ATOM     28 C15  665 L   1      -0.914  -7.367 -12.917  1.00  0.00    -0.0551  A
ATOM     29 H42  665 L   1       1.557  -6.315 -10.198  1.00  0.00    +0.0621  H
ATOM     30 H43  665 L   1       0.667  -6.967 -14.255  1.00  0.00    +0.0621  H
ATOM     31 H44  665 L   1      -0.692  -6.999  -9.594  1.00  0.00    +0.0621  H
ATOM     32 H45  665 L   1      -1.582  -7.651 -13.652  1.00  0.00    +0.0621  H
BRANCH 26 33
ATOM     33 C17  665 L   1      -2.687  -7.795 -11.207  1.00  0.00    +0.1179  C
ATOM     34 H46  665 L   1      -2.925  -7.422 -10.234  1.00  0.00    +0.0749  H
ATOM     35 H47  665 L   1      -3.383  -7.403 -11.920  1.00  0.00    +0.0749  H
BRANCH 33 36
ATOM     36  O1  665 L   1      -2.764  -9.217 -11.204  1.00  0.00    -0.4564 OA
BRANCH 36 38
ATOM     37  O3  665 L   1      -3.086 -10.137 -13.288  1.00  0.00    -0.2449 OA
ATOM     38 C25  665 L   1      -3.504  -9.777 -12.199  1.00  0.00    +0.3398  C
BRANCH 38 39
ATOM     39 C23  665 L   1      -4.926  -9.900 -11.790  1.00  0.00    +0.0619  A
ATOM     40 C24  665 L   1      -5.914  -9.099 -12.365  1.00  0.00    -0.0362  A
ATOM     41 C27  665 L   1      -7.584 -10.170 -10.985  1.00  0.00    -0.0502  A
ATOM     42 C28  665 L   1      -7.242  -9.236 -11.962  1.00  0.00    -0.0551  A
ATOM     43 C29  665 L   1      -5.267 -10.835 -10.812  1.00  0.00    -0.0473  A
ATOM     44 C31  665 L   1      -6.596 -10.970 -10.409  1.00  0.00    -0.0580  A
ATOM     45 C32  665 L   1      -5.576  -8.092 -13.414  1.00  0.00    -0.0389  C
ATOM     46 C34  665 L   1      -9.003 -10.316 -10.553  1.00  0.00    -0.0397  C
ATOM     47 H52  665 L   1      -7.973  -8.643 -12.387  1.00  0.00    +0.0623  H
ATOM     48 H53  665 L   1      -4.537 -11.427 -10.388  1.00  0.00    +0.0626  H
ATOM     49 H55  665 L   1      -6.847 -11.662  -9.686  1.00  0.00    +0.0620  H
ATOM     50 H56  665 L   1      -4.524  -8.115 -13.606  1.00  0.00    +0.0278  H
ATOM     51 H57  665 L   1      -5.855  -7.116 -13.074  1.00  0.00    +0.0278  H
ATOM     52 H58  665 L   1      -6.109  -8.321 -14.313  1.00  0.00    +0.0278  H
ATOM     53 H60  665 L   1      -9.614  -9.627 -11.097  1.00  0.00    +0.0278  H
ATOM     54 H61  665 L   1      -9.081 -10.111  -9.505  1.00  0.00    +0.0278  H
ATOM     55 H62  665 L   1      -9.334 -11.315 -10.745  1.00  0.00    +0.0278  H
ENDBRANCH 38 39
ENDBRANCH 36 38
ENDBRANCH 33 36
ENDBRANCH 26 33
ENDBRANCH 21 23
BRANCH 21 57
ATOM     56  N5  665 L   1       3.602  -8.477 -12.716  1.00  0.00    -0.3600  N
ATOM     57  C9  665 L   1       3.443  -7.234 -13.465  1.00  0.00    +0.0921  C
ATOM     58 H36  665 L   1       4.102  -9.157 -13.288  1.00  0.00    +0.3450 HD
ATOM     59 H37  665 L   1       2.684  -8.847 -12.473  1.00  0.00    +0.3450 HD
ATOM     60 H38  665 L   1       4.131  -8.294 -11.863  1.00  0.00    +0.3450 HD
ATOM     61 H40  665 L   1       2.892  -7.437 -14.361  1.00  0.00    +0.0926  H
ATOM     62 H41  665 L   1       4.418  -6.855 -13.691  1.00  0.00    +0.0926  H
ENDBRANCH 21 57
ENDBRANCH 19 21
ENDBRANCH 2 18
TORSDOF 8
ENDMDL
MODEL 6
REMARK VINA RESULT:    -7.028      3.537      5.517
REMARK INTER + INTRA:         -11.463
REMARK INTER:                 -10.106
REMARK INTRA:                  -1.357
REMARK UNBOUND:                -1.147
ROOT
ATOM      1  N6  665 L   1      -0.680   2.051 -15.327  1.00  0.00    -0.2626 NA
ATOM      2 C16  665 L   1       0.836  -2.257 -13.147  1.00  0.00    +0.0423  A
ATOM      3 C18  665 L   1       0.291  -1.948 -14.394  1.00  0.00    -0.0305  A
ATOM      4 C19  665 L   1      -0.037  -0.622 -14.722  1.00  0.00    -0.0131  A
ATOM      5 C20  665 L   1       1.058  -1.249 -12.211  1.00  0.00    -0.0377  A
ATOM      6 C21  665 L   1       0.189   0.395 -13.772  1.00  0.00    +0.0004  A
ATOM      7 C22  665 L   1       0.737   0.072 -12.519  1.00  0.00    -0.0506  A
ATOM      8 C26  665 L   1      -0.585  -0.280 -15.964  1.00  0.00    -0.0358  A
ATOM      9 C30  665 L   1      -0.151   1.701 -14.132  1.00  0.00    +0.0353  A
ATOM     10 C33  665 L   1      -0.883   1.052 -16.211  1.00  0.00    +0.0281  A
ATOM     11 H48  665 L   1       0.130  -2.700 -15.083  1.00  0.00    +0.0644  H
ATOM     12 H49  665 L   1       1.460  -1.481 -11.289  1.00  0.00    +0.0638  H
ATOM     13 H50  665 L   1       0.903   0.816 -11.824  1.00  0.00    +0.0625  H
ATOM     14 H51  665 L   1      -0.762  -1.002 -16.679  1.00  0.00    +0.0639  H
ATOM     15 H54  665 L   1       0.013   2.449 -13.441  1.00  0.00    +0.0836  H
ATOM     16 H59  665 L   1      -1.285   1.294 -17.129  1.00  0.00    +0.0830  H
ENDROOT
BRANCH 2 18
ATOM     17  O2  665 L   1       3.063  -3.996 -14.153  1.00  0.00    -0.2720 OA
ATOM     18  N4  665 L   1       1.159  -3.580 -12.837  1.00  0.00    -0.3255  N
ATOM     19 C10  665 L   1       2.214  -4.358 -13.342  1.00  0.00    +0.2381  C
ATOM     20 H35  665 L   1       0.574  -4.022 -12.181  1.00  0.00    +0.1686 HD
BRANCH 19 21
ATOM     21  C7  665 L   1       2.224  -5.772 -12.744  1.00  0.00    +0.1122  C
ATOM     22 H39  665 L   1       2.287  -5.711 -11.678  1.00  0.00    +0.0502  H
BRANCH 21 23
ATOM     23  C8  665 L   1       0.923  -6.490 -13.069  1.00  0.00    -0.0300  A
ATOM     24 C11  665 L   1       0.575  -6.737 -14.398  1.00  0.00    -0.0573  A
ATOM     25 C12  665 L   1       0.077  -6.901 -12.039  1.00  0.00    -0.0573  A
ATOM     26 C13  665 L   1      -1.464  -7.805 -13.665  1.00  0.00    -0.0103  A
ATOM     27 C14  665 L   1      -0.619  -7.394 -14.695  1.00  0.00    -0.0551  A
ATOM     28 C15  665 L   1      -1.117  -7.558 -12.337  1.00  0.00    -0.0551  A
ATOM     29 H42  665 L   1       1.201  -6.432 -15.160  1.00  0.00    +0.0621  H
ATOM     30 H43  665 L   1       0.334  -6.719 -11.056  1.00  0.00    +0.0621  H
ATOM     31 H44  665 L   1      -0.876  -7.576 -15.679  1.00  0.00    +0.0621  H
ATOM     32 H45  665 L   1      -1.743  -7.863 -11.574  1.00  0.00    +0.0621  H
BRANCH 26 33
ATOM     33 C17  665 L   1      -2.740  -8.508 -13.984  1.00  0.00    +0.1179  C
ATOM     34 H46  665 L   1      -2.660  -8.979 -14.941  1.00  0.00    +0.0749  H
ATOM     35 H47  665 L   1      -2.935  -9.249 -13.237  1.00  0.00    +0.0749  H
BRANCH 33 36
ATOM     36  O1  665 L   1      -3.806  -7.565 -14.006  1.00  0.00    -0.4564 OA
BRANCH 36 38
ATOM     37  O3  665 L   1      -4.866  -8.683 -12.295  1.00  0.00    -0.2449 OA
ATOM     38 C25  665 L   1      -4.782  -7.747 -13.076  1.00  0.00    +0.3398  C
BRANCH 38 39
ATOM     39 C23  665 L   1      -5.767  -6.636 -13.124  1.00  0.00    +0.0619  A
ATOM     40 C24  665 L   1      -5.502  -5.411 -12.512  1.00  0.00    -0.0362  A
ATOM     41 C27  665 L   1      -7.652  -4.583 -13.242  1.00  0.00    -0.0502  A
ATOM     42 C28  665 L   1      -6.445  -4.384 -12.572  1.00  0.00    -0.0551  A
ATOM     43 C29  665 L   1      -6.974  -6.836 -13.794  1.00  0.00    -0.0473  A
ATOM     44 C31  665 L   1      -7.917  -5.809 -13.853  1.00  0.00    -0.0580  A
ATOM     45 C32  665 L   1      -4.217  -5.171 -11.789  1.00  0.00    -0.0389  C
ATOM     46 C34  665 L   1      -8.661  -3.487 -13.306  1.00  0.00    -0.0397  C
ATOM     47 H52  665 L   1      -6.249  -3.477 -12.119  1.00  0.00    +0.0623  H
ATOM     48 H53  665 L   1      -7.169  -7.741 -14.247  1.00  0.00    +0.0626  H
ATOM     49 H55  665 L   1      -8.810  -5.957 -14.349  1.00  0.00    +0.0620  H
ATOM     50 H56  665 L   1      -3.611  -6.051 -11.837  1.00  0.00    +0.0278  H
ATOM     51 H57  665 L   1      -4.423  -4.935 -10.766  1.00  0.00    +0.0278  H
ATOM     52 H58  665 L   1      -3.698  -4.354 -12.245  1.00  0.00    +0.0278  H
ATOM     53 H60  665 L   1      -8.288  -2.628 -12.787  1.00  0.00    +0.0278  H
ATOM     54 H61  665 L   1      -9.571  -3.813 -12.849  1.00  0.00    +0.0278  H
ATOM     55 H62  665 L   1      -8.846  -3.231 -14.328  1.00  0.00    +0.0278  H
ENDBRANCH 38 39
ENDBRANCH 36 38
ENDBRANCH 33 36
ENDBRANCH 26 33
ENDBRANCH 21 23
BRANCH 21 57
ATOM     56  N5  665 L   1       3.395  -7.963 -12.877  1.00  0.00    -0.3600  N
ATOM     57  C9  665 L   1       3.470  -6.546 -13.220  1.00  0.00    +0.0921  C
ATOM     58 H36  665 L   1       4.234  -8.438 -13.208  1.00  0.00    +0.3450 HD
ATOM     59 H37  665 L   1       2.574  -8.377 -13.319  1.00  0.00    +0.3450 HD
ATOM     60 H38  665 L   1       3.323  -8.065 -11.864  1.00  0.00    +0.3450 HD
ATOM     61 H40  665 L   1       3.551  -6.450 -14.283  1.00  0.00    +0.0926  H
ATOM     62 H41  665 L   1       4.326  -6.131 -12.730  1.00  0.00    +0.0926  H
ENDBRANCH 21 57
ENDBRANCH 19 21
ENDBRANCH 2 18
TORSDOF 8
ENDMDL
MODEL 7
REMARK VINA RESULT:    -6.915      3.470      8.980
REMARK INTER + INTRA:         -11.296
REMARK INTER:                 -10.151
REMARK INTRA:                  -1.145
REMARK UNBOUND:                -1.147
ROOT
ATOM      1  N6  665 L   1      -8.754  -1.419 -15.117  1.00  0.00    -0.2626 NA
ATOM      2 C16  665 L   1      -6.393  -5.779 -14.106  1.00  0.00    +0.0423  A
ATOM      3 C18  665 L   1      -6.630  -4.618 -13.369  1.00  0.00    -0.0305  A
ATOM      4 C19  665 L   1      -7.336  -3.544 -13.934  1.00  0.00    -0.0131  A
ATOM      5 C20  665 L   1      -6.854  -5.883 -15.416  1.00  0.00    -0.0377  A
ATOM      6 C21  665 L   1      -7.801  -3.652 -15.261  1.00  0.00    +0.0004  A
ATOM      7 C22  665 L   1      -7.556  -4.826 -15.994  1.00  0.00    -0.0506  A
ATOM      8 C26  665 L   1      -7.590  -2.366 -13.221  1.00  0.00    -0.0358  A
ATOM      9 C30  665 L   1      -8.498  -2.564 -15.790  1.00  0.00    +0.0353  A
ATOM     10 C33  665 L   1      -8.293  -1.351 -13.850  1.00  0.00    +0.0281  A
ATOM     11 H48  665 L   1      -6.285  -4.549 -12.398  1.00  0.00    +0.0644  H
ATOM     12 H49  665 L   1      -6.677  -6.742 -15.959  1.00  0.00    +0.0638  H
ATOM     13 H50  665 L   1      -7.897  -4.905 -16.965  1.00  0.00    +0.0625  H
ATOM     14 H51  665 L   1      -7.261  -2.258 -12.249  1.00  0.00    +0.0639  H
ATOM     15 H54  665 L   1      -8.842  -2.639 -16.761  1.00  0.00    +0.0836  H
ATOM     16 H59  665 L   1      -8.475  -0.488 -13.316  1.00  0.00    +0.0830  H
ENDROOT
BRANCH 2 18
ATOM     17  O2  665 L   1      -7.378  -8.104 -12.488  1.00  0.00    -0.2720 OA
ATOM     18  N4  665 L   1      -5.691  -6.840 -13.529  1.00  0.00    -0.3255  N
ATOM     19 C10  665 L   1      -6.199  -7.907 -12.770  1.00  0.00    +0.2381  C
ATOM     20 H35  665 L   1      -4.717  -6.839 -13.672  1.00  0.00    +0.1686 HD
BRANCH 19 21
ATOM     21  C7  665 L   1      -5.091  -8.869 -12.315  1.00  0.00    +0.1122  C
ATOM     22 H39  665 L   1      -4.907  -9.594 -13.080  1.00  0.00    +0.0502  H
BRANCH 21 23
ATOM     23  C8  665 L   1      -3.790  -8.110 -12.104  1.00  0.00    -0.0300  A
ATOM     24 C11  665 L   1      -3.605  -7.348 -10.950  1.00  0.00    -0.0573  A
ATOM     25 C12  665 L   1      -2.781  -8.176 -13.065  1.00  0.00    -0.0573  A
ATOM     26 C13  665 L   1      -1.404  -6.718 -11.718  1.00  0.00    -0.0103  A
ATOM     27 C14  665 L   1      -2.412  -6.652 -10.757  1.00  0.00    -0.0551  A
ATOM     28 C15  665 L   1      -1.588  -7.479 -12.872  1.00  0.00    -0.0551  A
ATOM     29 H42  665 L   1      -4.352  -7.300 -10.238  1.00  0.00    +0.0621  H
ATOM     30 H43  665 L   1      -2.918  -8.739 -13.919  1.00  0.00    +0.0621  H
ATOM     31 H44  665 L   1      -2.276  -6.088  -9.903  1.00  0.00    +0.0621  H
ATOM     32 H45  665 L   1      -0.841  -7.528 -13.583  1.00  0.00    +0.0621  H
BRANCH 26 33
ATOM     33 C17  665 L   1      -0.127  -5.974 -11.512  1.00  0.00    +0.1179  C
ATOM     34 H46  665 L   1      -0.342  -4.944 -11.315  1.00  0.00    +0.0749  H
ATOM     35 H47  665 L   1       0.400  -6.393 -10.681  1.00  0.00    +0.0749  H
BRANCH 33 36
ATOM     36  O1  665 L   1       0.674  -6.077 -12.684  1.00  0.00    -0.4564 OA
BRANCH 36 38
ATOM     37  O3  665 L   1       2.860  -5.424 -12.382  1.00  0.00    -0.2449 OA
ATOM     38 C25  665 L   1       1.721  -5.212 -12.769  1.00  0.00    +0.3398  C
BRANCH 38 39
ATOM     39 C23  665 L   1       1.300  -3.939 -13.406  1.00  0.00    +0.0619  A
ATOM     40 C24  665 L   1       1.227  -3.818 -14.795  1.00  0.00    -0.0362  A
ATOM     41 C27  665 L   1       0.505  -1.524 -14.555  1.00  0.00    -0.0502  A
ATOM     42 C28  665 L   1       0.829  -2.610 -15.368  1.00  0.00    -0.0551  A
ATOM     43 C29  665 L   1       0.976  -2.853 -12.593  1.00  0.00    -0.0473  A
ATOM     44 C31  665 L   1       0.579  -1.645 -13.167  1.00  0.00    -0.0580  A
ATOM     45 C32  665 L   1       1.567  -4.965 -15.689  1.00  0.00    -0.0389  C
ATOM     46 C34  665 L   1       0.081  -0.232 -15.167  1.00  0.00    -0.0397  C
ATOM     47 H52  665 L   1       0.775  -2.520 -16.395  1.00  0.00    +0.0623  H
ATOM     48 H53  665 L   1       1.029  -2.944 -11.567  1.00  0.00    +0.0626  H
ATOM     49 H55  665 L   1       0.339  -0.843 -12.564  1.00  0.00    +0.0620  H
ATOM     50 H56  665 L   1       1.849  -5.809 -15.095  1.00  0.00    +0.0278  H
ATOM     51 H57  665 L   1       2.380  -4.690 -16.327  1.00  0.00    +0.0278  H
ATOM     52 H58  665 L   1       0.715  -5.217 -16.285  1.00  0.00    +0.0278  H
ATOM     53 H60  665 L   1       0.083  -0.325 -16.233  1.00  0.00    +0.0278  H
ATOM     54 H61  665 L   1       0.759   0.541 -14.874  1.00  0.00    +0.0278  H
ATOM     55 H62  665 L   1      -0.906   0.014 -14.833  1.00  0.00    +0.0278  H
ENDBRANCH 38 39
ENDBRANCH 36 38
ENDBRANCH 33 36
ENDBRANCH 26 33
ENDBRANCH 21 23
BRANCH 21 57
ATOM     56  N5  665 L   1      -6.526 -10.676 -11.385  1.00  0.00    -0.3600  N
ATOM     57  C9  665 L   1      -5.540  -9.648 -11.062  1.00  0.00    +0.0921  C
ATOM     58 H36  665 L   1      -6.796 -11.168 -10.534  1.00  0.00    +0.3450 HD
ATOM     59 H37  665 L   1      -6.121 -11.339 -12.046  1.00  0.00    +0.3450 HD
ATOM     60 H38  665 L   1      -7.348 -10.240 -11.802  1.00  0.00    +0.3450 HD
ATOM     61 H40  665 L   1      -4.685 -10.115 -10.620  1.00  0.00    +0.0926  H
ATOM     62 H41  665 L   1      -5.994  -8.956 -10.384  1.00  0.00    +0.0926  H
ENDBRANCH 21 57
ENDBRANCH 19 21
ENDBRANCH 2 18
TORSDOF 8
ENDMDL
MODEL 8
REMARK VINA RESULT:    -6.819      1.706      2.151
REMARK INTER + INTRA:         -11.156
REMARK INTER:                 -10.634
REMARK INTRA:                  -0.522
REMARK UNBOUND:                -1.147
ROOT
ATOM      1  N6  665 L   1       5.594  -5.529 -13.513  1.00  0.00    -0.2626 NA
ATOM      2 C16  665 L   1       0.645  -6.584 -13.548  1.00  0.00    +0.0423  A
ATOM      3 C18  665 L   1       1.790  -7.342 -13.297  1.00  0.00    -0.0305  A
ATOM      4 C19  665 L   1       3.064  -6.755 -13.363  1.00  0.00    -0.0131  A
ATOM      5 C20  665 L   1       0.756  -5.234 -13.870  1.00  0.00    -0.0377  A
ATOM      6 C21  665 L   1       3.173  -5.387 -13.690  1.00  0.00    +0.0004  A
ATOM      7 C22  665 L   1       2.013  -4.635 -13.942  1.00  0.00    -0.0506  A
ATOM      8 C26  665 L   1       4.232  -7.487 -13.117  1.00  0.00    -0.0358  A
ATOM      9 C30  665 L   1       4.455  -4.838 -13.748  1.00  0.00    +0.0353  A
ATOM     10 C33  665 L   1       5.452  -6.835 -13.204  1.00  0.00    +0.0281  A
ATOM     11 H48  665 L   1       1.700  -8.342 -13.058  1.00  0.00    +0.0644  H
ATOM     12 H49  665 L   1      -0.093  -4.677 -14.056  1.00  0.00    +0.0638  H
ATOM     13 H50  665 L   1       2.092  -3.634 -14.181  1.00  0.00    +0.0625  H
ATOM     14 H51  665 L   1       4.184  -8.489 -12.876  1.00  0.00    +0.0639  H
ATOM     15 H54  665 L   1       4.540  -3.837 -13.986  1.00  0.00    +0.0836  H
ATOM     16 H59  665 L   1       6.306  -7.383 -13.019  1.00  0.00    +0.0830  H
ENDROOT
BRANCH 2 18
ATOM     17  O2  665 L   1      -0.928  -7.511 -11.168  1.00  0.00    -0.2720 OA
ATOM     18  N4  665 L   1      -0.615  -7.183 -13.476  1.00  0.00    -0.3255  N
ATOM     19 C10  665 L   1      -1.311  -7.607 -12.332  1.00  0.00    +0.2381  C
ATOM     20 H35  665 L   1      -1.073  -7.324 -14.335  1.00  0.00    +0.1686 HD
BRANCH 19 21
ATOM     21  C7  665 L   1      -2.675  -8.219 -12.682  1.00  0.00    +0.1122  C
ATOM     22 H39  665 L   1      -2.940  -8.951 -11.948  1.00  0.00    +0.0502  H
BRANCH 21 23
ATOM     23  C8  665 L   1      -3.756  -7.150 -12.648  1.00  0.00    -0.0300  A
ATOM     24 C11  665 L   1      -4.875  -7.261 -13.473  1.00  0.00    -0.0573  A
ATOM     25 C12  665 L   1      -3.628  -6.056 -11.790  1.00  0.00    -0.0573  A
ATOM     26 C13  665 L   1      -5.737  -5.187 -12.585  1.00  0.00    -0.0103  A
ATOM     27 C14  665 L   1      -5.865  -6.279 -13.442  1.00  0.00    -0.0551  A
ATOM     28 C15  665 L   1      -4.618  -5.075 -11.759  1.00  0.00    -0.0551  A
ATOM     29 H42  665 L   1      -4.970  -8.070 -14.108  1.00  0.00    +0.0621  H
ATOM     30 H43  665 L   1      -2.800  -5.974 -11.179  1.00  0.00    +0.0621  H
ATOM     31 H44  665 L   1      -6.693  -6.362 -14.053  1.00  0.00    +0.0621  H
ATOM     32 H45  665 L   1      -4.523  -4.266 -11.125  1.00  0.00    +0.0621  H
BRANCH 26 33
ATOM     33 C17  665 L   1      -6.796  -4.137 -12.551  1.00  0.00    +0.1179  C
ATOM     34 H46  665 L   1      -6.770  -3.633 -11.607  1.00  0.00    +0.0749  H
ATOM     35 H47  665 L   1      -6.625  -3.431 -13.336  1.00  0.00    +0.0749  H
BRANCH 33 36
ATOM     36  O1  665 L   1      -8.070  -4.745 -12.730  1.00  0.00    -0.4564 OA
BRANCH 36 38
ATOM     37  O3  665 L   1      -9.894  -4.705 -14.134  1.00  0.00    -0.2449 OA
ATOM     38 C25  665 L   1      -8.836  -4.242 -13.736  1.00  0.00    +0.3398  C
BRANCH 38 39
ATOM     39 C23  665 L   1      -8.211  -3.024 -14.312  1.00  0.00    +0.0619  A
ATOM     40 C24  665 L   1      -7.462  -3.086 -15.488  1.00  0.00    -0.0362  A
ATOM     41 C27  665 L   1      -7.056  -0.708 -15.353  1.00  0.00    -0.0502  A
ATOM     42 C28  665 L   1      -6.886  -1.927 -16.008  1.00  0.00    -0.0551  A
ATOM     43 C29  665 L   1      -8.382  -1.805 -13.657  1.00  0.00    -0.0473  A
ATOM     44 C31  665 L   1      -7.805  -0.646 -14.177  1.00  0.00    -0.0580  A
ATOM     45 C32  665 L   1      -7.265  -4.378 -16.211  1.00  0.00    -0.0389  C
ATOM     46 C34  665 L   1      -6.439   0.531 -15.907  1.00  0.00    -0.0397  C
ATOM     47 H52  665 L   1      -6.331  -1.972 -16.878  1.00  0.00    +0.0623  H
ATOM     48 H53  665 L   1      -8.936  -1.760 -12.788  1.00  0.00    +0.0626  H
ATOM     49 H55  665 L   1      -7.931   0.255 -13.691  1.00  0.00    +0.0620  H
ATOM     50 H56  665 L   1      -7.768  -5.162 -15.684  1.00  0.00    +0.0278  H
ATOM     51 H57  665 L   1      -6.219  -4.600 -16.266  1.00  0.00    +0.0278  H
ATOM     52 H58  665 L   1      -7.664  -4.299 -17.200  1.00  0.00    +0.0278  H
ATOM     53 H60  665 L   1      -5.908   0.295 -16.805  1.00  0.00    +0.0278  H
ATOM     54 H61  665 L   1      -5.762   0.945 -15.190  1.00  0.00    +0.0278  H
ATOM     55 H62  665 L   1      -7.206   1.245 -16.125  1.00  0.00    +0.0278  H
ENDBRANCH 38 39
ENDBRANCH 36 38
ENDBRANCH 33 36
ENDBRANCH 26 33
ENDBRANCH 21 23
BRANCH 21 57
ATOM     56  N5  665 L   1      -3.128 -10.312 -13.948  1.00  0.00    -0.3600  N
ATOM     57  C9  665 L   1      -2.601  -8.953 -14.036  1.00  0.00    +0.0921  C
ATOM     58 H36  665 L   1      -3.063 -10.762 -14.861  1.00  0.00    +0.3450 HD
ATOM     59 H37  665 L   1      -4.104 -10.280 -13.655  1.00  0.00    +0.3450 HD
ATOM     60 H38  665 L   1      -2.586 -10.843 -13.267  1.00  0.00    +0.3450 HD
ATOM     61 H40  665 L   1      -3.172  -8.406 -14.758  1.00  0.00    +0.0926  H
ATOM     62 H41  665 L   1      -1.573  -9.014 -14.325  1.00  0.00    +0.0926  H
ENDBRANCH 21 57
ENDBRANCH 19 21
ENDBRANCH 2 18
TORSDOF 8
ENDMDL
MODEL 9
REMARK VINA RESULT:    -6.661      2.435      3.824
REMARK INTER + INTRA:         -10.924
REMARK INTER:                  -9.400
REMARK INTRA:                  -1.524
REMARK UNBOUND:                -1.147
ROOT
ATOM      1  N6  665 L   1       5.555  -5.422 -13.894  1.00  0.00    -0.2626 NA
ATOM      2 C16  665 L   1       0.633  -6.566 -13.630  1.00  0.00    +0.0423  A
ATOM      3 C18  665 L   1       1.803  -7.323 -13.556  1.00  0.00    -0.0305  A
ATOM      4 C19  665 L   1       3.060  -6.707 -13.666  1.00  0.00    -0.0131  A
ATOM      5 C20  665 L   1       0.701  -5.187 -13.815  1.00  0.00    -0.0377  A
ATOM      6 C21  665 L   1       3.126  -5.310 -13.854  1.00  0.00    +0.0004  A
ATOM      7 C22  665 L   1       1.941  -4.559 -13.927  1.00  0.00    -0.0506  A
ATOM      8 C26  665 L   1       4.253  -7.438 -13.596  1.00  0.00    -0.0358  A
ATOM      9 C30  665 L   1       4.393  -4.734 -13.960  1.00  0.00    +0.0353  A
ATOM     10 C33  665 L   1       5.454  -6.756 -13.715  1.00  0.00    +0.0281  A
ATOM     11 H48  665 L   1       1.744  -8.344 -13.418  1.00  0.00    +0.0644  H
ATOM     12 H49  665 L   1      -0.166  -4.630 -13.870  1.00  0.00    +0.0638  H
ATOM     13 H50  665 L   1       1.989  -3.537 -14.064  1.00  0.00    +0.0625  H
ATOM     14 H51  665 L   1       4.237  -8.461 -13.460  1.00  0.00    +0.0639  H
ATOM     15 H54  665 L   1       4.447  -3.712 -14.097  1.00  0.00    +0.0836  H
ATOM     16 H59  665 L   1       6.326  -7.304 -13.661  1.00  0.00    +0.0830  H
ENDROOT
BRANCH 2 18
ATOM     17  O2  665 L   1      -0.862  -7.485 -11.197  1.00  0.00    -0.2720 OA
ATOM     18  N4  665 L   1      -0.610  -7.193 -13.517  1.00  0.00    -0.3255  N
ATOM     19 C10  665 L   1      -1.269  -7.612 -12.349  1.00  0.00    +0.2381  C
ATOM     20 H35  665 L   1      -1.084  -7.362 -14.362  1.00  0.00    +0.1686 HD
BRANCH 19 21
ATOM     21  C7  665 L   1      -2.625  -8.264 -12.655  1.00  0.00    +0.1122  C
ATOM     22 H39  665 L   1      -2.874  -8.958 -11.880  1.00  0.00    +0.0502  H
BRANCH 21 23
ATOM     23  C8  665 L   1      -3.722  -7.211 -12.674  1.00  0.00    -0.0300  A
ATOM     24 C11  665 L   1      -3.676  -6.138 -11.782  1.00  0.00    -0.0573  A
ATOM     25 C12  665 L   1      -4.775  -7.316 -13.583  1.00  0.00    -0.0573  A
ATOM     26 C13  665 L   1      -5.735  -5.279 -12.708  1.00  0.00    -0.0103  A
ATOM     27 C14  665 L   1      -4.683  -5.174 -11.799  1.00  0.00    -0.0551  A
ATOM     28 C15  665 L   1      -5.782  -6.351 -13.600  1.00  0.00    -0.0551  A
ATOM     29 H42  665 L   1      -2.897  -6.060 -11.109  1.00  0.00    +0.0621  H
ATOM     30 H43  665 L   1      -4.809  -8.109 -14.243  1.00  0.00    +0.0621  H
ATOM     31 H44  665 L   1      -4.648  -4.380 -11.139  1.00  0.00    +0.0621  H
ATOM     32 H45  665 L   1      -6.561  -6.429 -14.272  1.00  0.00    +0.0621  H
BRANCH 26 33
ATOM     33 C17  665 L   1      -6.812  -4.247 -12.726  1.00  0.00    +0.1179  C
ATOM     34 H46  665 L   1      -6.435  -3.330 -12.323  1.00  0.00    +0.0749  H
ATOM     35 H47  665 L   1      -7.135  -4.087 -13.734  1.00  0.00    +0.0749  H
BRANCH 33 36
ATOM     36  O1  665 L   1      -7.910  -4.696 -11.941  1.00  0.00    -0.4564 OA
BRANCH 36 38
ATOM     37  O3  665 L   1      -9.904  -3.937 -12.805  1.00  0.00    -0.2449 OA
ATOM     38 C25  665 L   1      -9.096  -4.829 -12.594  1.00  0.00    +0.3398  C
BRANCH 38 39
ATOM     39 C23  665 L   1      -9.299  -6.233 -13.033  1.00  0.00    +0.0619  A
ATOM     40 C24  665 L   1      -9.297  -6.572 -14.387  1.00  0.00    -0.0362  A
ATOM     41 C27  665 L   1      -9.687  -8.886 -13.807  1.00  0.00    -0.0502  A
ATOM     42 C28  665 L   1      -9.490  -7.899 -14.773  1.00  0.00    -0.0551  A
ATOM     43 C29  665 L   1      -9.495  -7.220 -12.067  1.00  0.00    -0.0473  A
ATOM     44 C31  665 L   1      -9.689  -8.546 -12.453  1.00  0.00    -0.0580  A
ATOM     45 C32  665 L   1      -9.088  -5.536 -15.442  1.00  0.00    -0.0389  C
ATOM     46 C34  665 L   1      -9.895 -10.303 -14.218  1.00  0.00    -0.0397  C
ATOM     47 H52  665 L   1      -9.489  -8.150 -15.774  1.00  0.00    +0.0623  H
ATOM     48 H53  665 L   1      -9.496  -6.968 -11.067  1.00  0.00    +0.0626  H
ATOM     49 H55  665 L   1      -9.834  -9.275 -11.738  1.00  0.00    +0.0620  H
ATOM     50 H56  665 L   1      -8.955  -4.579 -14.982  1.00  0.00    +0.0278  H
ATOM     51 H57  665 L   1      -9.941  -5.506 -16.087  1.00  0.00    +0.0278  H
ATOM     52 H58  665 L   1      -8.218  -5.780 -16.015  1.00  0.00    +0.0278  H
ATOM     53 H60  665 L   1      -9.861 -10.374 -15.285  1.00  0.00    +0.0278  H
ATOM     54 H61  665 L   1     -10.848 -10.641 -13.868  1.00  0.00    +0.0278  H
ATOM     55 H62  665 L   1      -9.124 -10.914 -13.797  1.00  0.00    +0.0278  H
ENDBRANCH 38 39
ENDBRANCH 36 38
ENDBRANCH 33 36
ENDBRANCH 26 33
ENDBRANCH 21 23
BRANCH 21 57
ATOM     56  N5  665 L   1      -3.167 -10.387 -13.833  1.00  0.00    -0.3600  N
ATOM     57  C9  665 L   1      -2.547  -9.071 -13.967  1.00  0.00    +0.0921  C
ATOM     58 H36  665 L   1      -3.096 -10.888 -14.719  1.00  0.00    +0.3450 HD
ATOM     59 H37  665 L   1      -4.150 -10.276 -13.584  1.00  0.00    +0.3450 HD
ATOM     60 H38  665 L   1      -2.689 -10.915 -13.104  1.00  0.00    +0.3450 HD
ATOM     61 H40  665 L   1      -3.052  -8.527 -14.738  1.00  0.00    +0.0926  H
ATOM     62 H41  665 L   1      -1.515  -9.214 -14.208  1.00  0.00    +0.0926  H
ENDBRANCH 21 57
ENDBRANCH 19 21
ENDBRANCH 2 18
TORSDOF 8
ENDMDL
MODEL 10
REMARK VINA RESULT:    -6.651      2.561      3.670
REMARK INTER + INTRA:         -10.909
REMARK INTER:                  -9.067
REMARK INTRA:                  -1.843
REMARK UNBOUND:                -1.147
ROOT
ATOM      1  N6  665 L   1       6.619  -6.820 -13.878  1.00  0.00    -0.2626 NA
ATOM      2 C16  665 L   1       1.745  -5.532 -13.435  1.00  0.00    +0.0423  A
ATOM      3 C18  665 L   1       2.461  -6.700 -13.169  1.00  0.00    -0.0305  A
ATOM      4 C19  665 L   1       3.845  -6.758 -13.398  1.00  0.00    -0.0131  A
ATOM      5 C20  665 L   1       2.399  -4.409 -13.934  1.00  0.00    -0.0377  A
ATOM      6 C21  665 L   1       4.505  -5.618 -13.904  1.00  0.00    +0.0004  A
ATOM      7 C22  665 L   1       3.773  -4.448 -14.169  1.00  0.00    -0.0506  A
ATOM      8 C26  665 L   1       4.592  -7.914 -13.141  1.00  0.00    -0.0358  A
ATOM      9 C30  665 L   1       5.880  -5.713 -14.121  1.00  0.00    +0.0353  A
ATOM     10 C33  665 L   1       5.955  -7.892 -13.396  1.00  0.00    +0.0281  A
ATOM     11 H48  665 L   1       1.969  -7.529 -12.798  1.00  0.00    +0.0644  H
ATOM     12 H49  665 L   1       1.867  -3.547 -14.130  1.00  0.00    +0.0638  H
ATOM     13 H50  665 L   1       4.255  -3.614 -14.539  1.00  0.00    +0.0625  H
ATOM     14 H51  665 L   1       4.138  -8.764 -12.772  1.00  0.00    +0.0639  H
ATOM     15 H54  665 L   1       6.368  -4.881 -14.491  1.00  0.00    +0.0836  H
ATOM     16 H59  665 L   1       6.495  -8.748 -13.202  1.00  0.00    +0.0830  H
ENDROOT
BRANCH 2 18
ATOM     17  O2  665 L   1       0.156  -6.437 -11.057  1.00  0.00    -0.2720 OA
ATOM     18  N4  665 L   1       0.369  -5.490 -13.199  1.00  0.00    -0.3255  N
ATOM     19 C10  665 L   1      -0.332  -5.935 -12.066  1.00  0.00    +0.2381  C
ATOM     20 H35  665 L   1      -0.178  -5.100 -13.918  1.00  0.00    +0.1686 HD
BRANCH 19 21
ATOM     21  C7  665 L   1      -1.846  -5.709 -12.200  1.00  0.00    +0.1122  C
ATOM     22 H39  665 L   1      -2.053  -5.199 -13.118  1.00  0.00    +0.0502  H
BRANCH 21 23
ATOM     23  C8  665 L   1      -2.573  -7.042 -12.262  1.00  0.00    -0.0300  A
ATOM     24 C11  665 L   1      -2.370  -7.900 -13.343  1.00  0.00    -0.0573  A
ATOM     25 C12  665 L   1      -3.445  -7.409 -11.236  1.00  0.00    -0.0573  A
ATOM     26 C13  665 L   1      -3.909  -9.489 -12.374  1.00  0.00    -0.0103  A
ATOM     27 C14  665 L   1      -3.039  -9.122 -13.400  1.00  0.00    -0.0551  A
ATOM     28 C15  665 L   1      -4.114  -8.632 -11.293  1.00  0.00    -0.0551  A
ATOM     29 H42  665 L   1      -1.725  -7.629 -14.103  1.00  0.00    +0.0621  H
ATOM     30 H43  665 L   1      -3.596  -6.775 -10.435  1.00  0.00    +0.0621  H
ATOM     31 H44  665 L   1      -2.888  -9.757 -14.201  1.00  0.00    +0.0621  H
ATOM     32 H45  665 L   1      -4.759  -8.903 -10.533  1.00  0.00    +0.0621  H
BRANCH 26 33
ATOM     33 C17  665 L   1      -4.624 -10.797 -12.434  1.00  0.00    +0.1179  C
ATOM     34 H46  665 L   1      -3.911 -11.593 -12.453  1.00  0.00    +0.0749  H
ATOM     35 H47  665 L   1      -5.252 -10.900 -11.574  1.00  0.00    +0.0749  H
BRANCH 33 36
ATOM     36  O1  665 L   1      -5.423 -10.845 -13.611  1.00  0.00    -0.4564 OA
BRANCH 36 38
ATOM     37  O3  665 L   1      -7.676 -11.050 -13.187  1.00  0.00    -0.2449 OA
ATOM     38 C25  665 L   1      -6.697 -10.384 -13.487  1.00  0.00    +0.3398  C
BRANCH 38 39
ATOM     39 C23  665 L   1      -6.758  -8.927 -13.772  1.00  0.00    +0.0619  A
ATOM     40 C24  665 L   1      -6.308  -8.411 -14.987  1.00  0.00    -0.0362  A
ATOM     41 C27  665 L   1      -6.893  -6.183 -14.255  1.00  0.00    -0.0502  A
ATOM     42 C28  665 L   1      -6.377  -7.038 -15.228  1.00  0.00    -0.0551  A
ATOM     43 C29  665 L   1      -7.274  -8.072 -12.798  1.00  0.00    -0.0473  A
ATOM     44 C31  665 L   1      -7.342  -6.700 -13.039  1.00  0.00    -0.0580  A
ATOM     45 C32  665 L   1      -5.752  -9.304 -16.047  1.00  0.00    -0.0389  C
ATOM     46 C34  665 L   1      -6.965  -4.716 -14.511  1.00  0.00    -0.0397  C
ATOM     47 H52  665 L   1      -6.044  -6.655 -16.128  1.00  0.00    +0.0623  H
ATOM     48 H53  665 L   1      -7.607  -8.455 -11.900  1.00  0.00    +0.0626  H
ATOM     49 H55  665 L   1      -7.724  -6.068 -12.319  1.00  0.00    +0.0620  H
ATOM     50 H56  665 L   1      -5.771 -10.318 -15.706  1.00  0.00    +0.0278  H
ATOM     51 H57  665 L   1      -4.743  -9.018 -16.261  1.00  0.00    +0.0278  H
ATOM     52 H58  665 L   1      -6.342  -9.215 -16.935  1.00  0.00    +0.0278  H
ATOM     53 H60  665 L   1      -6.580  -4.505 -15.487  1.00  0.00    +0.0278  H
ATOM     54 H61  665 L   1      -6.385  -4.196 -13.778  1.00  0.00    +0.0278  H
ATOM     55 H62  665 L   1      -7.984  -4.393 -14.453  1.00  0.00    +0.0278  H
ENDBRANCH 38 39
ENDBRANCH 36 38
ENDBRANCH 33 36
ENDBRANCH 26 33
ENDBRANCH 21 23
BRANCH 21 57
ATOM     56  N5  665 L   1      -1.297  -3.938 -10.541  1.00  0.00    -0.3600  N
ATOM     57  C9  665 L   1      -2.354  -4.800 -11.063  1.00  0.00    +0.0921  C
ATOM     58 H36  665 L   1      -1.672  -3.354  -9.793  1.00  0.00    +0.3450 HD
ATOM     59 H37  665 L   1      -0.942  -3.344 -11.290  1.00  0.00    +0.3450 HD
ATOM     60 H38  665 L   1      -0.538  -4.514 -10.175  1.00  0.00    +0.3450 HD
ATOM     61 H40  665 L   1      -3.147  -4.188 -11.438  1.00  0.00    +0.0926  H
ATOM     62 H41  665 L   1      -2.696  -5.426 -10.265  1.00  0.00    +0.0926  H
ENDBRANCH 21 57
ENDBRANCH 19 21
ENDBRANCH 2 18
TORSDOF 8
ENDMDL
MODEL 11
REMARK VINA RESULT:    -6.561      6.089      8.826
REMARK INTER + INTRA:         -10.776
REMARK INTER:                  -9.465
REMARK INTRA:                  -1.311
REMARK UNBOUND:                -1.147
ROOT
ATOM      1  N6  665 L   1       7.814   4.831 -16.211  1.00  0.00    -0.2626 NA
ATOM      2 C16  665 L   1       3.203   2.749 -16.111  1.00  0.00    +0.0423  A
ATOM      3 C18  665 L   1       4.497   2.226 -16.110  1.00  0.00    -0.0305  A
ATOM      4 C19  665 L   1       5.612   3.078 -16.143  1.00  0.00    -0.0131  A
ATOM      5 C20  665 L   1       3.006   4.128 -16.145  1.00  0.00    -0.0377  A
ATOM      6 C21  665 L   1       5.409   4.473 -16.178  1.00  0.00    +0.0004  A
ATOM      7 C22  665 L   1       4.102   4.989 -16.179  1.00  0.00    -0.0506  A
ATOM      8 C26  665 L   1       6.923   2.584 -16.143  1.00  0.00    -0.0358  A
ATOM      9 C30  665 L   1       6.542   5.289 -16.211  1.00  0.00    +0.0353  A
ATOM     10 C33  665 L   1       7.971   3.490 -16.177  1.00  0.00    +0.0281  A
ATOM     11 H48  665 L   1       4.635   1.203 -16.084  1.00  0.00    +0.0644  H
ATOM     12 H49  665 L   1       2.048   4.512 -16.146  1.00  0.00    +0.0638  H
ATOM     13 H50  665 L   1       3.953   6.009 -16.204  1.00  0.00    +0.0625  H
ATOM     14 H51  665 L   1       7.103   1.568 -16.118  1.00  0.00    +0.0639  H
ATOM     15 H54  665 L   1       6.398   6.311 -16.236  1.00  0.00    +0.0836  H
ATOM     16 H59  665 L   1       8.932   3.117 -16.177  1.00  0.00    +0.0830  H
ENDROOT
BRANCH 2 18
ATOM     17  O2  665 L   1       1.182   2.270 -13.946  1.00  0.00    -0.2720 OA
ATOM     18  N4  665 L   1       2.103   1.889 -16.076  1.00  0.00    -0.3255  N
ATOM     19 C10  665 L   1       1.185   1.694 -15.031  1.00  0.00    +0.2381  C
ATOM     20 H35  665 L   1       1.953   1.351 -16.886  1.00  0.00    +0.1686 HD
BRANCH 19 21
ATOM     21  C7  665 L   1       0.115   0.652 -15.391  1.00  0.00    +0.1122  C
ATOM     22 H39  665 L   1       0.076   0.530 -16.454  1.00  0.00    +0.0502  H
BRANCH 21 23
ATOM     23  C8  665 L   1       0.481  -0.702 -14.805  1.00  0.00    -0.0300  A
ATOM     24 C11  665 L   1       0.320  -0.938 -13.439  1.00  0.00    -0.0573  A
ATOM     25 C12  665 L   1       0.978  -1.710 -15.633  1.00  0.00    -0.0573  A
ATOM     26 C13  665 L   1       1.153  -3.187 -13.729  1.00  0.00    -0.0103  A
ATOM     27 C14  665 L   1       0.657  -2.180 -12.901  1.00  0.00    -0.0551  A
ATOM     28 C15  665 L   1       1.314  -2.951 -15.094  1.00  0.00    -0.0551  A
ATOM     29 H42  665 L   1      -0.048  -0.193 -12.826  1.00  0.00    +0.0621  H
ATOM     30 H43  665 L   1       1.097  -1.535 -16.643  1.00  0.00    +0.0621  H
ATOM     31 H44  665 L   1       0.538  -2.354 -11.891  1.00  0.00    +0.0621  H
ATOM     32 H45  665 L   1       1.682  -3.697 -15.707  1.00  0.00    +0.0621  H
BRANCH 26 33
ATOM     33 C17  665 L   1       1.513  -4.515 -13.154  1.00  0.00    +0.1179  C
ATOM     34 H46  665 L   1       1.112  -5.292 -13.772  1.00  0.00    +0.0749  H
ATOM     35 H47  665 L   1       2.578  -4.608 -13.109  1.00  0.00    +0.0749  H
BRANCH 33 36
ATOM     36  O1  665 L   1       0.972  -4.624 -11.842  1.00  0.00    -0.4564 OA
BRANCH 36 38
ATOM     37  O3  665 L   1       1.225  -6.731 -10.949  1.00  0.00    -0.2449 OA
ATOM     38 C25  665 L   1       0.544  -5.863 -11.474  1.00  0.00    +0.3398  C
BRANCH 38 39
ATOM     39 C23  665 L   1      -0.894  -6.040 -11.798  1.00  0.00    +0.0619  A
ATOM     40 C24  665 L   1      -1.315  -7.025 -12.693  1.00  0.00    -0.0362  A
ATOM     41 C27  665 L   1      -3.608  -6.331 -12.375  1.00  0.00    -0.0502  A
ATOM     42 C28  665 L   1      -2.672  -7.171 -12.980  1.00  0.00    -0.0551  A
ATOM     43 C29  665 L   1      -1.829  -5.201 -11.193  1.00  0.00    -0.0473  A
ATOM     44 C31  665 L   1      -3.186  -5.346 -11.481  1.00  0.00    -0.0580  A
ATOM     45 C32  665 L   1      -0.335  -7.938 -13.353  1.00  0.00    -0.0389  C
ATOM     46 C34  665 L   1      -5.059  -6.485 -12.682  1.00  0.00    -0.0397  C
ATOM     47 H52  665 L   1      -2.985  -7.899 -13.641  1.00  0.00    +0.0623  H
ATOM     48 H53  665 L   1      -1.517  -4.474 -10.532  1.00  0.00    +0.0626  H
ATOM     49 H55  665 L   1      -3.878  -4.725 -11.033  1.00  0.00    +0.0620  H
ATOM     50 H56  665 L   1       0.655  -7.696 -13.027  1.00  0.00    +0.0278  H
ATOM     51 H57  665 L   1      -0.399  -7.821 -14.415  1.00  0.00    +0.0278  H
ATOM     52 H58  665 L   1      -0.559  -8.951 -13.093  1.00  0.00    +0.0278  H
ATOM     53 H60  665 L   1      -5.193  -7.284 -13.381  1.00  0.00    +0.0278  H
ATOM     54 H61  665 L   1      -5.433  -5.575 -13.103  1.00  0.00    +0.0278  H
ATOM     55 H62  665 L   1      -5.593  -6.706 -11.782  1.00  0.00    +0.0278  H
ENDBRANCH 38 39
ENDBRANCH 36 38
ENDBRANCH 33 36
ENDBRANCH 26 33
ENDBRANCH 21 23
BRANCH 21 57
ATOM     56  N5  665 L   1      -1.546   2.505 -15.397  1.00  0.00    -0.3600  N
ATOM     57  C9  665 L   1      -1.278   1.141 -14.948  1.00  0.00    +0.0921  C
ATOM     58 H36  665 L   1      -2.474   2.790 -15.086  1.00  0.00    +0.3450 HD
ATOM     59 H37  665 L   1      -1.503   2.541 -16.416  1.00  0.00    +0.3450 HD
ATOM     60 H38  665 L   1      -0.846   3.135 -15.006  1.00  0.00    +0.3450 HD
ATOM     61 H40  665 L   1      -2.021   0.489 -15.359  1.00  0.00    +0.0926  H
ATOM     62 H41  665 L   1      -1.309   1.133 -13.878  1.00  0.00    +0.0926  H
ENDBRANCH 21 57
ENDBRANCH 19 21
ENDBRANCH 2 18
TORSDOF 8
ENDMDL
MODEL 12
REMARK VINA RESULT:    -6.494      3.651      5.195
REMARK INTER + INTRA:         -10.678
REMARK INTER:                  -9.517
REMARK INTRA:                  -1.161
REMARK UNBOUND:                -1.147
ROOT
ATOM      1  N6  665 L   1      -0.256   2.532 -15.406  1.00  0.00    -0.2626 NA
ATOM      2 C16  665 L   1       0.548  -1.817 -12.948  1.00  0.00    +0.0423  A
ATOM      3 C18  665 L   1       0.027  -1.502 -14.204  1.00  0.00    -0.0305  A
ATOM      4 C19  665 L   1      -0.074  -0.165 -14.621  1.00  0.00    -0.0131  A
ATOM      5 C20  665 L   1       0.974  -0.803 -12.093  1.00  0.00    -0.0377  A
ATOM      6 C21  665 L   1       0.357   0.859 -13.752  1.00  0.00    +0.0004  A
ATOM      7 C22  665 L   1       0.880   0.530 -12.490  1.00  0.00    -0.0506  A
ATOM      8 C26  665 L   1      -0.593   0.184 -15.874  1.00  0.00    -0.0358  A
ATOM      9 C30  665 L   1       0.241   2.176 -14.200  1.00  0.00    +0.0353  A
ATOM     10 C33  665 L   1      -0.660   1.527 -16.211  1.00  0.00    +0.0281  A
ATOM     11 H48  665 L   1      -0.287  -2.259 -14.832  1.00  0.00    +0.0644  H
ATOM     12 H49  665 L   1       1.358  -1.039 -11.164  1.00  0.00    +0.0638  H
ATOM     13 H50  665 L   1       1.196   1.279 -11.854  1.00  0.00    +0.0625  H
ATOM     14 H51  665 L   1      -0.917  -0.543 -16.531  1.00  0.00    +0.0639  H
ATOM     15 H54  665 L   1       0.556   2.929 -13.568  1.00  0.00    +0.0836  H
ATOM     16 H59  665 L   1      -1.043   1.773 -17.136  1.00  0.00    +0.0830  H
ENDROOT
BRANCH 2 18
ATOM     17  O2  665 L   1      -1.391  -3.531 -11.432  1.00  0.00    -0.2720 OA
ATOM     18  N4  665 L   1       0.644  -3.152 -12.548  1.00  0.00    -0.3255  N
ATOM     19 C10  665 L   1      -0.294  -3.913 -11.831  1.00  0.00    +0.2381  C
ATOM     20 H35  665 L   1       1.473  -3.618 -12.802  1.00  0.00    +0.1686 HD
BRANCH 19 21
ATOM     21  C7  665 L   1       0.194  -5.349 -11.590  1.00  0.00    +0.1122  C
ATOM     22 H39  665 L   1       0.547  -5.446 -10.584  1.00  0.00    +0.0502  H
BRANCH 21 23
ATOM     23  C8  665 L   1      -0.957  -6.330 -11.751  1.00  0.00    -0.0300  A
ATOM     24 C11  665 L   1      -1.211  -6.911 -12.993  1.00  0.00    -0.0573  A
ATOM     25 C12  665 L   1      -1.760  -6.648 -10.654  1.00  0.00    -0.0573  A
ATOM     26 C13  665 L   1      -3.070  -8.127 -12.044  1.00  0.00    -0.0103  A
ATOM     27 C14  665 L   1      -2.268  -7.809 -13.139  1.00  0.00    -0.0551  A
ATOM     28 C15  665 L   1      -2.817  -7.546 -10.802  1.00  0.00    -0.0551  A
ATOM     29 H42  665 L   1      -0.617  -6.676 -13.804  1.00  0.00    +0.0621  H
ATOM     30 H43  665 L   1      -1.572  -6.218  -9.735  1.00  0.00    +0.0621  H
ATOM     31 H44  665 L   1      -2.456  -8.240 -14.059  1.00  0.00    +0.0621  H
ATOM     32 H45  665 L   1      -3.411  -7.781  -9.991  1.00  0.00    +0.0621  H
BRANCH 26 33
ATOM     33 C17  665 L   1      -4.200  -9.089 -12.200  1.00  0.00    +0.1179  C
ATOM     34 H46  665 L   1      -4.217  -9.460 -13.204  1.00  0.00    +0.0749  H
ATOM     35 H47  665 L   1      -4.072  -9.904 -11.520  1.00  0.00    +0.0749  H
BRANCH 33 36
ATOM     36  O1  665 L   1      -5.427  -8.425 -11.919  1.00  0.00    -0.4564 OA
BRANCH 36 38
ATOM     37  O3  665 L   1      -6.592  -9.053 -13.802  1.00  0.00    -0.2449 OA
ATOM     38 C25  665 L   1      -6.250  -8.215 -12.982  1.00  0.00    +0.3398  C
BRANCH 38 39
ATOM     39 C23  665 L   1      -6.696  -6.799 -13.030  1.00  0.00    +0.0619  A
ATOM     40 C24  665 L   1      -8.048  -6.473 -13.141  1.00  0.00    -0.0362  A
ATOM     41 C27  665 L   1      -7.482  -4.124 -13.118  1.00  0.00    -0.0502  A
ATOM     42 C28  665 L   1      -8.440  -5.135 -13.184  1.00  0.00    -0.0551  A
ATOM     43 C29  665 L   1      -5.737  -5.788 -12.963  1.00  0.00    -0.0473  A
ATOM     44 C31  665 L   1      -6.129  -4.450 -13.007  1.00  0.00    -0.0580  A
ATOM     45 C32  665 L   1      -9.095  -7.536 -13.212  1.00  0.00    -0.0389  C
ATOM     46 C34  665 L   1      -7.900  -2.693 -13.165  1.00  0.00    -0.0397  C
ATOM     47 H52  665 L   1      -9.441  -4.893 -13.266  1.00  0.00    +0.0623  H
ATOM     48 H53  665 L   1      -4.738  -6.030 -12.880  1.00  0.00    +0.0626  H
ATOM     49 H55  665 L   1      -5.420  -3.703 -12.958  1.00  0.00    +0.0620  H
ATOM     50 H56  665 L   1      -8.630  -8.498 -13.166  1.00  0.00    +0.0278  H
ATOM     51 H57  665 L   1      -9.634  -7.443 -14.132  1.00  0.00    +0.0278  H
ATOM     52 H58  665 L   1      -9.772  -7.426 -12.391  1.00  0.00    +0.0278  H
ATOM     53 H60  665 L   1      -8.965  -2.635 -13.250  1.00  0.00    +0.0278  H
ATOM     54 H61  665 L   1      -7.448  -2.217 -14.010  1.00  0.00    +0.0278  H
ATOM     55 H62  665 L   1      -7.587  -2.200 -12.269  1.00  0.00    +0.0278  H
ENDBRANCH 38 39
ENDBRANCH 36 38
ENDBRANCH 33 36
ENDBRANCH 26 33
ENDBRANCH 21 23
BRANCH 21 57
ATOM     56  N5  665 L   1       2.504  -6.256 -11.775  1.00  0.00    -0.3600  N
ATOM     57  C9  665 L   1       1.388  -5.671 -12.513  1.00  0.00    +0.0921  C
ATOM     58 H36  665 L   1       3.270  -6.455 -12.418  1.00  0.00    +0.3450 HD
ATOM     59 H37  665 L   1       2.200  -7.123 -11.331  1.00  0.00    +0.3450 HD
ATOM     60 H38  665 L   1       2.820  -5.601 -11.060  1.00  0.00    +0.3450 HD
ATOM     61 H40  665 L   1       1.068  -6.363 -13.264  1.00  0.00    +0.0926  H
ATOM     62 H41  665 L   1       1.725  -4.755 -12.952  1.00  0.00    +0.0926  H
ENDBRANCH 21 57
ENDBRANCH 19 21
ENDBRANCH 2 18
TORSDOF 8
ENDMDL
MODEL 13
REMARK VINA RESULT:    -6.413      3.209      9.888
REMARK INTER + INTRA:         -10.560
REMARK INTER:                  -9.811
REMARK INTRA:                  -0.749
REMARK UNBOUND:                -1.147
ROOT
ATOM      1  N6  665 L   1      -9.033  -2.105 -15.394  1.00  0.00    -0.2626 NA
ATOM      2 C16  665 L   1      -6.360  -5.891 -13.362  1.00  0.00    +0.0423  A
ATOM      3 C18  665 L   1      -7.132  -5.769 -14.518  1.00  0.00    -0.0305  A
ATOM      4 C19  665 L   1      -7.771  -4.557 -14.826  1.00  0.00    -0.0131  A
ATOM      5 C20  665 L   1      -6.217  -4.807 -12.498  1.00  0.00    -0.0377  A
ATOM      6 C21  665 L   1      -7.625  -3.462 -13.949  1.00  0.00    +0.0004  A
ATOM      7 C22  665 L   1      -6.845  -3.597 -12.787  1.00  0.00    -0.0506  A
ATOM      8 C26  665 L   1      -8.553  -4.402 -15.978  1.00  0.00    -0.0358  A
ATOM      9 C30  665 L   1      -8.275  -2.274 -14.287  1.00  0.00    +0.0353  A
ATOM     10 C33  665 L   1      -9.152  -3.174 -16.210  1.00  0.00    +0.0281  A
ATOM     11 H48  665 L   1      -7.233  -6.576 -15.153  1.00  0.00    +0.0644  H
ATOM     12 H49  665 L   1      -5.645  -4.901 -11.644  1.00  0.00    +0.0638  H
ATOM     13 H50  665 L   1      -6.737  -2.796 -12.146  1.00  0.00    +0.0625  H
ATOM     14 H51  665 L   1      -8.679  -5.185 -16.638  1.00  0.00    +0.0639  H
ATOM     15 H54  665 L   1      -8.170  -1.469 -13.649  1.00  0.00    +0.0836  H
ATOM     16 H59  665 L   1      -9.725  -3.071 -17.061  1.00  0.00    +0.0830  H
ENDROOT
BRANCH 2 18
ATOM     17  O2  665 L   1      -7.495  -8.472 -12.339  1.00  0.00    -0.2720 OA
ATOM     18  N4  665 L   1      -5.729  -7.102 -13.071  1.00  0.00    -0.3255  N
ATOM     19 C10  665 L   1      -6.305  -8.287 -12.585  1.00  0.00    +0.2381  C
ATOM     20 H35  665 L   1      -4.757  -7.128 -13.226  1.00  0.00    +0.1686 HD
BRANCH 19 21
ATOM     21  C7  665 L   1      -5.263  -9.399 -12.395  1.00  0.00    +0.1122  C
ATOM     22 H39  665 L   1      -5.414 -10.163 -13.129  1.00  0.00    +0.0502  H
BRANCH 21 23
ATOM     23  C8  665 L   1      -3.862  -8.849 -12.614  1.00  0.00    -0.0300  A
ATOM     24 C11  665 L   1      -3.240  -8.995 -13.854  1.00  0.00    -0.0573  A
ATOM     25 C12  665 L   1      -3.198  -8.198 -11.573  1.00  0.00    -0.0573  A
ATOM     26 C13  665 L   1      -1.292  -7.841 -13.014  1.00  0.00    -0.0103  A
ATOM     27 C14  665 L   1      -1.955  -8.492 -14.053  1.00  0.00    -0.0551  A
ATOM     28 C15  665 L   1      -1.913  -7.695 -11.773  1.00  0.00    -0.0551  A
ATOM     29 H42  665 L   1      -3.731  -9.476 -14.624  1.00  0.00    +0.0621  H
ATOM     30 H43  665 L   1      -3.658  -8.091 -10.655  1.00  0.00    +0.0621  H
ATOM     31 H44  665 L   1      -1.495  -8.600 -14.972  1.00  0.00    +0.0621  H
ATOM     32 H45  665 L   1      -1.421  -7.214 -11.003  1.00  0.00    +0.0621  H
BRANCH 26 33
ATOM     33 C17  665 L   1       0.083  -7.302 -13.227  1.00  0.00    +0.1179  C
ATOM     34 H46  665 L   1       0.764  -7.786 -12.559  1.00  0.00    +0.0749  H
ATOM     35 H47  665 L   1       0.385  -7.483 -14.237  1.00  0.00    +0.0749  H
BRANCH 33 36
ATOM     36  O1  665 L   1       0.085  -5.901 -12.975  1.00  0.00    -0.4564 OA
BRANCH 36 38
ATOM     37  O3  665 L   1       0.863  -5.054 -10.982  1.00  0.00    -0.2449 OA
ATOM     38 C25  665 L   1       1.045  -5.450 -12.123  1.00  0.00    +0.3398  C
BRANCH 38 39
ATOM     39 C23  665 L   1       2.383  -5.495 -12.767  1.00  0.00    +0.0619  A
ATOM     40 C24  665 L   1       2.727  -4.596 -13.776  1.00  0.00    -0.0362  A
ATOM     41 C27  665 L   1       4.908  -5.624 -13.945  1.00  0.00    -0.0502  A
ATOM     42 C28  665 L   1       3.990  -4.661 -14.364  1.00  0.00    -0.0551  A
ATOM     43 C29  665 L   1       3.299  -6.459 -12.347  1.00  0.00    -0.0473  A
ATOM     44 C31  665 L   1       4.562  -6.524 -12.936  1.00  0.00    -0.0580  A
ATOM     45 C32  665 L   1       1.765  -3.554 -14.244  1.00  0.00    -0.0389  C
ATOM     46 C34  665 L   1       6.258  -5.695 -14.574  1.00  0.00    -0.0397  C
ATOM     47 H52  665 L   1       4.246  -3.996 -15.112  1.00  0.00    +0.0623  H
ATOM     48 H53  665 L   1       3.044  -7.123 -11.600  1.00  0.00    +0.0626  H
ATOM     49 H55  665 L   1       5.240  -7.237 -12.624  1.00  0.00    +0.0620  H
ATOM     50 H56  665 L   1       0.851  -3.640 -13.694  1.00  0.00    +0.0278  H
ATOM     51 H57  665 L   1       1.569  -3.692 -15.286  1.00  0.00    +0.0278  H
ATOM     52 H58  665 L   1       2.186  -2.583 -14.086  1.00  0.00    +0.0278  H
ATOM     53 H60  665 L   1       6.344  -4.934 -15.321  1.00  0.00    +0.0278  H
ATOM     54 H61  665 L   1       6.391  -6.656 -15.026  1.00  0.00    +0.0278  H
ATOM     55 H62  665 L   1       7.008  -5.546 -13.826  1.00  0.00    +0.0278  H
ENDBRANCH 38 39
ENDBRANCH 36 38
ENDBRANCH 33 36
ENDBRANCH 26 33
ENDBRANCH 21 23
BRANCH 21 57
ATOM     56  N5  665 L   1      -6.695 -10.801 -10.921  1.00  0.00    -0.3600  N
ATOM     57  C9  665 L   1      -5.437 -10.066 -11.016  1.00  0.00    +0.0921  C
ATOM     58 H36  665 L   1      -6.772 -11.227  -9.998  1.00  0.00    +0.3450 HD
ATOM     59 H37  665 L   1      -6.717 -11.530 -11.634  1.00  0.00    +0.3450 HD
ATOM     60 H38  665 L   1      -7.475 -10.160 -11.067  1.00  0.00    +0.3450 HD
ATOM     61 H40  665 L   1      -4.625 -10.745 -10.855  1.00  0.00    +0.0926  H
ATOM     62 H41  665 L   1      -5.446  -9.296 -10.273  1.00  0.00    +0.0926  H
ENDBRANCH 21 57
ENDBRANCH 19 21
ENDBRANCH 2 18
TORSDOF 8
ENDMDL
MODEL 14
REMARK VINA RESULT:    -6.306      3.775     10.281
REMARK INTER + INTRA:         -10.403
REMARK INTER:                  -9.091
REMARK INTRA:                  -1.312
REMARK UNBOUND:                -1.147
ROOT
ATOM      1  N6  665 L   1      -9.136  -3.171 -13.011  1.00  0.00    -0.2626 NA
ATOM      2 C16  665 L   1      -6.947  -7.733 -13.032  1.00  0.00    +0.0423  A
ATOM      3 C18  665 L   1      -6.482  -6.440 -13.278  1.00  0.00    -0.0305  A
ATOM      4 C19  665 L   1      -7.351  -5.340 -13.193  1.00  0.00    -0.0131  A
ATOM      5 C20  665 L   1      -8.282  -7.945 -12.700  1.00  0.00    -0.0377  A
ATOM      6 C21  665 L   1      -8.703  -5.559 -12.857  1.00  0.00    +0.0004  A
ATOM      7 C22  665 L   1      -9.160  -6.865 -12.612  1.00  0.00    -0.0506  A
ATOM      8 C26  665 L   1      -6.916  -4.031 -13.433  1.00  0.00    -0.0358  A
ATOM      9 C30  665 L   1      -9.538  -4.442 -12.783  1.00  0.00    +0.0353  A
ATOM     10 C33  665 L   1      -7.836  -2.999 -13.331  1.00  0.00    +0.0281  A
ATOM     11 H48  665 L   1      -5.491  -6.290 -13.523  1.00  0.00    +0.0644  H
ATOM     12 H49  665 L   1      -8.623  -8.902 -12.519  1.00  0.00    +0.0638  H
ATOM     13 H50  665 L   1     -10.149  -7.025 -12.365  1.00  0.00    +0.0625  H
ATOM     14 H51  665 L   1      -5.933  -3.839 -13.682  1.00  0.00    +0.0639  H
ATOM     15 H54  665 L   1     -10.528  -4.596 -12.536  1.00  0.00    +0.0836  H
ATOM     16 H59  665 L   1      -7.506  -2.039 -13.509  1.00  0.00    +0.0830  H
ENDROOT
BRANCH 2 18
ATOM     17  O2  665 L   1      -5.262  -9.038 -10.921  1.00  0.00    -0.2720 OA
ATOM     18  N4  665 L   1      -6.069  -8.816 -13.118  1.00  0.00    -0.3255  N
ATOM     19 C10  665 L   1      -5.294  -9.389 -12.097  1.00  0.00    +0.2381  C
ATOM     20 H35  665 L   1      -5.984  -9.229 -14.007  1.00  0.00    +0.1686 HD
BRANCH 19 21
ATOM     21  C7  665 L   1      -4.456 -10.572 -12.606  1.00  0.00    +0.1122  C
ATOM     22 H39  665 L   1      -5.071 -11.223 -13.191  1.00  0.00    +0.0502  H
BRANCH 21 23
ATOM     23  C8  665 L   1      -3.345 -10.076 -13.519  1.00  0.00    -0.0300  A
ATOM     24 C11  665 L   1      -2.731  -8.848 -13.268  1.00  0.00    -0.0573  A
ATOM     25 C12  665 L   1      -2.940 -10.849 -14.608  1.00  0.00    -0.0573  A
ATOM     26 C13  665 L   1      -1.309  -9.166 -15.194  1.00  0.00    -0.0103  A
ATOM     27 C14  665 L   1      -1.714  -8.393 -14.106  1.00  0.00    -0.0551  A
ATOM     28 C15  665 L   1      -1.922 -10.393 -15.445  1.00  0.00    -0.0551  A
ATOM     29 H42  665 L   1      -3.031  -8.276 -12.462  1.00  0.00    +0.0621  H
ATOM     30 H43  665 L   1      -3.394 -11.756 -14.793  1.00  0.00    +0.0621  H
ATOM     31 H44  665 L   1      -1.259  -7.485 -13.920  1.00  0.00    +0.0621  H
ATOM     32 H45  665 L   1      -1.622 -10.965 -16.251  1.00  0.00    +0.0621  H
BRANCH 26 33
ATOM     33 C17  665 L   1      -0.220  -8.679 -16.090  1.00  0.00    +0.1179  C
ATOM     34 H46  665 L   1       0.031  -9.444 -16.795  1.00  0.00    +0.0749  H
ATOM     35 H47  665 L   1      -0.551  -7.807 -16.613  1.00  0.00    +0.0749  H
BRANCH 33 36
ATOM     36  O1  665 L   1       0.926  -8.358 -15.309  1.00  0.00    -0.4564 OA
BRANCH 36 38
ATOM     37  O3  665 L   1       0.861  -6.181 -16.052  1.00  0.00    -0.2449 OA
ATOM     38 C25  665 L   1       1.399  -7.089 -15.438  1.00  0.00    +0.3398  C
BRANCH 38 39
ATOM     39 C23  665 L   1       2.690  -6.934 -14.719  1.00  0.00    +0.0619  A
ATOM     40 C24  665 L   1       2.726  -6.714 -13.342  1.00  0.00    -0.0362  A
ATOM     41 C27  665 L   1       5.141  -6.647 -13.418  1.00  0.00    -0.0502  A
ATOM     42 C28  665 L   1       3.952  -6.572 -12.692  1.00  0.00    -0.0551  A
ATOM     43 C29  665 L   1       3.878  -7.009 -15.446  1.00  0.00    -0.0473  A
ATOM     44 C31  665 L   1       5.104  -6.865 -14.796  1.00  0.00    -0.0580  A
ATOM     45 C32  665 L   1       1.469  -6.631 -12.540  1.00  0.00    -0.0389  C
ATOM     46 C34  665 L   1       6.451  -6.493 -12.724  1.00  0.00    -0.0397  C
ATOM     47 H52  665 L   1       3.980  -6.409 -11.672  1.00  0.00    +0.0623  H
ATOM     48 H53  665 L   1       3.850  -7.172 -16.464  1.00  0.00    +0.0626  H
ATOM     49 H55  665 L   1       5.982  -6.921 -15.334  1.00  0.00    +0.0620  H
ATOM     50 H56  665 L   1       0.625  -6.761 -13.185  1.00  0.00    +0.0278  H
ATOM     51 H57  665 L   1       1.411  -5.673 -12.066  1.00  0.00    +0.0278  H
ATOM     52 H58  665 L   1       1.470  -7.398 -11.794  1.00  0.00    +0.0278  H
ATOM     53 H60  665 L   1       6.286  -6.334 -11.679  1.00  0.00    +0.0278  H
ATOM     54 H61  665 L   1       6.976  -5.655 -13.134  1.00  0.00    +0.0278  H
ATOM     55 H62  665 L   1       7.034  -7.380 -12.861  1.00  0.00    +0.0278  H
ENDBRANCH 38 39
ENDBRANCH 36 38
ENDBRANCH 33 36
ENDBRANCH 26 33
ENDBRANCH 21 23
BRANCH 21 57
ATOM     56  N5  665 L   1      -5.006 -11.817 -10.523  1.00  0.00    -0.3600  N
ATOM     57  C9  665 L   1      -3.930 -11.405 -11.420  1.00  0.00    +0.0921  C
ATOM     58 H36  665 L   1      -4.619 -12.364  -9.755  1.00  0.00    +0.3450 HD
ATOM     59 H37  665 L   1      -5.679 -12.384 -11.039  1.00  0.00    +0.3450 HD
ATOM     60 H38  665 L   1      -5.474 -10.990 -10.151  1.00  0.00    +0.3450 HD
ATOM     61 H40  665 L   1      -3.442 -12.278 -11.800  1.00  0.00    +0.0926  H
ATOM     62 H41  665 L   1      -3.249 -10.796 -10.862  1.00  0.00    +0.0926  H
ENDBRANCH 21 57
ENDBRANCH 19 21
ENDBRANCH 2 18
TORSDOF 8
ENDMDL
MODEL 15
REMARK VINA RESULT:    -6.261      4.774      8.977
REMARK INTER + INTRA:         -10.336
REMARK INTER:                  -9.297
REMARK INTRA:                  -1.040
REMARK UNBOUND:                -1.147
ROOT
ATOM      1  N6  665 L   1      -8.104  -9.802 -11.716  1.00  0.00    -0.2626 NA
ATOM      2 C16  665 L   1      -3.505  -7.786 -12.345  1.00  0.00    +0.0423  A
ATOM      3 C18  665 L   1      -3.996  -8.847 -11.583  1.00  0.00    -0.0305  A
ATOM      4 C19  665 L   1      -5.360  -9.180 -11.616  1.00  0.00    -0.0131  A
ATOM      5 C20  665 L   1      -4.368  -7.042 -13.147  1.00  0.00    -0.0377  A
ATOM      6 C21  665 L   1      -6.231  -8.424 -12.428  1.00  0.00    +0.0004  A
ATOM      7 C22  665 L   1      -5.725  -7.357 -13.191  1.00  0.00    -0.0506  A
ATOM      8 C26  665 L   1      -5.883 -10.238 -10.863  1.00  0.00    -0.0358  A
ATOM      9 C30  665 L   1      -7.580  -8.783 -12.434  1.00  0.00    +0.0353  A
ATOM     10 C33  665 L   1      -7.241 -10.502 -10.949  1.00  0.00    +0.0281  A
ATOM     11 H48  665 L   1      -3.350  -9.394 -10.992  1.00  0.00    +0.0644  H
ATOM     12 H49  665 L   1      -4.002  -6.258 -13.709  1.00  0.00    +0.0638  H
ATOM     13 H50  665 L   1      -6.362  -6.805 -13.786  1.00  0.00    +0.0625  H
ATOM     14 H51  665 L   1      -5.271 -10.808 -10.259  1.00  0.00    +0.0639  H
ATOM     15 H54  665 L   1      -8.221  -8.234 -13.028  1.00  0.00    +0.0836  H
ATOM     16 H59  665 L   1      -7.616 -11.284 -10.391  1.00  0.00    +0.0830  H
ENDROOT
BRANCH 2 18
ATOM     17  O2  665 L   1      -1.979  -6.034 -10.448  1.00  0.00    -0.2720 OA
ATOM     18  N4  665 L   1      -2.146  -7.469 -12.304  1.00  0.00    -0.3255  N
ATOM     19 C10  665 L   1      -1.475  -6.634 -11.395  1.00  0.00    +0.2381  C
ATOM     20 H35  665 L   1      -1.587  -7.884 -13.000  1.00  0.00    +0.1686 HD
BRANCH 19 21
ATOM     21  C7  665 L   1       0.029  -6.547 -11.694  1.00  0.00    +0.1122  C
ATOM     22 H39  665 L   1       0.354  -7.450 -12.167  1.00  0.00    +0.0502  H
BRANCH 21 23
ATOM     23  C8  665 L   1       0.306  -5.413 -12.669  1.00  0.00    -0.0300  A
ATOM     24 C11  665 L   1       0.698  -5.698 -13.977  1.00  0.00    -0.0573  A
ATOM     25 C12  665 L   1       0.168  -4.088 -12.255  1.00  0.00    -0.0573  A
ATOM     26 C13  665 L   1       0.815  -3.333 -14.457  1.00  0.00    -0.0103  A
ATOM     27 C14  665 L   1       0.953  -4.657 -14.871  1.00  0.00    -0.0551  A
ATOM     28 C15  665 L   1       0.423  -3.048 -13.149  1.00  0.00    -0.0551  A
ATOM     29 H42  665 L   1       0.800  -6.678 -14.284  1.00  0.00    +0.0621  H
ATOM     30 H43  665 L   1      -0.123  -3.877 -11.287  1.00  0.00    +0.0621  H
ATOM     31 H44  665 L   1       1.244  -4.868 -15.839  1.00  0.00    +0.0621  H
ATOM     32 H45  665 L   1       0.321  -2.067 -12.843  1.00  0.00    +0.0621  H
BRANCH 26 33
ATOM     33 C17  665 L   1       1.087  -2.221 -15.413  1.00  0.00    +0.1179  C
ATOM     34 H46  665 L   1       2.114  -2.250 -15.713  1.00  0.00    +0.0749  H
ATOM     35 H47  665 L   1       0.461  -2.328 -16.274  1.00  0.00    +0.0749  H
BRANCH 33 36
ATOM     36  O1  665 L   1       0.813  -0.976 -14.779  1.00  0.00    -0.4564 OA
BRANCH 36 38
ATOM     37  O3  665 L   1      -0.851  -0.155 -16.141  1.00  0.00    -0.2449 OA
ATOM     38 C25  665 L   1       0.213  -0.032 -15.554  1.00  0.00    +0.3398  C
BRANCH 38 39
ATOM     39 C23  665 L   1       1.032   1.206 -15.602  1.00  0.00    +0.0619  A
ATOM     40 C24  665 L   1       0.539   2.416 -15.112  1.00  0.00    -0.0362  A
ATOM     41 C27  665 L   1       2.610   3.503 -15.719  1.00  0.00    -0.0502  A
ATOM     42 C28  665 L   1       1.329   3.564 -15.170  1.00  0.00    -0.0551  A
ATOM     43 C29  665 L   1       2.313   1.145 -16.152  1.00  0.00    -0.0473  A
ATOM     44 C31  665 L   1       3.102   2.293 -16.211  1.00  0.00    -0.0580  A
ATOM     45 C32  665 L   1      -0.828   2.509 -14.517  1.00  0.00    -0.0389  C
ATOM     46 C34  665 L   1       3.455   4.730 -15.783  1.00  0.00    -0.0397  C
ATOM     47 H52  665 L   1       0.966   4.460 -14.807  1.00  0.00    +0.0623  H
ATOM     48 H53  665 L   1       2.676   0.250 -16.513  1.00  0.00    +0.0626  H
ATOM     49 H55  665 L   1       4.049   2.248 -16.617  1.00  0.00    +0.0620  H
ATOM     50 H56  665 L   1      -1.296   1.547 -14.548  1.00  0.00    +0.0278  H
ATOM     51 H57  665 L   1      -1.413   3.209 -15.076  1.00  0.00    +0.0278  H
ATOM     52 H58  665 L   1      -0.754   2.837 -13.502  1.00  0.00    +0.0278  H
ATOM     53 H60  665 L   1       2.918   5.555 -15.364  1.00  0.00    +0.0278  H
ATOM     54 H61  665 L   1       3.698   4.944 -16.803  1.00  0.00    +0.0278  H
ATOM     55 H62  665 L   1       4.356   4.573 -15.228  1.00  0.00    +0.0278  H
ENDBRANCH 38 39
ENDBRANCH 36 38
ENDBRANCH 33 36
ENDBRANCH 26 33
ENDBRANCH 21 23
BRANCH 21 57
ATOM     56  N5  665 L   1       0.591  -7.547  -9.487  1.00  0.00    -0.3600  N
ATOM     57  C9  665 L   1       0.829  -6.418 -10.382  1.00  0.00    +0.0921  C
ATOM     58 H36  665 L   1       1.137  -7.425  -8.634  1.00  0.00    +0.3450 HD
ATOM     59 H37  665 L   1       0.871  -8.412  -9.949  1.00  0.00    +0.3450 HD
ATOM     60 H38  665 L   1      -0.401  -7.592  -9.253  1.00  0.00    +0.3450 HD
ATOM     61 H40  665 L   1       1.872  -6.375 -10.616  1.00  0.00    +0.0926  H
ATOM     62 H41  665 L   1       0.510  -5.527  -9.884  1.00  0.00    +0.0926  H
ENDBRANCH 21 57
ENDBRANCH 19 21
ENDBRANCH 2 18
TORSDOF 8
ENDMDL
MODEL 16
REMARK VINA RESULT:    -6.259      6.848      9.391
REMARK INTER + INTRA:         -10.334
REMARK INTER:                  -9.544
REMARK INTRA:                  -0.789
REMARK UNBOUND:                -1.147
ROOT
ATOM      1  N6  665 L   1       5.848   7.458 -15.306  1.00  0.00    -0.2626 NA
ATOM      2 C16  665 L   1       2.218   3.941 -15.538  1.00  0.00    +0.0423  A
ATOM      3 C18  665 L   1       3.558   3.969 -15.927  1.00  0.00    -0.0305  A
ATOM      4 C19  665 L   1       4.335   5.122 -15.727  1.00  0.00    -0.0131  A
ATOM      5 C20  665 L   1       1.636   5.060 -14.948  1.00  0.00    -0.0377  A
ATOM      6 C21  665 L   1       3.743   6.254 -15.129  1.00  0.00    +0.0004  A
ATOM      7 C22  665 L   1       2.392   6.213 -14.743  1.00  0.00    -0.0506  A
ATOM      8 C26  665 L   1       5.682   5.182 -16.105  1.00  0.00    -0.0358  A
ATOM      9 C30  665 L   1       4.546   7.381 -14.948  1.00  0.00    +0.0353  A
ATOM     10 C33  665 L   1       6.382   6.357 -15.875  1.00  0.00    +0.0281  A
ATOM     11 H48  665 L   1       3.982   3.136 -16.363  1.00  0.00    +0.0644  H
ATOM     12 H49  665 L   1       0.644   5.036 -14.663  1.00  0.00    +0.0638  H
ATOM     13 H50  665 L   1       1.959   7.041 -14.306  1.00  0.00    +0.0625  H
ATOM     14 H51  665 L   1       6.143   4.370 -16.545  1.00  0.00    +0.0639  H
ATOM     15 H54  665 L   1       4.117   8.212 -14.510  1.00  0.00    +0.0836  H
ATOM     16 H59  665 L   1       7.373   6.391 -16.157  1.00  0.00    +0.0830  H
ENDROOT
BRANCH 2 18
ATOM     17  O2  665 L   1       0.955   2.076 -13.558  1.00  0.00    -0.2720 OA
ATOM     18  N4  665 L   1       1.458   2.787 -15.742  1.00  0.00    -0.3255  N
ATOM     19 C10  665 L   1       0.891   1.938 -14.777  1.00  0.00    +0.2381  C
ATOM     20 H35  665 L   1       1.301   2.536 -16.681  1.00  0.00    +0.1686 HD
BRANCH 19 21
ATOM     21  C7  665 L   1       0.126   0.769 -15.415  1.00  0.00    +0.1122  C
ATOM     22 H39  665 L   1       0.434   0.652 -16.434  1.00  0.00    +0.0502  H
BRANCH 21 23
ATOM     23  C8  665 L   1       0.461  -0.531 -14.701  1.00  0.00    -0.0300  A
ATOM     24 C11  665 L   1       0.941  -1.622 -15.426  1.00  0.00    -0.0573  A
ATOM     25 C12  665 L   1       0.289  -0.632 -13.320  1.00  0.00    -0.0573  A
ATOM     26 C13  665 L   1       1.075  -2.916 -13.391  1.00  0.00    -0.0103  A
ATOM     27 C14  665 L   1       1.246  -2.815 -14.771  1.00  0.00    -0.0551  A
ATOM     28 C15  665 L   1       0.595  -1.825 -12.666  1.00  0.00    -0.0551  A
ATOM     29 H42  665 L   1       1.068  -1.547 -16.448  1.00  0.00    +0.0621  H
ATOM     30 H43  665 L   1      -0.065   0.175 -12.784  1.00  0.00    +0.0621  H
ATOM     31 H44  665 L   1       1.601  -3.622 -15.308  1.00  0.00    +0.0621  H
ATOM     32 H45  665 L   1       0.468  -1.900 -11.644  1.00  0.00    +0.0621  H
BRANCH 26 33
ATOM     33 C17  665 L   1       1.402  -4.191 -12.690  1.00  0.00    +0.1179  C
ATOM     34 H46  665 L   1       2.397  -4.492 -12.942  1.00  0.00    +0.0749  H
ATOM     35 H47  665 L   1       1.332  -4.045 -11.632  1.00  0.00    +0.0749  H
BRANCH 33 36
ATOM     36  O1  665 L   1       0.483  -5.201 -13.092  1.00  0.00    -0.4564 OA
BRANCH 36 38
ATOM     37  O3  665 L   1       0.705  -6.520 -11.219  1.00  0.00    -0.2449 OA
ATOM     38 C25  665 L   1       0.029  -6.021 -12.106  1.00  0.00    +0.3398  C
BRANCH 38 39
ATOM     39 C23  665 L   1      -1.432  -6.247 -12.241  1.00  0.00    +0.0619  A
ATOM     40 C24  665 L   1      -2.353  -5.344 -11.708  1.00  0.00    -0.0362  A
ATOM     41 C27  665 L   1      -4.168  -6.718 -12.521  1.00  0.00    -0.0502  A
ATOM     42 C28  665 L   1      -3.721  -5.580 -11.849  1.00  0.00    -0.0551  A
ATOM     43 C29  665 L   1      -1.878  -7.385 -12.913  1.00  0.00    -0.0473  A
ATOM     44 C31  665 L   1      -3.246  -7.621 -13.053  1.00  0.00    -0.0580  A
ATOM     45 C32  665 L   1      -1.902  -4.117 -10.985  1.00  0.00    -0.0389  C
ATOM     46 C34  665 L   1      -5.629  -6.972 -12.671  1.00  0.00    -0.0397  C
ATOM     47 H52  665 L   1      -4.403  -4.913 -11.454  1.00  0.00    +0.0623  H
ATOM     48 H53  665 L   1      -1.197  -8.051 -13.308  1.00  0.00    +0.0626  H
ATOM     49 H55  665 L   1      -3.576  -8.463 -13.551  1.00  0.00    +0.0620  H
ATOM     50 H56  665 L   1      -0.833  -4.087 -10.966  1.00  0.00    +0.0278  H
ATOM     51 H57  665 L   1      -2.276  -4.137  -9.983  1.00  0.00    +0.0278  H
ATOM     52 H58  665 L   1      -2.276  -3.250 -11.487  1.00  0.00    +0.0278  H
ATOM     53 H60  665 L   1      -6.178  -6.181 -12.205  1.00  0.00    +0.0278  H
ATOM     54 H61  665 L   1      -5.879  -7.903 -12.206  1.00  0.00    +0.0278  H
ATOM     55 H62  665 L   1      -5.879  -7.014 -13.710  1.00  0.00    +0.0278  H
ENDBRANCH 38 39
ENDBRANCH 36 38
ENDBRANCH 33 36
ENDBRANCH 26 33
ENDBRANCH 21 23
BRANCH 21 57
ATOM     56  N5  665 L   1      -1.676   2.444 -15.045  1.00  0.00    -0.3600  N
ATOM     57  C9  665 L   1      -1.386   1.068 -15.439  1.00  0.00    +0.0921  C
ATOM     58 H36  665 L   1      -2.683   2.602 -15.074  1.00  0.00    +0.3450 HD
ATOM     59 H37  665 L   1      -1.213   3.086 -15.688  1.00  0.00    +0.3450 HD
ATOM     60 H38  665 L   1      -1.332   2.606 -14.098  1.00  0.00    +0.3450 HD
ATOM     61 H40  665 L   1      -1.755   0.907 -16.430  1.00  0.00    +0.0926  H
ATOM     62 H41  665 L   1      -1.865   0.415 -14.739  1.00  0.00    +0.0926  H
ENDBRANCH 21 57
ENDBRANCH 19 21
ENDBRANCH 2 18
TORSDOF 8
ENDMDL
MODEL 17
REMARK VINA RESULT:    -6.210      3.998      9.120
REMARK INTER + INTRA:         -10.261
REMARK INTER:                  -8.820
REMARK INTRA:                  -1.441
REMARK UNBOUND:                -1.147
ROOT
ATOM      1  N6  665 L   1      -8.997  -2.921 -13.109  1.00  0.00    -0.2626 NA
ATOM      2 C16  665 L   1      -6.683  -7.421 -13.111  1.00  0.00    +0.0423  A
ATOM      3 C18  665 L   1      -6.233  -6.106 -13.242  1.00  0.00    -0.0305  A
ATOM      4 C19  665 L   1      -7.139  -5.034 -13.199  1.00  0.00    -0.0131  A
ATOM      5 C20  665 L   1      -8.040  -7.683 -12.939  1.00  0.00    -0.0377  A
ATOM      6 C21  665 L   1      -8.512  -5.302 -13.024  1.00  0.00    +0.0004  A
ATOM      7 C22  665 L   1      -8.953  -6.630 -12.895  1.00  0.00    -0.0506  A
ATOM      8 C26  665 L   1      -6.719  -3.704 -13.327  1.00  0.00    -0.0358  A
ATOM      9 C30  665 L   1      -9.383  -4.211 -12.988  1.00  0.00    +0.0353  A
ATOM     10 C33  665 L   1      -7.676  -2.701 -13.275  1.00  0.00    +0.0281  A
ATOM     11 H48  665 L   1      -5.226  -5.920 -13.369  1.00  0.00    +0.0644  H
ATOM     12 H49  665 L   1      -8.369  -8.656 -12.843  1.00  0.00    +0.0638  H
ATOM     13 H50  665 L   1      -9.958  -6.827 -12.767  1.00  0.00    +0.0625  H
ATOM     14 H51  665 L   1      -5.721  -3.476 -13.456  1.00  0.00    +0.0639  H
ATOM     15 H54  665 L   1     -10.389  -4.403 -12.860  1.00  0.00    +0.0836  H
ATOM     16 H59  665 L   1      -7.357  -1.725 -13.370  1.00  0.00    +0.0830  H
ENDROOT
BRANCH 2 18
ATOM     17  O2  665 L   1      -5.596  -9.135 -10.903  1.00  0.00    -0.2720 OA
ATOM     18  N4  665 L   1      -5.769  -8.476 -13.154  1.00  0.00    -0.3255  N
ATOM     19 C10  665 L   1      -5.284  -9.249 -12.085  1.00  0.00    +0.2381  C
ATOM     20 H35  665 L   1      -5.422  -8.708 -14.045  1.00  0.00    +0.1686 HD
BRANCH 19 21
ATOM     21  C7  665 L   1      -4.286 -10.318 -12.555  1.00  0.00    +0.1122  C
ATOM     22 H39  665 L   1      -4.790 -11.032 -13.173  1.00  0.00    +0.0502  H
BRANCH 21 23
ATOM     23  C8  665 L   1      -3.199  -9.685 -13.408  1.00  0.00    -0.0300  A
ATOM     24 C11  665 L   1      -2.774 -10.314 -14.578  1.00  0.00    -0.0573  A
ATOM     25 C12  665 L   1      -2.625  -8.473 -13.020  1.00  0.00    -0.0573  A
ATOM     26 C13  665 L   1      -1.202  -8.523 -14.972  1.00  0.00    -0.0103  A
ATOM     27 C14  665 L   1      -1.775  -9.733 -15.360  1.00  0.00    -0.0551  A
ATOM     28 C15  665 L   1      -1.626  -7.893 -13.802  1.00  0.00    -0.0551  A
ATOM     29 H42  665 L   1      -3.199 -11.210 -14.866  1.00  0.00    +0.0621  H
ATOM     30 H43  665 L   1      -2.939  -8.008 -12.154  1.00  0.00    +0.0621  H
ATOM     31 H44  665 L   1      -1.461 -10.199 -16.226  1.00  0.00    +0.0621  H
ATOM     32 H45  665 L   1      -1.202  -6.997 -13.515  1.00  0.00    +0.0621  H
BRANCH 26 33
ATOM     33 C17  665 L   1      -0.135  -7.901 -15.808  1.00  0.00    +0.1179  C
ATOM     34 H46  665 L   1       0.812  -8.329 -15.554  1.00  0.00    +0.0749  H
ATOM     35 H47  665 L   1      -0.341  -8.081 -16.843  1.00  0.00    +0.0749  H
BRANCH 33 36
ATOM     36  O1  665 L   1      -0.103  -6.499 -15.568  1.00  0.00    -0.4564 OA
BRANCH 36 38
ATOM     37  O3  665 L   1       2.169  -6.558 -15.210  1.00  0.00    -0.2449 OA
ATOM     38 C25  665 L   1       1.089  -5.991 -15.152  1.00  0.00    +0.3398  C
BRANCH 38 39
ATOM     39 C23  665 L   1       0.914  -4.623 -14.602  1.00  0.00    +0.0619  A
ATOM     40 C24  665 L   1       0.754  -4.412 -13.232  1.00  0.00    -0.0362  A
ATOM     41 C27  665 L   1       0.588  -2.032 -13.619  1.00  0.00    -0.0502  A
ATOM     42 C28  665 L   1       0.591  -3.117 -12.741  1.00  0.00    -0.0551  A
ATOM     43 C29  665 L   1       0.911  -3.539 -15.480  1.00  0.00    -0.0473  A
ATOM     44 C31  665 L   1       0.748  -2.244 -14.989  1.00  0.00    -0.0580  A
ATOM     45 C32  665 L   1       0.755  -5.555 -12.270  1.00  0.00    -0.0389  C
ATOM     46 C34  665 L   1       0.413  -0.647 -13.095  1.00  0.00    -0.0397  C
ATOM     47 H52  665 L   1       0.472  -2.960 -11.728  1.00  0.00    +0.0623  H
ATOM     48 H53  665 L   1       1.031  -3.696 -16.493  1.00  0.00    +0.0626  H
ATOM     49 H55  665 L   1       0.746  -1.442 -15.639  1.00  0.00    +0.0620  H
ATOM     50 H56  665 L   1       0.889  -6.472 -12.805  1.00  0.00    +0.0278  H
ATOM     51 H57  665 L   1      -0.179  -5.581 -11.747  1.00  0.00    +0.0278  H
ATOM     52 H58  665 L   1       1.552  -5.430 -11.568  1.00  0.00    +0.0278  H
ATOM     53 H60  665 L   1       0.307  -0.679 -12.032  1.00  0.00    +0.0278  H
ATOM     54 H61  665 L   1      -0.461  -0.209 -13.529  1.00  0.00    +0.0278  H
ATOM     55 H62  665 L   1       1.270  -0.059 -13.350  1.00  0.00    +0.0278  H
ENDBRANCH 38 39
ENDBRANCH 36 38
ENDBRANCH 33 36
ENDBRANCH 26 33
ENDBRANCH 21 23
BRANCH 21 57
ATOM     56  N5  665 L   1      -4.765 -11.849 -10.653  1.00  0.00    -0.3600  N
ATOM     57  C9  665 L   1      -3.725 -11.094 -11.346  1.00  0.00    +0.0921  C
ATOM     58 H36  665 L   1      -4.354 -12.348  -9.863  1.00  0.00    +0.3450 HD
ATOM     59 H37  665 L   1      -5.183 -12.520 -11.297  1.00  0.00    +0.3450 HD
ATOM     60 H38  665 L   1      -5.483 -11.209 -10.316  1.00  0.00    +0.3450 HD
ATOM     61 H40  665 L   1      -2.973 -11.774 -11.690  1.00  0.00    +0.0926  H
ATOM     62 H41  665 L   1      -3.315 -10.385 -10.657  1.00  0.00    +0.0926  H
ENDBRANCH 21 57
ENDBRANCH 19 21
ENDBRANCH 2 18
TORSDOF 8
ENDMDL
MODEL 18
REMARK VINA RESULT:    -6.177      2.845      4.413
REMARK INTER + INTRA:         -10.213
REMARK INTER:                  -8.127
REMARK INTRA:                  -2.086
REMARK UNBOUND:                -1.147
ROOT
ATOM      1  N6  665 L   1       1.738  -3.005 -13.229  1.00  0.00    -0.2626 NA
ATOM      2 C16  665 L   1      -1.358  -6.956 -12.585  1.00  0.00    +0.0423  A
ATOM      3 C18  665 L   1      -0.255  -6.720 -13.406  1.00  0.00    -0.0305  A
ATOM      4 C19  665 L   1       0.421  -5.490 -13.360  1.00  0.00    -0.0131  A
ATOM      5 C20  665 L   1      -1.802  -5.968 -11.709  1.00  0.00    -0.0377  A
ATOM      6 C21  665 L   1      -0.032  -4.492 -12.472  1.00  0.00    +0.0004  A
ATOM      7 C22  665 L   1      -1.144  -4.740 -11.650  1.00  0.00    -0.0506  A
ATOM      8 C26  665 L   1       1.531  -5.223 -14.171  1.00  0.00    -0.0358  A
ATOM      9 C30  665 L   1       0.664  -3.282 -12.455  1.00  0.00    +0.0353  A
ATOM     10 C33  665 L   1       2.143  -3.983 -14.067  1.00  0.00    +0.0281  A
ATOM     11 H48  665 L   1       0.069  -7.457 -14.053  1.00  0.00    +0.0644  H
ATOM     12 H49  665 L   1      -2.619  -6.145 -11.103  1.00  0.00    +0.0638  H
ATOM     13 H50  665 L   1      -1.475  -4.010 -11.001  1.00  0.00    +0.0625  H
ATOM     14 H51  665 L   1       1.885  -5.933 -14.831  1.00  0.00    +0.0639  H
ATOM     15 H54  665 L   1       0.337  -2.548 -11.806  1.00  0.00    +0.0836  H
ATOM     16 H59  665 L   1       2.959  -3.797 -14.668  1.00  0.00    +0.0830  H
ENDROOT
BRANCH 2 18
ATOM     17  O2  665 L   1      -3.118  -8.116 -14.719  1.00  0.00    -0.2720 OA
ATOM     18  N4  665 L   1      -2.019  -8.185 -12.641  1.00  0.00    -0.3255  N
ATOM     19 C10  665 L   1      -2.841  -8.683 -13.665  1.00  0.00    +0.2381  C
ATOM     20 H35  665 L   1      -1.891  -8.777 -11.865  1.00  0.00    +0.1686 HD
BRANCH 19 21
ATOM     21  C7  665 L   1      -3.379 -10.085 -13.341  1.00  0.00    +0.1122  C
ATOM     22 H39  665 L   1      -2.809 -10.513 -12.543  1.00  0.00    +0.0502  H
BRANCH 21 23
ATOM     23  C8  665 L   1      -4.818  -9.997 -12.857  1.00  0.00    -0.0300  A
ATOM     24 C11  665 L   1      -5.798 -10.808 -13.430  1.00  0.00    -0.0573  A
ATOM     25 C12  665 L   1      -5.158  -9.106 -11.838  1.00  0.00    -0.0573  A
ATOM     26 C13  665 L   1      -7.457  -9.835 -11.968  1.00  0.00    -0.0103  A
ATOM     27 C14  665 L   1      -7.118 -10.726 -12.986  1.00  0.00    -0.0551  A
ATOM     28 C15  665 L   1      -6.478  -9.024 -11.395  1.00  0.00    -0.0551  A
ATOM     29 H42  665 L   1      -5.547 -11.467 -14.183  1.00  0.00    +0.0621  H
ATOM     30 H43  665 L   1      -4.433  -8.506 -11.414  1.00  0.00    +0.0621  H
ATOM     31 H44  665 L   1      -7.843 -11.326 -13.411  1.00  0.00    +0.0621  H
ATOM     32 H45  665 L   1      -6.729  -8.365 -10.642  1.00  0.00    +0.0621  H
BRANCH 26 33
ATOM     33 C17  665 L   1      -8.869  -9.748 -11.493  1.00  0.00    +0.1179  C
ATOM     34 H46  665 L   1      -9.479 -10.418 -12.061  1.00  0.00    +0.0749  H
ATOM     35 H47  665 L   1      -8.914 -10.015 -10.458  1.00  0.00    +0.0749  H
BRANCH 33 36
ATOM     36  O1  665 L   1      -9.342  -8.416 -11.661  1.00  0.00    -0.4564 OA
BRANCH 36 38
ATOM     37  O3  665 L   1      -9.906  -8.591 -13.886  1.00  0.00    -0.2449 OA
ATOM     38 C25  665 L   1      -9.433  -7.973 -12.944  1.00  0.00    +0.3398  C
BRANCH 38 39
ATOM     39 C23  665 L   1      -8.869  -6.604 -13.068  1.00  0.00    +0.0619  A
ATOM     40 C24  665 L   1      -7.747  -6.357 -13.860  1.00  0.00    -0.0362  A
ATOM     41 C27  665 L   1      -7.847  -4.016 -13.266  1.00  0.00    -0.0502  A
ATOM     42 C28  665 L   1      -7.237  -5.062 -13.959  1.00  0.00    -0.0551  A
ATOM     43 C29  665 L   1      -9.479  -5.559 -12.375  1.00  0.00    -0.0473  A
ATOM     44 C31  665 L   1      -8.968  -4.265 -12.474  1.00  0.00    -0.0580  A
ATOM     45 C32  665 L   1      -7.075  -7.458 -14.614  1.00  0.00    -0.0389  C
ATOM     46 C34  665 L   1      -7.301  -2.632 -13.370  1.00  0.00    -0.0397  C
ATOM     47 H52  665 L   1      -6.406  -4.878 -14.545  1.00  0.00    +0.0623  H
ATOM     48 H53  665 L   1     -10.309  -5.743 -11.791  1.00  0.00    +0.0626  H
ATOM     49 H55  665 L   1      -9.420  -3.492 -11.961  1.00  0.00    +0.0620  H
ATOM     50 H56  665 L   1      -7.587  -8.379 -14.431  1.00  0.00    +0.0278  H
ATOM     51 H57  665 L   1      -6.059  -7.544 -14.288  1.00  0.00    +0.0278  H
ATOM     52 H58  665 L   1      -7.096  -7.239 -15.660  1.00  0.00    +0.0278  H
ATOM     53 H60  665 L   1      -6.448  -2.633 -14.016  1.00  0.00    +0.0278  H
ATOM     54 H61  665 L   1      -7.014  -2.288 -12.399  1.00  0.00    +0.0278  H
ATOM     55 H62  665 L   1      -8.051  -1.983 -13.772  1.00  0.00    +0.0278  H
ENDBRANCH 38 39
ENDBRANCH 36 38
ENDBRANCH 33 36
ENDBRANCH 26 33
ENDBRANCH 21 23
BRANCH 21 57
ATOM     56  N5  665 L   1      -1.946 -10.789 -15.249  1.00  0.00    -0.3600  N
ATOM     57  C9  665 L   1      -3.212 -11.017 -14.558  1.00  0.00    +0.0921  C
ATOM     58 H36  665 L   1      -1.873 -11.423 -16.044  1.00  0.00    +0.3450 HD
ATOM     59 H37  665 L   1      -1.173 -10.960 -14.606  1.00  0.00    +0.3450 HD
ATOM     60 H38  665 L   1      -1.907  -9.824 -15.578  1.00  0.00    +0.3450 HD
ATOM     61 H40  665 L   1      -3.245 -12.033 -14.222  1.00  0.00    +0.0926  H
ATOM     62 H41  665 L   1      -4.006 -10.813 -15.245  1.00  0.00    +0.0926  H
ENDBRANCH 21 57
ENDBRANCH 19 21
ENDBRANCH 2 18
TORSDOF 8
ENDMDL
MODEL 19
REMARK VINA RESULT:    -6.161      2.259      3.711
REMARK INTER + INTRA:         -10.189
REMARK INTER:                  -9.014
REMARK INTRA:                  -1.175
REMARK UNBOUND:                -1.147
ROOT
ATOM      1  N6  665 L   1       2.895  -4.758 -12.803  1.00  0.00    -0.2626 NA
ATOM      2 C16  665 L   1      -1.567  -6.814 -11.592  1.00  0.00    +0.0423  A
ATOM      3 C18  665 L   1      -0.319  -7.345 -11.920  1.00  0.00    -0.0305  A
ATOM      4 C19  665 L   1       0.762  -6.499 -12.216  1.00  0.00    -0.0131  A
ATOM      5 C20  665 L   1      -1.754  -5.435 -11.557  1.00  0.00    -0.0377  A
ATOM      6 C21  665 L   1       0.570  -5.102 -12.180  1.00  0.00    +0.0004  A
ATOM      7 C22  665 L   1      -0.692  -4.579 -11.849  1.00  0.00    -0.0506  A
ATOM      8 C26  665 L   1       2.027  -7.000 -12.549  1.00  0.00    -0.0358  A
ATOM      9 C30  665 L   1       1.667  -4.293 -12.481  1.00  0.00    +0.0353  A
ATOM     10 C33  665 L   1       3.042  -6.099 -12.829  1.00  0.00    +0.0281  A
ATOM     11 H48  665 L   1      -0.188  -8.369 -11.944  1.00  0.00    +0.0644  H
ATOM     12 H49  665 L   1      -2.678  -5.045 -11.315  1.00  0.00    +0.0638  H
ATOM     13 H50  665 L   1      -0.833  -3.558 -11.822  1.00  0.00    +0.0625  H
ATOM     14 H51  665 L   1       2.198  -8.017 -12.584  1.00  0.00    +0.0639  H
ATOM     15 H54  665 L   1       1.531  -3.270 -12.455  1.00  0.00    +0.0836  H
ATOM     16 H59  665 L   1       3.970  -6.478 -13.072  1.00  0.00    +0.0830  H
ENDROOT
BRANCH 2 18
ATOM     17  O2  665 L   1      -2.558  -9.247 -13.041  1.00  0.00    -0.2720 OA
ATOM     18  N4  665 L   1      -2.632  -7.669 -11.299  1.00  0.00    -0.3255  N
ATOM     19 C10  665 L   1      -3.063  -8.798 -12.015  1.00  0.00    +0.2381  C
ATOM     20 H35  665 L   1      -3.145  -7.453 -10.487  1.00  0.00    +0.1686 HD
BRANCH 19 21
ATOM     21  C7  665 L   1      -4.278  -9.469 -11.357  1.00  0.00    +0.1122  C
ATOM     22 H39  665 L   1      -4.386  -9.111 -10.354  1.00  0.00    +0.0502  H
BRANCH 21 23
ATOM     23  C8  665 L   1      -5.551  -9.095 -12.098  1.00  0.00    -0.0300  A
ATOM     24 C11  665 L   1      -6.788  -9.541 -11.630  1.00  0.00    -0.0573  A
ATOM     25 C12  665 L   1      -5.484  -8.305 -13.247  1.00  0.00    -0.0573  A
ATOM     26 C13  665 L   1      -7.888  -8.409 -13.459  1.00  0.00    -0.0103  A
ATOM     27 C14  665 L   1      -7.956  -9.198 -12.311  1.00  0.00    -0.0551  A
ATOM     28 C15  665 L   1      -6.652  -7.963 -13.927  1.00  0.00    -0.0551  A
ATOM     29 H42  665 L   1      -6.838 -10.125 -10.780  1.00  0.00    +0.0621  H
ATOM     30 H43  665 L   1      -4.569  -7.976 -13.593  1.00  0.00    +0.0621  H
ATOM     31 H44  665 L   1      -8.871  -9.529 -11.965  1.00  0.00    +0.0621  H
ATOM     32 H45  665 L   1      -6.602  -7.379 -14.777  1.00  0.00    +0.0621  H
BRANCH 26 33
ATOM     33 C17  665 L   1      -9.137  -8.042 -14.187  1.00  0.00    +0.1179  C
ATOM     34 H46  665 L   1      -9.302  -8.735 -14.985  1.00  0.00    +0.0749  H
ATOM     35 H47  665 L   1      -9.967  -8.073 -13.512  1.00  0.00    +0.0749  H
BRANCH 33 36
ATOM     36  O1  665 L   1      -9.006  -6.728 -14.717  1.00  0.00    -0.4564 OA
BRANCH 36 38
ATOM     37  O3  665 L   1      -9.906  -5.784 -12.821  1.00  0.00    -0.2449 OA
ATOM     38 C25  665 L   1      -9.255  -5.708 -13.852  1.00  0.00    +0.3398  C
BRANCH 38 39
ATOM     39 C23  665 L   1      -8.621  -4.451 -14.325  1.00  0.00    +0.0619  A
ATOM     40 C24  665 L   1      -7.542  -3.887 -13.642  1.00  0.00    -0.0362  A
ATOM     41 C27  665 L   1      -7.466  -2.087 -15.254  1.00  0.00    -0.0502  A
ATOM     42 C28  665 L   1      -6.965  -2.706 -14.108  1.00  0.00    -0.0551  A
ATOM     43 C29  665 L   1      -9.123  -3.834 -15.470  1.00  0.00    -0.0473  A
ATOM     44 C31  665 L   1      -8.546  -2.652 -15.935  1.00  0.00    -0.0580  A
ATOM     45 C32  665 L   1      -6.985  -4.529 -12.414  1.00  0.00    -0.0389  C
ATOM     46 C34  665 L   1      -6.851  -0.824 -15.751  1.00  0.00    -0.0397  C
ATOM     47 H52  665 L   1      -6.167  -2.287 -13.603  1.00  0.00    +0.0623  H
ATOM     48 H53  665 L   1      -9.919  -4.252 -15.974  1.00  0.00    +0.0626  H
ATOM     49 H55  665 L   1      -8.917  -2.195 -16.782  1.00  0.00    +0.0620  H
ATOM     50 H56  665 L   1      -7.536  -5.419 -12.195  1.00  0.00    +0.0278  H
ATOM     51 H57  665 L   1      -7.062  -3.850 -11.591  1.00  0.00    +0.0278  H
ATOM     52 H58  665 L   1      -5.956  -4.776 -12.576  1.00  0.00    +0.0278  H
ATOM     53 H60  665 L   1      -6.044  -0.543 -15.108  1.00  0.00    +0.0278  H
ATOM     54 H61  665 L   1      -7.588  -0.047 -15.759  1.00  0.00    +0.0278  H
ATOM     55 H62  665 L   1      -6.481  -0.974 -16.743  1.00  0.00    +0.0278  H
ENDBRANCH 38 39
ENDBRANCH 36 38
ENDBRANCH 33 36
ENDBRANCH 26 33
ENDBRANCH 21 23
BRANCH 21 57
ATOM     56  N5  665 L   1      -4.019 -11.617 -12.585  1.00  0.00    -0.3600  N
ATOM     57  C9  665 L   1      -4.063 -10.993 -11.265  1.00  0.00    +0.0921  C
ATOM     58 H36  665 L   1      -3.875 -12.622 -12.481  1.00  0.00    +0.3450 HD
ATOM     59 H37  665 L   1      -3.251 -11.218 -13.124  1.00  0.00    +0.3450 HD
ATOM     60 H38  665 L   1      -4.899 -11.447 -13.071  1.00  0.00    +0.3450 HD
ATOM     61 H40  665 L   1      -3.137 -11.182 -10.761  1.00  0.00    +0.0926  H
ATOM     62 H41  665 L   1      -4.887 -11.413 -10.727  1.00  0.00    +0.0926  H
ENDBRANCH 21 57
ENDBRANCH 19 21
ENDBRANCH 2 18
TORSDOF 8
ENDMDL
MODEL 20
REMARK VINA RESULT:    -6.022      3.335      5.493
REMARK INTER + INTRA:          -9.986
REMARK INTER:                  -7.891
REMARK INTRA:                  -2.095
REMARK UNBOUND:                -1.147
ROOT
ATOM      1  N6  665 L   1       0.760  -4.712 -11.717  1.00  0.00    -0.2626 NA
ATOM      2 C16  665 L   1      -2.590  -8.411 -12.552  1.00  0.00    +0.0423  A
ATOM      3 C18  665 L   1      -1.684  -7.729 -13.366  1.00  0.00    -0.0305  A
ATOM      4 C19  665 L   1      -0.862  -6.723 -12.834  1.00  0.00    -0.0131  A
ATOM      5 C20  665 L   1      -2.689  -8.096 -11.199  1.00  0.00    -0.0377  A
ATOM      6 C21  665 L   1      -0.965  -6.406 -11.463  1.00  0.00    +0.0004  A
ATOM      7 C22  665 L   1      -1.882  -7.098 -10.653  1.00  0.00    -0.0506  A
ATOM      8 C26  665 L   1       0.056  -6.021 -13.624  1.00  0.00    -0.0358  A
ATOM      9 C30  665 L   1      -0.133  -5.399 -10.970  1.00  0.00    +0.0353  A
ATOM     10 C33  665 L   1       0.831  -5.040 -13.024  1.00  0.00    +0.0281  A
ATOM     11 H48  665 L   1      -1.617  -7.968 -14.368  1.00  0.00    +0.0644  H
ATOM     12 H49  665 L   1      -3.361  -8.601 -10.599  1.00  0.00    +0.0638  H
ATOM     13 H50  665 L   1      -1.957  -6.867  -9.651  1.00  0.00    +0.0625  H
ATOM     14 H51  665 L   1       0.154  -6.229 -14.630  1.00  0.00    +0.0639  H
ATOM     15 H54  665 L   1      -0.204  -5.165  -9.967  1.00  0.00    +0.0836  H
ATOM     16 H59  665 L   1       1.505  -4.530 -13.614  1.00  0.00    +0.0830  H
ENDROOT
BRANCH 2 18
ATOM     17  O2  665 L   1      -3.495 -11.021 -11.385  1.00  0.00    -0.2720 OA
ATOM     18  N4  665 L   1      -3.400  -9.411 -13.095  1.00  0.00    -0.3255  N
ATOM     19 C10  665 L   1      -3.792 -10.625 -12.509  1.00  0.00    +0.2381  C
ATOM     20 H35  665 L   1      -3.738  -9.243 -14.004  1.00  0.00    +0.1686 HD
BRANCH 19 21
ATOM     21  C7  665 L   1      -4.689 -11.452 -13.442  1.00  0.00    +0.1122  C
ATOM     22 H39  665 L   1      -4.864 -12.416 -13.012  1.00  0.00    +0.0502  H
BRANCH 21 23
ATOM     23  C8  665 L   1      -6.047 -10.784 -13.594  1.00  0.00    -0.0300  A
ATOM     24 C11  665 L   1      -6.610 -10.627 -14.861  1.00  0.00    -0.0573  A
ATOM     25 C12  665 L   1      -6.730 -10.328 -12.466  1.00  0.00    -0.0573  A
ATOM     26 C13  665 L   1      -8.537  -9.558 -13.873  1.00  0.00    -0.0103  A
ATOM     27 C14  665 L   1      -7.854 -10.014 -15.000  1.00  0.00    -0.0551  A
ATOM     28 C15  665 L   1      -7.974  -9.714 -12.606  1.00  0.00    -0.0551  A
ATOM     29 H42  665 L   1      -6.105 -10.965 -15.696  1.00  0.00    +0.0621  H
ATOM     30 H43  665 L   1      -6.313 -10.443 -11.529  1.00  0.00    +0.0621  H
ATOM     31 H44  665 L   1      -8.271  -9.898 -15.938  1.00  0.00    +0.0621  H
ATOM     32 H45  665 L   1      -8.480  -9.376 -11.771  1.00  0.00    +0.0621  H
BRANCH 26 33
ATOM     33 C17  665 L   1      -9.869  -8.902 -14.021  1.00  0.00    +0.1179  C
ATOM     34 H46  665 L   1     -10.142  -8.878 -15.055  1.00  0.00    +0.0749  H
ATOM     35 H47  665 L   1     -10.602  -9.454 -13.471  1.00  0.00    +0.0749  H
BRANCH 33 36
ATOM     36  O1  665 L   1      -9.799  -7.573 -13.517  1.00  0.00    -0.4564 OA
BRANCH 36 38
ATOM     37  O3  665 L   1      -9.536  -6.293 -15.412  1.00  0.00    -0.2449 OA
ATOM     38 C25  665 L   1      -9.165  -6.667 -14.310  1.00  0.00    +0.3398  C
BRANCH 38 39
ATOM     39 C23  665 L   1      -7.927  -6.172 -13.656  1.00  0.00    +0.0619  A
ATOM     40 C24  665 L   1      -7.953  -5.062 -12.810  1.00  0.00    -0.0362  A
ATOM     41 C27  665 L   1      -5.573  -5.280 -12.452  1.00  0.00    -0.0502  A
ATOM     42 C28  665 L   1      -6.776  -4.617 -12.209  1.00  0.00    -0.0551  A
ATOM     43 C29  665 L   1      -6.725  -6.835 -13.900  1.00  0.00    -0.0473  A
ATOM     44 C31  665 L   1      -5.547  -6.390 -13.299  1.00  0.00    -0.0580  A
ATOM     45 C32  665 L   1      -9.227  -4.334 -12.531  1.00  0.00    -0.0389  C
ATOM     46 C34  665 L   1      -4.314  -4.805 -11.811  1.00  0.00    -0.0397  C
ATOM     47 H52  665 L   1      -6.794  -3.796 -11.583  1.00  0.00    +0.0623  H
ATOM     48 H53  665 L   1      -6.706  -7.656 -14.524  1.00  0.00    +0.0626  H
ATOM     49 H55  665 L   1      -4.658  -6.881 -13.479  1.00  0.00    +0.0620  H
ATOM     50 H56  665 L   1     -10.029  -4.800 -13.065  1.00  0.00    +0.0278  H
ATOM     51 H57  665 L   1      -9.132  -3.316 -12.846  1.00  0.00    +0.0278  H
ATOM     52 H58  665 L   1      -9.432  -4.364 -11.481  1.00  0.00    +0.0278  H
ATOM     53 H60  665 L   1      -4.524  -3.951 -11.202  1.00  0.00    +0.0278  H
ATOM     54 H61  665 L   1      -3.606  -4.538 -12.568  1.00  0.00    +0.0278  H
ATOM     55 H62  665 L   1      -3.907  -5.585 -11.202  1.00  0.00    +0.0278  H
ENDBRANCH 38 39
ENDBRANCH 36 38
ENDBRANCH 33 36
ENDBRANCH 26 33
ENDBRANCH 21 23
BRANCH 21 57
ATOM     56  N5  665 L   1      -2.540 -11.850 -14.632  1.00  0.00    -0.3600  N
ATOM     57  C9  665 L   1      -3.983 -11.689 -14.793  1.00  0.00    +0.0921  C
ATOM     58 H36  665 L   1      -2.112 -12.005 -15.544  1.00  0.00    +0.3450 HD
ATOM     59 H37  665 L   1      -2.353 -12.650 -14.028  1.00  0.00    +0.3450 HD
ATOM     60 H38  665 L   1      -2.149 -11.008 -14.210  1.00  0.00    +0.3450 HD
ATOM     61 H40  665 L   1      -4.383 -12.574 -15.241  1.00  0.00    +0.0926  H
ATOM     62 H41  665 L   1      -4.154 -10.833 -15.412  1.00  0.00    +0.0926  H
ENDBRANCH 21 57
ENDBRANCH 19 21
ENDBRANCH 2 18
TORSDOF 8
ENDMDL
