MODEL 1
REMARK VINA RESULT:    -7.805      0.000      0.000
REMARK INTER + INTRA:         -12.972
REMARK INTER:                 -11.455
REMARK INTRA:                  -1.517
REMARK UNBOUND:                -1.517
ROOT
ATOM      1  N6  665 L   1       6.511  -5.666 -14.894  1.00  0.00    -0.2626 NA
ATOM      2 C16  665 L   1       1.996  -5.768 -12.612  1.00  0.00    +0.0423  A
ATOM      3 C18  665 L   1       3.177  -6.492 -12.444  1.00  0.00    -0.0305  A
ATOM      4 C19  665 L   1       4.296  -6.230 -13.250  1.00  0.00    -0.0131  A
ATOM      5 C20  665 L   1       1.916  -4.776 -13.586  1.00  0.00    -0.0377  A
ATOM      6 C21  665 L   1       4.212  -5.225 -14.236  1.00  0.00    +0.0004  A
ATOM      7 C22  665 L   1       3.017  -4.503 -14.396  1.00  0.00    -0.0506  A
ATOM      8 C26  665 L   1       5.496  -6.939 -13.106  1.00  0.00    -0.0358  A
ATOM      9 C30  665 L   1       5.344  -4.993 -15.019  1.00  0.00    +0.0353  A
ATOM     10 C33  665 L   1       6.555  -6.622 -13.942  1.00  0.00    +0.0281  A
ATOM     11 H47  665 L   1       3.232  -7.267 -11.679  1.00  0.00    +0.0644  H
ATOM     12 H48  665 L   1       1.039  -4.173 -13.774  1.00  0.00    +0.0638  H
ATOM     13 H49  665 L   1       2.940  -3.724 -15.152  1.00  0.00    +0.0625  H
ATOM     14 H50  665 L   1       5.606  -7.721 -12.362  1.00  0.00    +0.0639  H
ATOM     15 H53  665 L   1       5.347  -4.233 -15.795  1.00  0.00    +0.0836  H
ATOM     16 H58  665 L   1       7.500  -7.148 -13.860  1.00  0.00    +0.0830  H
ENDROOT
BRANCH 2 18
ATOM     17  O2  665 L   1      -0.371  -7.548 -13.089  1.00  0.00    -0.2722 OA
ATOM     18  N4  665 L   1       0.891  -6.039 -11.801  1.00  0.00    -0.3256  N
ATOM     19 C10  665 L   1      -0.201  -6.880 -12.073  1.00  0.00    +0.2339  C
ATOM     20 H42  665 L   1       0.887  -5.556 -10.906  1.00  0.00    +0.1686 HD
BRANCH 19 21
ATOM     21  C7  665 L   1      -1.210  -6.905 -10.916  1.00  0.00    +0.0752  C
ATOM     22 H35  665 L   1      -1.193  -5.913 -10.439  1.00  0.00    +0.0458  H
BRANCH 21 23
ATOM     23  C8  665 L   1      -2.610  -7.174 -11.444  1.00  0.00    -0.0341  A
ATOM     24 C11  665 L   1      -3.133  -8.467 -11.411  1.00  0.00    -0.0574  A
ATOM     25 C12  665 L   1      -3.373  -6.127 -11.963  1.00  0.00    -0.0574  A
ATOM     26 C13  665 L   1      -5.178  -7.667 -12.415  1.00  0.00    -0.0103  A
ATOM     27 C14  665 L   1      -4.416  -8.714 -11.897  1.00  0.00    -0.0551  A
ATOM     28 C15  665 L   1      -4.657  -6.374 -12.450  1.00  0.00    -0.0551  A
ATOM     29 H38  665 L   1      -2.550  -9.293 -11.009  1.00  0.00    +0.0621  H
ATOM     30 H39  665 L   1      -2.986  -5.113 -11.997  1.00  0.00    +0.0621  H
ATOM     31 H40  665 L   1      -4.811  -9.726 -11.863  1.00  0.00    +0.0621  H
ATOM     32 H41  665 L   1      -5.242  -5.551 -12.850  1.00  0.00    +0.0621  H
BRANCH 26 33
ATOM     33 C17  665 L   1      -6.552  -7.931 -12.935  1.00  0.00    +0.1179  C
ATOM     34 H43  665 L   1      -6.705  -9.012 -13.039  1.00  0.00    +0.0749  H
ATOM     35 H44  665 L   1      -7.309  -7.551 -12.237  1.00  0.00    +0.0749  H
BRANCH 33 36
ATOM     36  O1  665 L   1      -6.709  -7.295 -14.198  1.00  0.00    -0.4564 OA
BRANCH 36 38
ATOM     37  O3  665 L   1      -8.932  -7.368 -14.787  1.00  0.00    -0.2449 OA
ATOM     38 C25  665 L   1      -7.933  -6.754 -14.446  1.00  0.00    +0.3398  C
BRANCH 38 39
ATOM     39 C23  665 L   1      -7.907  -5.283 -14.249  1.00  0.00    +0.0619  A
ATOM     40 C24  665 L   1      -8.521  -4.694 -13.143  1.00  0.00    -0.0362  A
ATOM     41 C27  665 L   1      -7.833  -2.513 -13.925  1.00  0.00    -0.0502  A
ATOM     42 C28  665 L   1      -8.482  -3.309 -12.981  1.00  0.00    -0.0551  A
ATOM     43 C29  665 L   1      -7.258  -4.488 -15.193  1.00  0.00    -0.0473  A
ATOM     44 C31  665 L   1      -7.220  -3.102 -15.031  1.00  0.00    -0.0580  A
ATOM     45 C32  665 L   1      -9.222  -5.522 -12.116  1.00  0.00    -0.0389  C
ATOM     46 C34  665 L   1      -7.793  -1.032 -13.754  1.00  0.00    -0.0397  C
ATOM     47 H51  665 L   1      -8.962  -2.843 -12.122  1.00  0.00    +0.0623  H
ATOM     48 H52  665 L   1      -6.779  -4.933 -16.061  1.00  0.00    +0.0626  H
ATOM     49 H54  665 L   1      -6.713  -2.494 -15.775  1.00  0.00    +0.0620  H
ATOM     50 H55  665 L   1     -10.148  -5.936 -12.529  1.00  0.00    +0.0278  H
ATOM     51 H56  665 L   1      -8.581  -6.338 -11.769  1.00  0.00    +0.0278  H
ATOM     52 H57  665 L   1      -9.488  -4.931 -11.234  1.00  0.00    +0.0278  H
ATOM     53 H59  665 L   1      -6.895  -0.604 -14.215  1.00  0.00    +0.0278  H
ATOM     54 H60  665 L   1      -7.769  -0.759 -12.693  1.00  0.00    +0.0278  H
ATOM     55 H61  665 L   1      -8.674  -0.577 -14.214  1.00  0.00    +0.0278  H
ENDBRANCH 38 39
ENDBRANCH 36 38
ENDBRANCH 33 36
ENDBRANCH 26 33
ENDBRANCH 21 23
BRANCH 21 57
ATOM     56  N5  665 L   1       0.644  -7.775  -9.503  1.00  0.00    -0.3289 NA
ATOM     57  C9  665 L   1      -0.769  -7.921  -9.843  1.00  0.00    +0.0085  C
ATOM     58 H36  665 L   1      -1.366  -7.825  -8.928  1.00  0.00    +0.0432  H
ATOM     59 H37  665 L   1      -0.935  -8.939 -10.217  1.00  0.00    +0.0432  H
ATOM     60 H45  665 L   1       0.893  -8.469  -8.799  1.00  0.00    +0.1182 HD
ATOM     61 H46  665 L   1       0.805  -6.866  -9.071  1.00  0.00    +0.1182 HD
ENDBRANCH 21 57
ENDBRANCH 19 21
ENDBRANCH 2 18
TORSDOF 8
ENDMDL
MODEL 2
REMARK VINA RESULT:    -7.444      3.300      5.199
REMARK INTER + INTRA:         -12.442
REMARK INTER:                 -11.577
REMARK INTRA:                  -0.866
REMARK UNBOUND:                -1.517
ROOT
ATOM      1  N6  665 L   1      -0.452   1.876 -15.106  1.00  0.00    -0.2626 NA
ATOM      2 C16  665 L   1       0.894  -2.821 -13.787  1.00  0.00    +0.0423  A
ATOM      3 C18  665 L   1       0.783  -1.618 -13.088  1.00  0.00    -0.0305  A
ATOM      4 C19  665 L   1       0.373  -0.446 -13.743  1.00  0.00    -0.0131  A
ATOM      5 C20  665 L   1       0.599  -2.869 -15.147  1.00  0.00    -0.0377  A
ATOM      6 C21  665 L   1       0.075  -0.498 -15.121  1.00  0.00    +0.0004  A
ATOM      7 C22  665 L   1       0.191  -1.715 -15.814  1.00  0.00    -0.0506  A
ATOM      8 C26  665 L   1       0.252   0.777 -13.070  1.00  0.00    -0.0358  A
ATOM      9 C30  665 L   1      -0.329   0.687 -15.739  1.00  0.00    +0.0353  A
ATOM     10 C33  665 L   1      -0.158   1.889 -13.789  1.00  0.00    +0.0281  A
ATOM     11 H47  665 L   1       1.016  -1.588 -12.023  1.00  0.00    +0.0644  H
ATOM     12 H48  665 L   1       0.659  -3.761 -15.754  1.00  0.00    +0.0638  H
ATOM     13 H49  665 L   1      -0.037  -1.769 -16.877  1.00  0.00    +0.0625  H
ATOM     14 H50  665 L   1       0.471   0.865 -12.011  1.00  0.00    +0.0639  H
ATOM     15 H53  665 L   1      -0.574   0.715 -16.797  1.00  0.00    +0.0836  H
ATOM     16 H58  665 L   1      -0.264   2.853 -13.302  1.00  0.00    +0.0830  H
ENDROOT
BRANCH 2 18
ATOM     17  O2  665 L   1       3.463  -4.358 -13.965  1.00  0.00    -0.2722 OA
ATOM     18  N4  665 L   1       1.302  -3.978 -13.120  1.00  0.00    -0.3256  N
ATOM     19 C10  665 L   1       2.519  -4.668 -13.243  1.00  0.00    +0.2339  C
ATOM     20 H42  665 L   1       0.620  -4.363 -12.471  1.00  0.00    +0.1686 HD
BRANCH 19 21
ATOM     21  C7  665 L   1       2.576  -5.903 -12.331  1.00  0.00    +0.0752  C
ATOM     22 H35  665 L   1       2.984  -5.580 -11.361  1.00  0.00    +0.0458  H
BRANCH 21 23
ATOM     23  C8  665 L   1       1.178  -6.462 -12.116  1.00  0.00    -0.0341  A
ATOM     24 C11  665 L   1       0.497  -7.066 -13.174  1.00  0.00    -0.0574  A
ATOM     25 C12  665 L   1       0.576  -6.373 -10.860  1.00  0.00    -0.0574  A
ATOM     26 C13  665 L   1      -1.386  -7.489 -11.722  1.00  0.00    -0.0103  A
ATOM     27 C14  665 L   1      -0.785  -7.578 -12.977  1.00  0.00    -0.0551  A
ATOM     28 C15  665 L   1      -0.706  -6.885 -10.664  1.00  0.00    -0.0551  A
ATOM     29 H38  665 L   1       0.954  -7.143 -14.158  1.00  0.00    +0.0621  H
ATOM     30 H39  665 L   1       1.089  -5.910 -10.023  1.00  0.00    +0.0621  H
ATOM     31 H40  665 L   1      -1.302  -8.046 -13.810  1.00  0.00    +0.0621  H
ATOM     32 H41  665 L   1      -1.164  -6.811  -9.681  1.00  0.00    +0.0621  H
BRANCH 26 33
ATOM     33 C17  665 L   1      -2.757  -8.037 -11.510  1.00  0.00    +0.1179  C
ATOM     34 H43  665 L   1      -2.939  -8.856 -12.217  1.00  0.00    +0.0749  H
ATOM     35 H44  665 L   1      -2.860  -8.440 -10.495  1.00  0.00    +0.0749  H
BRANCH 33 36
ATOM     36  O1  665 L   1      -3.715  -7.003 -11.710  1.00  0.00    -0.4564 OA
BRANCH 36 38
ATOM     37  O3  665 L   1      -3.852  -7.370 -13.978  1.00  0.00    -0.2449 OA
ATOM     38 C25  665 L   1      -4.333  -6.990 -12.922  1.00  0.00    +0.3398  C
BRANCH 38 39
ATOM     39 C23  665 L   1      -5.707  -6.438 -12.805  1.00  0.00    +0.0619  A
ATOM     40 C24  665 L   1      -6.827  -7.261 -12.923  1.00  0.00    -0.0362  A
ATOM     41 C27  665 L   1      -8.266  -5.351 -12.578  1.00  0.00    -0.0502  A
ATOM     42 C28  665 L   1      -8.106  -6.717 -12.809  1.00  0.00    -0.0551  A
ATOM     43 C29  665 L   1      -5.866  -5.071 -12.574  1.00  0.00    -0.0473  A
ATOM     44 C31  665 L   1      -7.146  -4.527 -12.461  1.00  0.00    -0.0580  A
ATOM     45 C32  665 L   1      -6.685  -8.728 -13.168  1.00  0.00    -0.0389  C
ATOM     46 C34  665 L   1      -9.633  -4.768 -12.458  1.00  0.00    -0.0397  C
ATOM     47 H51  665 L   1      -8.983  -7.354 -12.903  1.00  0.00    +0.0623  H
ATOM     48 H52  665 L   1      -5.003  -4.417 -12.484  1.00  0.00    +0.0626  H
ATOM     49 H54  665 L   1      -7.257  -3.461 -12.284  1.00  0.00    +0.0620  H
ATOM     50 H55  665 L   1      -6.325  -8.910 -14.186  1.00  0.00    +0.0278  H
ATOM     51 H56  665 L   1      -5.991  -9.178 -12.451  1.00  0.00    +0.0278  H
ATOM     52 H57  665 L   1      -7.641  -9.251 -13.056  1.00  0.00    +0.0278  H
ATOM     53 H59  665 L   1      -9.631  -3.882 -11.812  1.00  0.00    +0.0278  H
ATOM     54 H60  665 L   1     -10.330  -5.487 -12.012  1.00  0.00    +0.0278  H
ATOM     55 H61  665 L   1     -10.008  -4.481 -13.445  1.00  0.00    +0.0278  H
ENDBRANCH 38 39
ENDBRANCH 36 38
ENDBRANCH 33 36
ENDBRANCH 26 33
ENDBRANCH 21 23
BRANCH 21 57
ATOM     56  N5  665 L   1       4.932  -6.688 -12.479  1.00  0.00    -0.3289 NA
ATOM     57  C9  665 L   1       3.558  -6.946 -12.902  1.00  0.00    +0.0085  C
ATOM     58 H36  665 L   1       3.280  -7.964 -12.605  1.00  0.00    +0.0432  H
ATOM     59 H37  665 L   1       3.518  -6.919 -13.998  1.00  0.00    +0.0432  H
ATOM     60 H45  665 L   1       5.546  -7.393 -12.885  1.00  0.00    +0.1182 HD
ATOM     61 H46  665 L   1       5.010  -6.793 -11.469  1.00  0.00    +0.1182 HD
ENDBRANCH 21 57
ENDBRANCH 19 21
ENDBRANCH 2 18
TORSDOF 8
ENDMDL
MODEL 3
REMARK VINA RESULT:    -7.316      3.204      4.209
REMARK INTER + INTRA:         -12.255
REMARK INTER:                 -10.957
REMARK INTRA:                  -1.297
REMARK UNBOUND:                -1.517
ROOT
ATOM      1  N6  665 L   1       1.128   2.015 -15.554  1.00  0.00    -0.2626 NA
ATOM      2 C16  665 L   1       0.297  -2.459 -13.340  1.00  0.00    +0.0423  A
ATOM      3 C18  665 L   1       0.224  -1.137 -12.898  1.00  0.00    -0.0305  A
ATOM      4 C19  665 L   1       0.520  -0.076 -13.768  1.00  0.00    -0.0131  A
ATOM      5 C20  665 L   1       0.668  -2.739 -14.653  1.00  0.00    -0.0377  A
ATOM      6 C21  665 L   1       0.896  -0.363 -15.097  1.00  0.00    +0.0004  A
ATOM      7 C22  665 L   1       0.967  -1.698 -15.530  1.00  0.00    -0.0506  A
ATOM      8 C26  665 L   1       0.456   1.261 -13.356  1.00  0.00    -0.0358  A
ATOM      9 C30  665 L   1       1.185   0.718 -15.933  1.00  0.00    +0.0353  A
ATOM     10 C33  665 L   1       0.766   2.252 -14.275  1.00  0.00    +0.0281  A
ATOM     11 H47  665 L   1      -0.068  -0.926 -11.870  1.00  0.00    +0.0644  H
ATOM     12 H48  665 L   1       0.745  -3.734 -15.067  1.00  0.00    +0.0638  H
ATOM     13 H49  665 L   1       1.255  -1.932 -16.553  1.00  0.00    +0.0625  H
ATOM     14 H50  665 L   1       0.173   1.529 -12.344  1.00  0.00    +0.0639  H
ATOM     15 H53  665 L   1       1.480   0.566 -16.968  1.00  0.00    +0.0836  H
ATOM     16 H58  665 L   1       0.727   3.299 -13.993  1.00  0.00    +0.0830  H
ENDROOT
BRANCH 2 18
ATOM     17  O2  665 L   1       1.952  -4.810 -12.484  1.00  0.00    -0.2722 OA
ATOM     18  N4  665 L   1      -0.003  -3.504 -12.463  1.00  0.00    -0.3256  N
ATOM     19 C10  665 L   1       0.807  -4.591 -12.097  1.00  0.00    +0.2339  C
ATOM     20 H42  665 L   1      -0.931  -3.463 -12.048  1.00  0.00    +0.1686 HD
BRANCH 19 21
ATOM     21  C7  665 L   1       0.103  -5.525 -11.101  1.00  0.00    +0.0752  C
ATOM     22 H35  665 L   1      -0.102  -4.943 -10.189  1.00  0.00    +0.0458  H
BRANCH 21 23
ATOM     23  C8  665 L   1      -1.215  -6.014 -11.680  1.00  0.00    -0.0341  A
ATOM     24 C11  665 L   1      -2.418  -5.454 -11.248  1.00  0.00    -0.0574  A
ATOM     25 C12  665 L   1      -1.222  -7.022 -12.645  1.00  0.00    -0.0574  A
ATOM     26 C13  665 L   1      -3.633  -6.911 -12.743  1.00  0.00    -0.0103  A
ATOM     27 C14  665 L   1      -3.627  -5.904 -11.779  1.00  0.00    -0.0551  A
ATOM     28 C15  665 L   1      -2.431  -7.471 -13.175  1.00  0.00    -0.0551  A
ATOM     29 H38  665 L   1      -2.428  -4.667 -10.498  1.00  0.00    +0.0621  H
ATOM     30 H39  665 L   1      -0.298  -7.470 -12.997  1.00  0.00    +0.0621  H
ATOM     31 H40  665 L   1      -4.555  -5.457 -11.434  1.00  0.00    +0.0621  H
ATOM     32 H41  665 L   1      -2.424  -8.257 -13.927  1.00  0.00    +0.0621  H
BRANCH 26 33
ATOM     33 C17  665 L   1      -4.926  -7.392 -13.311  1.00  0.00    +0.1179  C
ATOM     34 H43  665 L   1      -4.812  -8.425 -13.662  1.00  0.00    +0.0749  H
ATOM     35 H44  665 L   1      -5.713  -7.383 -12.546  1.00  0.00    +0.0749  H
BRANCH 33 36
ATOM     36  O1  665 L   1      -5.307  -6.551 -14.394  1.00  0.00    -0.4564 OA
BRANCH 36 38
ATOM     37  O3  665 L   1      -7.531  -7.125 -14.555  1.00  0.00    -0.2449 OA
ATOM     38 C25  665 L   1      -6.638  -6.292 -14.508  1.00  0.00    +0.3398  C
BRANCH 38 39
ATOM     39 C23  665 L   1      -6.885  -4.829 -14.573  1.00  0.00    +0.0619  A
ATOM     40 C24  665 L   1      -7.106  -4.083 -13.415  1.00  0.00    -0.0362  A
ATOM     41 C27  665 L   1      -7.346  -2.083 -14.749  1.00  0.00    -0.0502  A
ATOM     42 C28  665 L   1      -7.336  -2.710 -13.503  1.00  0.00    -0.0551  A
ATOM     43 C29  665 L   1      -6.896  -4.202 -15.819  1.00  0.00    -0.0473  A
ATOM     44 C31  665 L   1      -7.126  -2.829 -15.908  1.00  0.00    -0.0580  A
ATOM     45 C32  665 L   1      -7.099  -4.729 -12.068  1.00  0.00    -0.0389  C
ATOM     46 C34  665 L   1      -7.593  -0.616 -14.846  1.00  0.00    -0.0397  C
ATOM     47 H51  665 L   1      -7.512  -2.124 -12.604  1.00  0.00    +0.0623  H
ATOM     48 H52  665 L   1      -6.729  -4.771 -16.730  1.00  0.00    +0.0626  H
ATOM     49 H54  665 L   1      -7.134  -2.353 -16.885  1.00  0.00    +0.0620  H
ATOM     50 H55  665 L   1      -7.984  -5.361 -11.944  1.00  0.00    +0.0278  H
ATOM     51 H56  665 L   1      -6.197  -5.334 -11.930  1.00  0.00    +0.0278  H
ATOM     52 H57  665 L   1      -7.108  -3.986 -11.263  1.00  0.00    +0.0278  H
ATOM     53 H59  665 L   1      -7.098  -0.187 -15.725  1.00  0.00    +0.0278  H
ATOM     54 H60  665 L   1      -7.198  -0.092 -13.969  1.00  0.00    +0.0278  H
ATOM     55 H61  665 L   1      -8.667  -0.419 -14.918  1.00  0.00    +0.0278  H
ENDBRANCH 38 39
ENDBRANCH 36 38
ENDBRANCH 33 36
ENDBRANCH 26 33
ENDBRANCH 21 23
BRANCH 21 57
ATOM     56  N5  665 L   1       0.601  -7.329  -9.462  1.00  0.00    -0.3289 NA
ATOM     57  C9  665 L   1       1.042  -6.677 -10.692  1.00  0.00    +0.0085  C
ATOM     58 H36  665 L   1       1.122  -7.432 -11.484  1.00  0.00    +0.0432  H
ATOM     59 H37  665 L   1       2.054  -6.282 -10.536  1.00  0.00    +0.0432  H
ATOM     60 H45  665 L   1       1.253  -8.075  -9.225  1.00  0.00    +0.1182 HD
ATOM     61 H46  665 L   1      -0.301  -7.778  -9.610  1.00  0.00    +0.1182 HD
ENDBRANCH 21 57
ENDBRANCH 19 21
ENDBRANCH 2 18
TORSDOF 8
ENDMDL
MODEL 4
REMARK VINA RESULT:    -7.242      1.565      2.260
REMARK INTER + INTRA:         -12.146
REMARK INTER:                 -10.386
REMARK INTRA:                  -1.760
REMARK UNBOUND:                -1.517
ROOT
ATOM      1  N6  665 L   1       6.967  -6.605 -14.324  1.00  0.00    -0.2626 NA
ATOM      2 C16  665 L   1       2.036  -6.421 -13.202  1.00  0.00    +0.0423  A
ATOM      3 C18  665 L   1       2.941  -5.495 -13.723  1.00  0.00    -0.0305  A
ATOM      4 C19  665 L   1       4.284  -5.847 -13.930  1.00  0.00    -0.0131  A
ATOM      5 C20  665 L   1       2.459  -7.709 -12.881  1.00  0.00    -0.0377  A
ATOM      6 C21  665 L   1       4.710  -7.152 -13.603  1.00  0.00    +0.0004  A
ATOM      7 C22  665 L   1       3.790  -8.076 -13.079  1.00  0.00    -0.0506  A
ATOM      8 C26  665 L   1       5.217  -4.941 -14.450  1.00  0.00    -0.0358  A
ATOM      9 C30  665 L   1       6.053  -7.465 -13.822  1.00  0.00    +0.0353  A
ATOM     10 C33  665 L   1       6.525  -5.365 -14.624  1.00  0.00    +0.0281  A
ATOM     11 H47  665 L   1       2.602  -4.490 -13.972  1.00  0.00    +0.0644  H
ATOM     12 H48  665 L   1       1.819  -8.480 -12.477  1.00  0.00    +0.0638  H
ATOM     13 H49  665 L   1       4.106  -9.085 -12.824  1.00  0.00    +0.0625  H
ATOM     14 H50  665 L   1       4.935  -3.927 -14.715  1.00  0.00    +0.0639  H
ATOM     15 H53  665 L   1       6.445  -8.452 -13.592  1.00  0.00    +0.0836  H
ATOM     16 H58  665 L   1       7.275  -4.692 -15.025  1.00  0.00    +0.0830  H
ENDROOT
BRANCH 2 18
ATOM     17  O2  665 L   1       0.167  -7.057 -10.944  1.00  0.00    -0.2722 OA
ATOM     18  N4  665 L   1       0.703  -6.056 -13.004  1.00  0.00    -0.3256  N
ATOM     19 C10  665 L   1      -0.137  -6.386 -11.927  1.00  0.00    +0.2339  C
ATOM     20 H42  665 L   1       0.300  -5.484 -13.742  1.00  0.00    +0.1686 HD
BRANCH 19 21
ATOM     21  C7  665 L   1      -1.542  -5.785 -12.087  1.00  0.00    +0.0752  C
ATOM     22 H35  665 L   1      -1.572  -5.267 -13.058  1.00  0.00    +0.0458  H
BRANCH 21 23
ATOM     23  C8  665 L   1      -2.589  -6.887 -12.084  1.00  0.00    -0.0341  A
ATOM     24 C11  665 L   1      -2.603  -7.840 -13.102  1.00  0.00    -0.0574  A
ATOM     25 C12  665 L   1      -3.536  -6.945 -11.061  1.00  0.00    -0.0574  A
ATOM     26 C13  665 L   1      -4.512  -8.908 -12.076  1.00  0.00    -0.0103  A
ATOM     27 C14  665 L   1      -3.565  -8.850 -13.099  1.00  0.00    -0.0551  A
ATOM     28 C15  665 L   1      -4.498  -7.956 -11.058  1.00  0.00    -0.0551  A
ATOM     29 H38  665 L   1      -1.871  -7.808 -13.906  1.00  0.00    +0.0621  H
ATOM     30 H39  665 L   1      -3.542  -6.215 -10.258  1.00  0.00    +0.0621  H
ATOM     31 H40  665 L   1      -3.563  -9.587 -13.897  1.00  0.00    +0.0621  H
ATOM     32 H41  665 L   1      -5.230  -7.991 -10.255  1.00  0.00    +0.0621  H
BRANCH 26 33
ATOM     33 C17  665 L   1      -5.540  -9.989 -12.072  1.00  0.00    +0.1179  C
ATOM     34 H43  665 L   1      -5.395 -10.639 -12.944  1.00  0.00    +0.0749  H
ATOM     35 H44  665 L   1      -5.445 -10.610 -11.172  1.00  0.00    +0.0749  H
BRANCH 33 36
ATOM     36  O1  665 L   1      -6.838  -9.406 -12.112  1.00  0.00    -0.4564 OA
BRANCH 36 38
ATOM     37  O3  665 L   1      -7.472  -9.591 -14.317  1.00  0.00    -0.2449 OA
ATOM     38 C25  665 L   1      -7.238  -8.924 -13.320  1.00  0.00    +0.3398  C
BRANCH 38 39
ATOM     39 C23  665 L   1      -7.358  -7.445 -13.282  1.00  0.00    +0.0619  A
ATOM     40 C24  665 L   1      -8.472  -6.827 -12.711  1.00  0.00    -0.0362  A
ATOM     41 C27  665 L   1      -7.538  -4.661 -13.238  1.00  0.00    -0.0502  A
ATOM     42 C28  665 L   1      -8.560  -5.435 -12.689  1.00  0.00    -0.0551  A
ATOM     43 C29  665 L   1      -6.336  -6.671 -13.832  1.00  0.00    -0.0473  A
ATOM     44 C31  665 L   1      -6.425  -5.279 -13.810  1.00  0.00    -0.0580  A
ATOM     45 C32  665 L   1      -9.580  -7.631 -12.115  1.00  0.00    -0.0389  C
ATOM     46 C34  665 L   1      -7.633  -3.173 -13.216  1.00  0.00    -0.0397  C
ATOM     47 H51  665 L   1      -9.427  -4.948 -12.248  1.00  0.00    +0.0623  H
ATOM     48 H52  665 L   1      -5.465  -7.139 -14.283  1.00  0.00    +0.0626  H
ATOM     49 H54  665 L   1      -5.623  -4.688 -14.243  1.00  0.00    +0.0620  H
ATOM     50 H55  665 L   1     -10.147  -8.140 -12.901  1.00  0.00    +0.0278  H
ATOM     51 H56  665 L   1      -9.189  -8.372 -11.410  1.00  0.00    +0.0278  H
ATOM     52 H57  665 L   1     -10.281  -7.002 -11.556  1.00  0.00    +0.0278  H
ATOM     53 H59  665 L   1      -6.638  -2.713 -13.191  1.00  0.00    +0.0278  H
ATOM     54 H60  665 L   1      -8.169  -2.826 -12.326  1.00  0.00    +0.0278  H
ATOM     55 H61  665 L   1      -8.161  -2.817 -14.106  1.00  0.00    +0.0278  H
ENDBRANCH 38 39
ENDBRANCH 36 38
ENDBRANCH 33 36
ENDBRANCH 26 33
ENDBRANCH 21 23
BRANCH 21 57
ATOM     56  N5  665 L   1      -0.560  -4.331 -10.324  1.00  0.00    -0.3289 NA
ATOM     57  C9  665 L   1      -1.793  -4.715 -11.005  1.00  0.00    +0.0085  C
ATOM     58 H36  665 L   1      -2.260  -3.817 -11.428  1.00  0.00    +0.0432  H
ATOM     59 H37  665 L   1      -2.495  -5.111 -10.261  1.00  0.00    +0.0432  H
ATOM     60 H45  665 L   1      -0.773  -3.631  -9.614  1.00  0.00    +0.1182 HD
ATOM     61 H46  665 L   1       0.075  -3.880 -10.981  1.00  0.00    +0.1182 HD
ENDBRANCH 21 57
ENDBRANCH 19 21
ENDBRANCH 2 18
TORSDOF 8
ENDMDL
MODEL 5
REMARK VINA RESULT:    -7.223      1.098      2.245
REMARK INTER + INTRA:         -12.117
REMARK INTER:                 -10.829
REMARK INTRA:                  -1.288
REMARK UNBOUND:                -1.517
ROOT
ATOM      1  N6  665 L   1       5.832  -5.078 -15.979  1.00  0.00    -0.2626 NA
ATOM      2 C16  665 L   1       2.413  -6.274 -12.445  1.00  0.00    +0.0423  A
ATOM      3 C18  665 L   1       2.414  -5.388 -13.524  1.00  0.00    -0.0305  A
ATOM      4 C19  665 L   1       3.542  -5.272 -14.352  1.00  0.00    -0.0131  A
ATOM      5 C20  665 L   1       3.536  -7.052 -12.178  1.00  0.00    -0.0377  A
ATOM      6 C21  665 L   1       4.678  -6.063 -14.078  1.00  0.00    +0.0004  A
ATOM      7 C22  665 L   1       4.665  -6.950 -12.988  1.00  0.00    -0.0506  A
ATOM      8 C26  665 L   1       3.575  -4.394 -15.442  1.00  0.00    -0.0358  A
ATOM      9 C30  665 L   1       5.782  -5.920 -14.921  1.00  0.00    +0.0353  A
ATOM     10 C33  665 L   1       4.728  -4.337 -16.211  1.00  0.00    +0.0281  A
ATOM     11 H47  665 L   1       1.531  -4.783 -13.728  1.00  0.00    +0.0644  H
ATOM     12 H48  665 L   1       3.609  -7.760 -11.364  1.00  0.00    +0.0638  H
ATOM     13 H49  665 L   1       5.535  -7.565 -12.767  1.00  0.00    +0.0625  H
ATOM     14 H50  665 L   1       2.725  -3.767 -15.690  1.00  0.00    +0.0639  H
ATOM     15 H53  665 L   1       6.688  -6.499 -14.767  1.00  0.00    +0.0836  H
ATOM     16 H58  665 L   1       4.791  -3.669 -17.064  1.00  0.00    +0.0830  H
ENDROOT
BRANCH 2 18
ATOM     17  O2  665 L   1      -0.114  -7.843 -12.831  1.00  0.00    -0.2722 OA
ATOM     18  N4  665 L   1       1.282  -6.379 -11.633  1.00  0.00    -0.3256  N
ATOM     19 C10  665 L   1       0.114  -7.126 -11.861  1.00  0.00    +0.2339  C
ATOM     20 H42  665 L   1       1.319  -5.836 -10.773  1.00  0.00    +0.1686 HD
BRANCH 19 21
ATOM     21  C7  665 L   1      -0.900  -6.972 -10.718  1.00  0.00    +0.0752  C
ATOM     22 H35  665 L   1      -0.661  -6.039 -10.185  1.00  0.00    +0.0458  H
BRANCH 21 23
ATOM     23  C8  665 L   1      -2.311  -6.872 -11.277  1.00  0.00    -0.0341  A
ATOM     24 C11  665 L   1      -2.842  -5.626 -11.614  1.00  0.00    -0.0574  A
ATOM     25 C12  665 L   1      -3.075  -8.026 -11.453  1.00  0.00    -0.0574  A
ATOM     26 C13  665 L   1      -4.899  -6.689 -12.302  1.00  0.00    -0.0103  A
ATOM     27 C14  665 L   1      -4.136  -5.535 -12.126  1.00  0.00    -0.0551  A
ATOM     28 C15  665 L   1      -4.369  -7.934 -11.965  1.00  0.00    -0.0551  A
ATOM     29 H38  665 L   1      -2.258  -4.718 -11.483  1.00  0.00    +0.0621  H
ATOM     30 H39  665 L   1      -2.681  -9.005 -11.199  1.00  0.00    +0.0621  H
ATOM     31 H40  665 L   1      -4.535  -4.559 -12.385  1.00  0.00    +0.0621  H
ATOM     32 H41  665 L   1      -4.954  -8.841 -12.099  1.00  0.00    +0.0621  H
BRANCH 26 33
ATOM     33 C17  665 L   1      -6.283  -6.592 -12.849  1.00  0.00    +0.1179  C
ATOM     34 H43  665 L   1      -6.259  -6.733 -13.937  1.00  0.00    +0.0749  H
ATOM     35 H44  665 L   1      -6.924  -7.374 -12.424  1.00  0.00    +0.0749  H
BRANCH 33 36
ATOM     36  O1  665 L   1      -6.825  -5.313 -12.538  1.00  0.00    -0.4564 OA
BRANCH 36 38
ATOM     37  O3  665 L   1      -8.969  -5.582 -13.332  1.00  0.00    -0.2449 OA
ATOM     38 C25  665 L   1      -7.930  -4.946 -13.243  1.00  0.00    +0.3398  C
BRANCH 38 39
ATOM     39 C23  665 L   1      -7.715  -3.638 -13.914  1.00  0.00    +0.0619  A
ATOM     40 C24  665 L   1      -7.280  -3.571 -15.238  1.00  0.00    -0.0362  A
ATOM     41 C27  665 L   1      -7.323  -1.157 -15.127  1.00  0.00    -0.0502  A
ATOM     42 C28  665 L   1      -7.086  -2.330 -15.844  1.00  0.00    -0.0551  A
ATOM     43 C29  665 L   1      -7.952  -2.466 -13.196  1.00  0.00    -0.0473  A
ATOM     44 C31  665 L   1      -7.756  -1.225 -13.803  1.00  0.00    -0.0580  A
ATOM     45 C32  665 L   1      -7.020  -4.811 -16.030  1.00  0.00    -0.0389  C
ATOM     46 C34  665 L   1      -7.114   0.170 -15.774  1.00  0.00    -0.0397  C
ATOM     47 H51  665 L   1      -6.744  -2.271 -16.876  1.00  0.00    +0.0623  H
ATOM     48 H52  665 L   1      -8.287  -2.504 -12.163  1.00  0.00    +0.0626  H
ATOM     49 H54  665 L   1      -7.943  -0.320 -13.232  1.00  0.00    +0.0620  H
ATOM     50 H55  665 L   1      -6.121  -5.316 -15.661  1.00  0.00    +0.0278  H
ATOM     51 H56  665 L   1      -7.872  -5.496 -15.973  1.00  0.00    +0.0278  H
ATOM     52 H57  665 L   1      -6.862  -4.587 -17.090  1.00  0.00    +0.0278  H
ATOM     53 H59  665 L   1      -7.774   0.930 -15.341  1.00  0.00    +0.0278  H
ATOM     54 H60  665 L   1      -7.337   0.125 -16.846  1.00  0.00    +0.0278  H
ATOM     55 H61  665 L   1      -6.076   0.492 -15.644  1.00  0.00    +0.0278  H
ENDBRANCH 38 39
ENDBRANCH 36 38
ENDBRANCH 33 36
ENDBRANCH 26 33
ENDBRANCH 21 23
BRANCH 21 57
ATOM     56  N5  665 L   1       0.611  -8.169  -9.146  1.00  0.00    -0.3289 NA
ATOM     57  C9  665 L   1      -0.739  -8.119  -9.700  1.00  0.00    +0.0085  C
ATOM     58 H36  665 L   1      -1.458  -8.031  -8.877  1.00  0.00    +0.0432  H
ATOM     59 H37  665 L   1      -0.949  -9.075 -10.196  1.00  0.00    +0.0432  H
ATOM     60 H45  665 L   1       0.676  -8.944  -8.487  1.00  0.00    +0.1182 HD
ATOM     61 H46  665 L   1       0.797  -7.325  -8.606  1.00  0.00    +0.1182 HD
ENDBRANCH 21 57
ENDBRANCH 19 21
ENDBRANCH 2 18
TORSDOF 8
ENDMDL
MODEL 6
REMARK VINA RESULT:    -7.194      1.921      2.706
REMARK INTER + INTRA:         -12.075
REMARK INTER:                 -10.896
REMARK INTRA:                  -1.179
REMARK UNBOUND:                -1.517
ROOT
ATOM      1  N6  665 L   1       6.114  -5.898 -13.663  1.00  0.00    -0.2626 NA
ATOM      2 C16  665 L   1       1.195  -6.948 -13.107  1.00  0.00    +0.0423  A
ATOM      3 C18  665 L   1       2.356  -7.721 -13.065  1.00  0.00    -0.0305  A
ATOM      4 C19  665 L   1       3.615  -7.131 -13.261  1.00  0.00    -0.0131  A
ATOM      5 C20  665 L   1       1.275  -5.578 -13.347  1.00  0.00    -0.0377  A
ATOM      6 C21  665 L   1       3.692  -5.744 -13.504  1.00  0.00    +0.0004  A
ATOM      7 C22  665 L   1       2.516  -4.975 -13.545  1.00  0.00    -0.0506  A
ATOM      8 C26  665 L   1       4.798  -7.879 -13.224  1.00  0.00    -0.0358  A
ATOM      9 C30  665 L   1       4.961  -5.193 -13.695  1.00  0.00    +0.0353  A
ATOM     10 C33  665 L   1       6.002  -7.223 -13.429  1.00  0.00    +0.0281  A
ATOM     11 H47  665 L   1       2.285  -8.792 -12.876  1.00  0.00    +0.0644  H
ATOM     12 H48  665 L   1       0.423  -4.915 -13.393  1.00  0.00    +0.0638  H
ATOM     13 H49  665 L   1       2.563  -3.904 -13.731  1.00  0.00    +0.0625  H
ATOM     14 H50  665 L   1       4.787  -8.949 -13.042  1.00  0.00    +0.0639  H
ATOM     15 H53  665 L   1       5.091  -4.131 -13.886  1.00  0.00    +0.0836  H
ATOM     16 H58  665 L   1       6.940  -7.769 -13.407  1.00  0.00    +0.0830  H
ENDROOT
BRANCH 2 18
ATOM     17  O2  665 L   1      -1.112  -7.300 -14.992  1.00  0.00    -0.2722 OA
ATOM     18  N4  665 L   1      -0.050  -7.549 -12.909  1.00  0.00    -0.3256  N
ATOM     19 C10  665 L   1      -1.106  -7.684 -13.825  1.00  0.00    +0.2339  C
ATOM     20 H42  665 L   1      -0.200  -7.927 -11.976  1.00  0.00    +0.1686 HD
BRANCH 19 21
ATOM     21  C7  665 L   1      -2.311  -8.411 -13.211  1.00  0.00    +0.0752  C
ATOM     22 H35  665 L   1      -1.989  -8.832 -12.247  1.00  0.00    +0.0458  H
BRANCH 21 23
ATOM     23  C8  665 L   1      -3.447  -7.431 -12.966  1.00  0.00    -0.0341  A
ATOM     24 C11  665 L   1      -4.677  -7.614 -13.600  1.00  0.00    -0.0574  A
ATOM     25 C12  665 L   1      -3.261  -6.348 -12.106  1.00  0.00    -0.0574  A
ATOM     26 C13  665 L   1      -5.532  -5.632 -12.516  1.00  0.00    -0.0103  A
ATOM     27 C14  665 L   1      -5.718  -6.714 -13.376  1.00  0.00    -0.0551  A
ATOM     28 C15  665 L   1      -4.303  -5.449 -11.882  1.00  0.00    -0.0551  A
ATOM     29 H38  665 L   1      -4.837  -8.454 -14.273  1.00  0.00    +0.0621  H
ATOM     30 H39  665 L   1      -2.313  -6.188 -11.601  1.00  0.00    +0.0621  H
ATOM     31 H40  665 L   1      -6.670  -6.871 -13.875  1.00  0.00    +0.0621  H
ATOM     32 H41  665 L   1      -4.146  -4.609 -11.209  1.00  0.00    +0.0621  H
BRANCH 26 33
ATOM     33 C17  665 L   1      -6.646  -4.670 -12.276  1.00  0.00    +0.1179  C
ATOM     34 H43  665 L   1      -6.934  -4.698 -11.217  1.00  0.00    +0.0749  H
ATOM     35 H44  665 L   1      -6.330  -3.646 -12.510  1.00  0.00    +0.0749  H
BRANCH 33 36
ATOM     36  O1  665 L   1      -7.758  -5.022 -13.090  1.00  0.00    -0.4564 OA
BRANCH 36 38
ATOM     37  O3  665 L   1      -9.841  -4.057 -12.919  1.00  0.00    -0.2449 OA
ATOM     38 C25  665 L   1      -8.679  -4.042 -13.298  1.00  0.00    +0.3398  C
BRANCH 38 39
ATOM     39 C23  665 L   1      -8.086  -2.918 -14.066  1.00  0.00    +0.0619  A
ATOM     40 C24  665 L   1      -7.589  -3.109 -15.356  1.00  0.00    -0.0362  A
ATOM     41 C27  665 L   1      -6.980  -0.773 -15.465  1.00  0.00    -0.0502  A
ATOM     42 C28  665 L   1      -7.037  -2.036 -16.055  1.00  0.00    -0.0551  A
ATOM     43 C29  665 L   1      -8.029  -1.656 -13.475  1.00  0.00    -0.0473  A
ATOM     44 C31  665 L   1      -7.476  -0.583 -14.175  1.00  0.00    -0.0580  A
ATOM     45 C32  665 L   1      -7.640  -4.450 -16.012  1.00  0.00    -0.0389  C
ATOM     46 C34  665 L   1      -6.388   0.375 -16.211  1.00  0.00    -0.0397  C
ATOM     47 H51  665 L   1      -6.645  -2.179 -17.060  1.00  0.00    +0.0623  H
ATOM     48 H52  665 L   1      -8.409  -1.493 -12.470  1.00  0.00    +0.0626  H
ATOM     49 H54  665 L   1      -7.436   0.395 -13.703  1.00  0.00    +0.0620  H
ATOM     50 H55  665 L   1      -6.930  -5.134 -15.534  1.00  0.00    +0.0278  H
ATOM     51 H56  665 L   1      -8.647  -4.874 -15.957  1.00  0.00    +0.0278  H
ATOM     52 H57  665 L   1      -7.378  -4.390 -17.074  1.00  0.00    +0.0278  H
ATOM     53 H59  665 L   1      -6.837   1.324 -15.897  1.00  0.00    +0.0278  H
ATOM     54 H60  665 L   1      -6.565   0.277 -17.288  1.00  0.00    +0.0278  H
ATOM     55 H61  665 L   1      -5.310   0.421 -16.035  1.00  0.00    +0.0278  H
ENDBRANCH 38 39
ENDBRANCH 36 38
ENDBRANCH 33 36
ENDBRANCH 26 33
ENDBRANCH 21 23
BRANCH 21 57
ATOM     56  N5  665 L   1      -1.576 -10.234 -14.737  1.00  0.00    -0.3289 NA
ATOM     57  C9  665 L   1      -2.727  -9.602 -14.099  1.00  0.00    +0.0085  C
ATOM     58 H36  665 L   1      -3.276 -10.359 -13.526  1.00  0.00    +0.0432  H
ATOM     59 H37  665 L   1      -3.410  -9.248 -14.882  1.00  0.00    +0.0432  H
ATOM     60 H45  665 L   1      -1.896 -11.007 -15.318  1.00  0.00    +0.1182 HD
ATOM     61 H46  665 L   1      -0.970 -10.647 -14.029  1.00  0.00    +0.1182 HD
ENDBRANCH 21 57
ENDBRANCH 19 21
ENDBRANCH 2 18
TORSDOF 8
ENDMDL
MODEL 7
REMARK VINA RESULT:    -7.041      3.962      5.750
REMARK INTER + INTRA:         -11.851
REMARK INTER:                 -11.220
REMARK INTRA:                  -0.631
REMARK UNBOUND:                -1.517
ROOT
ATOM      1  N6  665 L   1      -0.999   2.930 -15.531  1.00  0.00    -0.2626 NA
ATOM      2 C16  665 L   1       0.643  -1.089 -12.931  1.00  0.00    +0.0423  A
ATOM      3 C18  665 L   1      -0.064  -0.937 -14.125  1.00  0.00    -0.0305  A
ATOM      4 C19  665 L   1      -0.383   0.342 -14.608  1.00  0.00    -0.0131  A
ATOM      5 C20  665 L   1       1.039   0.031 -12.204  1.00  0.00    -0.0377  A
ATOM      6 C21  665 L   1       0.019   1.475 -13.869  1.00  0.00    +0.0004  A
ATOM      7 C22  665 L   1       0.730   1.309 -12.669  1.00  0.00    -0.0506  A
ATOM      8 C26  665 L   1      -1.091   0.529 -15.802  1.00  0.00    -0.0358  A
ATOM      9 C30  665 L   1      -0.317   2.730 -14.380  1.00  0.00    +0.0353  A
ATOM     10 C33  665 L   1      -1.368   1.824 -16.211  1.00  0.00    +0.0281  A
ATOM     11 H47  665 L   1      -0.370  -1.818 -14.688  1.00  0.00    +0.0644  H
ATOM     12 H48  665 L   1       1.590  -0.007 -11.276  1.00  0.00    +0.0638  H
ATOM     13 H49  665 L   1       1.047   2.174 -12.091  1.00  0.00    +0.0625  H
ATOM     14 H50  665 L   1      -1.422  -0.313 -16.402  1.00  0.00    +0.0639  H
ATOM     15 H53  665 L   1      -0.036   3.643 -13.861  1.00  0.00    +0.0836  H
ATOM     16 H58  665 L   1      -1.914   2.008 -17.130  1.00  0.00    +0.0830  H
ENDROOT
BRANCH 2 18
ATOM     17  O2  665 L   1       1.483  -3.549 -14.429  1.00  0.00    -0.2722 OA
ATOM     18  N4  665 L   1       0.955  -2.368 -12.465  1.00  0.00    -0.3256  N
ATOM     19 C10  665 L   1       1.338  -3.495 -13.210  1.00  0.00    +0.2339  C
ATOM     20 H42  665 L   1       0.885  -2.487 -11.457  1.00  0.00    +0.1686 HD
BRANCH 19 21
ATOM     21  C7  665 L   1       1.593  -4.718 -12.316  1.00  0.00    +0.0752  C
ATOM     22 H35  665 L   1       2.130  -4.368 -11.422  1.00  0.00    +0.0458  H
BRANCH 21 23
ATOM     23  C8  665 L   1       0.273  -5.340 -11.887  1.00  0.00    -0.0341  A
ATOM     24 C11  665 L   1      -0.865  -4.543 -11.760  1.00  0.00    -0.0574  A
ATOM     25 C12  665 L   1       0.201  -6.707 -11.619  1.00  0.00    -0.0574  A
ATOM     26 C13  665 L   1      -2.147  -6.480 -11.099  1.00  0.00    -0.0103  A
ATOM     27 C14  665 L   1      -2.075  -5.114 -11.365  1.00  0.00    -0.0551  A
ATOM     28 C15  665 L   1      -1.010  -7.277 -11.224  1.00  0.00    -0.0551  A
ATOM     29 H38  665 L   1      -0.824  -3.476 -11.966  1.00  0.00    +0.0621  H
ATOM     30 H39  665 L   1       1.074  -7.345 -11.713  1.00  0.00    +0.0621  H
ATOM     31 H40  665 L   1      -2.954  -4.481 -11.273  1.00  0.00    +0.0621  H
ATOM     32 H41  665 L   1      -1.054  -8.344 -11.020  1.00  0.00    +0.0621  H
BRANCH 26 33
ATOM     33 C17  665 L   1      -3.442  -7.091 -10.677  1.00  0.00    +0.1179  C
ATOM     34 H43  665 L   1      -3.298  -7.650  -9.744  1.00  0.00    +0.0749  H
ATOM     35 H44  665 L   1      -4.193  -6.314 -10.490  1.00  0.00    +0.0749  H
BRANCH 33 36
ATOM     36  O1  665 L   1      -3.906  -7.965 -11.699  1.00  0.00    -0.4564 OA
BRANCH 36 38
ATOM     37  O3  665 L   1      -3.528  -7.379 -13.892  1.00  0.00    -0.2449 OA
ATOM     38 C25  665 L   1      -4.221  -7.381 -12.886  1.00  0.00    +0.3398  C
BRANCH 38 39
ATOM     39 C23  665 L   1      -5.551  -6.722 -12.812  1.00  0.00    +0.0619  A
ATOM     40 C24  665 L   1      -6.727  -7.456 -12.965  1.00  0.00    -0.0362  A
ATOM     41 C27  665 L   1      -8.023  -5.438 -12.666  1.00  0.00    -0.0502  A
ATOM     42 C28  665 L   1      -7.963  -6.814 -12.891  1.00  0.00    -0.0551  A
ATOM     43 C29  665 L   1      -5.609  -5.347 -12.588  1.00  0.00    -0.0473  A
ATOM     44 C31  665 L   1      -6.845  -4.704 -12.515  1.00  0.00    -0.0580  A
ATOM     45 C32  665 L   1      -6.693  -8.930 -13.205  1.00  0.00    -0.0389  C
ATOM     46 C34  665 L   1      -9.343  -4.750 -12.589  1.00  0.00    -0.0397  C
ATOM     47 H51  665 L   1      -8.884  -7.380 -13.012  1.00  0.00    +0.0623  H
ATOM     48 H52  665 L   1      -4.700  -4.763 -12.471  1.00  0.00    +0.0626  H
ATOM     49 H54  665 L   1      -6.878  -3.632 -12.341  1.00  0.00    +0.0620  H
ATOM     50 H55  665 L   1      -6.317  -9.143 -14.211  1.00  0.00    +0.0278  H
ATOM     51 H56  665 L   1      -6.059  -9.431 -12.466  1.00  0.00    +0.0278  H
ATOM     52 H57  665 L   1      -7.690  -9.376 -13.122  1.00  0.00    +0.0278  H
ATOM     53 H59  665 L   1      -9.291  -3.865 -11.944  1.00  0.00    +0.0278  H
ATOM     54 H60  665 L   1     -10.107  -5.411 -12.165  1.00  0.00    +0.0278  H
ATOM     55 H61  665 L   1      -9.663  -4.437 -13.587  1.00  0.00    +0.0278  H
ENDBRANCH 38 39
ENDBRANCH 36 38
ENDBRANCH 33 36
ENDBRANCH 26 33
ENDBRANCH 21 23
BRANCH 21 57
ATOM     56  N5  665 L   1       3.861  -5.171 -13.233  1.00  0.00    -0.3289 NA
ATOM     57  C9  665 L   1       2.523  -5.719 -13.031  1.00  0.00    +0.0085  C
ATOM     58 H36  665 L   1       2.605  -6.660 -12.473  1.00  0.00    +0.0432  H
ATOM     59 H37  665 L   1       2.097  -5.974 -14.009  1.00  0.00    +0.0432  H
ATOM     60 H45  665 L   1       4.437  -5.860 -13.714  1.00  0.00    +0.1182 HD
ATOM     61 H46  665 L   1       4.310  -5.007 -12.333  1.00  0.00    +0.1182 HD
ENDBRANCH 21 57
ENDBRANCH 19 21
ENDBRANCH 2 18
TORSDOF 8
ENDMDL
MODEL 8
REMARK VINA RESULT:    -7.039      3.435      6.068
REMARK INTER + INTRA:         -11.847
REMARK INTER:                 -11.161
REMARK INTRA:                  -0.687
REMARK UNBOUND:                -1.517
ROOT
ATOM      1  N6  665 L   1      -0.419   1.811 -14.908  1.00  0.00    -0.2626 NA
ATOM      2 C16  665 L   1       0.972  -2.955 -13.926  1.00  0.00    +0.0423  A
ATOM      3 C18  665 L   1       0.829  -1.811 -13.139  1.00  0.00    -0.0305  A
ATOM      4 C19  665 L   1       0.414  -0.597 -13.710  1.00  0.00    -0.0131  A
ATOM      5 C20  665 L   1       0.705  -2.902 -15.292  1.00  0.00    -0.0377  A
ATOM      6 C21  665 L   1       0.145  -0.548 -15.094  1.00  0.00    +0.0004  A
ATOM      7 C22  665 L   1       0.293  -1.705 -15.877  1.00  0.00    -0.0506  A
ATOM      8 C26  665 L   1       0.261   0.567 -12.948  1.00  0.00    -0.0358  A
ATOM      9 C30  665 L   1      -0.265   0.676 -15.627  1.00  0.00    +0.0353  A
ATOM     10 C33  665 L   1      -0.152   1.726 -13.587  1.00  0.00    +0.0281  A
ATOM     11 H47  665 L   1       1.039  -1.860 -12.070  1.00  0.00    +0.0644  H
ATOM     12 H48  665 L   1       0.790  -3.744 -15.964  1.00  0.00    +0.0638  H
ATOM     13 H49  665 L   1       0.087  -1.680 -16.945  1.00  0.00    +0.0625  H
ATOM     14 H50  665 L   1       0.457   0.576 -11.881  1.00  0.00    +0.0639  H
ATOM     15 H53  665 L   1      -0.489   0.783 -16.685  1.00  0.00    +0.0836  H
ATOM     16 H58  665 L   1      -0.282   2.648 -13.030  1.00  0.00    +0.0830  H
ENDROOT
BRANCH 2 18
ATOM     17  O2  665 L   1       3.629  -4.342 -14.012  1.00  0.00    -0.2722 OA
ATOM     18  N4  665 L   1       1.383  -4.155 -13.342  1.00  0.00    -0.3256  N
ATOM     19 C10  665 L   1       2.644  -4.770 -13.417  1.00  0.00    +0.2339  C
ATOM     20 H42  665 L   1       0.669  -4.637 -12.801  1.00  0.00    +0.1686 HD
BRANCH 19 21
ATOM     21  C7  665 L   1       2.689  -6.089 -12.631  1.00  0.00    +0.0752  C
ATOM     22 H35  665 L   1       3.257  -5.904 -11.706  1.00  0.00    +0.0458  H
BRANCH 21 23
ATOM     23  C8  665 L   1       1.281  -6.531 -12.265  1.00  0.00    -0.0341  A
ATOM     24 C11  665 L   1       0.879  -6.548 -10.928  1.00  0.00    -0.0574  A
ATOM     25 C12  665 L   1       0.389  -6.919 -13.265  1.00  0.00    -0.0574  A
ATOM     26 C13  665 L   1      -1.302  -7.343 -11.593  1.00  0.00    -0.0103  A
ATOM     27 C14  665 L   1      -0.412  -6.955 -10.593  1.00  0.00    -0.0551  A
ATOM     28 C15  665 L   1      -0.902  -7.326 -12.929  1.00  0.00    -0.0551  A
ATOM     29 H38  665 L   1       1.563  -6.248 -10.138  1.00  0.00    +0.0621  H
ATOM     30 H39  665 L   1       0.680  -6.911 -14.311  1.00  0.00    +0.0621  H
ATOM     31 H40  665 L   1      -0.710  -6.962  -9.548  1.00  0.00    +0.0621  H
ATOM     32 H41  665 L   1      -1.588  -7.625 -13.718  1.00  0.00    +0.0621  H
BRANCH 26 33
ATOM     33 C17  665 L   1      -2.684  -7.777 -11.235  1.00  0.00    +0.1179  C
ATOM     34 H43  665 L   1      -2.926  -7.436 -10.221  1.00  0.00    +0.0749  H
ATOM     35 H44  665 L   1      -3.418  -7.337 -11.921  1.00  0.00    +0.0749  H
BRANCH 33 36
ATOM     36  O1  665 L   1      -2.764  -9.197 -11.300  1.00  0.00    -0.4564 OA
BRANCH 36 38
ATOM     37  O3  665 L   1      -3.075 -10.120 -13.386  1.00  0.00    -0.2449 OA
ATOM     38 C25  665 L   1      -3.507  -9.706 -12.321  1.00  0.00    +0.3398  C
BRANCH 38 39
ATOM     39 C23  665 L   1      -4.951  -9.697 -11.974  1.00  0.00    +0.0619  A
ATOM     40 C24  665 L   1      -5.845  -8.852 -12.633  1.00  0.00    -0.0362  A
ATOM     41 C27  665 L   1      -7.654  -9.717 -11.284  1.00  0.00    -0.0502  A
ATOM     42 C28  665 L   1      -7.196  -8.863 -12.288  1.00  0.00    -0.0551  A
ATOM     43 C29  665 L   1      -5.408 -10.551 -10.971  1.00  0.00    -0.0473  A
ATOM     44 C31  665 L   1      -6.759 -10.562 -10.625  1.00  0.00    -0.0580  A
ATOM     45 C32  665 L   1      -5.382  -7.929 -13.712  1.00  0.00    -0.0389  C
ATOM     46 C34  665 L   1      -9.098  -9.729 -10.914  1.00  0.00    -0.0397  C
ATOM     47 H51  665 L   1      -7.897  -8.204 -12.796  1.00  0.00    +0.0623  H
ATOM     48 H52  665 L   1      -4.722 -11.212 -10.447  1.00  0.00    +0.0626  H
ATOM     49 H54  665 L   1      -7.103 -11.230  -9.841  1.00  0.00    +0.0620  H
ATOM     50 H55  665 L   1      -4.781  -7.118 -13.287  1.00  0.00    +0.0278  H
ATOM     51 H56  665 L   1      -4.791  -8.467 -14.460  1.00  0.00    +0.0278  H
ATOM     52 H57  665 L   1      -6.225  -7.472 -14.242  1.00  0.00    +0.0278  H
ATOM     53 H59  665 L   1      -9.402 -10.712 -10.535  1.00  0.00    +0.0278  H
ATOM     54 H60  665 L   1      -9.729  -9.512 -11.783  1.00  0.00    +0.0278  H
ATOM     55 H61  665 L   1      -9.294  -8.980 -10.141  1.00  0.00    +0.0278  H
ENDBRANCH 38 39
ENDBRANCH 36 38
ENDBRANCH 33 36
ENDBRANCH 26 33
ENDBRANCH 21 23
BRANCH 21 57
ATOM     56  N5  665 L   1       3.556  -8.420 -12.692  1.00  0.00    -0.3289 NA
ATOM     57  C9  665 L   1       3.466  -7.159 -13.424  1.00  0.00    +0.0085  C
ATOM     58 H36  665 L   1       3.007  -7.347 -14.402  1.00  0.00    +0.0432  H
ATOM     59 H37  665 L   1       4.482  -6.795 -13.621  1.00  0.00    +0.0432  H
ATOM     60 H45  665 L   1       4.083  -9.092 -13.247  1.00  0.00    +0.1182 HD
ATOM     61 H46  665 L   1       2.627  -8.819 -12.573  1.00  0.00    +0.1182 HD
ENDBRANCH 21 57
ENDBRANCH 19 21
ENDBRANCH 2 18
TORSDOF 8
ENDMDL
MODEL 9
REMARK VINA RESULT:    -7.004      2.108      3.509
REMARK INTER + INTRA:         -11.797
REMARK INTER:                  -9.895
REMARK INTRA:                  -1.902
REMARK UNBOUND:                -1.517
ROOT
ATOM      1  N6  665 L   1       6.127  -6.239 -13.671  1.00  0.00    -0.2626 NA
ATOM      2 C16  665 L   1       1.170  -6.890 -12.890  1.00  0.00    +0.0423  A
ATOM      3 C18  665 L   1       2.271  -7.747 -12.861  1.00  0.00    -0.0305  A
ATOM      4 C19  665 L   1       3.561  -7.263 -13.127  1.00  0.00    -0.0131  A
ATOM      5 C20  665 L   1       1.342  -5.540 -13.187  1.00  0.00    -0.0377  A
ATOM      6 C21  665 L   1       3.732  -5.895 -13.428  1.00  0.00    +0.0004  A
ATOM      7 C22  665 L   1       2.616  -5.041 -13.455  1.00  0.00    -0.0506  A
ATOM      8 C26  665 L   1       4.686  -8.096 -13.106  1.00  0.00    -0.0358  A
ATOM      9 C30  665 L   1       5.029  -5.449 -13.688  1.00  0.00    +0.0353  A
ATOM     10 C33  665 L   1       5.926  -7.541 -13.381  1.00  0.00    +0.0281  A
ATOM     11 H47  665 L   1       2.128  -8.802 -12.627  1.00  0.00    +0.0644  H
ATOM     12 H48  665 L   1       0.540  -4.816 -13.226  1.00  0.00    +0.0638  H
ATOM     13 H49  665 L   1       2.734  -3.985 -13.685  1.00  0.00    +0.0625  H
ATOM     14 H50  665 L   1       4.602  -9.155 -12.881  1.00  0.00    +0.0639  H
ATOM     15 H53  665 L   1       5.230  -4.408 -13.926  1.00  0.00    +0.0836  H
ATOM     16 H58  665 L   1       6.820  -8.156 -13.373  1.00  0.00    +0.0830  H
ENDROOT
BRANCH 2 18
ATOM     17  O2  665 L   1      -1.266  -7.027 -14.636  1.00  0.00    -0.2722 OA
ATOM     18  N4  665 L   1      -0.107  -7.387 -12.621  1.00  0.00    -0.3256  N
ATOM     19 C10  665 L   1      -1.223  -7.424 -13.474  1.00  0.00    +0.2339  C
ATOM     20 H42  665 L   1      -0.234  -7.762 -11.684  1.00  0.00    +0.1686 HD
BRANCH 19 21
ATOM     21  C7  665 L   1      -2.447  -8.054 -12.793  1.00  0.00    +0.0752  C
ATOM     22 H35  665 L   1      -2.159  -8.308 -11.762  1.00  0.00    +0.0458  H
BRANCH 21 23
ATOM     23  C8  665 L   1      -3.597  -7.060 -12.754  1.00  0.00    -0.0341  A
ATOM     24 C11  665 L   1      -4.677  -7.206 -13.625  1.00  0.00    -0.0574  A
ATOM     25 C12  665 L   1      -3.573  -6.001 -11.845  1.00  0.00    -0.0574  A
ATOM     26 C13  665 L   1      -5.706  -5.235 -12.681  1.00  0.00    -0.0103  A
ATOM     27 C14  665 L   1      -5.731  -6.293 -13.589  1.00  0.00    -0.0551  A
ATOM     28 C15  665 L   1      -4.627  -5.089 -11.809  1.00  0.00    -0.0551  A
ATOM     29 H38  665 L   1      -4.710  -8.026 -14.338  1.00  0.00    +0.0621  H
ATOM     30 H39  665 L   1      -2.743  -5.870 -11.157  1.00  0.00    +0.0621  H
ATOM     31 H40  665 L   1      -6.566  -6.420 -14.272  1.00  0.00    +0.0621  H
ATOM     32 H41  665 L   1      -4.597  -4.269 -11.096  1.00  0.00    +0.0621  H
BRANCH 26 33
ATOM     33 C17  665 L   1      -6.833  -4.259 -12.641  1.00  0.00    +0.1179  C
ATOM     34 H43  665 L   1      -6.496  -3.326 -12.174  1.00  0.00    +0.0749  H
ATOM     35 H44  665 L   1      -7.175  -4.021 -13.656  1.00  0.00    +0.0749  H
BRANCH 33 36
ATOM     36  O1  665 L   1      -7.911  -4.813 -11.895  1.00  0.00    -0.4564 OA
BRANCH 36 38
ATOM     37  O3  665 L   1      -9.906  -4.056 -12.759  1.00  0.00    -0.2449 OA
ATOM     38 C25  665 L   1      -9.091  -4.944 -12.560  1.00  0.00    +0.3398  C
BRANCH 38 39
ATOM     39 C23  665 L   1      -9.278  -6.342 -13.027  1.00  0.00    +0.0619  A
ATOM     40 C24  665 L   1      -9.257  -6.655 -14.387  1.00  0.00    -0.0362  A
ATOM     41 C27  665 L   1      -9.635  -8.982 -13.854  1.00  0.00    -0.0502  A
ATOM     42 C28  665 L   1      -9.435  -7.976 -14.800  1.00  0.00    -0.0551  A
ATOM     43 C29  665 L   1      -9.477  -7.347 -12.082  1.00  0.00    -0.0473  A
ATOM     44 C31  665 L   1      -9.656  -8.668 -12.495  1.00  0.00    -0.0580  A
ATOM     45 C32  665 L   1      -9.044  -5.598 -15.420  1.00  0.00    -0.0389  C
ATOM     46 C34  665 L   1      -9.826 -10.394 -14.295  1.00  0.00    -0.0397  C
ATOM     47 H51  665 L   1      -9.424  -8.225 -15.858  1.00  0.00    +0.0623  H
ATOM     48 H52  665 L   1      -9.499  -7.117 -11.020  1.00  0.00    +0.0626  H
ATOM     49 H54  665 L   1      -9.812  -9.442 -11.749  1.00  0.00    +0.0620  H
ATOM     50 H55  665 L   1      -9.923  -4.947 -15.486  1.00  0.00    +0.0278  H
ATOM     51 H56  665 L   1      -8.161  -4.994 -15.185  1.00  0.00    +0.0278  H
ATOM     52 H57  665 L   1      -8.878  -6.030 -16.413  1.00  0.00    +0.0278  H
ATOM     53 H59  665 L   1      -9.473 -11.098 -13.532  1.00  0.00    +0.0278  H
ATOM     54 H60  665 L   1      -9.260 -10.601 -15.209  1.00  0.00    +0.0278  H
ATOM     55 H61  665 L   1     -10.886 -10.587 -14.486  1.00  0.00    +0.0278  H
ENDBRANCH 38 39
ENDBRANCH 36 38
ENDBRANCH 33 36
ENDBRANCH 26 33
ENDBRANCH 21 23
BRANCH 21 57
ATOM     56  N5  665 L   1      -1.718  -9.911 -14.280  1.00  0.00    -0.3289 NA
ATOM     57  C9  665 L   1      -2.823  -9.378 -13.489  1.00  0.00    +0.0085  C
ATOM     58 H36  665 L   1      -3.140 -10.138 -12.764  1.00  0.00    +0.0432  H
ATOM     59 H37  665 L   1      -3.679  -9.208 -14.154  1.00  0.00    +0.0432  H
ATOM     60 H45  665 L   1      -2.012 -10.778 -14.727  1.00  0.00    +0.1182 HD
ATOM     61 H46  665 L   1      -0.941 -10.158 -13.669  1.00  0.00    +0.1182 HD
ENDBRANCH 21 57
ENDBRANCH 19 21
ENDBRANCH 2 18
TORSDOF 8
ENDMDL
MODEL 10
REMARK VINA RESULT:    -6.699      3.521      5.318
REMARK INTER + INTRA:         -11.349
REMARK INTER:                  -9.944
REMARK INTRA:                  -1.405
REMARK UNBOUND:                -1.517
ROOT
ATOM      1  N6  665 L   1      -0.544   1.902 -15.231  1.00  0.00    -0.2626 NA
ATOM      2 C16  665 L   1       0.970  -2.526 -13.305  1.00  0.00    +0.0423  A
ATOM      3 C18  665 L   1       0.514  -2.128 -14.562  1.00  0.00    -0.0305  A
ATOM      4 C19  665 L   1       0.158  -0.791 -14.803  1.00  0.00    -0.0131  A
ATOM      5 C20  665 L   1       1.076  -1.597 -12.272  1.00  0.00    -0.0377  A
ATOM      6 C21  665 L   1       0.266   0.147 -13.755  1.00  0.00    +0.0004  A
ATOM      7 C22  665 L   1       0.726  -0.266 -12.493  1.00  0.00    -0.0506  A
ATOM      8 C26  665 L   1      -0.303  -0.360 -16.053  1.00  0.00    -0.0358  A
ATOM      9 C30  665 L   1      -0.098   1.467 -14.031  1.00  0.00    +0.0353  A
ATOM     10 C33  665 L   1      -0.635   0.977 -16.210  1.00  0.00    +0.0281  A
ATOM     11 H47  665 L   1       0.434  -2.860 -15.366  1.00  0.00    +0.0644  H
ATOM     12 H48  665 L   1       1.422  -1.829 -11.275  1.00  0.00    +0.0638  H
ATOM     13 H49  665 L   1       0.815   0.449 -11.677  1.00  0.00    +0.0625  H
ATOM     14 H50  665 L   1      -0.403  -1.046 -16.888  1.00  0.00    +0.0639  H
ATOM     15 H53  665 L   1      -0.037   2.239 -13.269  1.00  0.00    +0.0836  H
ATOM     16 H58  665 L   1      -0.995   1.349 -17.164  1.00  0.00    +0.0830  H
ENDROOT
BRANCH 2 18
ATOM     17  O2  665 L   1       3.310  -4.109 -14.313  1.00  0.00    -0.2722 OA
ATOM     18  N4  665 L   1       1.322  -3.859 -13.082  1.00  0.00    -0.3256  N
ATOM     19 C10  665 L   1       2.430  -4.561 -13.584  1.00  0.00    +0.2339  C
ATOM     20 H42  665 L   1       0.683  -4.377 -12.484  1.00  0.00    +0.1686 HD
BRANCH 19 21
ATOM     21  C7  665 L   1       2.456  -6.018 -13.101  1.00  0.00    +0.0752  C
ATOM     22 H35  665 L   1       2.521  -6.002 -12.002  1.00  0.00    +0.0458  H
BRANCH 21 23
ATOM     23  C8  665 L   1       1.176  -6.730 -13.508  1.00  0.00    -0.0341  A
ATOM     24 C11  665 L   1       0.206  -7.027 -12.550  1.00  0.00    -0.0574  A
ATOM     25 C12  665 L   1       0.971  -7.087 -14.842  1.00  0.00    -0.0574  A
ATOM     26 C13  665 L   1      -1.172  -8.038 -14.256  1.00  0.00    -0.0103  A
ATOM     27 C14  665 L   1      -0.967  -7.681 -12.924  1.00  0.00    -0.0551  A
ATOM     28 C15  665 L   1      -0.203  -7.742 -15.215  1.00  0.00    -0.0551  A
ATOM     29 H38  665 L   1       0.353  -6.754 -11.507  1.00  0.00    +0.0621  H
ATOM     30 H39  665 L   1       1.711  -6.865 -15.604  1.00  0.00    +0.0621  H
ATOM     31 H40  665 L   1      -1.714  -7.904 -12.167  1.00  0.00    +0.0621  H
ATOM     32 H41  665 L   1      -0.353  -8.014 -16.257  1.00  0.00    +0.0621  H
BRANCH 26 33
ATOM     33 C17  665 L   1      -2.427  -8.737 -14.657  1.00  0.00    +0.1179  C
ATOM     34 H43  665 L   1      -2.308  -9.160 -15.662  1.00  0.00    +0.0749  H
ATOM     35 H44  665 L   1      -2.647  -9.563 -13.969  1.00  0.00    +0.0749  H
BRANCH 33 36
ATOM     36  O1  665 L   1      -3.508  -7.811 -14.646  1.00  0.00    -0.4564 OA
BRANCH 36 38
ATOM     37  O3  665 L   1      -4.623  -9.030 -13.043  1.00  0.00    -0.2449 OA
ATOM     38 C25  665 L   1      -4.449  -8.004 -13.682  1.00  0.00    +0.3398  C
BRANCH 38 39
ATOM     39 C23  665 L   1      -5.268  -6.779 -13.495  1.00  0.00    +0.0619  A
ATOM     40 C24  665 L   1      -4.989  -5.876 -12.469  1.00  0.00    -0.0362  A
ATOM     41 C27  665 L   1      -6.838  -4.494 -13.185  1.00  0.00    -0.0502  A
ATOM     42 C28  665 L   1      -5.774  -4.733 -12.315  1.00  0.00    -0.0551  A
ATOM     43 C29  665 L   1      -6.332  -6.541 -14.366  1.00  0.00    -0.0473  A
ATOM     44 C31  665 L   1      -7.117  -5.398 -14.211  1.00  0.00    -0.0580  A
ATOM     45 C32  665 L   1      -3.856  -6.106 -11.524  1.00  0.00    -0.0389  C
ATOM     46 C34  665 L   1      -7.679  -3.273 -13.020  1.00  0.00    -0.0397  C
ATOM     47 H51  665 L   1      -5.564  -4.027 -11.515  1.00  0.00    +0.0623  H
ATOM     48 H52  665 L   1      -6.562  -7.237 -15.167  1.00  0.00    +0.0626  H
ATOM     49 H54  665 L   1      -7.944  -5.225 -14.894  1.00  0.00    +0.0620  H
ATOM     50 H55  665 L   1      -4.082  -6.943 -10.855  1.00  0.00    +0.0278  H
ATOM     51 H56  665 L   1      -2.930  -6.316 -12.069  1.00  0.00    +0.0278  H
ATOM     52 H57  665 L   1      -3.664  -5.226 -10.900  1.00  0.00    +0.0278  H
ATOM     53 H59  665 L   1      -8.099  -2.949 -13.980  1.00  0.00    +0.0278  H
ATOM     54 H60  665 L   1      -7.087  -2.438 -12.631  1.00  0.00    +0.0278  H
ATOM     55 H61  665 L   1      -8.502  -3.475 -12.328  1.00  0.00    +0.0278  H
ENDBRANCH 38 39
ENDBRANCH 36 38
ENDBRANCH 33 36
ENDBRANCH 26 33
ENDBRANCH 21 23
BRANCH 21 57
ATOM     56  N5  665 L   1       3.920  -8.026 -12.968  1.00  0.00    -0.3289 NA
ATOM     57  C9  665 L   1       3.726  -6.729 -13.611  1.00  0.00    +0.0085  C
ATOM     58 H36  665 L   1       3.698  -6.872 -14.698  1.00  0.00    +0.0432  H
ATOM     59 H37  665 L   1       4.601  -6.101 -13.403  1.00  0.00    +0.0432  H
ATOM     60 H45  665 L   1       4.772  -8.455 -13.327  1.00  0.00    +0.1182 HD
ATOM     61 H46  665 L   1       3.160  -8.655 -13.220  1.00  0.00    +0.1182 HD
ENDBRANCH 21 57
ENDBRANCH 19 21
ENDBRANCH 2 18
TORSDOF 8
ENDMDL
MODEL 11
REMARK VINA RESULT:    -6.696      3.065      9.972
REMARK INTER + INTRA:         -11.344
REMARK INTER:                 -10.451
REMARK INTRA:                  -0.893
REMARK UNBOUND:                -1.517
ROOT
ATOM      1  N6  665 L   1      -8.687  -1.386 -15.150  1.00  0.00    -0.2626 NA
ATOM      2 C16  665 L   1      -6.436  -5.774 -14.019  1.00  0.00    +0.0423  A
ATOM      3 C18  665 L   1      -6.652  -4.591 -13.310  1.00  0.00    -0.0305  A
ATOM      4 C19  665 L   1      -7.328  -3.515 -13.906  1.00  0.00    -0.0131  A
ATOM      5 C20  665 L   1      -6.889  -5.898 -15.330  1.00  0.00    -0.0377  A
ATOM      6 C21  665 L   1      -7.786  -3.643 -15.234  1.00  0.00    +0.0004  A
ATOM      7 C22  665 L   1      -7.562  -4.839 -15.938  1.00  0.00    -0.0506  A
ATOM      8 C26  665 L   1      -7.560  -2.315 -13.222  1.00  0.00    -0.0358  A
ATOM      9 C30  665 L   1      -8.453  -2.551 -15.794  1.00  0.00    +0.0353  A
ATOM     10 C33  665 L   1      -8.234  -1.298 -13.881  1.00  0.00    +0.0281  A
ATOM     11 H47  665 L   1      -6.294  -4.503 -12.284  1.00  0.00    +0.0644  H
ATOM     12 H48  665 L   1      -6.762  -6.780 -15.940  1.00  0.00    +0.0638  H
ATOM     13 H49  665 L   1      -7.911  -4.950 -16.962  1.00  0.00    +0.0625  H
ATOM     14 H50  665 L   1      -7.225  -2.171 -12.200  1.00  0.00    +0.0639  H
ATOM     15 H53  665 L   1      -8.832  -2.585 -16.812  1.00  0.00    +0.0836  H
ATOM     16 H58  665 L   1      -8.434  -0.355 -13.384  1.00  0.00    +0.0830  H
ENDROOT
BRANCH 2 18
ATOM     17  O2  665 L   1      -7.505  -8.262 -12.729  1.00  0.00    -0.2722 OA
ATOM     18  N4  665 L   1      -5.763  -6.837 -13.411  1.00  0.00    -0.3256  N
ATOM     19 C10  665 L   1      -6.312  -7.983 -12.812  1.00  0.00    +0.2339  C
ATOM     20 H42  665 L   1      -4.750  -6.755 -13.403  1.00  0.00    +0.1686 HD
BRANCH 19 21
ATOM     21  C7  665 L   1      -5.226  -8.917 -12.255  1.00  0.00    +0.0752  C
ATOM     22 H35  665 L   1      -5.060  -9.711 -12.999  1.00  0.00    +0.0458  H
BRANCH 21 23
ATOM     23  C8  665 L   1      -3.928  -8.152 -12.052  1.00  0.00    -0.0341  A
ATOM     24 C11  665 L   1      -3.757  -7.356 -10.919  1.00  0.00    -0.0574  A
ATOM     25 C12  665 L   1      -2.907  -8.247 -12.998  1.00  0.00    -0.0574  A
ATOM     26 C13  665 L   1      -1.546  -6.748 -11.679  1.00  0.00    -0.0103  A
ATOM     27 C14  665 L   1      -2.566  -6.653 -10.734  1.00  0.00    -0.0551  A
ATOM     28 C15  665 L   1      -1.717  -7.544 -12.812  1.00  0.00    -0.0551  A
ATOM     29 H38  665 L   1      -4.544  -7.272 -10.173  1.00  0.00    +0.0621  H
ATOM     30 H39  665 L   1      -3.019  -8.862 -13.886  1.00  0.00    +0.0621  H
ATOM     31 H40  665 L   1      -2.447  -6.039  -9.846  1.00  0.00    +0.0621  H
ATOM     32 H41  665 L   1      -0.928  -7.627 -13.556  1.00  0.00    +0.0621  H
BRANCH 26 33
ATOM     33 C17  665 L   1      -0.272  -5.998 -11.481  1.00  0.00    +0.1179  C
ATOM     34 H43  665 L   1      -0.460  -5.111 -10.863  1.00  0.00    +0.0749  H
ATOM     35 H44  665 L   1       0.466  -6.620 -10.959  1.00  0.00    +0.0749  H
BRANCH 33 36
ATOM     36  O1  665 L   1       0.247  -5.606 -12.747  1.00  0.00    -0.4564 OA
BRANCH 36 38
ATOM     37  O3  665 L   1       1.004  -3.472 -12.333  1.00  0.00    -0.2449 OA
ATOM     38 C25  665 L   1       1.179  -4.615 -12.728  1.00  0.00    +0.3398  C
BRANCH 38 39
ATOM     39 C23  665 L   1       2.476  -5.103 -13.263  1.00  0.00    +0.0619  A
ATOM     40 C24  665 L   1       2.938  -4.695 -14.515  1.00  0.00    -0.0362  A
ATOM     41 C27  665 L   1       4.918  -6.051 -14.223  1.00  0.00    -0.0502  A
ATOM     42 C28  665 L   1       4.159  -5.169 -14.994  1.00  0.00    -0.0551  A
ATOM     43 C29  665 L   1       3.233  -5.985 -12.492  1.00  0.00    -0.0473  A
ATOM     44 C31  665 L   1       4.454  -6.459 -12.972  1.00  0.00    -0.0580  A
ATOM     45 C32  665 L   1       2.148  -3.750 -15.360  1.00  0.00    -0.0389  C
ATOM     46 C34  665 L   1       6.222  -6.559 -14.735  1.00  0.00    -0.0397  C
ATOM     47 H51  665 L   1       4.524  -4.857 -15.970  1.00  0.00    +0.0623  H
ATOM     48 H52  665 L   1       2.883  -6.313 -11.517  1.00  0.00    +0.0626  H
ATOM     49 H54  665 L   1       5.034  -7.147 -12.363  1.00  0.00    +0.0620  H
ATOM     50 H55  665 L   1       1.251  -4.246 -15.747  1.00  0.00    +0.0278  H
ATOM     51 H56  665 L   1       1.856  -2.864 -14.787  1.00  0.00    +0.0278  H
ATOM     52 H57  665 L   1       2.727  -3.396 -16.219  1.00  0.00    +0.0278  H
ATOM     53 H59  665 L   1       6.908  -6.791 -13.912  1.00  0.00    +0.0278  H
ATOM     54 H60  665 L   1       6.718  -5.809 -15.362  1.00  0.00    +0.0278  H
ATOM     55 H61  665 L   1       6.066  -7.465 -15.327  1.00  0.00    +0.0278  H
ENDBRANCH 38 39
ENDBRANCH 36 38
ENDBRANCH 33 36
ENDBRANCH 26 33
ENDBRANCH 21 23
BRANCH 21 57
ATOM     56  N5  665 L   1      -6.774 -10.583 -11.246  1.00  0.00    -0.3289 NA
ATOM     57  C9  665 L   1      -5.723  -9.608 -10.969  1.00  0.00    +0.0085  C
ATOM     58 H36  665 L   1      -4.904 -10.109 -10.440  1.00  0.00    +0.0432  H
ATOM     59 H37  665 L   1      -6.120  -8.851 -10.282  1.00  0.00    +0.0432  H
ATOM     60 H45  665 L   1      -7.077 -11.008 -10.371  1.00  0.00    +0.1182 HD
ATOM     61 H46  665 L   1      -6.402 -11.343 -11.814  1.00  0.00    +0.1182 HD
ENDBRANCH 21 57
ENDBRANCH 19 21
ENDBRANCH 2 18
TORSDOF 8
ENDMDL
MODEL 12
REMARK VINA RESULT:    -6.641      3.413      9.192
REMARK INTER + INTRA:         -11.263
REMARK INTER:                 -10.110
REMARK INTRA:                  -1.153
REMARK UNBOUND:                -1.517
ROOT
ATOM      1  N6  665 L   1      -8.744  -1.439 -15.082  1.00  0.00    -0.2626 NA
ATOM      2 C16  665 L   1      -6.380  -5.804 -14.098  1.00  0.00    +0.0423  A
ATOM      3 C18  665 L   1      -6.580  -4.631 -13.369  1.00  0.00    -0.0305  A
ATOM      4 C19  665 L   1      -7.298  -3.559 -13.923  1.00  0.00    -0.0131  A
ATOM      5 C20  665 L   1      -6.891  -5.922 -15.389  1.00  0.00    -0.0377  A
ATOM      6 C21  665 L   1      -7.814  -3.682 -15.230  1.00  0.00    +0.0004  A
ATOM      7 C22  665 L   1      -7.606  -4.867 -15.955  1.00  0.00    -0.0506  A
ATOM      8 C26  665 L   1      -7.517  -2.370 -13.217  1.00  0.00    -0.0358  A
ATOM      9 C30  665 L   1      -8.522  -2.595 -15.748  1.00  0.00    +0.0353  A
ATOM     10 C33  665 L   1      -8.235  -1.357 -13.834  1.00  0.00    +0.0281  A
ATOM     11 H47  665 L   1      -6.178  -4.547 -12.360  1.00  0.00    +0.0644  H
ATOM     12 H48  665 L   1      -6.779  -6.797 -16.013  1.00  0.00    +0.0638  H
ATOM     13 H49  665 L   1      -8.000  -4.974 -16.963  1.00  0.00    +0.0625  H
ATOM     14 H50  665 L   1      -7.138  -2.230 -12.210  1.00  0.00    +0.0639  H
ATOM     15 H53  665 L   1      -8.946  -2.624 -16.748  1.00  0.00    +0.0836  H
ATOM     16 H58  665 L   1      -8.425  -0.421 -13.319  1.00  0.00    +0.0830  H
ENDROOT
BRANCH 2 18
ATOM     17  O2  665 L   1      -7.333  -8.143 -12.480  1.00  0.00    -0.2722 OA
ATOM     18  N4  665 L   1      -5.665  -6.862 -13.533  1.00  0.00    -0.3256  N
ATOM     19 C10  665 L   1      -6.158  -7.936 -12.773  1.00  0.00    +0.2339  C
ATOM     20 H42  665 L   1      -4.661  -6.837 -13.693  1.00  0.00    +0.1686 HD
BRANCH 19 21
ATOM     21  C7  665 L   1      -5.039  -8.892 -12.333  1.00  0.00    +0.0752  C
ATOM     22 H35  665 L   1      -4.899  -9.631 -13.137  1.00  0.00    +0.0458  H
BRANCH 21 23
ATOM     23  C8  665 L   1      -3.741  -8.126 -12.136  1.00  0.00    -0.0341  A
ATOM     24 C11  665 L   1      -2.733  -8.200 -13.098  1.00  0.00    -0.0574  A
ATOM     25 C12  665 L   1      -3.557  -7.349 -10.992  1.00  0.00    -0.0574  A
ATOM     26 C13  665 L   1      -1.358  -6.721 -11.772  1.00  0.00    -0.0103  A
ATOM     27 C14  665 L   1      -1.542  -7.498 -12.915  1.00  0.00    -0.0551  A
ATOM     28 C15  665 L   1      -2.365  -6.647 -10.810  1.00  0.00    -0.0551  A
ATOM     29 H38  665 L   1      -2.862  -8.802 -13.995  1.00  0.00    +0.0621  H
ATOM     30 H39  665 L   1      -4.328  -7.276 -10.232  1.00  0.00    +0.0621  H
ATOM     31 H40  665 L   1      -0.767  -7.564 -13.674  1.00  0.00    +0.0621  H
ATOM     32 H41  665 L   1      -2.234  -6.044  -9.915  1.00  0.00    +0.0621  H
BRANCH 26 33
ATOM     33 C17  665 L   1      -0.084  -5.970 -11.577  1.00  0.00    +0.1179  C
ATOM     34 H43  665 L   1      -0.307  -4.940 -11.274  1.00  0.00    +0.0749  H
ATOM     35 H44  665 L   1       0.519  -6.430 -10.785  1.00  0.00    +0.0749  H
BRANCH 33 36
ATOM     36  O1  665 L   1       0.654  -5.968 -12.795  1.00  0.00    -0.4564 OA
BRANCH 36 38
ATOM     37  O3  665 L   1       2.834  -5.311 -12.457  1.00  0.00    -0.2449 OA
ATOM     38 C25  665 L   1       1.699  -5.099 -12.857  1.00  0.00    +0.3398  C
BRANCH 38 39
ATOM     39 C23  665 L   1       1.283  -3.820 -13.487  1.00  0.00    +0.0619  A
ATOM     40 C24  665 L   1       1.255  -3.677 -14.875  1.00  0.00    -0.0362  A
ATOM     41 C27  665 L   1       0.495  -1.397 -14.622  1.00  0.00    -0.0502  A
ATOM     42 C28  665 L   1       0.861  -2.465 -15.442  1.00  0.00    -0.0551  A
ATOM     43 C29  665 L   1       0.918  -2.753 -12.667  1.00  0.00    -0.0473  A
ATOM     44 C31  665 L   1       0.524  -1.540 -13.235  1.00  0.00    -0.0580  A
ATOM     45 C32  665 L   1       1.640  -4.804 -15.776  1.00  0.00    -0.0389  C
ATOM     46 C34  665 L   1       0.075  -0.100 -15.227  1.00  0.00    -0.0397  C
ATOM     47 H51  665 L   1       0.841  -2.346 -16.523  1.00  0.00    +0.0623  H
ATOM     48 H52  665 L   1       0.938  -2.849 -11.585  1.00  0.00    +0.0626  H
ATOM     49 H54  665 L   1       0.244  -0.716 -12.585  1.00  0.00    +0.0620  H
ATOM     50 H55  665 L   1       2.719  -4.985 -15.720  1.00  0.00    +0.0278  H
ATOM     51 H56  665 L   1       1.104  -5.720 -15.506  1.00  0.00    +0.0278  H
ATOM     52 H57  665 L   1       1.394  -4.589 -16.821  1.00  0.00    +0.0278  H
ATOM     53 H59  665 L   1      -0.628   0.431 -14.576  1.00  0.00    +0.0278  H
ATOM     54 H60  665 L   1      -0.433  -0.259 -16.184  1.00  0.00    +0.0278  H
ATOM     55 H61  665 L   1       0.948   0.537 -15.394  1.00  0.00    +0.0278  H
ENDBRANCH 38 39
ENDBRANCH 36 38
ENDBRANCH 33 36
ENDBRANCH 26 33
ENDBRANCH 21 23
BRANCH 21 57
ATOM     56  N5  665 L   1      -6.372 -10.778 -11.406  1.00  0.00    -0.3289 NA
ATOM     57  C9  665 L   1      -5.469  -9.678 -11.078  1.00  0.00    +0.0085  C
ATOM     58 H36  665 L   1      -4.603 -10.078 -10.537  1.00  0.00    +0.0432  H
ATOM     59 H37  665 L   1      -5.982  -8.999 -10.385  1.00  0.00    +0.0432  H
ATOM     60 H45  665 L   1      -6.636 -11.262 -10.550  1.00  0.00    +0.1182 HD
ATOM     61 H46  665 L   1      -5.887 -11.465 -11.981  1.00  0.00    +0.1182 HD
ENDBRANCH 21 57
ENDBRANCH 19 21
ENDBRANCH 2 18
TORSDOF 8
ENDMDL
MODEL 13
REMARK VINA RESULT:    -6.548      4.160      6.608
REMARK INTER + INTRA:         -11.128
REMARK INTER:                 -10.345
REMARK INTRA:                  -0.782
REMARK UNBOUND:                -1.517
ROOT
ATOM      1  N6  665 L   1      -1.295   3.114 -15.567  1.00  0.00    -0.2626 NA
ATOM      2 C16  665 L   1       0.627  -0.795 -12.991  1.00  0.00    +0.0423  A
ATOM      3 C18  665 L   1      -0.143  -0.690 -14.150  1.00  0.00    -0.0305  A
ATOM      4 C19  665 L   1      -0.535   0.568 -14.637  1.00  0.00    -0.0131  A
ATOM      5 C20  665 L   1       1.014   0.352 -12.302  1.00  0.00    -0.0377  A
ATOM      6 C21  665 L   1      -0.141   1.727 -13.936  1.00  0.00    +0.0004  A
ATOM      7 C22  665 L   1       0.633   1.609 -12.769  1.00  0.00    -0.0506  A
ATOM      8 C26  665 L   1      -1.307   0.707 -15.797  1.00  0.00    -0.0358  A
ATOM      9 C30  665 L   1      -0.550   2.960 -14.448  1.00  0.00    +0.0353  A
ATOM     10 C33  665 L   1      -1.654   1.984 -16.211  1.00  0.00    +0.0281  A
ATOM     11 H47  665 L   1      -0.442  -1.592 -14.685  1.00  0.00    +0.0644  H
ATOM     12 H48  665 L   1       1.610   0.351 -11.401  1.00  0.00    +0.0638  H
ATOM     13 H49  665 L   1       0.944   2.495 -12.221  1.00  0.00    +0.0625  H
ATOM     14 H50  665 L   1      -1.634  -0.157 -16.367  1.00  0.00    +0.0639  H
ATOM     15 H53  665 L   1      -0.281   3.891 -13.958  1.00  0.00    +0.0836  H
ATOM     16 H58  665 L   1      -2.251   2.131 -17.105  1.00  0.00    +0.0830  H
ENDROOT
BRANCH 2 18
ATOM     17  O2  665 L   1       0.902  -3.405 -14.442  1.00  0.00    -0.2722 OA
ATOM     18  N4  665 L   1       1.010  -2.053 -12.522  1.00  0.00    -0.3256  N
ATOM     19 C10  665 L   1       1.118  -3.254 -13.243  1.00  0.00    +0.2339  C
ATOM     20 H42  665 L   1       1.230  -2.093 -11.529  1.00  0.00    +0.1686 HD
BRANCH 19 21
ATOM     21  C7  665 L   1       1.573  -4.421 -12.354  1.00  0.00    +0.0752  C
ATOM     22 H35  665 L   1       2.069  -3.991 -11.471  1.00  0.00    +0.0458  H
BRANCH 21 23
ATOM     23  C8  665 L   1       0.371  -5.233 -11.897  1.00  0.00    -0.0341  A
ATOM     24 C11  665 L   1       0.523  -6.581 -11.569  1.00  0.00    -0.0574  A
ATOM     25 C12  665 L   1      -0.884  -4.630 -11.804  1.00  0.00    -0.0574  A
ATOM     26 C13  665 L   1      -1.834  -6.723 -11.059  1.00  0.00    -0.0103  A
ATOM     27 C14  665 L   1      -0.580  -7.325 -11.151  1.00  0.00    -0.0551  A
ATOM     28 C15  665 L   1      -1.986  -5.376 -11.386  1.00  0.00    -0.0551  A
ATOM     29 H38  665 L   1       1.495  -7.064 -11.635  1.00  0.00    +0.0621  H
ATOM     30 H39  665 L   1      -1.024  -3.583 -12.053  1.00  0.00    +0.0621  H
ATOM     31 H40  665 L   1      -0.446  -8.373 -10.897  1.00  0.00    +0.0621  H
ATOM     32 H41  665 L   1      -2.959  -4.895 -11.317  1.00  0.00    +0.0621  H
BRANCH 26 33
ATOM     33 C17  665 L   1      -3.013  -7.519 -10.611  1.00  0.00    +0.1179  C
ATOM     34 H43  665 L   1      -3.110  -7.452  -9.520  1.00  0.00    +0.0749  H
ATOM     35 H44  665 L   1      -3.936  -7.126 -11.054  1.00  0.00    +0.0749  H
BRANCH 33 36
ATOM     36  O1  665 L   1      -2.841  -8.877 -11.000  1.00  0.00    -0.4564 OA
BRANCH 36 38
ATOM     37  O3  665 L   1      -2.886  -9.474 -13.222  1.00  0.00    -0.2449 OA
ATOM     38 C25  665 L   1      -3.446  -9.247 -12.161  1.00  0.00    +0.3398  C
BRANCH 38 39
ATOM     39 C23  665 L   1      -4.917  -9.343 -11.979  1.00  0.00    +0.0619  A
ATOM     40 C24  665 L   1      -5.783  -8.471 -12.640  1.00  0.00    -0.0362  A
ATOM     41 C27  665 L   1      -7.673  -9.564 -11.601  1.00  0.00    -0.0502  A
ATOM     42 C28  665 L   1      -7.161  -8.583 -12.451  1.00  0.00    -0.0551  A
ATOM     43 C29  665 L   1      -5.428 -10.324 -11.128  1.00  0.00    -0.0473  A
ATOM     44 C31  665 L   1      -6.805 -10.434 -10.939  1.00  0.00    -0.0580  A
ATOM     45 C32  665 L   1      -5.263  -7.413 -13.556  1.00  0.00    -0.0389  C
ATOM     46 C34  665 L   1      -9.145  -9.683 -11.397  1.00  0.00    -0.0397  C
ATOM     47 H51  665 L   1      -7.841  -7.904 -12.961  1.00  0.00    +0.0623  H
ATOM     48 H52  665 L   1      -4.764 -11.007 -10.604  1.00  0.00    +0.0626  H
ATOM     49 H54  665 L   1      -7.191 -11.201 -10.273  1.00  0.00    +0.0620  H
ATOM     50 H55  665 L   1      -4.758  -6.629 -12.984  1.00  0.00    +0.0278  H
ATOM     51 H56  665 L   1      -4.566  -7.837 -14.287  1.00  0.00    +0.0278  H
ATOM     52 H57  665 L   1      -6.070  -6.940 -14.126  1.00  0.00    +0.0278  H
ATOM     53 H59  665 L   1      -9.430 -10.714 -11.160  1.00  0.00    +0.0278  H
ATOM     54 H60  665 L   1      -9.691  -9.400 -12.303  1.00  0.00    +0.0278  H
ATOM     55 H61  665 L   1      -9.464  -9.034 -10.576  1.00  0.00    +0.0278  H
ENDBRANCH 38 39
ENDBRANCH 36 38
ENDBRANCH 33 36
ENDBRANCH 26 33
ENDBRANCH 21 23
BRANCH 21 57
ATOM     56  N5  665 L   1       3.601  -4.444 -13.794  1.00  0.00    -0.3289 NA
ATOM     57  C9  665 L   1       2.628  -5.273 -13.087  1.00  0.00    +0.0085  C
ATOM     58 H36  665 L   1       3.162  -5.935 -12.395  1.00  0.00    +0.0432  H
ATOM     59 H37  665 L   1       2.127  -5.922 -13.815  1.00  0.00    +0.0432  H
ATOM     60 H45  665 L   1       4.272  -5.046 -14.269  1.00  0.00    +0.1182 HD
ATOM     61 H46  665 L   1       4.140  -3.894 -13.126  1.00  0.00    +0.1182 HD
ENDBRANCH 21 57
ENDBRANCH 19 21
ENDBRANCH 2 18
TORSDOF 8
ENDMDL
MODEL 14
REMARK VINA RESULT:    -6.386      2.936     10.059
REMARK INTER + INTRA:         -10.889
REMARK INTER:                 -10.084
REMARK INTRA:                  -0.804
REMARK UNBOUND:                -1.517
ROOT
ATOM      1  N6  665 L   1      -9.400  -3.237 -15.401  1.00  0.00    -0.2626 NA
ATOM      2 C16  665 L   1      -5.781  -6.144 -13.387  1.00  0.00    +0.0423  A
ATOM      3 C18  665 L   1      -6.585  -6.254 -14.523  1.00  0.00    -0.0305  A
ATOM      4 C19  665 L   1      -7.526  -5.260 -14.831  1.00  0.00    -0.0131  A
ATOM      5 C20  665 L   1      -5.907  -5.043 -12.544  1.00  0.00    -0.0377  A
ATOM      6 C21  665 L   1      -7.652  -4.145 -13.975  1.00  0.00    +0.0004  A
ATOM      7 C22  665 L   1      -6.838  -4.045 -12.834  1.00  0.00    -0.0506  A
ATOM      8 C26  665 L   1      -8.347  -5.341 -15.962  1.00  0.00    -0.0358  A
ATOM      9 C30  665 L   1      -8.599  -3.177 -14.313  1.00  0.00    +0.0353  A
ATOM     10 C33  665 L   1      -9.253  -4.318 -16.197  1.00  0.00    +0.0281  A
ATOM     11 H47  665 L   1      -6.479  -7.119 -15.178  1.00  0.00    +0.0644  H
ATOM     12 H48  665 L   1      -5.320  -4.886 -11.651  1.00  0.00    +0.0638  H
ATOM     13 H49  665 L   1      -6.924  -3.190 -12.167  1.00  0.00    +0.0625  H
ATOM     14 H50  665 L   1      -8.286  -6.180 -16.648  1.00  0.00    +0.0639  H
ATOM     15 H53  665 L   1      -8.746  -2.294 -13.697  1.00  0.00    +0.0836  H
ATOM     16 H58  665 L   1      -9.906  -4.345 -17.063  1.00  0.00    +0.0830  H
ENDROOT
BRANCH 2 18
ATOM     17  O2  665 L   1      -6.135  -8.796 -12.031  1.00  0.00    -0.2722 OA
ATOM     18  N4  665 L   1      -4.847  -7.141 -13.095  1.00  0.00    -0.3256  N
ATOM     19 C10  665 L   1      -5.062  -8.370 -12.449  1.00  0.00    +0.2339  C
ATOM     20 H42  665 L   1      -3.895  -6.937 -13.388  1.00  0.00    +0.1686 HD
BRANCH 19 21
ATOM     21  C7  665 L   1      -3.767  -9.187 -12.321  1.00  0.00    +0.0752  C
ATOM     22 H35  665 L   1      -3.712  -9.859 -13.191  1.00  0.00    +0.0458  H
BRANCH 21 23
ATOM     23  C8  665 L   1      -2.559  -8.263 -12.334  1.00  0.00    -0.0341  A
ATOM     24 C11  665 L   1      -2.131  -7.657 -11.153  1.00  0.00    -0.0574  A
ATOM     25 C12  665 L   1      -1.878  -8.023 -13.528  1.00  0.00    -0.0574  A
ATOM     26 C13  665 L   1      -0.343  -6.569 -12.359  1.00  0.00    -0.0103  A
ATOM     27 C14  665 L   1      -1.024  -6.809 -11.166  1.00  0.00    -0.0551  A
ATOM     28 C15  665 L   1      -0.771  -7.175 -13.540  1.00  0.00    -0.0551  A
ATOM     29 H38  665 L   1      -2.652  -7.836 -10.215  1.00  0.00    +0.0621  H
ATOM     30 H39  665 L   1      -2.193  -8.486 -14.458  1.00  0.00    +0.0621  H
ATOM     31 H40  665 L   1      -0.701  -6.345 -10.238  1.00  0.00    +0.0621  H
ATOM     32 H41  665 L   1      -0.248  -6.995 -14.476  1.00  0.00    +0.0621  H
BRANCH 26 33
ATOM     33 C17  665 L   1       0.841  -5.663 -12.373  1.00  0.00    +0.1179  C
ATOM     34 H43  665 L   1       1.018  -5.304 -13.394  1.00  0.00    +0.0749  H
ATOM     35 H44  665 L   1       0.667  -4.787 -11.735  1.00  0.00    +0.0749  H
BRANCH 33 36
ATOM     36  O1  665 L   1       1.983  -6.371 -11.904  1.00  0.00    -0.4564 OA
BRANCH 36 38
ATOM     37  O3  665 L   1       2.394  -8.415 -12.879  1.00  0.00    -0.2449 OA
ATOM     38 C25  665 L   1       2.574  -7.210 -12.798  1.00  0.00    +0.3398  C
BRANCH 38 39
ATOM     39 C23  665 L   1       3.494  -6.461 -13.692  1.00  0.00    +0.0619  A
ATOM     40 C24  665 L   1       3.178  -6.245 -15.033  1.00  0.00    -0.0362  A
ATOM     41 C27  665 L   1       5.258  -5.051 -15.329  1.00  0.00    -0.0502  A
ATOM     42 C28  665 L   1       4.060  -5.539 -15.851  1.00  0.00    -0.0551  A
ATOM     43 C29  665 L   1       4.692  -5.974 -13.169  1.00  0.00    -0.0473  A
ATOM     44 C31  665 L   1       5.574  -5.269 -13.988  1.00  0.00    -0.0580  A
ATOM     45 C32  665 L   1       1.901  -6.755 -15.618  1.00  0.00    -0.0389  C
ATOM     46 C34  665 L   1       6.202  -4.298 -16.203  1.00  0.00    -0.0397  C
ATOM     47 H51  665 L   1       3.820  -5.370 -16.899  1.00  0.00    +0.0623  H
ATOM     48 H52  665 L   1       4.952  -6.138 -12.127  1.00  0.00    +0.0626  H
ATOM     49 H54  665 L   1       6.505  -4.896 -13.569  1.00  0.00    +0.0620  H
ATOM     50 H55  665 L   1       1.931  -7.847 -15.702  1.00  0.00    +0.0278  H
ATOM     51 H56  665 L   1       1.045  -6.460 -15.003  1.00  0.00    +0.0278  H
ATOM     52 H57  665 L   1       1.726  -6.351 -16.620  1.00  0.00    +0.0278  H
ATOM     53 H59  665 L   1       6.790  -3.577 -15.623  1.00  0.00    +0.0278  H
ATOM     54 H60  665 L   1       5.662  -3.729 -16.968  1.00  0.00    +0.0278  H
ATOM     55 H61  665 L   1       6.888  -4.991 -16.700  1.00  0.00    +0.0278  H
ENDBRANCH 38 39
ENDBRANCH 36 38
ENDBRANCH 33 36
ENDBRANCH 26 33
ENDBRANCH 21 23
BRANCH 21 57
ATOM     56  N5  665 L   1      -3.472 -11.468 -11.374  1.00  0.00    -0.3289 NA
ATOM     57  C9  665 L   1      -3.822 -10.084 -11.068  1.00  0.00    +0.0085  C
ATOM     58 H36  665 L   1      -3.157  -9.715 -10.279  1.00  0.00    +0.0432  H
ATOM     59 H37  665 L   1      -4.838 -10.064 -10.653  1.00  0.00    +0.0432  H
ATOM     60 H45  665 L   1      -3.529 -12.025 -10.522  1.00  0.00    +0.1182 HD
ATOM     61 H46  665 L   1      -2.501 -11.521 -11.680  1.00  0.00    +0.1182 HD
ENDBRANCH 21 57
ENDBRANCH 19 21
ENDBRANCH 2 18
TORSDOF 8
ENDMDL
MODEL 15
REMARK VINA RESULT:    -6.301      2.826      4.714
REMARK INTER + INTRA:         -10.764
REMARK INTER:                  -8.424
REMARK INTRA:                  -2.340
REMARK UNBOUND:                -1.517
ROOT
ATOM      1  N6  665 L   1       1.034  -4.675 -12.120  1.00  0.00    -0.2626 NA
ATOM      2 C16  665 L   1      -2.616  -8.172 -12.364  1.00  0.00    +0.0423  A
ATOM      3 C18  665 L   1      -1.695  -7.674 -13.287  1.00  0.00    -0.0305  A
ATOM      4 C19  665 L   1      -0.779  -6.677 -12.916  1.00  0.00    -0.0131  A
ATOM      5 C20  665 L   1      -2.637  -7.680 -11.061  1.00  0.00    -0.0377  A
ATOM      6 C21  665 L   1      -0.803  -6.180 -11.596  1.00  0.00    +0.0004  A
ATOM      7 C22  665 L   1      -1.735  -6.688 -10.675  1.00  0.00    -0.0506  A
ATOM      8 C26  665 L   1       0.158  -6.157 -13.818  1.00  0.00    -0.0358  A
ATOM      9 C30  665 L   1       0.122  -5.188 -11.263  1.00  0.00    +0.0353  A
ATOM     10 C33  665 L   1       1.027  -5.173 -13.375  1.00  0.00    +0.0281  A
ATOM     11 H47  665 L   1      -1.684  -8.065 -14.304  1.00  0.00    +0.0644  H
ATOM     12 H48  665 L   1      -3.317  -8.015 -10.291  1.00  0.00    +0.0638  H
ATOM     13 H49  665 L   1      -1.763  -6.314  -9.654  1.00  0.00    +0.0625  H
ATOM     14 H50  665 L   1       0.212  -6.508 -14.843  1.00  0.00    +0.0639  H
ATOM     15 H53  665 L   1       0.158  -4.764 -10.264  1.00  0.00    +0.0836  H
ATOM     16 H58  665 L   1       1.767  -4.747 -14.044  1.00  0.00    +0.0830  H
ENDROOT
BRANCH 2 18
ATOM     17  O2  665 L   1      -3.372 -10.736 -11.003  1.00  0.00    -0.2722 OA
ATOM     18  N4  665 L   1      -3.519  -9.165 -12.748  1.00  0.00    -0.3256  N
ATOM     19 C10  665 L   1      -3.836 -10.358 -12.076  1.00  0.00    +0.2339  C
ATOM     20 H42  665 L   1      -3.997  -8.994 -13.629  1.00  0.00    +0.1686 HD
BRANCH 19 21
ATOM     21  C7  665 L   1      -4.884 -11.185 -12.835  1.00  0.00    +0.0752  C
ATOM     22 H35  665 L   1      -5.153 -12.043 -12.200  1.00  0.00    +0.0458  H
BRANCH 21 23
ATOM     23  C8  665 L   1      -6.130 -10.350 -13.089  1.00  0.00    -0.0341  A
ATOM     24 C11  665 L   1      -6.710  -9.627 -12.046  1.00  0.00    -0.0574  A
ATOM     25 C12  665 L   1      -6.693 -10.306 -14.365  1.00  0.00    -0.0574  A
ATOM     26 C13  665 L   1      -8.415  -8.819 -13.554  1.00  0.00    -0.0103  A
ATOM     27 C14  665 L   1      -7.853  -8.863 -12.279  1.00  0.00    -0.0551  A
ATOM     28 C15  665 L   1      -7.836  -9.542 -14.597  1.00  0.00    -0.0551  A
ATOM     29 H38  665 L   1      -6.282  -9.651 -11.046  1.00  0.00    +0.0621  H
ATOM     30 H39  665 L   1      -6.256 -10.860 -15.191  1.00  0.00    +0.0621  H
ATOM     31 H40  665 L   1      -8.293  -8.303 -11.457  1.00  0.00    +0.0621  H
ATOM     32 H41  665 L   1      -8.264  -9.514 -15.596  1.00  0.00    +0.0621  H
BRANCH 26 33
ATOM     33 C17  665 L   1      -9.637  -8.001 -13.803  1.00  0.00    +0.1179  C
ATOM     34 H43  665 L   1     -10.521  -8.650 -13.802  1.00  0.00    +0.0749  H
ATOM     35 H44  665 L   1      -9.770  -7.252 -13.012  1.00  0.00    +0.0749  H
BRANCH 33 36
ATOM     36  O1  665 L   1      -9.519  -7.346 -15.062  1.00  0.00    -0.4564 OA
BRANCH 36 38
ATOM     37  O3  665 L   1      -9.905  -5.140 -15.592  1.00  0.00    -0.2449 OA
ATOM     38 C25  665 L   1      -9.268  -6.010 -15.017  1.00  0.00    +0.3398  C
BRANCH 38 39
ATOM     39 C23  665 L   1      -8.088  -5.724 -14.162  1.00  0.00    +0.0619  A
ATOM     40 C24  665 L   1      -8.231  -5.093 -12.926  1.00  0.00    -0.0362  A
ATOM     41 C27  665 L   1      -5.840  -5.209 -12.593  1.00  0.00    -0.0502  A
ATOM     42 C28  665 L   1      -7.106  -4.836 -12.141  1.00  0.00    -0.0551  A
ATOM     43 C29  665 L   1      -6.822  -6.097 -14.614  1.00  0.00    -0.0473  A
ATOM     44 C31  665 L   1      -5.698  -5.840 -13.829  1.00  0.00    -0.0580  A
ATOM     45 C32  665 L   1      -9.574  -4.684 -12.417  1.00  0.00    -0.0389  C
ATOM     46 C34  665 L   1      -4.637  -4.933 -11.756  1.00  0.00    -0.0397  C
ATOM     47 H51  665 L   1      -7.210  -4.341 -11.179  1.00  0.00    +0.0623  H
ATOM     48 H52  665 L   1      -6.697  -6.587 -15.576  1.00  0.00    +0.0626  H
ATOM     49 H54  665 L   1      -4.717  -6.133 -14.193  1.00  0.00    +0.0620  H
ATOM     50 H55  665 L   1      -9.961  -3.841 -13.000  1.00  0.00    +0.0278  H
ATOM     51 H56  665 L   1     -10.282  -5.518 -12.470  1.00  0.00    +0.0278  H
ATOM     52 H57  665 L   1      -9.531  -4.370 -11.369  1.00  0.00    +0.0278  H
ATOM     53 H59  665 L   1      -3.847  -5.670 -11.943  1.00  0.00    +0.0278  H
ATOM     54 H60  665 L   1      -4.879  -4.987 -10.689  1.00  0.00    +0.0278  H
ATOM     55 H61  665 L   1      -4.245  -3.936 -11.978  1.00  0.00    +0.0278  H
ENDBRANCH 38 39
ENDBRANCH 36 38
ENDBRANCH 33 36
ENDBRANCH 26 33
ENDBRANCH 21 23
BRANCH 21 57
ATOM     56  N5  665 L   1      -2.819 -11.821 -14.067  1.00  0.00    -0.3289 NA
ATOM     57  C9  665 L   1      -4.276 -11.763 -14.129  1.00  0.00    +0.0085  C
ATOM     58 H36  665 L   1      -4.664 -12.766 -14.343  1.00  0.00    +0.0432  H
ATOM     59 H37  665 L   1      -4.565 -11.131 -14.978  1.00  0.00    +0.0432  H
ATOM     60 H45  665 L   1      -2.460 -12.200 -14.942  1.00  0.00    +0.1182 HD
ATOM     61 H46  665 L   1      -2.528 -12.472 -13.339  1.00  0.00    +0.1182 HD
ENDBRANCH 21 57
ENDBRANCH 19 21
ENDBRANCH 2 18
TORSDOF 8
ENDMDL
MODEL 16
REMARK VINA RESULT:    -6.175      3.251      9.472
REMARK INTER + INTRA:         -10.579
REMARK INTER:                  -9.170
REMARK INTRA:                  -1.410
REMARK UNBOUND:                -1.517
ROOT
ATOM      1  N6  665 L   1      -9.202  -2.994 -13.202  1.00  0.00    -0.2626 NA
ATOM      2 C16  665 L   1      -6.207  -7.056 -12.839  1.00  0.00    +0.0423  A
ATOM      3 C18  665 L   1      -5.964  -5.690 -12.998  1.00  0.00    -0.0305  A
ATOM      4 C19  665 L   1      -7.029  -4.778 -13.067  1.00  0.00    -0.0131  A
ATOM      5 C20  665 L   1      -7.514  -7.528 -12.749  1.00  0.00    -0.0377  A
ATOM      6 C21  665 L   1      -8.352  -5.261 -12.976  1.00  0.00    +0.0004  A
ATOM      7 C22  665 L   1      -8.584  -6.637 -12.817  1.00  0.00    -0.0506  A
ATOM      8 C26  665 L   1      -6.819  -3.403 -13.226  1.00  0.00    -0.0358  A
ATOM      9 C30  665 L   1      -9.385  -4.325 -13.050  1.00  0.00    +0.0353  A
ATOM     10 C33  665 L   1      -7.924  -2.568 -13.286  1.00  0.00    +0.0281  A
ATOM     11 H47  665 L   1      -4.938  -5.328 -13.066  1.00  0.00    +0.0644  H
ATOM     12 H48  665 L   1      -7.780  -8.568 -12.624  1.00  0.00    +0.0638  H
ATOM     13 H49  665 L   1      -9.599  -7.021 -12.745  1.00  0.00    +0.0625  H
ATOM     14 H50  665 L   1      -5.820  -2.987 -13.301  1.00  0.00    +0.0639  H
ATOM     15 H53  665 L   1     -10.427  -4.629 -12.986  1.00  0.00    +0.0836  H
ATOM     16 H58  665 L   1      -7.801  -1.497 -13.408  1.00  0.00    +0.0830  H
ENDROOT
BRANCH 2 18
ATOM     17  O2  665 L   1      -5.361  -9.219 -14.737  1.00  0.00    -0.2722 OA
ATOM     18  N4  665 L   1      -5.136  -7.950 -12.770  1.00  0.00    -0.3256  N
ATOM     19 C10  665 L   1      -4.783  -8.955 -13.685  1.00  0.00    +0.2339  C
ATOM     20 H42  665 L   1      -4.549  -7.854 -11.944  1.00  0.00    +0.1686 HD
BRANCH 19 21
ATOM     21  C7  665 L   1      -3.531  -9.725 -13.240  1.00  0.00    +0.0752  C
ATOM     22 H35  665 L   1      -3.670 -10.778 -13.529  1.00  0.00    +0.0458  H
BRANCH 21 23
ATOM     23  C8  665 L   1      -2.299  -9.179 -13.944  1.00  0.00    -0.0341  A
ATOM     24 C11  665 L   1      -1.764  -9.854 -15.041  1.00  0.00    -0.0574  A
ATOM     25 C12  665 L   1      -1.703  -8.001 -13.492  1.00  0.00    -0.0574  A
ATOM     26 C13  665 L   1      -0.038  -8.176 -15.235  1.00  0.00    -0.0103  A
ATOM     27 C14  665 L   1      -0.634  -9.353 -15.686  1.00  0.00    -0.0551  A
ATOM     28 C15  665 L   1      -0.572  -7.500 -14.137  1.00  0.00    -0.0551  A
ATOM     29 H38  665 L   1      -2.219 -10.773 -15.405  1.00  0.00    +0.0621  H
ATOM     30 H39  665 L   1      -2.103  -7.458 -12.642  1.00  0.00    +0.0621  H
ATOM     31 H40  665 L   1      -0.230  -9.889 -16.540  1.00  0.00    +0.0621  H
ATOM     32 H41  665 L   1      -0.117  -6.581 -13.777  1.00  0.00    +0.0621  H
BRANCH 26 33
ATOM     33 C17  665 L   1       1.171  -7.639 -15.924  1.00  0.00    +0.1179  C
ATOM     34 H43  665 L   1       1.401  -8.259 -16.800  1.00  0.00    +0.0749  H
ATOM     35 H44  665 L   1       0.993  -6.615 -16.276  1.00  0.00    +0.0749  H
BRANCH 33 36
ATOM     36  O1  665 L   1       2.271  -7.647 -15.022  1.00  0.00    -0.4564 OA
BRANCH 36 38
ATOM     37  O3  665 L   1       4.253  -6.575 -15.490  1.00  0.00    -0.2449 OA
ATOM     38 C25  665 L   1       3.101  -6.571 -15.084  1.00  0.00    +0.3398  C
BRANCH 38 39
ATOM     39 C23  665 L   1       2.418  -5.351 -14.583  1.00  0.00    +0.0619  A
ATOM     40 C24  665 L   1       2.143  -5.186 -13.225  1.00  0.00    -0.0362  A
ATOM     41 C27  665 L   1       1.131  -3.042 -13.691  1.00  0.00    -0.0502  A
ATOM     42 C28  665 L   1       1.500  -4.031 -12.780  1.00  0.00    -0.0551  A
ATOM     43 C29  665 L   1       2.050  -4.362 -15.495  1.00  0.00    -0.0473  A
ATOM     44 C31  665 L   1       1.406  -3.207 -15.050  1.00  0.00    -0.0580  A
ATOM     45 C32  665 L   1       2.528  -6.229 -12.227  1.00  0.00    -0.0389  C
ATOM     46 C34  665 L   1       0.443  -1.807 -13.217  1.00  0.00    -0.0397  C
ATOM     47 H51  665 L   1       1.280  -3.899 -11.723  1.00  0.00    +0.0623  H
ATOM     48 H52  665 L   1       2.255  -4.479 -16.556  1.00  0.00    +0.0626  H
ATOM     49 H54  665 L   1       1.123  -2.445 -15.770  1.00  0.00    +0.0620  H
ATOM     50 H55  665 L   1       1.900  -7.118 -12.344  1.00  0.00    +0.0278  H
ATOM     51 H56  665 L   1       3.580  -6.509 -12.341  1.00  0.00    +0.0278  H
ATOM     52 H57  665 L   1       2.405  -5.870 -11.199  1.00  0.00    +0.0278  H
ATOM     53 H59  665 L   1       0.661  -0.955 -13.871  1.00  0.00    +0.0278  H
ATOM     54 H60  665 L   1       0.777  -1.532 -12.211  1.00  0.00    +0.0278  H
ATOM     55 H61  665 L   1      -0.640  -1.965 -13.197  1.00  0.00    +0.0278  H
ENDBRANCH 38 39
ENDBRANCH 36 38
ENDBRANCH 33 36
ENDBRANCH 26 33
ENDBRANCH 21 23
BRANCH 21 57
ATOM     56  N5  665 L   1      -3.452 -11.041 -11.130  1.00  0.00    -0.3289 NA
ATOM     57  C9  665 L   1      -3.405  -9.699 -11.703  1.00  0.00    +0.0085  C
ATOM     58 H36  665 L   1      -2.477  -9.209 -11.384  1.00  0.00    +0.0432  H
ATOM     59 H37  665 L   1      -4.228  -9.110 -11.282  1.00  0.00    +0.0432  H
ATOM     60 H45  665 L   1      -3.374 -10.977 -10.116  1.00  0.00    +0.1182 HD
ATOM     61 H46  665 L   1      -2.645 -11.581 -11.441  1.00  0.00    +0.1182 HD
ENDBRANCH 21 57
ENDBRANCH 19 21
ENDBRANCH 2 18
TORSDOF 8
ENDMDL
MODEL 17
REMARK VINA RESULT:    -6.121      2.216      3.802
REMARK INTER + INTRA:         -10.500
REMARK INTER:                  -9.598
REMARK INTRA:                  -0.902
REMARK UNBOUND:                -1.517
ROOT
ATOM      1  N6  665 L   1       2.201  -4.569 -12.455  1.00  0.00    -0.2626 NA
ATOM      2 C16  665 L   1      -2.191  -6.829 -11.353  1.00  0.00    +0.0423  A
ATOM      3 C18  665 L   1      -0.938  -7.299 -11.750  1.00  0.00    -0.0305  A
ATOM      4 C19  665 L   1       0.118  -6.405 -11.988  1.00  0.00    -0.0131  A
ATOM      5 C20  665 L   1      -2.406  -5.462 -11.191  1.00  0.00    -0.0377  A
ATOM      6 C21  665 L   1      -0.104  -5.022 -11.823  1.00  0.00    +0.0004  A
ATOM      7 C22  665 L   1      -1.369  -4.560 -11.424  1.00  0.00    -0.0506  A
ATOM      8 C26  665 L   1       1.386  -6.845 -12.387  1.00  0.00    -0.0358  A
ATOM      9 C30  665 L   1       0.969  -4.163 -12.070  1.00  0.00    +0.0353  A
ATOM     10 C33  665 L   1       2.376  -5.899 -12.604  1.00  0.00    +0.0281  A
ATOM     11 H47  665 L   1      -0.777  -8.370 -11.874  1.00  0.00    +0.0644  H
ATOM     12 H48  665 L   1      -3.345  -5.024 -10.885  1.00  0.00    +0.0638  H
ATOM     13 H49  665 L   1      -1.552  -3.496 -11.292  1.00  0.00    +0.0625  H
ATOM     14 H50  665 L   1       1.602  -7.899 -12.528  1.00  0.00    +0.0639  H
ATOM     15 H53  665 L   1       0.866  -3.087 -11.960  1.00  0.00    +0.0836  H
ATOM     16 H58  665 L   1       3.371  -6.201 -12.913  1.00  0.00    +0.0830  H
ENDROOT
BRANCH 2 18
ATOM     17  O2  665 L   1      -2.854  -9.420 -12.711  1.00  0.00    -0.2722 OA
ATOM     18  N4  665 L   1      -3.231  -7.731 -11.118  1.00  0.00    -0.3256  N
ATOM     19 C10  665 L   1      -3.505  -8.935 -11.789  1.00  0.00    +0.2339  C
ATOM     20 H42  665 L   1      -3.866  -7.469 -10.369  1.00  0.00    +0.1686 HD
BRANCH 19 21
ATOM     21  C7  665 L   1      -4.748  -9.638 -11.225  1.00  0.00    +0.0752  C
ATOM     22 H35  665 L   1      -4.841  -9.349 -10.167  1.00  0.00    +0.0458  H
BRANCH 21 23
ATOM     23  C8  665 L   1      -5.993  -9.185 -11.971  1.00  0.00    -0.0341  A
ATOM     24 C11  665 L   1      -7.258  -9.527 -11.491  1.00  0.00    -0.0574  A
ATOM     25 C12  665 L   1      -5.871  -8.425 -13.135  1.00  0.00    -0.0574  A
ATOM     26 C13  665 L   1      -8.277  -8.353 -13.340  1.00  0.00    -0.0103  A
ATOM     27 C14  665 L   1      -8.399  -9.112 -12.177  1.00  0.00    -0.0551  A
ATOM     28 C15  665 L   1      -7.013  -8.011 -13.820  1.00  0.00    -0.0551  A
ATOM     29 H38  665 L   1      -7.369 -10.118 -10.585  1.00  0.00    +0.0621  H
ATOM     30 H39  665 L   1      -4.896  -8.146 -13.524  1.00  0.00    +0.0621  H
ATOM     31 H40  665 L   1      -9.378  -9.384 -11.790  1.00  0.00    +0.0621  H
ATOM     32 H41  665 L   1      -6.905  -7.418 -14.725  1.00  0.00    +0.0621  H
BRANCH 26 33
ATOM     33 C17  665 L   1      -9.498  -7.908 -14.073  1.00  0.00    +0.1179  C
ATOM     34 H43  665 L   1      -9.704  -8.601 -14.898  1.00  0.00    +0.0749  H
ATOM     35 H44  665 L   1     -10.370  -7.909 -13.408  1.00  0.00    +0.0749  H
BRANCH 33 36
ATOM     36  O1  665 L   1      -9.291  -6.596 -14.583  1.00  0.00    -0.4564 OA
BRANCH 36 38
ATOM     37  O3  665 L   1      -9.900  -5.642 -12.579  1.00  0.00    -0.2449 OA
ATOM     38 C25  665 L   1      -9.365  -5.585 -13.675  1.00  0.00    +0.3398  C
BRANCH 38 39
ATOM     39 C23  665 L   1      -8.696  -4.364 -14.193  1.00  0.00    +0.0619  A
ATOM     40 C24  665 L   1      -7.547  -3.859 -13.584  1.00  0.00    -0.0362  A
ATOM     41 C27  665 L   1      -7.479  -2.066 -15.203  1.00  0.00    -0.0502  A
ATOM     42 C28  665 L   1      -6.938  -2.710 -14.090  1.00  0.00    -0.0551  A
ATOM     43 C29  665 L   1      -9.237  -3.720 -15.305  1.00  0.00    -0.0473  A
ATOM     44 C31  665 L   1      -8.629  -2.571 -15.811  1.00  0.00    -0.0580  A
ATOM     45 C32  665 L   1      -6.946  -4.529 -12.392  1.00  0.00    -0.0389  C
ATOM     46 C34  665 L   1      -6.830  -0.837 -15.744  1.00  0.00    -0.0397  C
ATOM     47 H51  665 L   1      -6.044  -2.310 -13.617  1.00  0.00    +0.0623  H
ATOM     48 H52  665 L   1     -10.134  -4.101 -15.787  1.00  0.00    +0.0626  H
ATOM     49 H54  665 L   1      -9.061  -2.078 -16.677  1.00  0.00    +0.0620  H
ATOM     50 H55  665 L   1      -7.586  -4.392 -11.515  1.00  0.00    +0.0278  H
ATOM     51 H56  665 L   1      -6.805  -5.599 -12.576  1.00  0.00    +0.0278  H
ATOM     52 H57  665 L   1      -5.960  -4.117 -12.150  1.00  0.00    +0.0278  H
ATOM     53 H59  665 L   1      -7.007  -0.737 -16.821  1.00  0.00    +0.0278  H
ATOM     54 H60  665 L   1      -5.745  -0.869 -15.599  1.00  0.00    +0.0278  H
ATOM     55 H61  665 L   1      -7.226   0.050 -15.240  1.00  0.00    +0.0278  H
ENDBRANCH 38 39
ENDBRANCH 36 38
ENDBRANCH 33 36
ENDBRANCH 26 33
ENDBRANCH 21 23
BRANCH 21 57
ATOM     56  N5  665 L   1      -3.159 -11.545 -11.061  1.00  0.00    -0.3289 NA
ATOM     57  C9  665 L   1      -4.556 -11.168 -11.252  1.00  0.00    +0.0085  C
ATOM     58 H36  665 L   1      -5.166 -11.664 -10.487  1.00  0.00    +0.0432  H
ATOM     59 H37  665 L   1      -4.895 -11.558 -12.220  1.00  0.00    +0.0432  H
ATOM     60 H45  665 L   1      -3.077 -12.560 -11.095  1.00  0.00    +0.1182 HD
ATOM     61 H46  665 L   1      -2.848 -11.268 -10.131  1.00  0.00    +0.1182 HD
ENDBRANCH 21 57
ENDBRANCH 19 21
ENDBRANCH 2 18
TORSDOF 8
ENDMDL
MODEL 18
REMARK VINA RESULT:    -6.119      2.780      4.683
REMARK INTER + INTRA:         -10.498
REMARK INTER:                  -8.304
REMARK INTRA:                  -2.193
REMARK UNBOUND:                -1.517
ROOT
ATOM      1  N6  665 L   1       0.816  -4.545 -11.340  1.00  0.00    -0.2626 NA
ATOM      2 C16  665 L   1      -2.823  -7.980 -12.089  1.00  0.00    +0.0423  A
ATOM      3 C18  665 L   1      -1.429  -8.044 -12.061  1.00  0.00    -0.0305  A
ATOM      4 C19  665 L   1      -0.665  -6.889 -11.822  1.00  0.00    -0.0131  A
ATOM      5 C20  665 L   1      -3.472  -6.766 -11.880  1.00  0.00    -0.0377  A
ATOM      6 C21  665 L   1      -1.327  -5.661 -11.612  1.00  0.00    +0.0004  A
ATOM      7 C22  665 L   1      -2.731  -5.610 -11.642  1.00  0.00    -0.0506  A
ATOM      8 C26  665 L   1       0.734  -6.920 -11.788  1.00  0.00    -0.0358  A
ATOM      9 C30  665 L   1      -0.535  -4.535 -11.378  1.00  0.00    +0.0353  A
ATOM     10 C33  665 L   1       1.415  -5.736 -11.547  1.00  0.00    +0.0281  A
ATOM     11 H47  665 L   1      -0.927  -8.997 -12.225  1.00  0.00    +0.0644  H
ATOM     12 H48  665 L   1      -4.545  -6.639 -11.885  1.00  0.00    +0.0638  H
ATOM     13 H49  665 L   1      -3.252  -4.669 -11.480  1.00  0.00    +0.0625  H
ATOM     14 H50  665 L   1       1.285  -7.841 -11.946  1.00  0.00    +0.0639  H
ATOM     15 H53  665 L   1      -0.981  -3.559 -11.207  1.00  0.00    +0.0836  H
ATOM     16 H58  665 L   1       2.499  -5.720 -11.512  1.00  0.00    +0.0830  H
ENDROOT
BRANCH 2 18
ATOM     17  O2  665 L   1      -2.801 -10.625 -10.673  1.00  0.00    -0.2722 OA
ATOM     18  N4  665 L   1      -3.567  -9.138 -12.326  1.00  0.00    -0.3256  N
ATOM     19 C10  665 L   1      -3.517 -10.360 -11.636  1.00  0.00    +0.2339  C
ATOM     20 H42  665 L   1      -4.221  -9.076 -13.103  1.00  0.00    +0.1686 HD
BRANCH 19 21
ATOM     21  C7  665 L   1      -4.502 -11.388 -12.212  1.00  0.00    +0.0752  C
ATOM     22 H35  665 L   1      -4.459 -12.283 -11.573  1.00  0.00    +0.0458  H
BRANCH 21 23
ATOM     23  C8  665 L   1      -5.917 -10.832 -12.186  1.00  0.00    -0.0341  A
ATOM     24 C11  665 L   1      -6.376 -10.143 -11.062  1.00  0.00    -0.0574  A
ATOM     25 C12  665 L   1      -6.757 -11.009 -13.286  1.00  0.00    -0.0574  A
ATOM     26 C13  665 L   1      -8.513  -9.812 -12.138  1.00  0.00    -0.0103  A
ATOM     27 C14  665 L   1      -7.675  -9.635 -11.038  1.00  0.00    -0.0551  A
ATOM     28 C15  665 L   1      -8.055 -10.500 -13.261  1.00  0.00    -0.0551  A
ATOM     29 H38  665 L   1      -5.733  -9.997 -10.198  1.00  0.00    +0.0621  H
ATOM     30 H39  665 L   1      -6.419 -11.539 -14.171  1.00  0.00    +0.0621  H
ATOM     31 H40  665 L   1      -8.018  -9.099 -10.157  1.00  0.00    +0.0621  H
ATOM     32 H41  665 L   1      -8.700 -10.643 -14.125  1.00  0.00    +0.0621  H
BRANCH 26 33
ATOM     33 C17  665 L   1      -9.902  -9.267 -12.113  1.00  0.00    +0.1179  C
ATOM     34 H43  665 L   1     -10.485  -9.707 -12.931  1.00  0.00    +0.0749  H
ATOM     35 H44  665 L   1     -10.401  -9.523 -11.170  1.00  0.00    +0.0749  H
BRANCH 33 36
ATOM     36  O1  665 L   1      -9.856  -7.852 -12.256  1.00  0.00    -0.4564 OA
BRANCH 36 38
ATOM     37  O3  665 L   1      -9.894  -7.946 -14.556  1.00  0.00    -0.2449 OA
ATOM     38 C25  665 L   1      -9.601  -7.387 -13.509  1.00  0.00    +0.3398  C
BRANCH 38 39
ATOM     39 C23  665 L   1      -8.902  -6.078 -13.452  1.00  0.00    +0.0619  A
ATOM     40 C24  665 L   1      -7.514  -5.997 -13.574  1.00  0.00    -0.0362  A
ATOM     41 C27  665 L   1      -7.635  -3.595 -13.336  1.00  0.00    -0.0502  A
ATOM     42 C28  665 L   1      -6.882  -4.755 -13.517  1.00  0.00    -0.0551  A
ATOM     43 C29  665 L   1      -9.656  -4.919 -13.272  1.00  0.00    -0.0473  A
ATOM     44 C31  665 L   1      -9.023  -3.677 -13.213  1.00  0.00    -0.0580  A
ATOM     45 C32  665 L   1      -6.683  -7.223 -13.770  1.00  0.00    -0.0389  C
ATOM     46 C34  665 L   1      -6.960  -2.267 -13.273  1.00  0.00    -0.0397  C
ATOM     47 H51  665 L   1      -5.800  -4.686 -13.608  1.00  0.00    +0.0623  H
ATOM     48 H52  665 L   1     -10.737  -4.968 -13.171  1.00  0.00    +0.0626  H
ATOM     49 H54  665 L   1      -9.621  -2.782 -13.070  1.00  0.00    +0.0620  H
ATOM     50 H55  665 L   1      -6.663  -7.820 -12.852  1.00  0.00    +0.0278  H
ATOM     51 H56  665 L   1      -7.073  -7.832 -14.592  1.00  0.00    +0.0278  H
ATOM     52 H57  665 L   1      -5.647  -6.973 -14.025  1.00  0.00    +0.0278  H
ATOM     53 H59  665 L   1      -7.621  -1.470 -13.632  1.00  0.00    +0.0278  H
ATOM     54 H60  665 L   1      -6.066  -2.250 -13.906  1.00  0.00    +0.0278  H
ATOM     55 H61  665 L   1      -6.667  -2.043 -12.244  1.00  0.00    +0.0278  H
ENDBRANCH 38 39
ENDBRANCH 36 38
ENDBRANCH 33 36
ENDBRANCH 26 33
ENDBRANCH 21 23
BRANCH 21 57
ATOM     56  N5  665 L   1      -2.737 -11.301 -13.963  1.00  0.00    -0.3289 NA
ATOM     57  C9  665 L   1      -4.056 -11.826 -13.622  1.00  0.00    +0.0085  C
ATOM     58 H36  665 L   1      -4.040 -12.918 -13.718  1.00  0.00    +0.0432  H
ATOM     59 H37  665 L   1      -4.780 -11.460 -14.361  1.00  0.00    +0.0432  H
ATOM     60 H45  665 L   1      -2.487 -11.606 -14.903  1.00  0.00    +0.1182 HD
ATOM     61 H46  665 L   1      -2.034 -11.697 -13.341  1.00  0.00    +0.1182 HD
ENDBRANCH 21 57
ENDBRANCH 19 21
ENDBRANCH 2 18
TORSDOF 8
ENDMDL
MODEL 19
REMARK VINA RESULT:    -6.113      3.811      5.602
REMARK INTER + INTRA:         -10.489
REMARK INTER:                  -9.602
REMARK INTRA:                  -0.887
REMARK UNBOUND:                -1.517
ROOT
ATOM      1  N6  665 L   1       1.046   2.192 -15.679  1.00  0.00    -0.2626 NA
ATOM      2 C16  665 L   1       0.369  -2.257 -13.365  1.00  0.00    +0.0423  A
ATOM      3 C18  665 L   1       0.283  -0.929 -12.944  1.00  0.00    -0.0305  A
ATOM      4 C19  665 L   1       0.533   0.122 -13.841  1.00  0.00    -0.0131  A
ATOM      5 C20  665 L   1       0.706  -2.553 -14.684  1.00  0.00    -0.0377  A
ATOM      6 C21  665 L   1       0.874  -0.181 -15.176  1.00  0.00    +0.0004  A
ATOM      7 C22  665 L   1       0.958  -1.522 -15.588  1.00  0.00    -0.0506  A
ATOM      8 C26  665 L   1       0.456   1.464 -13.450  1.00  0.00    -0.0358  A
ATOM      9 C30  665 L   1       1.117   0.890 -16.038  1.00  0.00    +0.0353  A
ATOM     10 C33  665 L   1       0.718   2.444 -14.394  1.00  0.00    +0.0281  A
ATOM     11 H47  665 L   1       0.018  -0.706 -11.911  1.00  0.00    +0.0644  H
ATOM     12 H48  665 L   1       0.789  -3.554 -15.084  1.00  0.00    +0.0638  H
ATOM     13 H49  665 L   1       1.219  -1.769 -16.615  1.00  0.00    +0.0625  H
ATOM     14 H50  665 L   1       0.198   1.745 -12.434  1.00  0.00    +0.0639  H
ATOM     15 H53  665 L   1       1.384   0.726 -17.079  1.00  0.00    +0.0836  H
ATOM     16 H58  665 L   1       0.667   3.495 -14.129  1.00  0.00    +0.0830  H
ENDROOT
BRANCH 2 18
ATOM     17  O2  665 L   1       2.060  -4.608 -12.584  1.00  0.00    -0.2722 OA
ATOM     18  N4  665 L   1       0.115  -3.292 -12.462  1.00  0.00    -0.3256  N
ATOM     19 C10  665 L   1       0.940  -4.380 -12.133  1.00  0.00    +0.2339  C
ATOM     20 H42  665 L   1      -0.787  -3.242 -11.994  1.00  0.00    +0.1686 HD
BRANCH 19 21
ATOM     21  C7  665 L   1       0.291  -5.300 -11.089  1.00  0.00    +0.0752  C
ATOM     22 H35  665 L   1       0.003  -4.675 -10.230  1.00  0.00    +0.0458  H
BRANCH 21 23
ATOM     23  C8  665 L   1      -0.955  -5.953 -11.665  1.00  0.00    -0.0341  A
ATOM     24 C11  665 L   1      -2.211  -5.648 -11.138  1.00  0.00    -0.0574  A
ATOM     25 C12  665 L   1      -0.844  -6.857 -12.723  1.00  0.00    -0.0574  A
ATOM     26 C13  665 L   1      -3.242  -7.150 -12.723  1.00  0.00    -0.0103  A
ATOM     27 C14  665 L   1      -3.354  -6.247 -11.666  1.00  0.00    -0.0551  A
ATOM     28 C15  665 L   1      -1.988  -7.456 -13.251  1.00  0.00    -0.0551  A
ATOM     29 H38  665 L   1      -2.313  -4.945 -10.314  1.00  0.00    +0.0621  H
ATOM     30 H39  665 L   1       0.122  -7.107 -13.149  1.00  0.00    +0.0621  H
ATOM     31 H40  665 L   1      -4.324  -5.998 -11.246  1.00  0.00    +0.0621  H
ATOM     32 H41  665 L   1      -1.889  -8.157 -14.075  1.00  0.00    +0.0621  H
BRANCH 26 33
ATOM     33 C17  665 L   1      -4.465  -7.791 -13.289  1.00  0.00    +0.1179  C
ATOM     34 H43  665 L   1      -5.355  -7.392 -12.787  1.00  0.00    +0.0749  H
ATOM     35 H44  665 L   1      -4.557  -7.571 -14.360  1.00  0.00    +0.0749  H
BRANCH 33 36
ATOM     36  O1  665 L   1      -4.391  -9.199 -13.098  1.00  0.00    -0.4564 OA
BRANCH 36 38
ATOM     37  O3  665 L   1      -5.374 -10.482 -14.737  1.00  0.00    -0.2449 OA
ATOM     38 C25  665 L   1      -5.399  -9.930 -13.648  1.00  0.00    +0.3398  C
BRANCH 38 39
ATOM     39 C23  665 L   1      -6.572  -9.975 -12.738  1.00  0.00    +0.0619  A
ATOM     40 C24  665 L   1      -7.776  -9.362 -13.084  1.00  0.00    -0.0362  A
ATOM     41 C27  665 L   1      -8.745 -10.088 -10.992  1.00  0.00    -0.0502  A
ATOM     42 C28  665 L   1      -8.863  -9.419 -12.211  1.00  0.00    -0.0551  A
ATOM     43 C29  665 L   1      -6.453 -10.644 -11.519  1.00  0.00    -0.0473  A
ATOM     44 C31  665 L   1      -7.540 -10.700 -10.646  1.00  0.00    -0.0580  A
ATOM     45 C32  665 L   1      -7.931  -8.641 -14.383  1.00  0.00    -0.0389  C
ATOM     46 C34  665 L   1      -9.905 -10.149 -10.058  1.00  0.00    -0.0397  C
ATOM     47 H51  665 L   1      -9.804  -8.940 -12.474  1.00  0.00    +0.0623  H
ATOM     48 H52  665 L   1      -5.520 -11.123 -11.236  1.00  0.00    +0.0626  H
ATOM     49 H54  665 L   1      -7.434 -11.223  -9.699  1.00  0.00    +0.0620  H
ATOM     50 H55  665 L   1      -7.350  -7.712 -14.373  1.00  0.00    +0.0278  H
ATOM     51 H56  665 L   1      -7.602  -9.267 -15.218  1.00  0.00    +0.0278  H
ATOM     52 H57  665 L   1      -8.976  -8.376 -14.576  1.00  0.00    +0.0278  H
ATOM     53 H59  665 L   1      -9.872 -11.056  -9.444  1.00  0.00    +0.0278  H
ATOM     54 H60  665 L   1     -10.853 -10.168 -10.607  1.00  0.00    +0.0278  H
ATOM     55 H61  665 L   1      -9.901  -9.278  -9.396  1.00  0.00    +0.0278  H
ENDBRANCH 38 39
ENDBRANCH 36 38
ENDBRANCH 33 36
ENDBRANCH 26 33
ENDBRANCH 21 23
BRANCH 21 57
ATOM     56  N5  665 L   1       0.731  -7.232  -9.584  1.00  0.00    -0.3289 NA
ATOM     57  C9  665 L   1       1.318  -6.326 -10.567  1.00  0.00    +0.0085  C
ATOM     58 H36  665 L   1       1.746  -6.918 -11.385  1.00  0.00    +0.0432  H
ATOM     59 H37  665 L   1       2.154  -5.794 -10.097  1.00  0.00    +0.0432  H
ATOM     60 H45  665 L   1       1.444  -7.885  -9.261  1.00  0.00    +0.1182 HD
ATOM     61 H46  665 L   1       0.007  -7.800 -10.023  1.00  0.00    +0.1182 HD
ENDBRANCH 21 57
ENDBRANCH 19 21
ENDBRANCH 2 18
TORSDOF 8
ENDMDL
MODEL 20
REMARK VINA RESULT:    -6.089      3.380      9.193
REMARK INTER + INTRA:         -10.454
REMARK INTER:                  -9.352
REMARK INTRA:                  -1.102
REMARK UNBOUND:                -1.517
ROOT
ATOM      1  N6  665 L   1      -8.614  -1.592 -15.068  1.00  0.00    -0.2626 NA
ATOM      2 C16  665 L   1      -6.424  -6.052 -14.106  1.00  0.00    +0.0423  A
ATOM      3 C18  665 L   1      -6.596  -4.882 -13.364  1.00  0.00    -0.0305  A
ATOM      4 C19  665 L   1      -7.265  -3.778 -13.915  1.00  0.00    -0.0131  A
ATOM      5 C20  665 L   1      -6.916  -6.133 -15.407  1.00  0.00    -0.0377  A
ATOM      6 C21  665 L   1      -7.762  -3.864 -15.232  1.00  0.00    +0.0004  A
ATOM      7 C22  665 L   1      -7.583  -5.046 -15.970  1.00  0.00    -0.0506  A
ATOM      8 C26  665 L   1      -7.454  -2.591 -13.196  1.00  0.00    -0.0358  A
ATOM      9 C30  665 L   1      -8.421  -2.746 -15.747  1.00  0.00    +0.0353  A
ATOM     10 C33  665 L   1      -8.124  -1.545 -13.811  1.00  0.00    +0.0281  A
ATOM     11 H47  665 L   1      -6.208  -4.826 -12.347  1.00  0.00    +0.0644  H
ATOM     12 H48  665 L   1      -6.824  -7.003 -16.041  1.00  0.00    +0.0638  H
ATOM     13 H49  665 L   1      -7.962  -5.125 -16.987  1.00  0.00    +0.0625  H
ATOM     14 H50  665 L   1      -7.088  -2.479 -12.180  1.00  0.00    +0.0639  H
ATOM     15 H53  665 L   1      -8.829  -2.746 -16.754  1.00  0.00    +0.0836  H
ATOM     16 H58  665 L   1      -8.290  -0.610 -13.286  1.00  0.00    +0.0830  H
ENDROOT
BRANCH 2 18
ATOM     17  O2  665 L   1      -7.505  -8.468 -12.696  1.00  0.00    -0.2722 OA
ATOM     18  N4  665 L   1      -5.757  -7.142 -13.543  1.00  0.00    -0.3256  N
ATOM     19 C10  665 L   1      -6.310  -8.252 -12.884  1.00  0.00    +0.2339  C
ATOM     20 H42  665 L   1      -4.744  -7.113 -13.622  1.00  0.00    +0.1686 HD
BRANCH 19 21
ATOM     21  C7  665 L   1      -5.231  -9.236 -12.409  1.00  0.00    +0.0752  C
ATOM     22 H35  665 L   1      -5.493 -10.231 -12.802  1.00  0.00    +0.0458  H
BRANCH 21 23
ATOM     23  C8  665 L   1      -3.872  -8.832 -12.958  1.00  0.00    -0.0341  A
ATOM     24 C11  665 L   1      -3.461  -9.289 -14.211  1.00  0.00    -0.0574  A
ATOM     25 C12  665 L   1      -3.036  -8.003 -12.210  1.00  0.00    -0.0574  A
ATOM     26 C13  665 L   1      -1.379  -8.090 -13.965  1.00  0.00    -0.0103  A
ATOM     27 C14  665 L   1      -2.214  -8.918 -14.713  1.00  0.00    -0.0551  A
ATOM     28 C15  665 L   1      -1.789  -7.633 -12.713  1.00  0.00    -0.0551  A
ATOM     29 H38  665 L   1      -4.102  -9.935 -14.806  1.00  0.00    +0.0621  H
ATOM     30 H39  665 L   1      -3.337  -7.634 -11.234  1.00  0.00    +0.0621  H
ATOM     31 H40  665 L   1      -1.908  -9.280 -15.691  1.00  0.00    +0.0621  H
ATOM     32 H41  665 L   1      -1.146  -6.985 -12.121  1.00  0.00    +0.0621  H
BRANCH 26 33
ATOM     33 C17  665 L   1      -0.045  -7.693 -14.503  1.00  0.00    +0.1179  C
ATOM     34 H43  665 L   1       0.145  -8.224 -15.444  1.00  0.00    +0.0749  H
ATOM     35 H44  665 L   1      -0.017  -6.616 -14.714  1.00  0.00    +0.0749  H
BRANCH 33 36
ATOM     36  O1  665 L   1       0.963  -8.017 -13.552  1.00  0.00    -0.4564 OA
BRANCH 36 38
ATOM     37  O3  665 L   1       3.221  -7.583 -13.659  1.00  0.00    -0.2449 OA
ATOM     38 C25  665 L   1       2.062  -7.214 -13.551  1.00  0.00    +0.3398  C
BRANCH 38 39
ATOM     39 C23  665 L   1       1.671  -5.789 -13.396  1.00  0.00    +0.0619  A
ATOM     40 C24  665 L   1       1.216  -5.295 -12.173  1.00  0.00    -0.0362  A
ATOM     41 C27  665 L   1       0.948  -3.105 -13.160  1.00  0.00    -0.0502  A
ATOM     42 C28  665 L   1       0.855  -3.953 -12.056  1.00  0.00    -0.0551  A
ATOM     43 C29  665 L   1       1.764  -4.942 -14.501  1.00  0.00    -0.0473  A
ATOM     44 C31  665 L   1       1.403  -3.600 -14.383  1.00  0.00    -0.0580  A
ATOM     45 C32  665 L   1       1.108  -6.180 -10.975  1.00  0.00    -0.0389  C
ATOM     46 C34  665 L   1       0.562  -1.671 -13.035  1.00  0.00    -0.0397  C
ATOM     47 H51  665 L   1       0.497  -3.563 -11.106  1.00  0.00    +0.0623  H
ATOM     48 H52  665 L   1       2.114  -5.314 -15.460  1.00  0.00    +0.0626  H
ATOM     49 H54  665 L   1       1.478  -2.951 -15.251  1.00  0.00    +0.0620  H
ATOM     50 H55  665 L   1       0.287  -6.893 -11.102  1.00  0.00    +0.0278  H
ATOM     51 H56  665 L   1       2.042  -6.727 -10.808  1.00  0.00    +0.0278  H
ATOM     52 H57  665 L   1       0.910  -5.605 -10.064  1.00  0.00    +0.0278  H
ATOM     53 H59  665 L   1       1.124  -1.046 -13.739  1.00  0.00    +0.0278  H
ATOM     54 H60  665 L   1       0.775  -1.291 -12.030  1.00  0.00    +0.0278  H
ATOM     55 H61  665 L   1      -0.507  -1.551 -13.236  1.00  0.00    +0.0278  H
ENDBRANCH 38 39
ENDBRANCH 36 38
ENDBRANCH 33 36
ENDBRANCH 26 33
ENDBRANCH 21 23
BRANCH 21 57
ATOM     56  N5  665 L   1      -6.413 -10.084 -10.390  1.00  0.00    -0.3289 NA
ATOM     57  C9  665 L   1      -5.247  -9.347 -10.871  1.00  0.00    +0.0085  C
ATOM     58 H36  665 L   1      -4.340  -9.833 -10.493  1.00  0.00    +0.0432  H
ATOM     59 H37  665 L   1      -5.266  -8.340 -10.436  1.00  0.00    +0.0432  H
ATOM     60 H45  665 L   1      -6.388 -10.125  -9.373  1.00  0.00    +0.1182 HD
ATOM     61 H46  665 L   1      -6.371 -11.049 -10.713  1.00  0.00    +0.1182 HD
ENDBRANCH 21 57
ENDBRANCH 19 21
ENDBRANCH 2 18
TORSDOF 8
ENDMDL
