MODEL 1
REMARK VINA RESULT:    -7.574      0.000      0.000
REMARK INTER + INTRA:         -11.973
REMARK INTER:                 -11.116
REMARK INTRA:                  -0.857
REMARK UNBOUND:                -0.857
ROOT
ATOM      1  N6  665 L   1       6.429  -8.688 -10.328  1.00  0.00    -0.2626 NA
ATOM      2 C16  665 L   1       9.059  -9.471  -6.076  1.00  0.00    +0.0423  A
ATOM      3 C18  665 L   1       9.412  -9.090  -7.372  1.00  0.00    -0.0305  A
ATOM      4 C19  665 L   1       8.433  -8.950  -8.368  1.00  0.00    -0.0131  A
ATOM      5 C20  665 L   1       7.726  -9.719  -5.759  1.00  0.00    -0.0377  A
ATOM      6 C21  665 L   1       7.083  -9.203  -8.043  1.00  0.00    +0.0004  A
ATOM      7 C22  665 L   1       6.740  -9.587  -6.736  1.00  0.00    -0.0506  A
ATOM      8 C26  665 L   1       8.755  -8.570  -9.676  1.00  0.00    -0.0358  A
ATOM      9 C30  665 L   1       6.137  -9.055  -9.059  1.00  0.00    +0.0353  A
ATOM     10 C33  665 L   1       7.730  -8.455 -10.603  1.00  0.00    +0.0281  A
ATOM     11 H48  665 L   1      10.403  -8.907  -7.599  1.00  0.00    +0.0644  H
ATOM     12 H49  665 L   1       7.468 -10.002  -4.800  1.00  0.00    +0.0638  H
ATOM     13 H50  665 L   1       5.753  -9.771  -6.498  1.00  0.00    +0.0625  H
ATOM     14 H51  665 L   1       9.733  -8.379  -9.944  1.00  0.00    +0.0639  H
ATOM     15 H54  665 L   1       5.148  -9.238  -8.826  1.00  0.00    +0.0836  H
ATOM     16 H59  665 L   1       7.977  -8.174 -11.563  1.00  0.00    +0.0830  H
ENDROOT
BRANCH 2 18
ATOM     17  O2  665 L   1      11.349  -7.666  -5.373  1.00  0.00    -0.2720 OA
ATOM     18  N4  665 L   1      10.045  -9.603  -5.096  1.00  0.00    -0.3255  N
ATOM     19 C10  665 L   1      11.107  -8.729  -4.808  1.00  0.00    +0.2381  C
ATOM     20 H35  665 L   1       9.989 -10.410  -4.537  1.00  0.00    +0.1686 HD
BRANCH 19 21
ATOM     21  C7  665 L   1      11.975  -9.240  -3.649  1.00  0.00    +0.1122  C
ATOM     22 H39  665 L   1      12.972  -9.412  -3.995  1.00  0.00    +0.0502  H
BRANCH 21 23
ATOM     23  C8  665 L   1      12.063  -8.188  -2.555  1.00  0.00    -0.0300  A
ATOM     24 C11  665 L   1      13.175  -7.349  -2.480  1.00  0.00    -0.0573  A
ATOM     25 C12  665 L   1      11.030  -8.061  -1.625  1.00  0.00    -0.0573  A
ATOM     26 C13  665 L   1      12.224  -6.258  -0.547  1.00  0.00    -0.0103  A
ATOM     27 C14  665 L   1      13.256  -6.385  -1.475  1.00  0.00    -0.0551  A
ATOM     28 C15  665 L   1      11.112  -7.096  -0.620  1.00  0.00    -0.0551  A
ATOM     29 H42  665 L   1      13.939  -7.443  -3.168  1.00  0.00    +0.0621  H
ATOM     30 H43  665 L   1      10.207  -8.681  -1.680  1.00  0.00    +0.0621  H
ATOM     31 H44  665 L   1      14.080  -5.764  -1.421  1.00  0.00    +0.0621  H
ATOM     32 H45  665 L   1      10.348  -7.002   0.068  1.00  0.00    +0.0621  H
BRANCH 26 33
ATOM     33 C17  665 L   1      12.310  -5.226   0.528  1.00  0.00    +0.1179  C
ATOM     34 H46  665 L   1      13.156  -5.428   1.150  1.00  0.00    +0.0749  H
ATOM     35 H47  665 L   1      12.415  -4.258   0.085  1.00  0.00    +0.0749  H
BRANCH 33 36
ATOM     36  O1  665 L   1      11.123  -5.262   1.313  1.00  0.00    -0.4564 OA
BRANCH 36 38
ATOM     37  O3  665 L   1      11.864  -6.572   3.054  1.00  0.00    -0.2449 OA
ATOM     38 C25  665 L   1      11.285  -5.586   2.624  1.00  0.00    +0.3398  C
BRANCH 38 39
ATOM     39 C23  665 L   1      10.654  -4.566   3.499  1.00  0.00    +0.0619  A
ATOM     40 C24  665 L   1       9.367  -4.749   4.007  1.00  0.00    -0.0362  A
ATOM     41 C27  665 L   1       9.511  -2.618   5.137  1.00  0.00    -0.0502  A
ATOM     42 C28  665 L   1       8.797  -3.775   4.826  1.00  0.00    -0.0551  A
ATOM     43 C29  665 L   1      11.369  -3.409   3.810  1.00  0.00    -0.0473  A
ATOM     44 C31  665 L   1      10.798  -2.435   4.628  1.00  0.00    -0.0580  A
ATOM     45 C32  665 L   1       8.580  -5.979   3.691  1.00  0.00    -0.0389  C
ATOM     46 C34  665 L   1       8.902  -1.575   6.012  1.00  0.00    -0.0397  C
ATOM     47 H52  665 L   1       7.844  -3.909   5.202  1.00  0.00    +0.0623  H
ATOM     48 H53  665 L   1      12.320  -3.275   3.435  1.00  0.00    +0.0626  H
ATOM     49 H55  665 L   1      11.327  -1.579   4.858  1.00  0.00    +0.0620  H
ATOM     50 H56  665 L   1       9.157  -6.619   3.057  1.00  0.00    +0.0278  H
ATOM     51 H57  665 L   1       7.675  -5.704   3.191  1.00  0.00    +0.0278  H
ATOM     52 H58  665 L   1       8.343  -6.494   4.598  1.00  0.00    +0.0278  H
ATOM     53 H60  665 L   1       7.921  -1.884   6.305  1.00  0.00    +0.0278  H
ATOM     54 H61  665 L   1       8.840  -0.651   5.476  1.00  0.00    +0.0278  H
ATOM     55 H62  665 L   1       9.508  -1.442   6.883  1.00  0.00    +0.0278  H
ENDBRANCH 38 39
ENDBRANCH 36 38
ENDBRANCH 33 36
ENDBRANCH 26 33
ENDBRANCH 21 23
BRANCH 21 57
ATOM     56  N5  665 L   1      12.430 -11.295  -2.323  1.00  0.00    -0.3600  N
ATOM     57  C9  665 L   1      11.442 -10.594  -3.137  1.00  0.00    +0.0921  C
ATOM     58 H36  665 L   1      12.041 -12.182  -2.004  1.00  0.00    +0.3450 HD
ATOM     59 H37  665 L   1      12.674 -10.722  -1.515  1.00  0.00    +0.3450 HD
ATOM     60 H38  665 L   1      13.267 -11.471  -2.879  1.00  0.00    +0.3450 HD
ATOM     61 H40  665 L   1      10.566 -10.420  -2.547  1.00  0.00    +0.0926  H
ATOM     62 H41  665 L   1      11.218 -11.205  -3.986  1.00  0.00    +0.0926  H
ENDBRANCH 21 57
ENDBRANCH 19 21
ENDBRANCH 2 18
TORSDOF 8
ENDMDL
MODEL 2
REMARK VINA RESULT:    -7.465      3.493     10.817
REMARK INTER + INTRA:         -11.814
REMARK INTER:                 -10.633
REMARK INTRA:                  -1.180
REMARK UNBOUND:                -0.857
ROOT
ATOM      1  N6  665 L   1       7.458  -5.353   6.617  1.00  0.00    -0.2626 NA
ATOM      2 C16  665 L   1      11.054  -4.746   3.109  1.00  0.00    +0.0423  A
ATOM      3 C18  665 L   1      10.395  -5.861   3.630  1.00  0.00    -0.0305  A
ATOM      4 C19  665 L   1       9.414  -5.710   4.624  1.00  0.00    -0.0131  A
ATOM      5 C20  665 L   1      10.745  -3.470   3.572  1.00  0.00    -0.0377  A
ATOM      6 C21  665 L   1       9.104  -4.416   5.092  1.00  0.00    +0.0004  A
ATOM      7 C22  665 L   1       9.775  -3.302   4.559  1.00  0.00    -0.0506  A
ATOM      8 C26  665 L   1       8.735  -6.808   5.168  1.00  0.00    -0.0358  A
ATOM      9 C30  665 L   1       8.125  -4.306   6.081  1.00  0.00    +0.0353  A
ATOM     10 C33  665 L   1       7.781  -6.576   6.147  1.00  0.00    +0.0281  A
ATOM     11 H48  665 L   1      10.629  -6.803   3.282  1.00  0.00    +0.0644  H
ATOM     12 H49  665 L   1      11.234  -2.648   3.185  1.00  0.00    +0.0638  H
ATOM     13 H50  665 L   1       9.548  -2.355   4.901  1.00  0.00    +0.0625  H
ATOM     14 H51  665 L   1       8.941  -7.766   4.847  1.00  0.00    +0.0639  H
ATOM     15 H54  665 L   1       7.894  -3.360   6.426  1.00  0.00    +0.0836  H
ATOM     16 H59  665 L   1       7.287  -7.391   6.540  1.00  0.00    +0.0830  H
ENDROOT
BRANCH 2 18
ATOM     17  O2  665 L   1      14.043  -4.874   3.327  1.00  0.00    -0.2720 OA
ATOM     18  N4  665 L   1      12.025  -4.912   2.119  1.00  0.00    -0.3255  N
ATOM     19 C10  665 L   1      13.421  -4.959   2.271  1.00  0.00    +0.2381  C
ATOM     20 H35  665 L   1      11.689  -5.008   1.199  1.00  0.00    +0.1686 HD
BRANCH 19 21
ATOM     21  C7  665 L   1      14.140  -5.156   0.928  1.00  0.00    +0.1122  C
ATOM     22 H39  665 L   1      15.102  -5.593   1.096  1.00  0.00    +0.0502  H
BRANCH 21 23
ATOM     23  C8  665 L   1      13.362  -6.125   0.052  1.00  0.00    -0.0300  A
ATOM     24 C11  665 L   1      13.086  -7.413   0.510  1.00  0.00    -0.0573  A
ATOM     25 C12  665 L   1      12.923  -5.725  -1.211  1.00  0.00    -0.0573  A
ATOM     26 C13  665 L   1      11.935  -7.902  -1.557  1.00  0.00    -0.0103  A
ATOM     27 C14  665 L   1      12.374  -8.302  -0.295  1.00  0.00    -0.0551  A
ATOM     28 C15  665 L   1      12.211  -6.614  -2.015  1.00  0.00    -0.0551  A
ATOM     29 H42  665 L   1      13.411  -7.709   1.444  1.00  0.00    +0.0621  H
ATOM     30 H43  665 L   1      13.127  -4.772  -1.550  1.00  0.00    +0.0621  H
ATOM     31 H44  665 L   1      12.170  -9.256   0.045  1.00  0.00    +0.0621  H
ATOM     32 H45  665 L   1      11.886  -6.318  -2.950  1.00  0.00    +0.0621  H
BRANCH 26 33
ATOM     33 C17  665 L   1      11.172  -8.853  -2.417  1.00  0.00    +0.1179  C
ATOM     34 H46  665 L   1      11.672  -9.798  -2.435  1.00  0.00    +0.0749  H
ATOM     35 H47  665 L   1      10.186  -8.978  -2.023  1.00  0.00    +0.0749  H
BRANCH 33 36
ATOM     36  O1  665 L   1      11.092  -8.332  -3.739  1.00  0.00    -0.4564 OA
BRANCH 36 38
ATOM     37  O3  665 L   1      12.158  -9.945  -4.988  1.00  0.00    -0.2449 OA
ATOM     38 C25  665 L   1      11.188  -9.242  -4.746  1.00  0.00    +0.3398  C
BRANCH 38 39
ATOM     39 C23  665 L   1       9.935  -9.281  -5.541  1.00  0.00    +0.0619  A
ATOM     40 C24  665 L   1       9.790  -8.508  -6.694  1.00  0.00    -0.0362  A
ATOM     41 C27  665 L   1       7.559  -9.388  -7.000  1.00  0.00    -0.0502  A
ATOM     42 C28  665 L   1       8.601  -8.563  -7.423  1.00  0.00    -0.0551  A
ATOM     43 C29  665 L   1       8.893 -10.106  -5.117  1.00  0.00    -0.0473  A
ATOM     44 C31  665 L   1       7.705 -10.159  -5.846  1.00  0.00    -0.0580  A
ATOM     45 C32  665 L   1      10.890  -7.618  -7.171  1.00  0.00    -0.0389  C
ATOM     46 C34  665 L   1       6.288  -9.445  -7.777  1.00  0.00    -0.0397  C
ATOM     47 H52  665 L   1       8.493  -7.991  -8.276  1.00  0.00    +0.0623  H
ATOM     48 H53  665 L   1       9.002 -10.677  -4.265  1.00  0.00    +0.0626  H
ATOM     49 H55  665 L   1       6.934 -10.769  -5.532  1.00  0.00    +0.0620  H
ATOM     50 H56  665 L   1      11.724  -7.693  -6.505  1.00  0.00    +0.0278  H
ATOM     51 H57  665 L   1      10.544  -6.606  -7.196  1.00  0.00    +0.0278  H
ATOM     52 H58  665 L   1      11.190  -7.916  -8.154  1.00  0.00    +0.0278  H
ATOM     53 H60  665 L   1       6.357  -8.793  -8.623  1.00  0.00    +0.0278  H
ATOM     54 H61  665 L   1       5.474  -9.138  -7.155  1.00  0.00    +0.0278  H
ATOM     55 H62  665 L   1       6.121 -10.447  -8.113  1.00  0.00    +0.0278  H
ENDBRANCH 38 39
ENDBRANCH 36 38
ENDBRANCH 33 36
ENDBRANCH 26 33
ENDBRANCH 21 23
BRANCH 21 57
ATOM     56  N5  665 L   1      14.849  -2.786   1.195  1.00  0.00    -0.3600  N
ATOM     57  C9  665 L   1      14.383  -3.794   0.247  1.00  0.00    +0.0921  C
ATOM     58 H36  665 L   1      14.998  -1.903   0.707  1.00  0.00    +0.3450 HD
ATOM     59 H37  665 L   1      15.726  -3.094   1.615  1.00  0.00    +0.3450 HD
ATOM     60 H38  665 L   1      14.149  -2.657   1.926  1.00  0.00    +0.3450 HD
ATOM     61 H40  665 L   1      15.121  -3.917  -0.519  1.00  0.00    +0.0926  H
ATOM     62 H41  665 L   1      13.454  -3.458  -0.165  1.00  0.00    +0.0926  H
ENDBRANCH 21 57
ENDBRANCH 19 21
ENDBRANCH 2 18
TORSDOF 8
ENDMDL
MODEL 3
REMARK VINA RESULT:    -7.392      2.827     11.095
REMARK INTER + INTRA:         -11.706
REMARK INTER:                 -10.851
REMARK INTRA:                  -0.855
REMARK UNBOUND:                -0.857
ROOT
ATOM      1  N6  665 L   1      11.492  -2.344   4.523  1.00  0.00    -0.2626 NA
ATOM      2 C16  665 L   1      12.172  -6.183   1.296  1.00  0.00    +0.0423  A
ATOM      3 C18  665 L   1      11.099  -5.766   2.085  1.00  0.00    -0.0305  A
ATOM      4 C19  665 L   1      11.212  -4.629   2.902  1.00  0.00    -0.0131  A
ATOM      5 C20  665 L   1      13.371  -5.473   1.313  1.00  0.00    -0.0377  A
ATOM      6 C21  665 L   1      12.427  -3.913   2.917  1.00  0.00    +0.0004  A
ATOM      7 C22  665 L   1      13.501  -4.343   2.119  1.00  0.00    -0.0506  A
ATOM      8 C26  665 L   1      10.154  -4.185   3.704  1.00  0.00    -0.0358  A
ATOM      9 C30  665 L   1      12.503  -2.789   3.741  1.00  0.00    +0.0353  A
ATOM     10 C33  665 L   1      10.345  -3.054   4.484  1.00  0.00    +0.0281  A
ATOM     11 H48  665 L   1      10.214  -6.297   2.067  1.00  0.00    +0.0644  H
ATOM     12 H49  665 L   1      14.163  -5.785   0.729  1.00  0.00    +0.0638  H
ATOM     13 H50  665 L   1      14.390  -3.819   2.129  1.00  0.00    +0.0625  H
ATOM     14 H51  665 L   1       9.253  -4.688   3.715  1.00  0.00    +0.0639  H
ATOM     15 H54  665 L   1      13.390  -2.261   3.755  1.00  0.00    +0.0836  H
ATOM     16 H59  665 L   1       9.560  -2.735   5.071  1.00  0.00    +0.0830  H
ENDROOT
BRANCH 2 18
ATOM     17  O2  665 L   1      10.716  -6.557  -1.299  1.00  0.00    -0.2720 OA
ATOM     18  N4  665 L   1      12.044  -7.315   0.488  1.00  0.00    -0.3255  N
ATOM     19 C10  665 L   1      11.342  -7.443  -0.722  1.00  0.00    +0.2381  C
ATOM     20 H35  665 L   1      12.503  -8.124   0.806  1.00  0.00    +0.1686 HD
BRANCH 19 21
ATOM     21  C7  665 L   1      11.446  -8.861  -1.301  1.00  0.00    +0.1122  C
ATOM     22 H39  665 L   1      10.583  -9.428  -1.022  1.00  0.00    +0.0502  H
BRANCH 21 23
ATOM     23  C8  665 L   1      11.468  -8.809  -2.821  1.00  0.00    -0.0300  A
ATOM     24 C11  665 L   1      12.408  -8.015  -3.479  1.00  0.00    -0.0573  A
ATOM     25 C12  665 L   1      10.547  -9.555  -3.558  1.00  0.00    -0.0573  A
ATOM     26 C13  665 L   1      11.507  -8.712  -5.609  1.00  0.00    -0.0103  A
ATOM     27 C14  665 L   1      12.427  -7.966  -4.872  1.00  0.00    -0.0551  A
ATOM     28 C15  665 L   1      10.567  -9.505  -4.951  1.00  0.00    -0.0551  A
ATOM     29 H42  665 L   1      13.090  -7.463  -2.934  1.00  0.00    +0.0621  H
ATOM     30 H43  665 L   1       9.852 -10.142  -3.071  1.00  0.00    +0.0621  H
ATOM     31 H44  665 L   1      13.123  -7.379  -5.359  1.00  0.00    +0.0621  H
ATOM     32 H45  665 L   1       9.885 -10.057  -5.497  1.00  0.00    +0.0621  H
BRANCH 26 33
ATOM     33 C17  665 L   1      11.527  -8.660  -7.099  1.00  0.00    +0.1179  C
ATOM     34 H46  665 L   1      11.757  -7.666  -7.419  1.00  0.00    +0.0749  H
ATOM     35 H47  665 L   1      12.271  -9.335  -7.470  1.00  0.00    +0.0749  H
BRANCH 33 36
ATOM     36  O1  665 L   1      10.251  -9.039  -7.602  1.00  0.00    -0.4564 OA
BRANCH 36 38
ATOM     37  O3  665 L   1       9.555  -6.846  -7.590  1.00  0.00    -0.2449 OA
ATOM     38 C25  665 L   1       9.394  -8.020  -7.884  1.00  0.00    +0.3398  C
BRANCH 38 39
ATOM     39 C23  665 L   1       8.202  -8.523  -8.613  1.00  0.00    +0.0619  A
ATOM     40 C24  665 L   1       7.170  -9.179  -7.942  1.00  0.00    -0.0362  A
ATOM     41 C27  665 L   1       5.985  -9.449 -10.031  1.00  0.00    -0.0502  A
ATOM     42 C28  665 L   1       6.062  -9.641  -8.651  1.00  0.00    -0.0551  A
ATOM     43 C29  665 L   1       8.126  -8.330  -9.993  1.00  0.00    -0.0473  A
ATOM     44 C31  665 L   1       7.018  -8.793 -10.702  1.00  0.00    -0.0580  A
ATOM     45 C32  665 L   1       7.226  -9.397  -6.465  1.00  0.00    -0.0389  C
ATOM     46 C34  665 L   1       4.801  -9.944 -10.790  1.00  0.00    -0.0397  C
ATOM     47 H52  665 L   1       5.298 -10.128  -8.155  1.00  0.00    +0.0623  H
ATOM     48 H53  665 L   1       8.889  -7.844 -10.488  1.00  0.00    +0.0626  H
ATOM     49 H55  665 L   1       6.962  -8.650 -11.722  1.00  0.00    +0.0620  H
ATOM     50 H56  665 L   1       8.134  -8.986  -6.078  1.00  0.00    +0.0278  H
ATOM     51 H57  665 L   1       7.194 -10.447  -6.259  1.00  0.00    +0.0278  H
ATOM     52 H58  665 L   1       6.390  -8.918  -6.002  1.00  0.00    +0.0278  H
ATOM     53 H60  665 L   1       4.117 -10.416 -10.116  1.00  0.00    +0.0278  H
ATOM     54 H61  665 L   1       5.120 -10.649 -11.528  1.00  0.00    +0.0278  H
ATOM     55 H62  665 L   1       4.315  -9.120 -11.270  1.00  0.00    +0.0278  H
ENDBRANCH 38 39
ENDBRANCH 36 38
ENDBRANCH 33 36
ENDBRANCH 26 33
ENDBRANCH 21 23
BRANCH 21 57
ATOM     56  N5  665 L   1      12.273 -10.688   0.172  1.00  0.00    -0.3600  N
ATOM     57  C9  665 L   1      12.669  -9.592  -0.709  1.00  0.00    +0.0921  C
ATOM     58 H36  665 L   1      13.107 -11.145   0.541  1.00  0.00    +0.3450 HD
ATOM     59 H37  665 L   1      11.720 -11.364  -0.354  1.00  0.00    +0.3450 HD
ATOM     60 H38  665 L   1      11.717 -10.320   0.943  1.00  0.00    +0.3450 HD
ATOM     61 H40  665 L   1      13.257  -9.987  -1.511  1.00  0.00    +0.0926  H
ATOM     62 H41  665 L   1      13.230  -8.888  -0.132  1.00  0.00    +0.0926  H
ENDBRANCH 21 57
ENDBRANCH 19 21
ENDBRANCH 2 18
TORSDOF 8
ENDMDL
MODEL 4
REMARK VINA RESULT:    -7.341      2.092      2.978
REMARK INTER + INTRA:         -11.632
REMARK INTER:                  -9.914
REMARK INTRA:                  -1.717
REMARK UNBOUND:                -0.857
ROOT
ATOM      1  N6  665 L   1       8.886  -7.745  -9.272  1.00  0.00    -0.2626 NA
ATOM      2 C16  665 L   1      11.002  -8.877  -4.817  1.00  0.00    +0.0423  A
ATOM      3 C18  665 L   1      11.315  -7.968  -5.829  1.00  0.00    -0.0305  A
ATOM      4 C19  665 L   1      10.517  -7.880  -6.981  1.00  0.00    -0.0131  A
ATOM      5 C20  665 L   1       9.892  -9.709  -4.941  1.00  0.00    -0.0377  A
ATOM      6 C21  665 L   1       9.394  -8.725  -7.105  1.00  0.00    +0.0004  A
ATOM      7 C22  665 L   1       9.090  -9.636  -6.079  1.00  0.00    -0.0506  A
ATOM      8 C26  665 L   1      10.804  -6.979  -8.014  1.00  0.00    -0.0358  A
ATOM      9 C30  665 L   1       8.625  -8.609  -8.264  1.00  0.00    +0.0353  A
ATOM     10 C33  665 L   1       9.968  -6.954  -9.120  1.00  0.00    +0.0281  A
ATOM     11 H48  665 L   1      12.139  -7.355  -5.729  1.00  0.00    +0.0644  H
ATOM     12 H49  665 L   1       9.664 -10.381  -4.192  1.00  0.00    +0.0638  H
ATOM     13 H50  665 L   1       8.268 -10.254  -6.169  1.00  0.00    +0.0625  H
ATOM     14 H51  665 L   1      11.619  -6.349  -7.953  1.00  0.00    +0.0639  H
ATOM     15 H54  665 L   1       7.802  -9.225  -8.359  1.00  0.00    +0.0836  H
ATOM     16 H59  665 L   1      10.187  -6.286  -9.875  1.00  0.00    +0.0830  H
ENDROOT
BRANCH 2 18
ATOM     17  O2  665 L   1      10.435  -8.048  -1.990  1.00  0.00    -0.2720 OA
ATOM     18  N4  665 L   1      11.804  -8.951  -3.676  1.00  0.00    -0.3255  N
ATOM     19 C10  665 L   1      11.495  -8.542  -2.368  1.00  0.00    +0.2381  C
ATOM     20 H35  665 L   1      12.699  -9.340  -3.805  1.00  0.00    +0.1686 HD
BRANCH 19 21
ATOM     21  C7  665 L   1      12.656  -8.797  -1.395  1.00  0.00    +0.1122  C
ATOM     22 H39  665 L   1      13.505  -9.158  -1.936  1.00  0.00    +0.0502  H
BRANCH 21 23
ATOM     23  C8  665 L   1      13.077  -7.497  -0.728  1.00  0.00    -0.0300  A
ATOM     24 C11  665 L   1      13.241  -6.341  -1.491  1.00  0.00    -0.0573  A
ATOM     25 C12  665 L   1      13.300  -7.461   0.650  1.00  0.00    -0.0573  A
ATOM     26 C13  665 L   1      13.851  -5.113   0.498  1.00  0.00    -0.0103  A
ATOM     27 C14  665 L   1      13.629  -5.150  -0.878  1.00  0.00    -0.0551  A
ATOM     28 C15  665 L   1      13.688  -6.269   1.261  1.00  0.00    -0.0551  A
ATOM     29 H42  665 L   1      13.076  -6.368  -2.510  1.00  0.00    +0.0621  H
ATOM     30 H43  665 L   1      13.179  -8.316   1.214  1.00  0.00    +0.0621  H
ATOM     31 H44  665 L   1      13.750  -4.294  -1.444  1.00  0.00    +0.0621  H
ATOM     32 H45  665 L   1      13.853  -6.242   2.280  1.00  0.00    +0.0621  H
BRANCH 26 33
ATOM     33 C17  665 L   1      14.265  -3.839   1.153  1.00  0.00    +0.1179  C
ATOM     34 H46  665 L   1      15.262  -3.592   0.855  1.00  0.00    +0.0749  H
ATOM     35 H47  665 L   1      13.600  -3.054   0.860  1.00  0.00    +0.0749  H
BRANCH 33 36
ATOM     36  O1  665 L   1      14.217  -3.998   2.567  1.00  0.00    -0.4564 OA
BRANCH 36 38
ATOM     37  O3  665 L   1      13.311  -2.039   3.367  1.00  0.00    -0.2449 OA
ATOM     38 C25  665 L   1      13.285  -3.251   3.219  1.00  0.00    +0.3398  C
BRANCH 38 39
ATOM     39 C23  665 L   1      12.197  -4.114   3.748  1.00  0.00    +0.0619  A
ATOM     40 C24  665 L   1      12.287  -4.691   5.015  1.00  0.00    -0.0362  A
ATOM     41 C27  665 L   1      10.128  -5.728   4.695  1.00  0.00    -0.0502  A
ATOM     42 C28  665 L   1      11.252  -5.497   5.488  1.00  0.00    -0.0551  A
ATOM     43 C29  665 L   1      11.074  -4.344   2.954  1.00  0.00    -0.0473  A
ATOM     44 C31  665 L   1      10.039  -5.151   3.427  1.00  0.00    -0.0580  A
ATOM     45 C32  665 L   1      13.479  -4.460   5.886  1.00  0.00    -0.0389  C
ATOM     46 C34  665 L   1       9.021  -6.591   5.199  1.00  0.00    -0.0397  C
ATOM     47 H52  665 L   1      11.318  -5.925   6.426  1.00  0.00    +0.0623  H
ATOM     48 H53  665 L   1      11.008  -3.916   2.018  1.00  0.00    +0.0626  H
ATOM     49 H55  665 L   1       9.208  -5.321   2.840  1.00  0.00    +0.0620  H
ATOM     50 H56  665 L   1      14.174  -3.824   5.379  1.00  0.00    +0.0278  H
ATOM     51 H57  665 L   1      13.947  -5.397   6.106  1.00  0.00    +0.0278  H
ATOM     52 H58  665 L   1      13.169  -3.995   6.798  1.00  0.00    +0.0278  H
ATOM     53 H60  665 L   1       9.261  -6.942   6.180  1.00  0.00    +0.0278  H
ATOM     54 H61  665 L   1       8.892  -7.425   4.542  1.00  0.00    +0.0278  H
ATOM     55 H62  665 L   1       8.115  -6.023   5.236  1.00  0.00    +0.0278  H
ENDBRANCH 38 39
ENDBRANCH 36 38
ENDBRANCH 33 36
ENDBRANCH 26 33
ENDBRANCH 21 23
BRANCH 21 57
ATOM     56  N5  665 L   1      11.180 -10.730  -0.871  1.00  0.00    -0.3600  N
ATOM     57  C9  665 L   1      12.274  -9.895  -0.382  1.00  0.00    +0.0921  C
ATOM     58 H36  665 L   1      10.959 -11.442  -0.175  1.00  0.00    +0.3450 HD
ATOM     59 H37  665 L   1      11.461 -11.182  -1.741  1.00  0.00    +0.3450 HD
ATOM     60 H38  665 L   1      10.358 -10.151  -1.039  1.00  0.00    +0.3450 HD
ATOM     61 H40  665 L   1      13.129 -10.513  -0.203  1.00  0.00    +0.0926  H
ATOM     62 H41  665 L   1      11.949  -9.418   0.519  1.00  0.00    +0.0926  H
ENDBRANCH 21 57
ENDBRANCH 19 21
ENDBRANCH 2 18
TORSDOF 8
ENDMDL
MODEL 5
REMARK VINA RESULT:    -7.250      1.771      2.823
REMARK INTER + INTRA:         -11.498
REMARK INTER:                 -10.168
REMARK INTRA:                  -1.331
REMARK UNBOUND:                -0.857
ROOT
ATOM      1  N6  665 L   1       6.755  -9.476  -8.229  1.00  0.00    -0.2626 NA
ATOM      2 C16  665 L   1      10.706  -8.936  -5.113  1.00  0.00    +0.0423  A
ATOM      3 C18  665 L   1       9.512  -9.655  -5.040  1.00  0.00    -0.0305  A
ATOM      4 C19  665 L   1       8.584  -9.608  -6.092  1.00  0.00    -0.0131  A
ATOM      5 C20  665 L   1      10.988  -8.160  -6.235  1.00  0.00    -0.0377  A
ATOM      6 C21  665 L   1       8.872  -8.821  -7.227  1.00  0.00    +0.0004  A
ATOM      7 C22  665 L   1      10.077  -8.100  -7.289  1.00  0.00    -0.0506  A
ATOM      8 C26  665 L   1       7.377 -10.318  -6.049  1.00  0.00    -0.0358  A
ATOM      9 C30  665 L   1       7.924  -8.797  -8.252  1.00  0.00    +0.0353  A
ATOM     10 C33  665 L   1       6.512 -10.218  -7.128  1.00  0.00    +0.0281  A
ATOM     11 H48  665 L   1       9.311 -10.228  -4.206  1.00  0.00    +0.0644  H
ATOM     12 H49  665 L   1      11.871  -7.628  -6.286  1.00  0.00    +0.0638  H
ATOM     13 H50  665 L   1      10.288  -7.524  -8.119  1.00  0.00    +0.0625  H
ATOM     14 H51  665 L   1       7.139 -10.902  -5.232  1.00  0.00    +0.0639  H
ATOM     15 H54  665 L   1       8.131  -8.223  -9.085  1.00  0.00    +0.0836  H
ATOM     16 H59  665 L   1       5.628 -10.745  -7.086  1.00  0.00    +0.0830  H
ENDROOT
BRANCH 2 18
ATOM     17  O2  665 L   1      10.415  -8.109  -2.245  1.00  0.00    -0.2720 OA
ATOM     18  N4  665 L   1      11.620  -8.995  -4.060  1.00  0.00    -0.3255  N
ATOM     19 C10  665 L   1      11.439  -8.587  -2.728  1.00  0.00    +0.2381  C
ATOM     20 H35  665 L   1      12.504  -9.369  -4.278  1.00  0.00    +0.1686 HD
BRANCH 19 21
ATOM     21  C7  665 L   1      12.696  -8.821  -1.877  1.00  0.00    +0.1122  C
ATOM     22 H39  665 L   1      13.536  -8.991  -2.517  1.00  0.00    +0.0502  H
BRANCH 21 23
ATOM     23  C8  665 L   1      13.011  -7.583  -1.053  1.00  0.00    -0.0300  A
ATOM     24 C11  665 L   1      12.850  -7.606   0.333  1.00  0.00    -0.0573  A
ATOM     25 C12  665 L   1      13.463  -6.422  -1.683  1.00  0.00    -0.0573  A
ATOM     26 C13  665 L   1      13.590  -5.310   0.458  1.00  0.00    -0.0103  A
ATOM     27 C14  665 L   1      13.139  -6.469   1.087  1.00  0.00    -0.0551  A
ATOM     28 C15  665 L   1      13.751  -5.286  -0.927  1.00  0.00    -0.0551  A
ATOM     29 H42  665 L   1      12.517  -8.465   0.799  1.00  0.00    +0.0621  H
ATOM     30 H43  665 L   1      13.582  -6.405  -2.708  1.00  0.00    +0.0621  H
ATOM     31 H44  665 L   1      13.020  -6.487   2.113  1.00  0.00    +0.0621  H
ATOM     32 H45  665 L   1      14.085  -4.427  -1.394  1.00  0.00    +0.0621  H
BRANCH 26 33
ATOM     33 C17  665 L   1      13.900  -4.095   1.265  1.00  0.00    +0.1179  C
ATOM     34 H46  665 L   1      14.948  -3.889   1.214  1.00  0.00    +0.0749  H
ATOM     35 H47  665 L   1      13.353  -3.260   0.878  1.00  0.00    +0.0749  H
BRANCH 33 36
ATOM     36  O1  665 L   1      13.525  -4.320   2.620  1.00  0.00    -0.4564 OA
BRANCH 36 38
ATOM     37  O3  665 L   1      13.455  -2.120   3.293  1.00  0.00    -0.2449 OA
ATOM     38 C25  665 L   1      12.997  -3.252   3.278  1.00  0.00    +0.3398  C
BRANCH 38 39
ATOM     39 C23  665 L   1      11.758  -3.640   3.999  1.00  0.00    +0.0619  A
ATOM     40 C24  665 L   1      11.810  -4.143   5.300  1.00  0.00    -0.0362  A
ATOM     41 C27  665 L   1       9.402  -4.356   5.311  1.00  0.00    -0.0502  A
ATOM     42 C28  665 L   1      10.631  -4.500   5.955  1.00  0.00    -0.0551  A
ATOM     43 C29  665 L   1      10.530  -3.496   3.354  1.00  0.00    -0.0473  A
ATOM     44 C31  665 L   1       9.352  -3.854   4.009  1.00  0.00    -0.0580  A
ATOM     45 C32  665 L   1      13.111  -4.306   6.014  1.00  0.00    -0.0389  C
ATOM     46 C34  665 L   1       8.142  -4.739   6.009  1.00  0.00    -0.0397  C
ATOM     47 H52  665 L   1      10.668  -4.872   6.917  1.00  0.00    +0.0623  H
ATOM     48 H53  665 L   1      10.493  -3.124   2.393  1.00  0.00    +0.0626  H
ATOM     49 H55  665 L   1       8.443  -3.747   3.532  1.00  0.00    +0.0620  H
ATOM     50 H56  665 L   1      13.910  -3.988   5.377  1.00  0.00    +0.0278  H
ATOM     51 H57  665 L   1      13.249  -5.335   6.273  1.00  0.00    +0.0278  H
ATOM     52 H58  665 L   1      13.107  -3.713   6.904  1.00  0.00    +0.0278  H
ATOM     53 H60  665 L   1       8.373  -5.100   6.989  1.00  0.00    +0.0278  H
ATOM     54 H61  665 L   1       7.645  -5.506   5.454  1.00  0.00    +0.0278  H
ATOM     55 H62  665 L   1       7.503  -3.884   6.086  1.00  0.00    +0.0278  H
ENDBRANCH 38 39
ENDBRANCH 36 38
ENDBRANCH 33 36
ENDBRANCH 26 33
ENDBRANCH 21 23
BRANCH 21 57
ATOM     56  N5  665 L   1      11.167 -10.611  -1.071  1.00  0.00    -0.3600  N
ATOM     57  C9  665 L   1      12.530 -10.089  -1.014  1.00  0.00    +0.0921  C
ATOM     58 H36  665 L   1      11.099 -11.447  -0.490  1.00  0.00    +0.3450 HD
ATOM     59 H37  665 L   1      10.934 -10.848  -2.035  1.00  0.00    +0.3450 HD
ATOM     60 H38  665 L   1      10.518  -9.904  -0.727  1.00  0.00    +0.3450 HD
ATOM     61 H40  665 L   1      13.204 -10.840  -1.371  1.00  0.00    +0.0926  H
ATOM     62 H41  665 L   1      12.744  -9.830   0.001  1.00  0.00    +0.0926  H
ENDBRANCH 21 57
ENDBRANCH 19 21
ENDBRANCH 2 18
TORSDOF 8
ENDMDL
MODEL 6
REMARK VINA RESULT:    -7.234      1.517      2.176
REMARK INTER + INTRA:         -11.475
REMARK INTER:                 -10.582
REMARK INTRA:                  -0.892
REMARK UNBOUND:                -0.857
ROOT
ATOM      1  N6  665 L   1       7.340  -8.341 -10.388  1.00  0.00    -0.2626 NA
ATOM      2 C16  665 L   1      10.234  -8.384  -6.237  1.00  0.00    +0.0423  A
ATOM      3 C18  665 L   1       9.060  -9.047  -6.601  1.00  0.00    -0.0305  A
ATOM      4 C19  665 L   1       8.474  -8.825  -7.857  1.00  0.00    -0.0131  A
ATOM      5 C20  665 L   1      10.835  -7.491  -7.120  1.00  0.00    -0.0377  A
ATOM      6 C21  665 L   1       9.086  -7.919  -8.749  1.00  0.00    +0.0004  A
ATOM      7 C22  665 L   1      10.267  -7.257  -8.371  1.00  0.00    -0.0506  A
ATOM      8 C26  665 L   1       7.298  -9.474  -8.252  1.00  0.00    -0.0358  A
ATOM      9 C30  665 L   1       8.474  -7.723  -9.988  1.00  0.00    +0.0353  A
ATOM     10 C33  665 L   1       6.781  -9.199  -9.509  1.00  0.00    +0.0281  A
ATOM     11 H48  665 L   1       8.620  -9.708  -5.941  1.00  0.00    +0.0644  H
ATOM     12 H49  665 L   1      11.703  -7.002  -6.848  1.00  0.00    +0.0638  H
ATOM     13 H50  665 L   1      10.715  -6.595  -9.024  1.00  0.00    +0.0625  H
ATOM     14 H51  665 L   1       6.827 -10.141  -7.621  1.00  0.00    +0.0639  H
ATOM     15 H54  665 L   1       8.919  -7.062 -10.645  1.00  0.00    +0.0836  H
ATOM     16 H59  665 L   1       5.915  -9.683  -9.790  1.00  0.00    +0.0830  H
ENDROOT
BRANCH 2 18
ATOM     17  O2  665 L   1      12.921  -7.606  -5.156  1.00  0.00    -0.2720 OA
ATOM     18  N4  665 L   1      10.805  -8.618  -4.984  1.00  0.00    -0.3255  N
ATOM     19 C10  665 L   1      12.077  -8.237  -4.525  1.00  0.00    +0.2381  C
ATOM     20 H35  665 L   1      10.247  -9.112  -4.343  1.00  0.00    +0.1686 HD
BRANCH 19 21
ATOM     21  C7  665 L   1      12.326  -8.688  -3.078  1.00  0.00    +0.1122  C
ATOM     22 H39  665 L   1      13.015  -9.507  -3.071  1.00  0.00    +0.0502  H
BRANCH 21 23
ATOM     23  C8  665 L   1      12.967  -7.564  -2.280  1.00  0.00    -0.0300  A
ATOM     24 C11  665 L   1      14.332  -7.603  -1.991  1.00  0.00    -0.0573  A
ATOM     25 C12  665 L   1      12.191  -6.493  -1.836  1.00  0.00    -0.0573  A
ATOM     26 C13  665 L   1      14.143  -5.502  -0.814  1.00  0.00    -0.0103  A
ATOM     27 C14  665 L   1      14.919  -6.572  -1.257  1.00  0.00    -0.0551  A
ATOM     28 C15  665 L   1      12.779  -5.463  -1.102  1.00  0.00    -0.0551  A
ATOM     29 H42  665 L   1      14.906  -8.395  -2.320  1.00  0.00    +0.0621  H
ATOM     30 H43  665 L   1      11.181  -6.464  -2.049  1.00  0.00    +0.0621  H
ATOM     31 H44  665 L   1      15.929  -6.601  -1.044  1.00  0.00    +0.0621  H
ATOM     32 H45  665 L   1      12.204  -4.671  -0.773  1.00  0.00    +0.0621  H
BRANCH 26 33
ATOM     33 C17  665 L   1      14.771  -4.399  -0.030  1.00  0.00    +0.1179  C
ATOM     34 H46  665 L   1      15.603  -4.783   0.523  1.00  0.00    +0.0749  H
ATOM     35 H47  665 L   1      15.109  -3.635  -0.697  1.00  0.00    +0.0749  H
BRANCH 33 36
ATOM     36  O1  665 L   1      13.813  -3.854   0.870  1.00  0.00    -0.4564 OA
BRANCH 36 38
ATOM     37  O3  665 L   1      14.681  -5.106   2.595  1.00  0.00    -0.2449 OA
ATOM     38 C25  665 L   1      13.850  -4.333   2.143  1.00  0.00    +0.3398  C
BRANCH 38 39
ATOM     39 C23  665 L   1      12.723  -3.788   2.942  1.00  0.00    +0.0619  A
ATOM     40 C24  665 L   1      11.484  -4.429   2.971  1.00  0.00    -0.0362  A
ATOM     41 C27  665 L   1      10.638  -2.721   4.458  1.00  0.00    -0.0502  A
ATOM     42 C28  665 L   1      10.442  -3.895   3.730  1.00  0.00    -0.0551  A
ATOM     43 C29  665 L   1      12.920  -2.614   3.670  1.00  0.00    -0.0473  A
ATOM     44 C31  665 L   1      11.877  -2.080   4.428  1.00  0.00    -0.0580  A
ATOM     45 C32  665 L   1      11.247  -5.687   2.203  1.00  0.00    -0.0389  C
ATOM     46 C34  665 L   1       9.525  -2.149   5.269  1.00  0.00    -0.0397  C
ATOM     47 H52  665 L   1       9.525  -4.369   3.752  1.00  0.00    +0.0623  H
ATOM     48 H53  665 L   1      13.836  -2.141   3.648  1.00  0.00    +0.0626  H
ATOM     49 H55  665 L   1      12.023  -1.212   4.966  1.00  0.00    +0.0620  H
ATOM     50 H56  665 L   1      12.140  -5.959   1.680  1.00  0.00    +0.0278  H
ATOM     51 H57  665 L   1      10.455  -5.532   1.500  1.00  0.00    +0.0278  H
ATOM     52 H58  665 L   1      10.975  -6.472   2.877  1.00  0.00    +0.0278  H
ATOM     53 H60  665 L   1       8.659  -2.770   5.173  1.00  0.00    +0.0278  H
ATOM     54 H61  665 L   1       9.299  -1.164   4.919  1.00  0.00    +0.0278  H
ATOM     55 H62  665 L   1       9.818  -2.105   6.296  1.00  0.00    +0.0278  H
ENDBRANCH 38 39
ENDBRANCH 36 38
ENDBRANCH 33 36
ENDBRANCH 26 33
ENDBRANCH 21 23
BRANCH 21 57
ATOM     56  N5  665 L   1      11.210 -10.472  -1.751  1.00  0.00    -0.3600  N
ATOM     57  C9  665 L   1      11.017  -9.202  -2.445  1.00  0.00    +0.0921  C
ATOM     58 H36  665 L   1      10.325 -10.777  -1.347  1.00  0.00    +0.3450 HD
ATOM     59 H37  665 L   1      11.899 -10.352  -1.009  1.00  0.00    +0.3450 HD
ATOM     60 H38  665 L   1      11.543 -11.174  -2.412  1.00  0.00    +0.3450 HD
ATOM     61 H40  665 L   1      10.663  -8.475  -1.745  1.00  0.00    +0.0926  H
ATOM     62 H41  665 L   1      10.307  -9.358  -3.230  1.00  0.00    +0.0926  H
ENDBRANCH 21 57
ENDBRANCH 19 21
ENDBRANCH 2 18
TORSDOF 8
ENDMDL
MODEL 7
REMARK VINA RESULT:    -7.149      0.860      2.062
REMARK INTER + INTRA:         -11.350
REMARK INTER:                 -10.736
REMARK INTRA:                  -0.614
REMARK UNBOUND:                -0.857
ROOT
ATOM      1  N6  665 L   1       6.676  -8.558  -9.975  1.00  0.00    -0.2626 NA
ATOM      2 C16  665 L   1      10.366  -8.718  -6.515  1.00  0.00    +0.0423  A
ATOM      3 C18  665 L   1       9.050  -9.183  -6.544  1.00  0.00    -0.0305  A
ATOM      4 C19  665 L   1       8.246  -8.985  -7.677  1.00  0.00    -0.0131  A
ATOM      5 C20  665 L   1      10.895  -8.048  -7.616  1.00  0.00    -0.0377  A
ATOM      6 C21  665 L   1       8.785  -8.305  -8.790  1.00  0.00    +0.0004  A
ATOM      7 C22  665 L   1      10.110  -7.840  -8.750  1.00  0.00    -0.0506  A
ATOM      8 C26  665 L   1       6.923  -9.440  -7.737  1.00  0.00    -0.0358  A
ATOM      9 C30  665 L   1       7.955  -8.125  -9.898  1.00  0.00    +0.0353  A
ATOM     10 C33  665 L   1       6.194  -9.203  -8.892  1.00  0.00    +0.0281  A
ATOM     11 H48  665 L   1       8.665  -9.680  -5.724  1.00  0.00    +0.0644  H
ATOM     12 H49  665 L   1      11.867  -7.704  -7.592  1.00  0.00    +0.0638  H
ATOM     13 H50  665 L   1      10.504  -7.344  -9.564  1.00  0.00    +0.0625  H
ATOM     14 H51  665 L   1       6.501  -9.939  -6.939  1.00  0.00    +0.0639  H
ATOM     15 H54  665 L   1       8.345  -7.629 -10.716  1.00  0.00    +0.0836  H
ATOM     16 H59  665 L   1       5.221  -9.543  -8.926  1.00  0.00    +0.0830  H
ENDROOT
BRANCH 2 18
ATOM     17  O2  665 L   1      12.875  -7.340  -5.619  1.00  0.00    -0.2720 OA
ATOM     18  N4  665 L   1      11.153  -8.925  -5.381  1.00  0.00    -0.3255  N
ATOM     19 C10  665 L   1      12.330  -8.255  -5.006  1.00  0.00    +0.2381  C
ATOM     20 H35  665 L   1      10.845  -9.629  -4.767  1.00  0.00    +0.1686 HD
BRANCH 19 21
ATOM     21  C7  665 L   1      12.896  -8.784  -3.680  1.00  0.00    +0.1122  C
ATOM     22 H39  665 L   1      13.962  -8.848  -3.744  1.00  0.00    +0.0502  H
BRANCH 21 23
ATOM     23  C8  665 L   1      12.579  -7.818  -2.550  1.00  0.00    -0.0300  A
ATOM     24 C11  665 L   1      11.335  -7.866  -1.918  1.00  0.00    -0.0573  A
ATOM     25 C12  665 L   1      13.531  -6.882  -2.143  1.00  0.00    -0.0573  A
ATOM     26 C13  665 L   1      11.996  -6.044  -0.477  1.00  0.00    -0.0103  A
ATOM     27 C14  665 L   1      11.044  -6.979  -0.882  1.00  0.00    -0.0551  A
ATOM     28 C15  665 L   1      13.239  -5.995  -1.108  1.00  0.00    -0.0551  A
ATOM     29 H42  665 L   1      10.630  -8.558  -2.218  1.00  0.00    +0.0621  H
ATOM     30 H43  665 L   1      14.451  -6.847  -2.611  1.00  0.00    +0.0621  H
ATOM     31 H44  665 L   1      10.124  -7.015  -0.415  1.00  0.00    +0.0621  H
ATOM     32 H45  665 L   1      13.944  -5.303  -0.807  1.00  0.00    +0.0621  H
BRANCH 26 33
ATOM     33 C17  665 L   1      11.685  -5.095   0.632  1.00  0.00    +0.1179  C
ATOM     34 H46  665 L   1      12.596  -4.765   1.085  1.00  0.00    +0.0749  H
ATOM     35 H47  665 L   1      11.155  -4.252   0.242  1.00  0.00    +0.0749  H
BRANCH 33 36
ATOM     36  O1  665 L   1      10.881  -5.753   1.604  1.00  0.00    -0.4564 OA
BRANCH 36 38
ATOM     37  O3  665 L   1      12.220  -6.563   3.292  1.00  0.00    -0.2449 OA
ATOM     38 C25  665 L   1      11.380  -5.783   2.870  1.00  0.00    +0.3398  C
BRANCH 38 39
ATOM     39 C23  665 L   1      10.761  -4.721   3.704  1.00  0.00    +0.0619  A
ATOM     40 C24  665 L   1      11.446  -3.540   3.991  1.00  0.00    -0.0362  A
ATOM     41 C27  665 L   1       9.555  -2.759   5.278  1.00  0.00    -0.0502  A
ATOM     42 C28  665 L   1      10.842  -2.559   4.778  1.00  0.00    -0.0551  A
ATOM     43 C29  665 L   1       9.475  -4.923   4.205  1.00  0.00    -0.0473  A
ATOM     44 C31  665 L   1       8.872  -3.942   4.992  1.00  0.00    -0.0580  A
ATOM     45 C32  665 L   1      12.823  -3.299   3.467  1.00  0.00    -0.0389  C
ATOM     46 C34  665 L   1       8.909  -1.712   6.120  1.00  0.00    -0.0397  C
ATOM     47 H52  665 L   1      11.348  -1.684   4.990  1.00  0.00    +0.0623  H
ATOM     48 H53  665 L   1       8.970  -5.796   3.992  1.00  0.00    +0.0626  H
ATOM     49 H55  665 L   1       7.920  -4.091   5.362  1.00  0.00    +0.0620  H
ATOM     50 H56  665 L   1      13.137  -4.141   2.887  1.00  0.00    +0.0278  H
ATOM     51 H57  665 L   1      13.497  -3.159   4.286  1.00  0.00    +0.0278  H
ATOM     52 H58  665 L   1      12.823  -2.422   2.853  1.00  0.00    +0.0278  H
ATOM     53 H60  665 L   1       9.576  -0.883   6.233  1.00  0.00    +0.0278  H
ATOM     54 H61  665 L   1       8.680  -2.119   7.083  1.00  0.00    +0.0278  H
ATOM     55 H62  665 L   1       8.007  -1.382   5.649  1.00  0.00    +0.0278  H
ENDBRANCH 38 39
ENDBRANCH 36 38
ENDBRANCH 33 36
ENDBRANCH 26 33
ENDBRANCH 21 23
BRANCH 21 57
ATOM     56  N5  665 L   1      13.161 -10.886  -2.375  1.00  0.00    -0.3600  N
ATOM     57  C9  665 L   1      12.381 -10.213  -3.410  1.00  0.00    +0.0921  C
ATOM     58 H36  665 L   1      12.789 -11.824  -2.225  1.00  0.00    +0.3450 HD
ATOM     59 H37  665 L   1      13.102 -10.355  -1.506  1.00  0.00    +0.3450 HD
ATOM     60 H38  665 L   1      14.135 -10.948  -2.669  1.00  0.00    +0.3450 HD
ATOM     61 H40  665 L   1      11.360 -10.158  -3.094  1.00  0.00    +0.0926  H
ATOM     62 H41  665 L   1      12.474 -10.776  -4.315  1.00  0.00    +0.0926  H
ENDBRANCH 21 57
ENDBRANCH 19 21
ENDBRANCH 2 18
TORSDOF 8
ENDMDL
MODEL 8
REMARK VINA RESULT:    -7.145      3.840     11.086
REMARK INTER + INTRA:         -11.344
REMARK INTER:                  -9.404
REMARK INTRA:                  -1.940
REMARK UNBOUND:                -0.857
ROOT
ATOM      1  N6  665 L   1      14.652  -4.230   0.168  1.00  0.00    -0.2626 NA
ATOM      2 C16  665 L   1      11.900  -7.955  -1.869  1.00  0.00    +0.0423  A
ATOM      3 C18  665 L   1      13.264  -7.661  -1.857  1.00  0.00    -0.0305  A
ATOM      4 C19  665 L   1      13.744  -6.524  -1.187  1.00  0.00    -0.0131  A
ATOM      5 C20  665 L   1      10.997  -7.119  -1.216  1.00  0.00    -0.0377  A
ATOM      6 C21  665 L   1      12.827  -5.679  -0.527  1.00  0.00    +0.0004  A
ATOM      7 C22  665 L   1      11.456  -5.984  -0.547  1.00  0.00    -0.0506  A
ATOM      8 C26  665 L   1      15.106  -6.201  -1.156  1.00  0.00    -0.0358  A
ATOM      9 C30  665 L   1      13.341  -4.557   0.126  1.00  0.00    +0.0353  A
ATOM     10 C33  665 L   1      15.500  -5.060  -0.474  1.00  0.00    +0.0281  A
ATOM     11 H48  665 L   1      13.927  -8.286  -2.342  1.00  0.00    +0.0644  H
ATOM     12 H49  665 L   1       9.989  -7.338  -1.228  1.00  0.00    +0.0638  H
ATOM     13 H50  665 L   1      10.785  -5.366  -0.065  1.00  0.00    +0.0625  H
ATOM     14 H51  665 L   1      15.800  -6.800  -1.630  1.00  0.00    +0.0639  H
ATOM     15 H54  665 L   1      12.674  -3.936   0.612  1.00  0.00    +0.0836  H
ATOM     16 H59  665 L   1      16.505  -4.832  -0.457  1.00  0.00    +0.0830  H
ENDROOT
BRANCH 2 18
ATOM     17  O2  665 L   1      11.085  -8.323  -4.732  1.00  0.00    -0.2720 OA
ATOM     18  N4  665 L   1      11.438  -9.091  -2.538  1.00  0.00    -0.3255  N
ATOM     19 C10  665 L   1      11.061  -9.213  -3.886  1.00  0.00    +0.2381  C
ATOM     20 H35  665 L   1      11.369  -9.910  -1.996  1.00  0.00    +0.1686 HD
BRANCH 19 21
ATOM     21  C7  665 L   1      10.608 -10.639  -4.230  1.00  0.00    +0.1122  C
ATOM     22 H39  665 L   1      10.206 -11.110  -3.357  1.00  0.00    +0.0502  H
BRANCH 21 23
ATOM     23  C8  665 L   1       9.495 -10.602  -5.265  1.00  0.00    -0.0300  A
ATOM     24 C11  665 L   1       8.299  -9.942  -4.980  1.00  0.00    -0.0573  A
ATOM     25 C12  665 L   1       9.669 -11.228  -6.500  1.00  0.00    -0.0573  A
ATOM     26 C13  665 L   1       7.452 -10.535  -7.163  1.00  0.00    -0.0103  A
ATOM     27 C14  665 L   1       7.277  -9.910  -5.929  1.00  0.00    -0.0551  A
ATOM     28 C15  665 L   1       8.647 -11.195  -7.448  1.00  0.00    -0.0551  A
ATOM     29 H42  665 L   1       8.170  -9.479  -4.067  1.00  0.00    +0.0621  H
ATOM     30 H43  665 L   1      10.553 -11.716  -6.710  1.00  0.00    +0.0621  H
ATOM     31 H44  665 L   1       6.392  -9.421  -5.718  1.00  0.00    +0.0621  H
ATOM     32 H45  665 L   1       8.776 -11.659  -8.362  1.00  0.00    +0.0621  H
BRANCH 26 33
ATOM     33 C17  665 L   1       6.359 -10.499  -8.178  1.00  0.00    +0.1179  C
ATOM     34 H46  665 L   1       5.877 -11.453  -8.217  1.00  0.00    +0.0749  H
ATOM     35 H47  665 L   1       5.646  -9.749  -7.909  1.00  0.00    +0.0749  H
BRANCH 33 36
ATOM     36  O1  665 L   1       6.910 -10.193  -9.454  1.00  0.00    -0.4564 OA
BRANCH 36 38
ATOM     37  O3  665 L   1       6.032  -8.070  -9.583  1.00  0.00    -0.2449 OA
ATOM     38 C25  665 L   1       6.923  -8.877  -9.798  1.00  0.00    +0.3398  C
BRANCH 38 39
ATOM     39 C23  665 L   1       8.190  -8.527 -10.490  1.00  0.00    +0.0619  A
ATOM     40 C24  665 L   1       9.252  -7.944  -9.796  1.00  0.00    -0.0362  A
ATOM     41 C27  665 L   1      10.549  -7.886 -11.835  1.00  0.00    -0.0502  A
ATOM     42 C28  665 L   1      10.431  -7.625 -10.470  1.00  0.00    -0.0551  A
ATOM     43 C29  665 L   1       8.307  -8.788 -11.855  1.00  0.00    -0.0473  A
ATOM     44 C31  665 L   1       9.486  -8.467 -12.528  1.00  0.00    -0.0580  A
ATOM     45 C32  665 L   1       9.154  -7.655  -8.334  1.00  0.00    -0.0389  C
ATOM     46 C34  665 L   1      11.808  -7.543 -12.556  1.00  0.00    -0.0397  C
ATOM     47 H52  665 L   1      11.217  -7.193  -9.958  1.00  0.00    +0.0623  H
ATOM     48 H53  665 L   1       7.522  -9.219 -12.366  1.00  0.00    +0.0626  H
ATOM     49 H55  665 L   1       9.572  -8.661 -13.538  1.00  0.00    +0.0620  H
ATOM     50 H56  665 L   1       8.193  -7.959  -7.974  1.00  0.00    +0.0278  H
ATOM     51 H57  665 L   1       9.281  -6.606  -8.169  1.00  0.00    +0.0278  H
ATOM     52 H58  665 L   1       9.917  -8.193  -7.812  1.00  0.00    +0.0278  H
ATOM     53 H60  665 L   1      12.505  -7.110 -11.871  1.00  0.00    +0.0278  H
ATOM     54 H61  665 L   1      11.593  -6.844 -13.337  1.00  0.00    +0.0278  H
ATOM     55 H62  665 L   1      12.229  -8.431 -12.979  1.00  0.00    +0.0278  H
ENDBRANCH 38 39
ENDBRANCH 36 38
ENDBRANCH 33 36
ENDBRANCH 26 33
ENDBRANCH 21 23
BRANCH 21 57
ATOM     56  N5  665 L   1      12.966 -10.662  -5.025  1.00  0.00    -0.3600  N
ATOM     57  C9  665 L   1      11.814 -11.490  -4.678  1.00  0.00    +0.0921  C
ATOM     58 H36  665 L   1      13.740 -11.260  -5.314  1.00  0.00    +0.3450 HD
ATOM     59 H37  665 L   1      13.246 -10.112  -4.213  1.00  0.00    +0.3450 HD
ATOM     60 H38  665 L   1      12.716 -10.035  -5.790  1.00  0.00    +0.3450 HD
ATOM     61 H40  665 L   1      12.089 -12.148  -3.879  1.00  0.00    +0.0926  H
ATOM     62 H41  665 L   1      11.527 -12.041  -5.549  1.00  0.00    +0.0926  H
ENDBRANCH 21 57
ENDBRANCH 19 21
ENDBRANCH 2 18
TORSDOF 8
ENDMDL
MODEL 9
REMARK VINA RESULT:    -7.127      3.121     11.216
REMARK INTER + INTRA:         -11.317
REMARK INTER:                 -10.120
REMARK INTRA:                  -1.197
REMARK UNBOUND:                -0.857
ROOT
ATOM      1  N6  665 L   1      13.860  -2.984   3.067  1.00  0.00    -0.2626 NA
ATOM      2 C16  665 L   1      12.407  -6.210  -0.551  1.00  0.00    +0.0423  A
ATOM      3 C18  665 L   1      11.951  -5.942   0.741  1.00  0.00    -0.0305  A
ATOM      4 C19  665 L   1      12.574  -4.961   1.529  1.00  0.00    -0.0131  A
ATOM      5 C20  665 L   1      13.489  -5.505  -1.072  1.00  0.00    -0.0377  A
ATOM      6 C21  665 L   1      13.670  -4.249   0.998  1.00  0.00    +0.0004  A
ATOM      7 C22  665 L   1      14.120  -4.528  -0.304  1.00  0.00    -0.0506  A
ATOM      8 C26  665 L   1      12.141  -4.668   2.828  1.00  0.00    -0.0358  A
ATOM      9 C30  665 L   1      14.265  -3.282   1.811  1.00  0.00    +0.0353  A
ATOM     10 C33  665 L   1      12.810  -3.686   3.542  1.00  0.00    +0.0281  A
ATOM     11 H48  665 L   1      11.148  -6.468   1.120  1.00  0.00    +0.0644  H
ATOM     12 H49  665 L   1      13.824  -5.707  -2.027  1.00  0.00    +0.0638  H
ATOM     13 H50  665 L   1      14.922  -4.007  -0.692  1.00  0.00    +0.0625  H
ATOM     14 H51  665 L   1      11.342  -5.172   3.243  1.00  0.00    +0.0639  H
ATOM     15 H54  665 L   1      15.067  -2.758   1.427  1.00  0.00    +0.0836  H
ATOM     16 H59  665 L   1      12.482  -3.477   4.497  1.00  0.00    +0.0830  H
ENDROOT
BRANCH 2 18
ATOM     17  O2  665 L   1      13.309  -8.970  -1.303  1.00  0.00    -0.2720 OA
ATOM     18  N4  665 L   1      11.775  -7.188  -1.323  1.00  0.00    -0.3255  N
ATOM     19 C10  665 L   1      12.244  -8.470  -1.654  1.00  0.00    +0.2381  C
ATOM     20 H35  665 L   1      10.890  -6.948  -1.679  1.00  0.00    +0.1686 HD
BRANCH 19 21
ATOM     21  C7  665 L   1      11.243  -9.241  -2.528  1.00  0.00    +0.1122  C
ATOM     22 H39  665 L   1      10.245  -8.940  -2.283  1.00  0.00    +0.0502  H
BRANCH 21 23
ATOM     23  C8  665 L   1      11.457  -8.905  -3.995  1.00  0.00    -0.0300  A
ATOM     24 C11  665 L   1      12.571  -8.161  -4.386  1.00  0.00    -0.0573  A
ATOM     25 C12  665 L   1      10.539  -9.340  -4.952  1.00  0.00    -0.0573  A
ATOM     26 C13  665 L   1      11.849  -8.287  -6.687  1.00  0.00    -0.0103  A
ATOM     27 C14  665 L   1      12.766  -7.852  -5.732  1.00  0.00    -0.0551  A
ATOM     28 C15  665 L   1      10.735  -9.030  -6.297  1.00  0.00    -0.0551  A
ATOM     29 H42  665 L   1      13.251  -7.839  -3.678  1.00  0.00    +0.0621  H
ATOM     30 H43  665 L   1       9.715  -9.890  -4.663  1.00  0.00    +0.0621  H
ATOM     31 H44  665 L   1      13.591  -7.302  -6.020  1.00  0.00    +0.0621  H
ATOM     32 H45  665 L   1      10.056  -9.352  -7.005  1.00  0.00    +0.0621  H
BRANCH 26 33
ATOM     33 C17  665 L   1      12.058  -7.957  -8.127  1.00  0.00    +0.1179  C
ATOM     34 H46  665 L   1      12.130  -6.896  -8.243  1.00  0.00    +0.0749  H
ATOM     35 H47  665 L   1      12.962  -8.416  -8.471  1.00  0.00    +0.0749  H
BRANCH 33 36
ATOM     36  O1  665 L   1      10.960  -8.446  -8.888  1.00  0.00    -0.4564 OA
BRANCH 36 38
ATOM     37  O3  665 L   1      10.330  -6.317  -9.492  1.00  0.00    -0.2449 OA
ATOM     38 C25  665 L   1      10.093  -7.507  -9.356  1.00  0.00    +0.3398  C
BRANCH 38 39
ATOM     39 C23  665 L   1       8.783  -8.121  -9.691  1.00  0.00    +0.0619  A
ATOM     40 C24  665 L   1       8.457  -8.448 -11.008  1.00  0.00    -0.0362  A
ATOM     41 C27  665 L   1       6.308  -9.272 -10.268  1.00  0.00    -0.0502  A
ATOM     42 C28  665 L   1       7.219  -9.024 -11.295  1.00  0.00    -0.0551  A
ATOM     43 C29  665 L   1       7.873  -8.368  -8.664  1.00  0.00    -0.0473  A
ATOM     44 C31  665 L   1       6.635  -8.943  -8.952  1.00  0.00    -0.0580  A
ATOM     45 C32  665 L   1       9.414  -8.196 -12.126  1.00  0.00    -0.0389  C
ATOM     46 C34  665 L   1       4.984  -9.886 -10.575  1.00  0.00    -0.0397  C
ATOM     47 H52  665 L   1       6.976  -9.266 -12.269  1.00  0.00    +0.0623  H
ATOM     48 H53  665 L   1       8.115  -8.127  -7.691  1.00  0.00    +0.0626  H
ATOM     49 H55  665 L   1       5.962  -9.126  -8.192  1.00  0.00    +0.0620  H
ATOM     50 H56  665 L   1      10.308  -7.755 -11.738  1.00  0.00    +0.0278  H
ATOM     51 H57  665 L   1       8.966  -7.530 -12.835  1.00  0.00    +0.0278  H
ATOM     52 H58  665 L   1       9.652  -9.121 -12.608  1.00  0.00    +0.0278  H
ATOM     53 H60  665 L   1       4.910 -10.067 -11.626  1.00  0.00    +0.0278  H
ATOM     54 H61  665 L   1       4.203  -9.220 -10.272  1.00  0.00    +0.0278  H
ATOM     55 H62  665 L   1       4.889 -10.811 -10.046  1.00  0.00    +0.0278  H
ENDBRANCH 38 39
ENDBRANCH 36 38
ENDBRANCH 33 36
ENDBRANCH 26 33
ENDBRANCH 21 23
BRANCH 21 57
ATOM     56  N5  665 L   1      11.065 -11.058  -0.837  1.00  0.00    -0.3600  N
ATOM     57  C9  665 L   1      11.335 -10.753  -2.240  1.00  0.00    +0.0921  C
ATOM     58 H36  665 L   1      11.134 -12.064  -0.688  1.00  0.00    +0.3450 HD
ATOM     59 H37  665 L   1      10.125 -10.743  -0.596  1.00  0.00    +0.3450 HD
ATOM     60 H38  665 L   1      11.745 -10.578  -0.248  1.00  0.00    +0.3450 HD
ATOM     61 H40  665 L   1      10.620 -11.265  -2.849  1.00  0.00    +0.0926  H
ATOM     62 H41  665 L   1      12.331 -11.074  -2.463  1.00  0.00    +0.0926  H
ENDBRANCH 21 57
ENDBRANCH 19 21
ENDBRANCH 2 18
TORSDOF 8
ENDMDL
MODEL 10
REMARK VINA RESULT:    -7.118      2.959     11.154
REMARK INTER + INTRA:         -11.304
REMARK INTER:                 -10.404
REMARK INTRA:                  -0.900
REMARK UNBOUND:                -0.857
ROOT
ATOM      1  N6  665 L   1       8.454  -3.789   6.374  1.00  0.00    -0.2626 NA
ATOM      2 C16  665 L   1      11.598  -5.168   2.656  1.00  0.00    +0.0423  A
ATOM      3 C18  665 L   1      10.572  -5.820   3.342  1.00  0.00    -0.0305  A
ATOM      4 C19  665 L   1       9.856  -5.160   4.353  1.00  0.00    -0.0131  A
ATOM      5 C20  665 L   1      11.924  -3.851   2.971  1.00  0.00    -0.0377  A
ATOM      6 C21  665 L   1      10.189  -3.826   4.670  1.00  0.00    +0.0004  A
ATOM      7 C22  665 L   1      11.225  -3.180   3.974  1.00  0.00    -0.0506  A
ATOM      8 C26  665 L   1       8.821  -5.785   5.059  1.00  0.00    -0.0358  A
ATOM      9 C30  665 L   1       9.457  -3.202   5.682  1.00  0.00    +0.0353  A
ATOM     10 C33  665 L   1       8.164  -5.066   6.045  1.00  0.00    +0.0281  A
ATOM     11 H48  665 L   1      10.335  -6.796   3.102  1.00  0.00    +0.0644  H
ATOM     12 H49  665 L   1      12.684  -3.372   2.463  1.00  0.00    +0.0638  H
ATOM     13 H50  665 L   1      11.468  -2.205   4.205  1.00  0.00    +0.0625  H
ATOM     14 H51  665 L   1       8.555  -6.760   4.851  1.00  0.00    +0.0639  H
ATOM     15 H54  665 L   1       9.696  -2.226   5.917  1.00  0.00    +0.0836  H
ATOM     16 H59  665 L   1       7.403  -5.535   6.558  1.00  0.00    +0.0830  H
ENDROOT
BRANCH 2 18
ATOM     17  O2  665 L   1      10.711  -6.050  -0.070  1.00  0.00    -0.2720 OA
ATOM     18  N4  665 L   1      12.299  -5.838   1.651  1.00  0.00    -0.3255  N
ATOM     19 C10  665 L   1      11.835  -6.238   0.387  1.00  0.00    +0.2381  C
ATOM     20 H35  665 L   1      13.236  -6.058   1.855  1.00  0.00    +0.1686 HD
BRANCH 19 21
ATOM     21  C7  665 L   1      12.925  -6.953  -0.426  1.00  0.00    +0.1122  C
ATOM     22 H39  665 L   1      13.529  -7.547   0.227  1.00  0.00    +0.0502  H
BRANCH 21 23
ATOM     23  C8  665 L   1      12.293  -7.903  -1.431  1.00  0.00    -0.0300  A
ATOM     24 C11  665 L   1      12.303  -7.591  -2.790  1.00  0.00    -0.0573  A
ATOM     25 C12  665 L   1      11.702  -9.089  -0.992  1.00  0.00    -0.0573  A
ATOM     26 C13  665 L   1      11.132  -9.648  -3.273  1.00  0.00    -0.0103  A
ATOM     27 C14  665 L   1      11.722  -8.463  -3.711  1.00  0.00    -0.0551  A
ATOM     28 C15  665 L   1      11.121  -9.961  -1.913  1.00  0.00    -0.0551  A
ATOM     29 H42  665 L   1      12.740  -6.714  -3.115  1.00  0.00    +0.0621  H
ATOM     30 H43  665 L   1      11.694  -9.320   0.014  1.00  0.00    +0.0621  H
ATOM     31 H44  665 L   1      11.730  -8.231  -4.717  1.00  0.00    +0.0621  H
ATOM     32 H45  665 L   1      10.684 -10.838  -1.589  1.00  0.00    +0.0621  H
BRANCH 26 33
ATOM     33 C17  665 L   1      10.511 -10.581  -4.257  1.00  0.00    +0.1179  C
ATOM     34 H46  665 L   1      11.172 -11.403  -4.435  1.00  0.00    +0.0749  H
ATOM     35 H47  665 L   1       9.584 -10.946  -3.867  1.00  0.00    +0.0749  H
BRANCH 33 36
ATOM     36  O1  665 L   1      10.273  -9.889  -5.478  1.00  0.00    -0.4564 OA
BRANCH 36 38
ATOM     37  O3  665 L   1       8.094  -9.455  -4.876  1.00  0.00    -0.2449 OA
ATOM     38 C25  665 L   1       8.985  -9.515  -5.709  1.00  0.00    +0.3398  C
BRANCH 38 39
ATOM     39 C23  665 L   1       8.786  -9.178  -7.142  1.00  0.00    +0.0619  A
ATOM     40 C24  665 L   1       9.475  -8.121  -7.737  1.00  0.00    -0.0362  A
ATOM     41 C27  665 L   1       8.374  -8.586  -9.837  1.00  0.00    -0.0502  A
ATOM     42 C28  665 L   1       9.269  -7.826  -9.085  1.00  0.00    -0.0551  A
ATOM     43 C29  665 L   1       7.890  -9.939  -7.894  1.00  0.00    -0.0473  A
ATOM     44 C31  665 L   1       7.683  -9.643  -9.241  1.00  0.00    -0.0580  A
ATOM     45 C32  665 L   1      10.441  -7.292  -6.955  1.00  0.00    -0.0389  C
ATOM     46 C34  665 L   1       8.151  -8.270 -11.277  1.00  0.00    -0.0397  C
ATOM     47 H52  665 L   1       9.779  -7.044  -9.525  1.00  0.00    +0.0623  H
ATOM     48 H53  665 L   1       7.381 -10.720  -7.454  1.00  0.00    +0.0626  H
ATOM     49 H55  665 L   1       7.021 -10.205  -9.797  1.00  0.00    +0.0620  H
ATOM     50 H56  665 L   1      10.482  -7.648  -5.947  1.00  0.00    +0.0278  H
ATOM     51 H57  665 L   1      10.120  -6.271  -6.960  1.00  0.00    +0.0278  H
ATOM     52 H58  665 L   1      11.412  -7.362  -7.399  1.00  0.00    +0.0278  H
ATOM     53 H60  665 L   1       8.760  -7.437 -11.558  1.00  0.00    +0.0278  H
ATOM     54 H61  665 L   1       7.121  -8.029 -11.435  1.00  0.00    +0.0278  H
ATOM     55 H62  665 L   1       8.414  -9.119 -11.873  1.00  0.00    +0.0278  H
ENDBRANCH 38 39
ENDBRANCH 36 38
ENDBRANCH 33 36
ENDBRANCH 26 33
ENDBRANCH 21 23
BRANCH 21 57
ATOM     56  N5  665 L   1      13.241  -4.605  -1.188  1.00  0.00    -0.3600  N
ATOM     57  C9  665 L   1      13.864  -5.922  -1.085  1.00  0.00    +0.0921  C
ATOM     58 H36  665 L   1      13.893  -3.954  -1.627  1.00  0.00    +0.3450 HD
ATOM     59 H37  665 L   1      13.002  -4.269  -0.255  1.00  0.00    +0.3450 HD
ATOM     60 H38  665 L   1      12.394  -4.673  -1.752  1.00  0.00    +0.3450 HD
ATOM     61 H40  665 L   1      14.754  -5.840  -0.497  1.00  0.00    +0.0926  H
ATOM     62 H41  665 L   1      14.087  -6.261  -2.075  1.00  0.00    +0.0926  H
ENDBRANCH 21 57
ENDBRANCH 19 21
ENDBRANCH 2 18
TORSDOF 8
ENDMDL
MODEL 11
REMARK VINA RESULT:    -7.089      3.215     11.348
REMARK INTER + INTRA:         -11.261
REMARK INTER:                 -10.171
REMARK INTRA:                  -1.090
REMARK UNBOUND:                -0.857
ROOT
ATOM      1  N6  665 L   1       8.843  -3.093   6.559  1.00  0.00    -0.2626 NA
ATOM      2 C16  665 L   1      11.978  -4.893   3.018  1.00  0.00    +0.0423  A
ATOM      3 C18  665 L   1      10.889  -5.432   3.704  1.00  0.00    -0.0305  A
ATOM      4 C19  665 L   1      10.196  -4.668   4.657  1.00  0.00    -0.0131  A
ATOM      5 C20  665 L   1      12.390  -3.587   3.273  1.00  0.00    -0.0377  A
ATOM      6 C21  665 L   1      10.616  -3.346   4.914  1.00  0.00    +0.0004  A
ATOM      7 C22  665 L   1      11.715  -2.814   4.217  1.00  0.00    -0.0506  A
ATOM      8 C26  665 L   1       9.100  -5.179   5.363  1.00  0.00    -0.0358  A
ATOM      9 C30  665 L   1       9.904  -2.617   5.868  1.00  0.00    +0.0353  A
ATOM     10 C33  665 L   1       8.470  -4.361   6.288  1.00  0.00    +0.0281  A
ATOM     11 H48  665 L   1      10.589  -6.400   3.509  1.00  0.00    +0.0644  H
ATOM     12 H49  665 L   1      13.197  -3.192   2.764  1.00  0.00    +0.0638  H
ATOM     13 H50  665 L   1      12.022  -1.848   4.404  1.00  0.00    +0.0625  H
ATOM     14 H51  665 L   1       8.769  -6.142   5.197  1.00  0.00    +0.0639  H
ATOM     15 H54  665 L   1      10.208  -1.649   6.059  1.00  0.00    +0.0836  H
ATOM     16 H59  665 L   1       7.663  -4.747   6.802  1.00  0.00    +0.0830  H
ENDROOT
BRANCH 2 18
ATOM     17  O2  665 L   1      11.566  -5.134   0.056  1.00  0.00    -0.2720 OA
ATOM     18  N4  665 L   1      12.656  -5.665   2.072  1.00  0.00    -0.3255  N
ATOM     19 C10  665 L   1      12.420  -5.750   0.689  1.00  0.00    +0.2381  C
ATOM     20 H35  665 L   1      13.391  -6.220   2.417  1.00  0.00    +0.1686 HD
BRANCH 19 21
ATOM     21  C7  665 L   1      13.390  -6.719  -0.002  1.00  0.00    +0.1122  C
ATOM     22 H39  665 L   1      13.714  -7.463   0.697  1.00  0.00    +0.0502  H
BRANCH 21 23
ATOM     23  C8  665 L   1      12.685  -7.452  -1.132  1.00  0.00    -0.0300  A
ATOM     24 C11  665 L   1      13.013  -7.171  -2.459  1.00  0.00    -0.0573  A
ATOM     25 C12  665 L   1      11.710  -8.408  -0.842  1.00  0.00    -0.0573  A
ATOM     26 C13  665 L   1      11.390  -8.797  -3.205  1.00  0.00    -0.0103  A
ATOM     27 C14  665 L   1      12.365  -7.843  -3.495  1.00  0.00    -0.0551  A
ATOM     28 C15  665 L   1      11.062  -9.079  -1.879  1.00  0.00    -0.0551  A
ATOM     29 H42  665 L   1      13.734  -6.465  -2.673  1.00  0.00    +0.0621  H
ATOM     30 H43  665 L   1      11.467  -8.616   0.139  1.00  0.00    +0.0621  H
ATOM     31 H44  665 L   1      12.607  -7.634  -4.477  1.00  0.00    +0.0621  H
ATOM     32 H45  665 L   1      10.340  -9.786  -1.664  1.00  0.00    +0.0621  H
BRANCH 26 33
ATOM     33 C17  665 L   1      10.698  -9.517  -4.313  1.00  0.00    +0.1179  C
ATOM     34 H46  665 L   1      11.355 -10.251  -4.729  1.00  0.00    +0.0749  H
ATOM     35 H47  665 L   1       9.821  -9.998  -3.933  1.00  0.00    +0.0749  H
BRANCH 33 36
ATOM     36  O1  665 L   1      10.327  -8.584  -5.322  1.00  0.00    -0.4564 OA
BRANCH 36 38
ATOM     37  O3  665 L   1      11.758  -9.178  -7.024  1.00  0.00    -0.2449 OA
ATOM     38 C25  665 L   1      10.639  -8.933  -6.600  1.00  0.00    +0.3398  C
BRANCH 38 39
ATOM     39 C23  665 L   1       9.418  -8.979  -7.445  1.00  0.00    +0.0619  A
ATOM     40 C24  665 L   1       9.188  -8.019  -8.431  1.00  0.00    -0.0362  A
ATOM     41 C27  665 L   1       7.109  -9.109  -9.004  1.00  0.00    -0.0502  A
ATOM     42 C28  665 L   1       8.033  -8.085  -9.211  1.00  0.00    -0.0551  A
ATOM     43 C29  665 L   1       8.495 -10.003  -7.238  1.00  0.00    -0.0473  A
ATOM     44 C31  665 L   1       7.340 -10.069  -8.017  1.00  0.00    -0.0580  A
ATOM     45 C32  665 L   1      10.162  -6.912  -8.674  1.00  0.00    -0.0389  C
ATOM     46 C34  665 L   1       5.874  -9.180  -9.836  1.00  0.00    -0.0397  C
ATOM     47 H52  665 L   1       7.862  -7.375  -9.941  1.00  0.00    +0.0623  H
ATOM     48 H53  665 L   1       8.666 -10.713  -6.510  1.00  0.00    +0.0626  H
ATOM     49 H55  665 L   1       6.656 -10.827  -7.864  1.00  0.00    +0.0620  H
ATOM     50 H56  665 L   1      10.985  -7.007  -7.998  1.00  0.00    +0.0278  H
ATOM     51 H57  665 L   1       9.678  -5.971  -8.518  1.00  0.00    +0.0278  H
ATOM     52 H58  665 L   1      10.518  -6.966  -9.681  1.00  0.00    +0.0278  H
ATOM     53 H60  665 L   1       5.867  -8.370 -10.535  1.00  0.00    +0.0278  H
ATOM     54 H61  665 L   1       5.013  -9.114  -9.204  1.00  0.00    +0.0278  H
ATOM     55 H62  665 L   1       5.855 -10.108 -10.368  1.00  0.00    +0.0278  H
ENDBRANCH 38 39
ENDBRANCH 36 38
ENDBRANCH 33 36
ENDBRANCH 26 33
ENDBRANCH 21 23
BRANCH 21 57
ATOM     56  N5  665 L   1      14.461  -4.522  -0.465  1.00  0.00    -0.3600  N
ATOM     57  C9  665 L   1      14.654  -5.969  -0.470  1.00  0.00    +0.0921  C
ATOM     58 H36  665 L   1      15.317  -4.064  -0.779  1.00  0.00    +0.3450 HD
ATOM     59 H37  665 L   1      14.238  -4.213   0.481  1.00  0.00    +0.3450 HD
ATOM     60 H38  665 L   1      13.694  -4.278  -1.091  1.00  0.00    +0.3450 HD
ATOM     61 H40  665 L   1      15.464  -6.214   0.185  1.00  0.00    +0.0926  H
ATOM     62 H41  665 L   1      14.867  -6.272  -1.474  1.00  0.00    +0.0926  H
ENDBRANCH 21 57
ENDBRANCH 19 21
ENDBRANCH 2 18
TORSDOF 8
ENDMDL
MODEL 12
REMARK VINA RESULT:    -7.064      3.581     11.057
REMARK INTER + INTRA:         -11.225
REMARK INTER:                 -10.015
REMARK INTRA:                  -1.210
REMARK UNBOUND:                -0.857
ROOT
ATOM      1  N6  665 L   1       8.608  -2.996   6.837  1.00  0.00    -0.2626 NA
ATOM      2 C16  665 L   1      11.749  -4.725   3.267  1.00  0.00    +0.0423  A
ATOM      3 C18  665 L   1      11.260  -3.458   3.588  1.00  0.00    -0.0305  A
ATOM      4 C19  665 L   1      10.377  -3.286   4.667  1.00  0.00    -0.0131  A
ATOM      5 C20  665 L   1      11.363  -5.835   4.014  1.00  0.00    -0.0377  A
ATOM      6 C21  665 L   1       9.988  -4.412   5.421  1.00  0.00    +0.0004  A
ATOM      7 C22  665 L   1      10.486  -5.683   5.087  1.00  0.00    -0.0506  A
ATOM      8 C26  665 L   1       9.869  -2.028   5.015  1.00  0.00    -0.0358  A
ATOM      9 C30  665 L   1       9.108  -4.202   6.485  1.00  0.00    +0.0353  A
ATOM     10 C33  665 L   1       9.001  -1.941   6.093  1.00  0.00    +0.0281  A
ATOM     11 H48  665 L   1      11.551  -2.640   3.030  1.00  0.00    +0.0644  H
ATOM     12 H49  665 L   1      11.725  -6.771   3.773  1.00  0.00    +0.0638  H
ATOM     13 H50  665 L   1      10.202  -6.507   5.639  1.00  0.00    +0.0625  H
ATOM     14 H51  665 L   1      10.135  -1.186   4.482  1.00  0.00    +0.0639  H
ATOM     15 H54  665 L   1       8.821  -5.023   7.041  1.00  0.00    +0.0836  H
ATOM     16 H59  665 L   1       8.633  -1.011   6.341  1.00  0.00    +0.0830  H
ENDROOT
BRANCH 2 18
ATOM     17  O2  665 L   1      14.722  -5.118   3.235  1.00  0.00    -0.2720 OA
ATOM     18  N4  665 L   1      12.628  -4.880   2.192  1.00  0.00    -0.3255  N
ATOM     19 C10  665 L   1      14.021  -5.056   2.228  1.00  0.00    +0.2381  C
ATOM     20 H35  665 L   1      12.219  -4.864   1.297  1.00  0.00    +0.1686 HD
BRANCH 19 21
ATOM     21  C7  665 L   1      14.621  -5.188   0.821  1.00  0.00    +0.1122  C
ATOM     22 H39  665 L   1      15.590  -5.639   0.884  1.00  0.00    +0.0502  H
BRANCH 21 23
ATOM     23  C8  665 L   1      13.762  -6.106  -0.034  1.00  0.00    -0.0300  A
ATOM     24 C11  665 L   1      13.252  -5.653  -1.251  1.00  0.00    -0.0573  A
ATOM     25 C12  665 L   1      13.483  -7.403   0.399  1.00  0.00    -0.0573  A
ATOM     26 C13  665 L   1      12.184  -7.791  -1.600  1.00  0.00    -0.0103  A
ATOM     27 C14  665 L   1      12.462  -6.495  -2.033  1.00  0.00    -0.0551  A
ATOM     28 C15  665 L   1      12.693  -8.245  -0.384  1.00  0.00    -0.0551  A
ATOM     29 H42  665 L   1      13.458  -4.693  -1.571  1.00  0.00    +0.0621  H
ATOM     30 H43  665 L   1      13.860  -7.738   1.299  1.00  0.00    +0.0621  H
ATOM     31 H44  665 L   1      12.085  -6.159  -2.934  1.00  0.00    +0.0621  H
ATOM     32 H45  665 L   1      12.487  -9.204  -0.063  1.00  0.00    +0.0621  H
BRANCH 26 33
ATOM     33 C17  665 L   1      11.340  -8.692  -2.438  1.00  0.00    +0.1179  C
ATOM     34 H46  665 L   1      11.852  -9.618  -2.593  1.00  0.00    +0.0749  H
ATOM     35 H47  665 L   1      10.411  -8.876  -1.939  1.00  0.00    +0.0749  H
BRANCH 33 36
ATOM     36  O1  665 L   1      11.089  -8.071  -3.694  1.00  0.00    -0.4564 OA
BRANCH 36 38
ATOM     37  O3  665 L   1      12.656  -9.310  -4.837  1.00  0.00    -0.2449 OA
ATOM     38 C25  665 L   1      11.595  -8.707  -4.785  1.00  0.00    +0.3398  C
BRANCH 38 39
ATOM     39 C23  665 L   1      10.675  -8.576  -5.943  1.00  0.00    +0.0619  A
ATOM     40 C24  665 L   1       9.621  -9.472  -6.131  1.00  0.00    -0.0362  A
ATOM     41 C27  665 L   1       8.976  -8.288  -8.137  1.00  0.00    -0.0502  A
ATOM     42 C28  665 L   1       8.772  -9.326  -7.228  1.00  0.00    -0.0551  A
ATOM     43 C29  665 L   1      10.879  -7.538  -6.851  1.00  0.00    -0.0473  A
ATOM     44 C31  665 L   1      10.030  -7.393  -7.949  1.00  0.00    -0.0580  A
ATOM     45 C32  665 L   1       9.379 -10.592  -5.173  1.00  0.00    -0.0389  C
ATOM     46 C34  665 L   1       8.069  -8.132  -9.310  1.00  0.00    -0.0397  C
ATOM     47 H52  665 L   1       7.992  -9.988  -7.368  1.00  0.00    +0.0623  H
ATOM     48 H53  665 L   1      11.658  -6.876  -6.711  1.00  0.00    +0.0626  H
ATOM     49 H55  665 L   1      10.182  -6.625  -8.620  1.00  0.00    +0.0620  H
ATOM     50 H56  665 L   1      10.113 -10.561  -4.396  1.00  0.00    +0.0278  H
ATOM     51 H57  665 L   1       9.448 -11.525  -5.692  1.00  0.00    +0.0278  H
ATOM     52 H58  665 L   1       8.403 -10.492  -4.747  1.00  0.00    +0.0278  H
ATOM     53 H60  665 L   1       7.326  -8.901  -9.291  1.00  0.00    +0.0278  H
ATOM     54 H61  665 L   1       8.638  -8.208 -10.213  1.00  0.00    +0.0278  H
ATOM     55 H62  665 L   1       7.592  -7.175  -9.268  1.00  0.00    +0.0278  H
ENDBRANCH 38 39
ENDBRANCH 36 38
ENDBRANCH 33 36
ENDBRANCH 26 33
ENDBRANCH 21 23
BRANCH 21 57
ATOM     56  N5  665 L   1      15.201  -2.796   1.186  1.00  0.00    -0.3600  N
ATOM     57  C9  665 L   1      14.820  -3.794   0.190  1.00  0.00    +0.0921  C
ATOM     58 H36  665 L   1      15.323  -1.891   0.731  1.00  0.00    +0.3450 HD
ATOM     59 H37  665 L   1      16.076  -3.074   1.628  1.00  0.00    +0.3450 HD
ATOM     60 H38  665 L   1      14.470  -2.725   1.893  1.00  0.00    +0.3450 HD
ATOM     61 H40  665 L   1      15.590  -3.856  -0.550  1.00  0.00    +0.0926  H
ATOM     62 H41  665 L   1      13.891  -3.491  -0.245  1.00  0.00    +0.0926  H
ENDBRANCH 21 57
ENDBRANCH 19 21
ENDBRANCH 2 18
TORSDOF 8
ENDMDL
MODEL 13
REMARK VINA RESULT:    -7.041      7.019      9.251
REMARK INTER + INTRA:         -11.191
REMARK INTER:                  -8.259
REMARK INTRA:                  -2.933
REMARK UNBOUND:                -0.857
ROOT
ATOM      1  N6  665 L   1       3.833 -11.470 -11.405  1.00  0.00    -0.2626 NA
ATOM      2 C16  665 L   1       8.566  -9.707 -11.725  1.00  0.00    +0.0423  A
ATOM      3 C18  665 L   1       7.418  -9.271 -11.061  1.00  0.00    -0.0305  A
ATOM      4 C19  665 L   1       6.217  -9.991 -11.163  1.00  0.00    -0.0131  A
ATOM      5 C20  665 L   1       8.529 -10.863 -12.501  1.00  0.00    -0.0377  A
ATOM      6 C21  665 L   1       6.183 -11.161 -11.950  1.00  0.00    +0.0004  A
ATOM      7 C22  665 L   1       7.345 -11.589 -12.616  1.00  0.00    -0.0506  A
ATOM      8 C26  665 L   1       5.049  -9.581 -10.509  1.00  0.00    -0.0358  A
ATOM      9 C30  665 L   1       4.971 -11.850 -12.030  1.00  0.00    +0.0353  A
ATOM     10 C33  665 L   1       3.902 -10.346 -10.662  1.00  0.00    +0.0281  A
ATOM     11 H48  665 L   1       7.453  -8.414 -10.487  1.00  0.00    +0.0644  H
ATOM     12 H49  665 L   1       9.379 -11.181 -12.992  1.00  0.00    +0.0638  H
ATOM     13 H50  665 L   1       7.320 -12.445 -13.191  1.00  0.00    +0.0625  H
ATOM     14 H51  665 L   1       5.042  -8.729  -9.927  1.00  0.00    +0.0639  H
ATOM     15 H54  665 L   1       4.942 -12.707 -12.604  1.00  0.00    +0.0836  H
ATOM     16 H59  665 L   1       3.048 -10.036 -10.175  1.00  0.00    +0.0830  H
ENDROOT
BRANCH 2 18
ATOM     17  O2  665 L   1       9.812  -7.721 -13.597  1.00  0.00    -0.2720 OA
ATOM     18  N4  665 L   1       9.754  -8.981 -11.612  1.00  0.00    -0.3255  N
ATOM     19 C10  665 L   1      10.301  -8.063 -12.523  1.00  0.00    +0.2381  C
ATOM     20 H35  665 L   1      10.272  -9.132 -10.789  1.00  0.00    +0.1686 HD
BRANCH 19 21
ATOM     21  C7  665 L   1      11.630  -7.478 -12.022  1.00  0.00    +0.1122  C
ATOM     22 H39  665 L   1      11.722  -6.463 -12.349  1.00  0.00    +0.0502  H
BRANCH 21 23
ATOM     23  C8  665 L   1      11.656  -7.456 -10.502  1.00  0.00    -0.0300  A
ATOM     24 C11  665 L   1      12.789  -7.892  -9.816  1.00  0.00    -0.0573  A
ATOM     25 C12  665 L   1      10.544  -6.998  -9.792  1.00  0.00    -0.0573  A
ATOM     26 C13  665 L   1      11.701  -7.416  -7.713  1.00  0.00    -0.0103  A
ATOM     27 C14  665 L   1      12.811  -7.873  -8.421  1.00  0.00    -0.0551  A
ATOM     28 C15  665 L   1      10.567  -6.979  -8.398  1.00  0.00    -0.0551  A
ATOM     29 H42  665 L   1      13.612  -8.231 -10.341  1.00  0.00    +0.0621  H
ATOM     30 H43  665 L   1       9.706  -6.675 -10.300  1.00  0.00    +0.0621  H
ATOM     31 H44  665 L   1      13.651  -8.196  -7.914  1.00  0.00    +0.0621  H
ATOM     32 H45  665 L   1       9.745  -6.641  -7.873  1.00  0.00    +0.0621  H
BRANCH 26 33
ATOM     33 C17  665 L   1      11.725  -7.394  -6.221  1.00  0.00    +0.1179  C
ATOM     34 H46  665 L   1      12.601  -7.899  -5.871  1.00  0.00    +0.0749  H
ATOM     35 H47  665 L   1      11.736  -6.381  -5.879  1.00  0.00    +0.0749  H
BRANCH 33 36
ATOM     36  O1  665 L   1      10.566  -8.051  -5.721  1.00  0.00    -0.4564 OA
BRANCH 36 38
ATOM     37  O3  665 L   1      11.546 -10.068  -5.204  1.00  0.00    -0.2449 OA
ATOM     38 C25  665 L   1      10.627  -9.409  -5.666  1.00  0.00    +0.3398  C
BRANCH 38 39
ATOM     39 C23  665 L   1       9.405 -10.015  -6.254  1.00  0.00    +0.0619  A
ATOM     40 C24  665 L   1       9.443 -10.656  -7.492  1.00  0.00    -0.0362  A
ATOM     41 C27  665 L   1       7.080 -11.134  -7.315  1.00  0.00    -0.0502  A
ATOM     42 C28  665 L   1       8.280 -11.216  -8.022  1.00  0.00    -0.0551  A
ATOM     43 C29  665 L   1       8.205  -9.932  -5.546  1.00  0.00    -0.0473  A
ATOM     44 C31  665 L   1       7.043 -10.492  -6.077  1.00  0.00    -0.0580  A
ATOM     45 C32  665 L   1      10.714 -10.760  -8.269  1.00  0.00    -0.0389  C
ATOM     46 C34  665 L   1       5.837 -11.731  -7.881  1.00  0.00    -0.0397  C
ATOM     47 H52  665 L   1       8.307 -11.691  -8.938  1.00  0.00    +0.0623  H
ATOM     48 H53  665 L   1       8.178  -9.458  -4.631  1.00  0.00    +0.0626  H
ATOM     49 H55  665 L   1       6.156 -10.430  -5.553  1.00  0.00    +0.0620  H
ATOM     50 H56  665 L   1      11.504 -10.284  -7.727  1.00  0.00    +0.0278  H
ATOM     51 H57  665 L   1      10.592 -10.279  -9.217  1.00  0.00    +0.0278  H
ATOM     52 H58  665 L   1      10.956 -11.791  -8.422  1.00  0.00    +0.0278  H
ATOM     53 H60  665 L   1       6.055 -12.178  -8.828  1.00  0.00    +0.0278  H
ATOM     54 H61  665 L   1       5.099 -10.967  -8.008  1.00  0.00    +0.0278  H
ATOM     55 H62  665 L   1       5.464 -12.479  -7.213  1.00  0.00    +0.0278  H
ENDBRANCH 38 39
ENDBRANCH 36 38
ENDBRANCH 33 36
ENDBRANCH 26 33
ENDBRANCH 21 23
BRANCH 21 57
ATOM     56  N5  665 L   1      12.771  -8.261 -14.090  1.00  0.00    -0.3600  N
ATOM     57  C9  665 L   1      12.818  -8.250 -12.630  1.00  0.00    +0.0921  C
ATOM     58 H36  665 L   1      13.572  -8.778 -14.452  1.00  0.00    +0.3450 HD
ATOM     59 H37  665 L   1      12.801  -7.302 -14.437  1.00  0.00    +0.3450 HD
ATOM     60 H38  665 L   1      11.908  -8.707 -14.399  1.00  0.00    +0.3450 HD
ATOM     61 H40  665 L   1      13.730  -7.786 -12.316  1.00  0.00    +0.0926  H
ATOM     62 H41  665 L   1      12.766  -9.263 -12.290  1.00  0.00    +0.0926  H
ENDBRANCH 21 57
ENDBRANCH 19 21
ENDBRANCH 2 18
TORSDOF 8
ENDMDL
MODEL 14
REMARK VINA RESULT:    -6.938      3.273     11.466
REMARK INTER + INTRA:         -11.041
REMARK INTER:                  -9.801
REMARK INTRA:                  -1.239
REMARK UNBOUND:                -0.857
ROOT
ATOM      1  N6  665 L   1      13.176  -4.287   1.992  1.00  0.00    -0.2626 NA
ATOM      2 C16  665 L   1      12.067  -7.137  -2.040  1.00  0.00    +0.0423  A
ATOM      3 C18  665 L   1      13.147  -6.318  -1.706  1.00  0.00    -0.0305  A
ATOM      4 C19  665 L   1      13.174  -5.635  -0.479  1.00  0.00    -0.0131  A
ATOM      5 C20  665 L   1      11.000  -7.283  -1.156  1.00  0.00    -0.0377  A
ATOM      6 C21  665 L   1      12.092  -5.785   0.413  1.00  0.00    +0.0004  A
ATOM      7 C22  665 L   1      11.009  -6.612   0.066  1.00  0.00    -0.0506  A
ATOM      8 C26  665 L   1      14.242  -4.807  -0.115  1.00  0.00    -0.0358  A
ATOM      9 C30  665 L   1      12.153  -5.090   1.623  1.00  0.00    +0.0353  A
ATOM     10 C33  665 L   1      14.193  -4.166   1.113  1.00  0.00    +0.0281  A
ATOM     11 H48  665 L   1      13.934  -6.215  -2.366  1.00  0.00    +0.0644  H
ATOM     12 H49  665 L   1      10.203  -7.888  -1.406  1.00  0.00    +0.0638  H
ATOM     13 H50  665 L   1      10.218  -6.722   0.719  1.00  0.00    +0.0625  H
ATOM     14 H51  665 L   1      15.047  -4.676  -0.747  1.00  0.00    +0.0639  H
ATOM     15 H54  665 L   1      11.364  -5.197   2.280  1.00  0.00    +0.0836  H
ATOM     16 H59  665 L   1      14.985  -3.559   1.372  1.00  0.00    +0.0830  H
ENDROOT
BRANCH 2 18
ATOM     17  O2  665 L   1      11.787 -10.062  -2.639  1.00  0.00    -0.2720 OA
ATOM     18  N4  665 L   1      12.056  -7.811  -3.263  1.00  0.00    -0.3255  N
ATOM     19 C10  665 L   1      11.928  -9.191  -3.493  1.00  0.00    +0.2381  C
ATOM     20 H35  665 L   1      12.149  -7.248  -4.064  1.00  0.00    +0.1686 HD
BRANCH 19 21
ATOM     21  C7  665 L   1      11.964  -9.530  -4.990  1.00  0.00    +0.1122  C
ATOM     22 H39  665 L   1      12.312 -10.533  -5.123  1.00  0.00    +0.0502  H
BRANCH 21 23
ATOM     23  C8  665 L   1      10.563  -9.468  -5.578  1.00  0.00    -0.0300  A
ATOM     24 C11  665 L   1      10.278  -8.574  -6.610  1.00  0.00    -0.0573  A
ATOM     25 C12  665 L   1       9.562 -10.305  -5.084  1.00  0.00    -0.0573  A
ATOM     26 C13  665 L   1       7.992  -9.353  -6.655  1.00  0.00    -0.0103  A
ATOM     27 C14  665 L   1       8.992  -8.516  -7.148  1.00  0.00    -0.0551  A
ATOM     28 C15  665 L   1       8.276 -10.247  -5.622  1.00  0.00    -0.0551  A
ATOM     29 H42  665 L   1      11.018  -7.954  -6.976  1.00  0.00    +0.0621  H
ATOM     30 H43  665 L   1       9.772 -10.966  -4.320  1.00  0.00    +0.0621  H
ATOM     31 H44  665 L   1       8.781  -7.854  -7.912  1.00  0.00    +0.0621  H
ATOM     32 H45  665 L   1       7.535 -10.867  -5.257  1.00  0.00    +0.0621  H
BRANCH 26 33
ATOM     33 C17  665 L   1       6.617  -9.292  -7.230  1.00  0.00    +0.1179  C
ATOM     34 H46  665 L   1       5.932  -9.785  -6.572  1.00  0.00    +0.0749  H
ATOM     35 H47  665 L   1       6.325  -8.270  -7.348  1.00  0.00    +0.0749  H
BRANCH 33 36
ATOM     36  O1  665 L   1       6.607  -9.938  -8.498  1.00  0.00    -0.4564 OA
BRANCH 36 38
ATOM     37  O3  665 L   1       5.263  -8.521  -9.716  1.00  0.00    -0.2449 OA
ATOM     38 C25  665 L   1       6.297  -9.153  -9.565  1.00  0.00    +0.3398  C
BRANCH 38 39
ATOM     39 C23  665 L   1       7.402  -9.156 -10.558  1.00  0.00    +0.0619  A
ATOM     40 C24  665 L   1       7.475 -10.133 -11.551  1.00  0.00    -0.0362  A
ATOM     41 C27  665 L   1       9.499  -9.119 -12.398  1.00  0.00    -0.0502  A
ATOM     42 C28  665 L   1       8.523 -10.114 -12.471  1.00  0.00    -0.0551  A
ATOM     43 C29  665 L   1       8.377  -8.162 -10.483  1.00  0.00    -0.0473  A
ATOM     44 C31  665 L   1       9.426  -8.143 -11.403  1.00  0.00    -0.0580  A
ATOM     45 C32  665 L   1       6.443 -11.209 -11.654  1.00  0.00    -0.0389  C
ATOM     46 C34  665 L   1      10.620  -9.098 -13.380  1.00  0.00    -0.0397  C
ATOM     47 H52  665 L   1       8.578 -10.836 -13.207  1.00  0.00    +0.0623  H
ATOM     48 H53  665 L   1       8.322  -7.439  -9.749  1.00  0.00    +0.0626  H
ATOM     49 H55  665 L   1      10.147  -7.407 -11.348  1.00  0.00    +0.0620  H
ATOM     50 H56  665 L   1       5.715 -11.080 -10.881  1.00  0.00    +0.0278  H
ATOM     51 H57  665 L   1       6.912 -12.164 -11.547  1.00  0.00    +0.0278  H
ATOM     52 H58  665 L   1       5.964 -11.153 -12.609  1.00  0.00    +0.0278  H
ATOM     53 H60  665 L   1      10.513  -9.915 -14.062  1.00  0.00    +0.0278  H
ATOM     54 H61  665 L   1      11.551  -9.187 -12.860  1.00  0.00    +0.0278  H
ATOM     55 H62  665 L   1      10.602  -8.177 -13.923  1.00  0.00    +0.0278  H
ENDBRANCH 38 39
ENDBRANCH 36 38
ENDBRANCH 33 36
ENDBRANCH 26 33
ENDBRANCH 21 23
BRANCH 21 57
ATOM     56  N5  665 L   1      13.874  -9.370  -6.576  1.00  0.00    -0.3600  N
ATOM     57  C9  665 L   1      12.963  -8.612  -5.724  1.00  0.00    +0.0921  C
ATOM     58 H36  665 L   1      14.516  -8.729  -7.043  1.00  0.00    +0.3450 HD
ATOM     59 H37  665 L   1      13.338  -9.882  -7.276  1.00  0.00    +0.3450 HD
ATOM     60 H38  665 L   1      14.405 -10.029  -6.006  1.00  0.00    +0.3450 HD
ATOM     61 H40  665 L   1      12.416  -7.920  -6.330  1.00  0.00    +0.0926  H
ATOM     62 H41  665 L   1      13.546  -8.100  -4.987  1.00  0.00    +0.0926  H
ENDBRANCH 21 57
ENDBRANCH 19 21
ENDBRANCH 2 18
TORSDOF 8
ENDMDL
MODEL 15
REMARK VINA RESULT:    -6.916      7.143      9.171
REMARK INTER + INTRA:         -11.007
REMARK INTER:                  -8.739
REMARK INTRA:                  -2.269
REMARK UNBOUND:                -0.857
ROOT
ATOM      1  N6  665 L   1       3.802 -11.045 -10.937  1.00  0.00    -0.2626 NA
ATOM      2 C16  665 L   1       8.521  -9.331 -11.568  1.00  0.00    +0.0423  A
ATOM      3 C18  665 L   1       7.803 -10.398 -12.110  1.00  0.00    -0.0305  A
ATOM      4 C19  665 L   1       6.471 -10.628 -11.732  1.00  0.00    -0.0131  A
ATOM      5 C20  665 L   1       7.921  -8.482 -10.642  1.00  0.00    -0.0377  A
ATOM      6 C21  665 L   1       5.866  -9.766 -10.793  1.00  0.00    +0.0004  A
ATOM      7 C22  665 L   1       6.599  -8.696 -10.254  1.00  0.00    -0.0506  A
ATOM      8 C26  665 L   1       5.723 -11.689 -12.257  1.00  0.00    -0.0358  A
ATOM      9 C30  665 L   1       4.540 -10.027 -10.440  1.00  0.00    +0.0353  A
ATOM     10 C33  665 L   1       4.414 -11.850 -11.832  1.00  0.00    +0.0281  A
ATOM     11 H48  665 L   1       8.255 -11.023 -12.797  1.00  0.00    +0.0644  H
ATOM     12 H49  665 L   1       8.455  -7.694 -10.242  1.00  0.00    +0.0638  H
ATOM     13 H50  665 L   1       6.156  -8.065  -9.567  1.00  0.00    +0.0625  H
ATOM     14 H51  665 L   1       6.139 -12.337 -12.945  1.00  0.00    +0.0639  H
ATOM     15 H54  665 L   1       4.092  -9.398  -9.754  1.00  0.00    +0.0836  H
ATOM     16 H59  665 L   1       3.872 -12.634 -12.225  1.00  0.00    +0.0830  H
ENDROOT
BRANCH 2 18
ATOM     17  O2  665 L   1       9.657  -7.489 -13.646  1.00  0.00    -0.2720 OA
ATOM     18  N4  665 L   1       9.845  -9.114 -11.956  1.00  0.00    -0.3255  N
ATOM     19 C10  665 L   1      10.329  -8.241 -12.945  1.00  0.00    +0.2381  C
ATOM     20 H35  665 L   1      10.525  -9.640 -11.477  1.00  0.00    +0.1686 HD
BRANCH 19 21
ATOM     21  C7  665 L   1      11.859  -8.299 -13.065  1.00  0.00    +0.1122  C
ATOM     22 H39  665 L   1      12.221  -7.385 -13.489  1.00  0.00    +0.0502  H
BRANCH 21 23
ATOM     23  C8  665 L   1      12.491  -8.427 -11.688  1.00  0.00    -0.0300  A
ATOM     24 C11  665 L   1      13.228  -7.368 -11.157  1.00  0.00    -0.0573  A
ATOM     25 C12  665 L   1      12.333  -9.604 -10.955  1.00  0.00    -0.0573  A
ATOM     26 C13  665 L   1      13.650  -8.662  -9.162  1.00  0.00    -0.0103  A
ATOM     27 C14  665 L   1      13.808  -7.487  -9.894  1.00  0.00    -0.0551  A
ATOM     28 C15  665 L   1      12.913  -9.721  -9.692  1.00  0.00    -0.0551  A
ATOM     29 H42  665 L   1      13.345  -6.497 -11.699  1.00  0.00    +0.0621  H
ATOM     30 H43  665 L   1      11.787 -10.387 -11.348  1.00  0.00    +0.0621  H
ATOM     31 H44  665 L   1      14.354  -6.703  -9.501  1.00  0.00    +0.0621  H
ATOM     32 H45  665 L   1      12.796 -10.592  -9.150  1.00  0.00    +0.0621  H
BRANCH 26 33
ATOM     33 C17  665 L   1      14.270  -8.789  -7.811  1.00  0.00    +0.1179  C
ATOM     34 H46  665 L   1      15.092  -9.472  -7.857  1.00  0.00    +0.0749  H
ATOM     35 H47  665 L   1      14.620  -7.831  -7.487  1.00  0.00    +0.0749  H
BRANCH 33 36
ATOM     36  O1  665 L   1      13.299  -9.275  -6.890  1.00  0.00    -0.4564 OA
BRANCH 36 38
ATOM     37  O3  665 L   1      12.980  -7.344  -5.678  1.00  0.00    -0.2449 OA
ATOM     38 C25  665 L   1      12.551  -8.330  -6.258  1.00  0.00    +0.3398  C
BRANCH 38 39
ATOM     39 C23  665 L   1      11.105  -8.651  -6.360  1.00  0.00    +0.0619  A
ATOM     40 C24  665 L   1      10.272  -7.953  -7.236  1.00  0.00    -0.0362  A
ATOM     41 C27  665 L   1       8.393  -9.291  -6.512  1.00  0.00    -0.0502  A
ATOM     42 C28  665 L   1       8.917  -8.274  -7.312  1.00  0.00    -0.0551  A
ATOM     43 C29  665 L   1      10.582  -9.667  -5.560  1.00  0.00    -0.0473  A
ATOM     44 C31  665 L   1       9.227  -9.987  -5.635  1.00  0.00    -0.0580  A
ATOM     45 C32  665 L   1      10.806  -6.862  -8.105  1.00  0.00    -0.0389  C
ATOM     46 C34  665 L   1       6.945  -9.633  -6.591  1.00  0.00    -0.0397  C
ATOM     47 H52  665 L   1       8.300  -7.759  -7.959  1.00  0.00    +0.0623  H
ATOM     48 H53  665 L   1      11.199 -10.182  -4.913  1.00  0.00    +0.0626  H
ATOM     49 H55  665 L   1       8.841 -10.739  -5.043  1.00  0.00    +0.0620  H
ATOM     50 H56  665 L   1      11.854  -6.744  -7.926  1.00  0.00    +0.0278  H
ATOM     51 H57  665 L   1      10.300  -5.947  -7.878  1.00  0.00    +0.0278  H
ATOM     52 H58  665 L   1      10.645  -7.113  -9.132  1.00  0.00    +0.0278  H
ATOM     53 H60  665 L   1       6.467  -9.002  -7.310  1.00  0.00    +0.0278  H
ATOM     54 H61  665 L   1       6.491  -9.490  -5.633  1.00  0.00    +0.0278  H
ATOM     55 H62  665 L   1       6.836 -10.656  -6.888  1.00  0.00    +0.0278  H
ENDBRANCH 38 39
ENDBRANCH 36 38
ENDBRANCH 33 36
ENDBRANCH 26 33
ENDBRANCH 21 23
BRANCH 21 57
ATOM     56  N5  665 L   1      11.419  -9.491 -15.204  1.00  0.00    -0.3600  N
ATOM     57  C9  665 L   1      12.278  -9.431 -14.025  1.00  0.00    +0.0921  C
ATOM     58 H36  665 L   1      11.728 -10.250 -15.812  1.00  0.00    +0.3450 HD
ATOM     59 H37  665 L   1      11.473  -8.607 -15.709  1.00  0.00    +0.3450 HD
ATOM     60 H38  665 L   1      10.455  -9.658 -14.914  1.00  0.00    +0.3450 HD
ATOM     61 H40  665 L   1      13.287  -9.262 -14.339  1.00  0.00    +0.0926  H
ATOM     62 H41  665 L   1      12.189 -10.360 -13.501  1.00  0.00    +0.0926  H
ENDBRANCH 21 57
ENDBRANCH 19 21
ENDBRANCH 2 18
TORSDOF 8
ENDMDL
MODEL 16
REMARK VINA RESULT:    -6.876      2.523      3.706
REMARK INTER + INTRA:         -10.949
REMARK INTER:                  -9.744
REMARK INTRA:                  -1.205
REMARK UNBOUND:                -0.857
ROOT
ATOM      1  N6  665 L   1      10.754  -7.236 -10.004  1.00  0.00    -0.2626 NA
ATOM      2 C16  665 L   1      12.868  -8.181  -5.504  1.00  0.00    +0.0423  A
ATOM      3 C18  665 L   1      11.585  -7.806  -5.907  1.00  0.00    -0.0305  A
ATOM      4 C19  665 L   1      11.290  -7.613  -7.266  1.00  0.00    -0.0131  A
ATOM      5 C20  665 L   1      13.872  -8.365  -6.451  1.00  0.00    -0.0377  A
ATOM      6 C21  665 L   1      12.310  -7.800  -8.223  1.00  0.00    +0.0004  A
ATOM      7 C22  665 L   1      13.598  -8.177  -7.805  1.00  0.00    -0.0506  A
ATOM      8 C26  665 L   1      10.014  -7.237  -7.702  1.00  0.00    -0.0358  A
ATOM      9 C30  665 L   1      11.981  -7.598  -9.564  1.00  0.00    +0.0353  A
ATOM     10 C33  665 L   1       9.803  -7.065  -9.061  1.00  0.00    +0.0281  A
ATOM     11 H48  665 L   1      10.846  -7.672  -5.199  1.00  0.00    +0.0644  H
ATOM     12 H49  665 L   1      14.820  -8.642  -6.151  1.00  0.00    +0.0638  H
ATOM     13 H50  665 L   1      14.344  -8.314  -8.505  1.00  0.00    +0.0625  H
ATOM     14 H51  665 L   1       9.248  -7.092  -7.026  1.00  0.00    +0.0639  H
ATOM     15 H54  665 L   1      12.723  -7.735 -10.268  1.00  0.00    +0.0836  H
ATOM     16 H59  665 L   1       8.860  -6.789  -9.372  1.00  0.00    +0.0830  H
ENDROOT
BRANCH 2 18
ATOM     17  O2  665 L   1      11.132  -7.765  -3.094  1.00  0.00    -0.2720 OA
ATOM     18  N4  665 L   1      13.145  -8.371  -4.149  1.00  0.00    -0.3255  N
ATOM     19 C10  665 L   1      12.296  -8.155  -3.050  1.00  0.00    +0.2381  C
ATOM     20 H35  665 L   1      14.048  -8.698  -3.937  1.00  0.00    +0.1686 HD
BRANCH 19 21
ATOM     21  C7  665 L   1      12.984  -8.485  -1.718  1.00  0.00    +0.1122  C
ATOM     22 H39  665 L   1      13.807  -9.147  -1.892  1.00  0.00    +0.0502  H
BRANCH 21 23
ATOM     23  C8  665 L   1      13.558  -7.222  -1.095  1.00  0.00    -0.0300  A
ATOM     24 C11  665 L   1      14.728  -7.286  -0.338  1.00  0.00    -0.0573  A
ATOM     25 C12  665 L   1      12.913  -5.998  -1.281  1.00  0.00    -0.0573  A
ATOM     26 C13  665 L   1      14.609  -4.904   0.048  1.00  0.00    -0.0103  A
ATOM     27 C14  665 L   1      15.252  -6.127   0.234  1.00  0.00    -0.0551  A
ATOM     28 C15  665 L   1      13.439  -4.840  -0.708  1.00  0.00    -0.0551  A
ATOM     29 H42  665 L   1      15.205  -8.191  -0.200  1.00  0.00    +0.0621  H
ATOM     30 H43  665 L   1      12.048  -5.951  -1.840  1.00  0.00    +0.0621  H
ATOM     31 H44  665 L   1      16.119  -6.175   0.794  1.00  0.00    +0.0621  H
ATOM     32 H45  665 L   1      12.961  -3.935  -0.846  1.00  0.00    +0.0621  H
BRANCH 26 33
ATOM     33 C17  665 L   1      15.170  -3.665   0.659  1.00  0.00    +0.1179  C
ATOM     34 H46  665 L   1      16.083  -3.898   1.166  1.00  0.00    +0.0749  H
ATOM     35 H47  665 L   1      15.362  -2.944  -0.108  1.00  0.00    +0.0749  H
BRANCH 33 36
ATOM     36  O1  665 L   1      14.234  -3.131   1.589  1.00  0.00    -0.4564 OA
BRANCH 36 38
ATOM     37  O3  665 L   1      15.052  -3.975   3.568  1.00  0.00    -0.2449 OA
ATOM     38 C25  665 L   1      14.139  -3.782   2.780  1.00  0.00    +0.3398  C
BRANCH 38 39
ATOM     39 C23  665 L   1      12.748  -4.246   3.016  1.00  0.00    +0.0619  A
ATOM     40 C24  665 L   1      11.821  -3.438   3.675  1.00  0.00    -0.0362  A
ATOM     41 C27  665 L   1      10.147  -5.165   3.435  1.00  0.00    -0.0502  A
ATOM     42 C28  665 L   1      10.521  -3.898   3.884  1.00  0.00    -0.0551  A
ATOM     43 C29  665 L   1      12.375  -5.513   2.567  1.00  0.00    -0.0473  A
ATOM     44 C31  665 L   1      11.075  -5.973   2.777  1.00  0.00    -0.0580  A
ATOM     45 C32  665 L   1      12.193  -2.076   4.164  1.00  0.00    -0.0389  C
ATOM     46 C34  665 L   1       8.758  -5.658   3.659  1.00  0.00    -0.0397  C
ATOM     47 H52  665 L   1       9.834  -3.300   4.372  1.00  0.00    +0.0623  H
ATOM     48 H53  665 L   1      13.061  -6.109   2.079  1.00  0.00    +0.0626  H
ATOM     49 H55  665 L   1      10.800  -6.910   2.445  1.00  0.00    +0.0620  H
ATOM     50 H56  665 L   1      13.217  -1.879   3.925  1.00  0.00    +0.0278  H
ATOM     51 H57  665 L   1      12.059  -2.030   5.225  1.00  0.00    +0.0278  H
ATOM     52 H58  665 L   1      11.569  -1.345   3.694  1.00  0.00    +0.0278  H
ATOM     53 H60  665 L   1       8.193  -4.910   4.175  1.00  0.00    +0.0278  H
ATOM     54 H61  665 L   1       8.787  -6.552   4.247  1.00  0.00    +0.0278  H
ATOM     55 H62  665 L   1       8.297  -5.866   2.717  1.00  0.00    +0.0278  H
ENDBRANCH 38 39
ENDBRANCH 36 38
ENDBRANCH 33 36
ENDBRANCH 26 33
ENDBRANCH 21 23
BRANCH 21 57
ATOM     56  N5  665 L   1      11.151 -10.155  -1.512  1.00  0.00    -0.3600  N
ATOM     57  C9  665 L   1      12.009  -9.226  -0.781  1.00  0.00    +0.0921  C
ATOM     58 H36  665 L   1      10.524 -10.624  -0.859  1.00  0.00    +0.3450 HD
ATOM     59 H37  665 L   1      11.729 -10.849  -1.986  1.00  0.00    +0.3450 HD
ATOM     60 H38  665 L   1      10.603  -9.640  -2.201  1.00  0.00    +0.3450 HD
ATOM     61 H40  665 L   1      12.575  -9.774  -0.056  1.00  0.00    +0.0926  H
ATOM     62 H41  665 L   1      11.383  -8.498  -0.309  1.00  0.00    +0.0926  H
ENDBRANCH 21 57
ENDBRANCH 19 21
ENDBRANCH 2 18
TORSDOF 8
ENDMDL
MODEL 17
REMARK VINA RESULT:    -6.825      4.305      7.840
REMARK INTER + INTRA:         -10.874
REMARK INTER:                  -9.956
REMARK INTRA:                  -0.918
REMARK UNBOUND:                -0.857
ROOT
ATOM      1  N6  665 L   1      14.837  -5.872 -13.326  1.00  0.00    -0.2626 NA
ATOM      2 C16  665 L   1      10.659  -8.394 -11.985  1.00  0.00    +0.0423  A
ATOM      3 C18  665 L   1      11.891  -8.173 -11.367  1.00  0.00    -0.0305  A
ATOM      4 C19  665 L   1      12.883  -7.409 -12.004  1.00  0.00    -0.0131  A
ATOM      5 C20  665 L   1      10.402  -7.858 -13.245  1.00  0.00    -0.0377  A
ATOM      6 C21  665 L   1      12.619  -6.868 -13.280  1.00  0.00    +0.0004  A
ATOM      7 C22  665 L   1      11.375  -7.099 -13.892  1.00  0.00    -0.0506  A
ATOM      8 C26  665 L   1      14.128  -7.169 -11.411  1.00  0.00    -0.0358  A
ATOM      9 C30  665 L   1      13.628  -6.116 -13.883  1.00  0.00    +0.0353  A
ATOM     10 C33  665 L   1      15.055  -6.405 -12.105  1.00  0.00    +0.0281  A
ATOM     11 H48  665 L   1      12.075  -8.572 -10.434  1.00  0.00    +0.0644  H
ATOM     12 H49  665 L   1       9.490  -8.025 -13.699  1.00  0.00    +0.0638  H
ATOM     13 H50  665 L   1      11.181  -6.703 -14.825  1.00  0.00    +0.0625  H
ATOM     14 H51  665 L   1      14.351  -7.551 -10.479  1.00  0.00    +0.0639  H
ATOM     15 H54  665 L   1      13.440  -5.717 -14.816  1.00  0.00    +0.0836  H
ATOM     16 H59  665 L   1      15.968  -6.234 -11.660  1.00  0.00    +0.0830  H
ENDROOT
BRANCH 2 18
ATOM     17  O2  665 L   1       7.857  -7.679 -11.189  1.00  0.00    -0.2720 OA
ATOM     18  N4  665 L   1       9.682  -9.154 -11.338  1.00  0.00    -0.3255  N
ATOM     19 C10  665 L   1       8.380  -8.770 -10.979  1.00  0.00    +0.2381  C
ATOM     20 H35  665 L   1       9.940 -10.075 -11.104  1.00  0.00    +0.1686 HD
BRANCH 19 21
ATOM     21  C7  665 L   1       7.618  -9.905 -10.278  1.00  0.00    +0.1122  C
ATOM     22 H39  665 L   1       7.902 -10.845 -10.703  1.00  0.00    +0.0502  H
BRANCH 21 23
ATOM     23  C8  665 L   1       7.990  -9.957  -8.805  1.00  0.00    -0.0300  A
ATOM     24 C11  665 L   1       8.503  -8.823  -8.174  1.00  0.00    -0.0573  A
ATOM     25 C12  665 L   1       7.819 -11.139  -8.083  1.00  0.00    -0.0573  A
ATOM     26 C13  665 L   1       8.674 -10.053  -6.102  1.00  0.00    -0.0103  A
ATOM     27 C14  665 L   1       8.846  -8.872  -6.822  1.00  0.00    -0.0551  A
ATOM     28 C15  665 L   1       8.161 -11.187  -6.732  1.00  0.00    -0.0551  A
ATOM     29 H42  665 L   1       8.630  -7.949  -8.707  1.00  0.00    +0.0621  H
ATOM     30 H43  665 L   1       7.439 -11.978  -8.549  1.00  0.00    +0.0621  H
ATOM     31 H44  665 L   1       9.225  -8.032  -6.356  1.00  0.00    +0.0621  H
ATOM     32 H45  665 L   1       8.034 -12.061  -6.198  1.00  0.00    +0.0621  H
BRANCH 26 33
ATOM     33 C17  665 L   1       9.039 -10.105  -4.656  1.00  0.00    +0.1179  C
ATOM     34 H46  665 L   1       8.199  -9.809  -4.064  1.00  0.00    +0.0749  H
ATOM     35 H47  665 L   1       9.325 -11.102  -4.396  1.00  0.00    +0.0749  H
BRANCH 33 36
ATOM     36  O1  665 L   1      10.128  -9.220  -4.412  1.00  0.00    -0.4564 OA
BRANCH 36 38
ATOM     37  O3  665 L   1      11.283 -10.762  -3.153  1.00  0.00    -0.2449 OA
ATOM     38 C25  665 L   1      11.009  -9.610  -3.452  1.00  0.00    +0.3398  C
BRANCH 38 39
ATOM     39 C23  665 L   1      11.618  -8.429  -2.787  1.00  0.00    +0.0619  A
ATOM     40 C24  665 L   1      12.814  -7.880  -3.249  1.00  0.00    -0.0362  A
ATOM     41 C27  665 L   1      12.720  -6.213  -1.501  1.00  0.00    -0.0502  A
ATOM     42 C28  665 L   1      13.364  -6.771  -2.606  1.00  0.00    -0.0551  A
ATOM     43 C29  665 L   1      10.973  -7.872  -1.683  1.00  0.00    -0.0473  A
ATOM     44 C31  665 L   1      11.524  -6.764  -1.039  1.00  0.00    -0.0580  A
ATOM     45 C32  665 L   1      13.524  -8.456  -4.430  1.00  0.00    -0.0389  C
ATOM     46 C34  665 L   1      13.308  -5.028  -0.812  1.00  0.00    -0.0397  C
ATOM     47 H52  665 L   1      14.250  -6.363  -2.947  1.00  0.00    +0.0623  H
ATOM     48 H53  665 L   1      10.088  -8.279  -1.342  1.00  0.00    +0.0626  H
ATOM     49 H55  665 L   1      11.047  -6.351  -0.223  1.00  0.00    +0.0620  H
ATOM     50 H56  665 L   1      12.973  -9.294  -4.803  1.00  0.00    +0.0278  H
ATOM     51 H57  665 L   1      14.503  -8.774  -4.137  1.00  0.00    +0.0278  H
ATOM     52 H58  665 L   1      13.605  -7.713  -5.195  1.00  0.00    +0.0278  H
ATOM     53 H60  665 L   1      14.217  -4.746  -1.301  1.00  0.00    +0.0278  H
ATOM     54 H61  665 L   1      13.513  -5.274   0.208  1.00  0.00    +0.0278  H
ATOM     55 H62  665 L   1      12.616  -4.213  -0.851  1.00  0.00    +0.0278  H
ENDBRANCH 38 39
ENDBRANCH 36 38
ENDBRANCH 33 36
ENDBRANCH 26 33
ENDBRANCH 21 23
BRANCH 21 57
ATOM     56  N5  665 L   1       5.495  -8.829  -9.553  1.00  0.00    -0.3600  N
ATOM     57  C9  665 L   1       6.101  -9.753 -10.508  1.00  0.00    +0.0921  C
ATOM     58 H36  665 L   1       4.495  -8.756  -9.739  1.00  0.00    +0.3450 HD
ATOM     59 H37  665 L   1       5.927  -7.910  -9.650  1.00  0.00    +0.3450 HD
ATOM     60 H38  665 L   1       5.642  -9.175  -8.605  1.00  0.00    +0.3450 HD
ATOM     61 H40  665 L   1       5.937  -9.385 -11.499  1.00  0.00    +0.0926  H
ATOM     62 H41  665 L   1       5.647 -10.713 -10.374  1.00  0.00    +0.0926  H
ENDBRANCH 21 57
ENDBRANCH 19 21
ENDBRANCH 2 18
TORSDOF 8
ENDMDL
MODEL 18
REMARK VINA RESULT:    -6.809      3.450     11.772
REMARK INTER + INTRA:         -10.851
REMARK INTER:                  -9.557
REMARK INTRA:                  -1.294
REMARK UNBOUND:                -0.857
ROOT
ATOM      1  N6  665 L   1      13.058  -4.270   1.901  1.00  0.00    -0.2626 NA
ATOM      2 C16  665 L   1      12.327  -7.138  -2.203  1.00  0.00    +0.0423  A
ATOM      3 C18  665 L   1      13.339  -6.261  -1.808  1.00  0.00    -0.0305  A
ATOM      4 C19  665 L   1      13.263  -5.590  -0.577  1.00  0.00    -0.0131  A
ATOM      5 C20  665 L   1      11.227  -7.355  -1.377  1.00  0.00    -0.0377  A
ATOM      6 C21  665 L   1      12.147  -5.812   0.257  1.00  0.00    +0.0004  A
ATOM      7 C22  665 L   1      11.134  -6.697  -0.151  1.00  0.00    -0.0506  A
ATOM      8 C26  665 L   1      14.260  -4.705  -0.151  1.00  0.00    -0.0358  A
ATOM      9 C30  665 L   1      12.105  -5.127   1.473  1.00  0.00    +0.0353  A
ATOM     10 C33  665 L   1      14.111  -4.081   1.077  1.00  0.00    +0.0281  A
ATOM     11 H48  665 L   1      14.151  -6.105  -2.425  1.00  0.00    +0.0644  H
ATOM     12 H49  665 L   1      10.480  -8.003  -1.672  1.00  0.00    +0.0638  H
ATOM     13 H50  665 L   1      10.318  -6.860   0.459  1.00  0.00    +0.0625  H
ATOM     14 H51  665 L   1      15.088  -4.521  -0.740  1.00  0.00    +0.0639  H
ATOM     15 H54  665 L   1      11.290  -5.287   2.088  1.00  0.00    +0.0836  H
ATOM     16 H59  665 L   1      14.851  -3.431   1.382  1.00  0.00    +0.0830  H
ENDROOT
BRANCH 2 18
ATOM     17  O2  665 L   1      10.338  -8.876  -3.623  1.00  0.00    -0.2720 OA
ATOM     18  N4  665 L   1      12.419  -7.799  -3.430  1.00  0.00    -0.3255  N
ATOM     19 C10  665 L   1      11.457  -8.611  -4.053  1.00  0.00    +0.2381  C
ATOM     20 H35  665 L   1      13.264  -7.680  -3.920  1.00  0.00    +0.1686 HD
BRANCH 19 21
ATOM     21  C7  665 L   1      11.949  -9.154  -5.403  1.00  0.00    +0.1122  C
ATOM     22 H39  665 L   1      12.123 -10.207  -5.325  1.00  0.00    +0.0502  H
BRANCH 21 23
ATOM     23  C8  665 L   1      10.882  -8.961  -6.468  1.00  0.00    -0.0300  A
ATOM     24 C11  665 L   1      10.627  -7.687  -6.978  1.00  0.00    -0.0573  A
ATOM     25 C12  665 L   1      10.158 -10.057  -6.937  1.00  0.00    -0.0573  A
ATOM     26 C13  665 L   1       8.923  -8.606  -8.423  1.00  0.00    -0.0103  A
ATOM     27 C14  665 L   1       9.647  -7.510  -7.955  1.00  0.00    -0.0551  A
ATOM     28 C15  665 L   1       9.178  -9.879  -7.914  1.00  0.00    -0.0551  A
ATOM     29 H42  665 L   1      11.163  -6.876  -6.632  1.00  0.00    +0.0621  H
ATOM     30 H43  665 L   1      10.346 -10.999  -6.560  1.00  0.00    +0.0621  H
ATOM     31 H44  665 L   1       9.459  -6.567  -8.332  1.00  0.00    +0.0621  H
ATOM     32 H45  665 L   1       8.642 -10.691  -8.260  1.00  0.00    +0.0621  H
BRANCH 26 33
ATOM     33 C17  665 L   1       7.876  -8.417  -9.468  1.00  0.00    +0.1179  C
ATOM     34 H46  665 L   1       7.419  -9.358  -9.690  1.00  0.00    +0.0749  H
ATOM     35 H47  665 L   1       7.133  -7.736  -9.109  1.00  0.00    +0.0749  H
BRANCH 33 36
ATOM     36  O1  665 L   1       8.474  -7.889 -10.646  1.00  0.00    -0.4564 OA
BRANCH 36 38
ATOM     37  O3  665 L   1       8.780  -9.949 -11.625  1.00  0.00    -0.2449 OA
ATOM     38 C25  665 L   1       9.111  -8.787 -11.446  1.00  0.00    +0.3398  C
BRANCH 38 39
ATOM     39 C23  665 L   1      10.294  -8.167 -12.095  1.00  0.00    +0.0619  A
ATOM     40 C24  665 L   1      11.577  -8.351 -11.580  1.00  0.00    -0.0362  A
ATOM     41 C27  665 L   1      12.483  -6.978 -13.351  1.00  0.00    -0.0502  A
ATOM     42 C28  665 L   1      12.671  -7.757 -12.209  1.00  0.00    -0.0551  A
ATOM     43 C29  665 L   1      10.104  -7.388 -13.236  1.00  0.00    -0.0473  A
ATOM     44 C31  665 L   1      11.198  -6.793 -13.865  1.00  0.00    -0.0580  A
ATOM     45 C32  665 L   1      11.808  -9.182 -10.360  1.00  0.00    -0.0389  C
ATOM     46 C34  665 L   1      13.651  -6.341 -14.023  1.00  0.00    -0.0397  C
ATOM     47 H52  665 L   1      13.622  -7.893 -11.829  1.00  0.00    +0.0623  H
ATOM     48 H53  665 L   1       9.155  -7.253 -13.617  1.00  0.00    +0.0626  H
ATOM     49 H55  665 L   1      11.058  -6.217 -14.709  1.00  0.00    +0.0620  H
ATOM     50 H56  665 L   1      10.873  -9.561 -10.005  1.00  0.00    +0.0278  H
ATOM     51 H57  665 L   1      12.261  -8.580  -9.600  1.00  0.00    +0.0278  H
ATOM     52 H58  665 L   1      12.457  -9.997 -10.601  1.00  0.00    +0.0278  H
ATOM     53 H60  665 L   1      14.547  -6.591 -13.494  1.00  0.00    +0.0278  H
ATOM     54 H61  665 L   1      13.525  -5.279 -14.029  1.00  0.00    +0.0278  H
ATOM     55 H62  665 L   1      13.722  -6.697 -15.030  1.00  0.00    +0.0278  H
ENDBRANCH 38 39
ENDBRANCH 36 38
ENDBRANCH 33 36
ENDBRANCH 26 33
ENDBRANCH 21 23
BRANCH 21 57
ATOM     56  N5  665 L   1      14.366  -9.498  -5.884  1.00  0.00    -0.3600  N
ATOM     57  C9  665 L   1      13.298  -8.508  -5.780  1.00  0.00    +0.0921  C
ATOM     58 H36  665 L   1      15.238  -9.032  -6.136  1.00  0.00    +0.3450 HD
ATOM     59 H37  665 L   1      14.127 -10.181  -6.602  1.00  0.00    +0.3450 HD
ATOM     60 H38  665 L   1      14.479  -9.972  -4.988  1.00  0.00    +0.3450 HD
ATOM     61 H40  665 L   1      13.191  -8.012  -6.723  1.00  0.00    +0.0926  H
ATOM     62 H41  665 L   1      13.562  -7.814  -5.009  1.00  0.00    +0.0926  H
ENDBRANCH 21 57
ENDBRANCH 19 21
ENDBRANCH 2 18
TORSDOF 8
ENDMDL
MODEL 19
REMARK VINA RESULT:    -6.728      3.733      5.843
REMARK INTER + INTRA:         -10.731
REMARK INTER:                  -9.833
REMARK INTRA:                  -0.898
REMARK UNBOUND:                -0.857
ROOT
ATOM      1  N6  665 L   1       4.539 -10.867 -11.812  1.00  0.00    -0.2626 NA
ATOM      2 C16  665 L   1       9.076  -9.209 -10.303  1.00  0.00    +0.0423  A
ATOM      3 C18  665 L   1       7.768  -8.935  -9.902  1.00  0.00    -0.0305  A
ATOM      4 C19  665 L   1       6.681  -9.569 -10.526  1.00  0.00    -0.0131  A
ATOM      5 C20  665 L   1       9.317 -10.117 -11.332  1.00  0.00    -0.0377  A
ATOM      6 C21  665 L   1       6.929 -10.488 -11.567  1.00  0.00    +0.0004  A
ATOM      7 C22  665 L   1       8.251 -10.755 -11.963  1.00  0.00    -0.0506  A
ATOM      8 C26  665 L   1       5.357  -9.316 -10.146  1.00  0.00    -0.0358  A
ATOM      9 C30  665 L   1       5.824 -11.098 -12.165  1.00  0.00    +0.0353  A
ATOM     10 C33  665 L   1       4.340  -9.982 -10.812  1.00  0.00    +0.0281  A
ATOM     11 H48  665 L   1       7.597  -8.262  -9.139  1.00  0.00    +0.0644  H
ATOM     12 H49  665 L   1      10.286 -10.317 -11.627  1.00  0.00    +0.0638  H
ATOM     13 H50  665 L   1       8.432 -11.427 -12.725  1.00  0.00    +0.0625  H
ATOM     14 H51  665 L   1       5.145  -8.649  -9.388  1.00  0.00    +0.0639  H
ATOM     15 H54  665 L   1       6.000 -11.771 -12.927  1.00  0.00    +0.0836  H
ATOM     16 H59  665 L   1       3.369  -9.789 -10.525  1.00  0.00    +0.0830  H
ENDROOT
BRANCH 2 18
ATOM     17  O2  665 L   1      11.060  -7.230 -11.373  1.00  0.00    -0.2720 OA
ATOM     18  N4  665 L   1      10.146  -8.572  -9.671  1.00  0.00    -0.3255  N
ATOM     19 C10  665 L   1      11.056  -7.653 -10.219  1.00  0.00    +0.2381  C
ATOM     20 H35  665 L   1      10.279  -8.795  -8.722  1.00  0.00    +0.1686 HD
BRANCH 19 21
ATOM     21  C7  665 L   1      12.092  -7.183  -9.187  1.00  0.00    +0.1122  C
ATOM     22 H39  665 L   1      12.014  -6.123  -9.056  1.00  0.00    +0.0502  H
BRANCH 21 23
ATOM     23  C8  665 L   1      11.810  -7.816  -7.834  1.00  0.00    -0.0300  A
ATOM     24 C11  665 L   1      12.732  -8.700  -7.271  1.00  0.00    -0.0573  A
ATOM     25 C12  665 L   1      10.630  -7.513  -7.154  1.00  0.00    -0.0573  A
ATOM     26 C13  665 L   1      11.293  -8.978  -5.351  1.00  0.00    -0.0103  A
ATOM     27 C14  665 L   1      12.472  -9.281  -6.030  1.00  0.00    -0.0551  A
ATOM     28 C15  665 L   1      10.371  -8.095  -5.913  1.00  0.00    -0.0551  A
ATOM     29 H42  665 L   1      13.605  -8.924  -7.774  1.00  0.00    +0.0621  H
ATOM     30 H43  665 L   1       9.948  -6.860  -7.570  1.00  0.00    +0.0621  H
ATOM     31 H44  665 L   1      13.155  -9.935  -5.614  1.00  0.00    +0.0621  H
ATOM     32 H45  665 L   1       9.498  -7.871  -5.410  1.00  0.00    +0.0621  H
BRANCH 26 33
ATOM     33 C17  665 L   1      11.016  -9.600  -4.023  1.00  0.00    +0.1179  C
ATOM     34 H46  665 L   1      10.161 -10.238  -4.099  1.00  0.00    +0.0749  H
ATOM     35 H47  665 L   1      11.864 -10.175  -3.714  1.00  0.00    +0.0749  H
BRANCH 33 36
ATOM     36  O1  665 L   1      10.763  -8.577  -3.067  1.00  0.00    -0.4564 OA
BRANCH 36 38
ATOM     37  O3  665 L   1      11.270  -9.784  -1.174  1.00  0.00    -0.2449 OA
ATOM     38 C25  665 L   1      11.316  -8.759  -1.837  1.00  0.00    +0.3398  C
BRANCH 38 39
ATOM     39 C23  665 L   1      12.005  -7.524  -1.382  1.00  0.00    +0.0619  A
ATOM     40 C24  665 L   1      13.302  -7.227  -1.801  1.00  0.00    -0.0362  A
ATOM     41 C27  665 L   1      13.254  -5.192  -0.497  1.00  0.00    -0.0502  A
ATOM     42 C28  665 L   1      13.926  -6.060  -1.358  1.00  0.00    -0.0551  A
ATOM     43 C29  665 L   1      11.332  -6.657  -0.521  1.00  0.00    -0.0473  A
ATOM     44 C31  665 L   1      11.957  -5.491  -0.078  1.00  0.00    -0.0580  A
ATOM     45 C32  665 L   1      14.044  -8.137  -2.724  1.00  0.00    -0.0389  C
ATOM     46 C34  665 L   1      13.920  -3.946  -0.022  1.00  0.00    -0.0397  C
ATOM     47 H52  665 L   1      14.886  -5.839  -1.667  1.00  0.00    +0.0623  H
ATOM     48 H53  665 L   1      10.373  -6.878  -0.213  1.00  0.00    +0.0626  H
ATOM     49 H55  665 L   1      11.459  -4.850   0.559  1.00  0.00    +0.0620  H
ATOM     50 H56  665 L   1      13.428  -8.978  -2.966  1.00  0.00    +0.0278  H
ATOM     51 H57  665 L   1      14.939  -8.476  -2.246  1.00  0.00    +0.0278  H
ATOM     52 H58  665 L   1      14.296  -7.610  -3.619  1.00  0.00    +0.0278  H
ATOM     53 H60  665 L   1      14.902  -3.884  -0.443  1.00  0.00    +0.0278  H
ATOM     54 H61  665 L   1      13.990  -3.963   1.045  1.00  0.00    +0.0278  H
ATOM     55 H62  665 L   1      13.347  -3.096  -0.329  1.00  0.00    +0.0278  H
ENDBRANCH 38 39
ENDBRANCH 36 38
ENDBRANCH 33 36
ENDBRANCH 26 33
ENDBRANCH 21 23
BRANCH 21 57
ATOM     56  N5  665 L   1      14.052  -6.348 -10.472  1.00  0.00    -0.3600  N
ATOM     57  C9  665 L   1      13.520  -7.464  -9.695  1.00  0.00    +0.0921  C
ATOM     58 H36  665 L   1      14.995  -6.572 -10.789  1.00  0.00    +0.3450 HD
ATOM     59 H37  665 L   1      14.079  -5.511  -9.890  1.00  0.00    +0.3450 HD
ATOM     60 H38  665 L   1      13.452  -6.180 -11.280  1.00  0.00    +0.3450 HD
ATOM     61 H40  665 L   1      14.159  -7.636  -8.854  1.00  0.00    +0.0926  H
ATOM     62 H41  665 L   1      13.483  -8.324 -10.332  1.00  0.00    +0.0926  H
ENDBRANCH 21 57
ENDBRANCH 19 21
ENDBRANCH 2 18
TORSDOF 8
ENDMDL
MODEL 20
REMARK VINA RESULT:    -6.683      3.939     11.525
REMARK INTER + INTRA:         -10.666
REMARK INTER:                  -8.688
REMARK INTRA:                  -1.978
REMARK UNBOUND:                -0.857
ROOT
ATOM      1  N6  665 L   1      12.476  -5.799   0.755  1.00  0.00    -0.2626 NA
ATOM      2 C16  665 L   1      12.891  -8.078  -3.744  1.00  0.00    +0.0423  A
ATOM      3 C18  665 L   1      11.815  -7.804  -2.898  1.00  0.00    -0.0305  A
ATOM      4 C19  665 L   1      12.016  -7.137  -1.679  1.00  0.00    -0.0131  A
ATOM      5 C20  665 L   1      14.180  -7.692  -3.384  1.00  0.00    -0.0377  A
ATOM      6 C21  665 L   1      13.323  -6.748  -1.317  1.00  0.00    +0.0004  A
ATOM      7 C22  665 L   1      14.399  -7.030  -2.177  1.00  0.00    -0.0506  A
ATOM      8 C26  665 L   1      10.958  -6.848  -0.809  1.00  0.00    -0.0358  A
ATOM      9 C30  665 L   1      13.485  -6.088  -0.098  1.00  0.00    +0.0353  A
ATOM     10 C33  665 L   1      11.239  -6.187   0.377  1.00  0.00    +0.0281  A
ATOM     11 H48  665 L   1      10.863  -8.093  -3.172  1.00  0.00    +0.0644  H
ATOM     12 H49  665 L   1      14.974  -7.897  -4.011  1.00  0.00    +0.0638  H
ATOM     13 H50  665 L   1      15.355  -6.745  -1.913  1.00  0.00    +0.0625  H
ATOM     14 H51  665 L   1       9.992  -7.121  -1.045  1.00  0.00    +0.0639  H
ATOM     15 H54  665 L   1      14.439  -5.801   0.171  1.00  0.00    +0.0836  H
ATOM     16 H59  665 L   1      10.453  -5.978   1.011  1.00  0.00    +0.0830  H
ENDROOT
BRANCH 2 18
ATOM     17  O2  665 L   1      12.765  -7.010  -6.544  1.00  0.00    -0.2720 OA
ATOM     18  N4  665 L   1      12.674  -8.740  -4.954  1.00  0.00    -0.3255  N
ATOM     19 C10  665 L   1      12.617  -8.192  -6.246  1.00  0.00    +0.2381  C
ATOM     20 H35  665 L   1      12.545  -9.714  -4.894  1.00  0.00    +0.1686 HD
BRANCH 19 21
ATOM     21  C7  665 L   1      12.357  -9.264  -7.315  1.00  0.00    +0.1122  C
ATOM     22 H39  665 L   1      12.776 -10.197  -6.999  1.00  0.00    +0.0502  H
BRANCH 21 23
ATOM     23  C8  665 L   1      10.863  -9.486  -7.485  1.00  0.00    -0.0300  A
ATOM     24 C11  665 L   1       9.971  -8.438  -7.258  1.00  0.00    -0.0573  A
ATOM     25 C12  665 L   1      10.383 -10.740  -7.869  1.00  0.00    -0.0573  A
ATOM     26 C13  665 L   1       8.121  -9.895  -7.796  1.00  0.00    -0.0103  A
ATOM     27 C14  665 L   1       8.600  -8.643  -7.413  1.00  0.00    -0.0551  A
ATOM     28 C15  665 L   1       9.012 -10.943  -8.023  1.00  0.00    -0.0551  A
ATOM     29 H42  665 L   1      10.326  -7.511  -6.975  1.00  0.00    +0.0621  H
ATOM     30 H43  665 L   1      11.043 -11.515  -8.036  1.00  0.00    +0.0621  H
ATOM     31 H44  665 L   1       7.940  -7.866  -7.245  1.00  0.00    +0.0621  H
ATOM     32 H45  665 L   1       8.657 -11.871  -8.306  1.00  0.00    +0.0621  H
BRANCH 26 33
ATOM     33 C17  665 L   1       6.654 -10.114  -7.962  1.00  0.00    +0.1179  C
ATOM     34 H46  665 L   1       6.487 -11.039  -8.472  1.00  0.00    +0.0749  H
ATOM     35 H47  665 L   1       6.187 -10.146  -7.000  1.00  0.00    +0.0749  H
BRANCH 33 36
ATOM     36  O1  665 L   1       6.101  -9.045  -8.722  1.00  0.00    -0.4564 OA
BRANCH 36 38
ATOM     37  O3  665 L   1       4.634  -9.532 -10.428  1.00  0.00    -0.2449 OA
ATOM     38 C25  665 L   1       5.764  -9.340 -10.007  1.00  0.00    +0.3398  C
BRANCH 38 39
ATOM     39 C23  665 L   1       6.974  -9.403 -10.866  1.00  0.00    +0.0619  A
ATOM     40 C24  665 L   1       7.362 -10.595 -11.478  1.00  0.00    -0.0362  A
ATOM     41 C27  665 L   1       9.258  -9.468 -12.468  1.00  0.00    -0.0502  A
ATOM     42 C28  665 L   1       8.503 -10.627 -12.280  1.00  0.00    -0.0551  A
ATOM     43 C29  665 L   1       7.728  -8.244 -11.054  1.00  0.00    -0.0473  A
ATOM     44 C31  665 L   1       8.870  -8.276 -11.855  1.00  0.00    -0.0580  A
ATOM     45 C32  665 L   1       6.573 -11.849 -11.295  1.00  0.00    -0.0389  C
ATOM     46 C34  665 L   1      10.478  -9.501 -13.323  1.00  0.00    -0.0397  C
ATOM     47 H52  665 L   1       8.791 -11.509 -12.733  1.00  0.00    +0.0623  H
ATOM     48 H53  665 L   1       7.440  -7.363 -10.601  1.00  0.00    +0.0626  H
ATOM     49 H55  665 L   1       9.427  -7.419 -11.993  1.00  0.00    +0.0620  H
ATOM     50 H56  665 L   1       5.735 -11.654 -10.658  1.00  0.00    +0.0278  H
ATOM     51 H57  665 L   1       7.193 -12.599 -10.849  1.00  0.00    +0.0278  H
ATOM     52 H58  665 L   1       6.225 -12.195 -12.246  1.00  0.00    +0.0278  H
ATOM     53 H60  665 L   1      10.618 -10.490 -13.707  1.00  0.00    +0.0278  H
ATOM     54 H61  665 L   1      11.330  -9.220 -12.740  1.00  0.00    +0.0278  H
ATOM     55 H62  665 L   1      10.362  -8.817 -14.138  1.00  0.00    +0.0278  H
ENDBRANCH 38 39
ENDBRANCH 36 38
ENDBRANCH 33 36
ENDBRANCH 26 33
ENDBRANCH 21 23
BRANCH 21 57
ATOM     56  N5  665 L   1      14.509  -8.790  -8.471  1.00  0.00    -0.3600  N
ATOM     57  C9  665 L   1      13.061  -8.886  -8.635  1.00  0.00    +0.0921  C
ATOM     58 H36  665 L   1      14.936  -8.540  -9.363  1.00  0.00    +0.3450 HD
ATOM     59 H37  665 L   1      14.876  -9.689  -8.160  1.00  0.00    +0.3450 HD
ATOM     60 H38  665 L   1      14.726  -8.076  -7.777  1.00  0.00    +0.3450 HD
ATOM     61 H40  665 L   1      12.844  -9.634  -9.369  1.00  0.00    +0.0926  H
ATOM     62 H41  665 L   1      12.698  -7.928  -8.942  1.00  0.00    +0.0926  H
ENDBRANCH 21 57
ENDBRANCH 19 21
ENDBRANCH 2 18
TORSDOF 8
ENDMDL
