MODEL 1
REMARK VINA RESULT:    -7.448      0.000      0.000
REMARK INTER + INTRA:         -11.880
REMARK INTER:                 -10.932
REMARK INTRA:                  -0.948
REMARK UNBOUND:                -0.948
ROOT
ATOM      1  N6  665 L   1       6.225  -8.842 -10.464  1.00  0.00    -0.2626 NA
ATOM      2 C16  665 L   1       8.906  -9.518  -6.225  1.00  0.00    +0.0423  A
ATOM      3 C18  665 L   1       9.249  -9.217  -7.544  1.00  0.00    -0.0305  A
ATOM      4 C19  665 L   1       8.256  -9.088  -8.529  1.00  0.00    -0.0131  A
ATOM      5 C20  665 L   1       7.571  -9.696  -5.872  1.00  0.00    -0.0377  A
ATOM      6 C21  665 L   1       6.904  -9.269  -8.168  1.00  0.00    +0.0004  A
ATOM      7 C22  665 L   1       6.571  -9.573  -6.837  1.00  0.00    -0.0506  A
ATOM      8 C26  665 L   1       8.566  -8.786  -9.860  1.00  0.00    -0.0358  A
ATOM      9 C30  665 L   1       5.945  -9.134  -9.173  1.00  0.00    +0.0353  A
ATOM     10 C33  665 L   1       7.528  -8.677 -10.773  1.00  0.00    +0.0281  A
ATOM     11 H48  665 L   1      10.240  -9.086  -7.799  1.00  0.00    +0.0644  H
ATOM     12 H49  665 L   1       7.321  -9.920  -4.896  1.00  0.00    +0.0638  H
ATOM     13 H50  665 L   1       5.583  -9.705  -6.572  1.00  0.00    +0.0625  H
ATOM     14 H51  665 L   1       9.546  -8.648 -10.155  1.00  0.00    +0.0639  H
ATOM     15 H54  665 L   1       4.954  -9.265  -8.914  1.00  0.00    +0.0836  H
ATOM     16 H59  665 L   1       7.768  -8.453 -11.751  1.00  0.00    +0.0830  H
ENDROOT
BRANCH 2 18
ATOM     17  O2  665 L   1      11.136  -7.651  -5.492  1.00  0.00    -0.2720 OA
ATOM     18  N4  665 L   1       9.905  -9.641  -5.258  1.00  0.00    -0.3255  N
ATOM     19 C10  665 L   1      10.937  -8.738  -4.954  1.00  0.00    +0.2381  C
ATOM     20 H35  665 L   1       9.884 -10.465  -4.720  1.00  0.00    +0.1686 HD
BRANCH 19 21
ATOM     21  C7  665 L   1      11.834  -9.248  -3.817  1.00  0.00    +0.1122  C
ATOM     22 H39  665 L   1      12.811  -9.462  -4.197  1.00  0.00    +0.0502  H
BRANCH 21 23
ATOM     23  C8  665 L   1      12.000  -8.172  -2.755  1.00  0.00    -0.0300  A
ATOM     24 C11  665 L   1      11.006  -7.978  -1.796  1.00  0.00    -0.0573  A
ATOM     25 C12  665 L   1      13.148  -7.379  -2.740  1.00  0.00    -0.0573  A
ATOM     26 C13  665 L   1      12.306  -6.198  -0.808  1.00  0.00    -0.0103  A
ATOM     27 C14  665 L   1      11.158  -6.990  -0.823  1.00  0.00    -0.0551  A
ATOM     28 C15  665 L   1      13.300  -6.392  -1.766  1.00  0.00    -0.0551  A
ATOM     29 H42  665 L   1      10.156  -8.565  -1.807  1.00  0.00    +0.0621  H
ATOM     30 H43  665 L   1      13.884  -7.523  -3.449  1.00  0.00    +0.0621  H
ATOM     31 H44  665 L   1      10.422  -6.847  -0.113  1.00  0.00    +0.0621  H
ATOM     32 H45  665 L   1      14.150  -5.805  -1.755  1.00  0.00    +0.0621  H
BRANCH 26 33
ATOM     33 C17  665 L   1      12.469  -5.142   0.233  1.00  0.00    +0.1179  C
ATOM     34 H46  665 L   1      13.370  -5.319   0.783  1.00  0.00    +0.0749  H
ATOM     35 H47  665 L   1      12.521  -4.182  -0.237  1.00  0.00    +0.0749  H
BRANCH 33 36
ATOM     36  O1  665 L   1      11.356  -5.176   1.119  1.00  0.00    -0.4564 OA
BRANCH 36 38
ATOM     37  O3  665 L   1      12.332  -6.373   2.826  1.00  0.00    -0.2449 OA
ATOM     38 C25  665 L   1      11.639  -5.452   2.421  1.00  0.00    +0.3398  C
BRANCH 38 39
ATOM     39 C23  665 L   1      10.983  -4.470   3.321  1.00  0.00    +0.0619  A
ATOM     40 C24  665 L   1      11.664  -3.338   3.771  1.00  0.00    -0.0362  A
ATOM     41 C27  665 L   1       9.706  -2.655   5.013  1.00  0.00    -0.0502  A
ATOM     42 C28  665 L   1      11.025  -2.431   4.616  1.00  0.00    -0.0551  A
ATOM     43 C29  665 L   1       9.665  -4.695   3.717  1.00  0.00    -0.0473  A
ATOM     44 C31  665 L   1       9.026  -3.788   4.563  1.00  0.00    -0.0580  A
ATOM     45 C32  665 L   1      13.076  -3.072   3.362  1.00  0.00    -0.0389  C
ATOM     46 C34  665 L   1       9.022  -1.687   5.917  1.00  0.00    -0.0397  C
ATOM     47 H52  665 L   1      11.528  -1.593   4.950  1.00  0.00    +0.0623  H
ATOM     48 H53  665 L   1       9.162  -5.531   3.383  1.00  0.00    +0.0626  H
ATOM     49 H55  665 L   1       8.050  -3.954   4.855  1.00  0.00    +0.0620  H
ATOM     50 H56  665 L   1      13.414  -3.857   2.718  1.00  0.00    +0.0278  H
ATOM     51 H57  665 L   1      13.697  -3.032   4.232  1.00  0.00    +0.0278  H
ATOM     52 H58  665 L   1      13.127  -2.138   2.844  1.00  0.00    +0.0278  H
ATOM     53 H60  665 L   1       9.692  -0.888   6.156  1.00  0.00    +0.0278  H
ATOM     54 H61  665 L   1       8.726  -2.186   6.816  1.00  0.00    +0.0278  H
ATOM     55 H62  665 L   1       8.157  -1.292   5.427  1.00  0.00    +0.0278  H
ENDBRANCH 38 39
ENDBRANCH 36 38
ENDBRANCH 33 36
ENDBRANCH 26 33
ENDBRANCH 21 23
BRANCH 21 57
ATOM     56  N5  665 L   1      12.346 -11.489  -2.864  1.00  0.00    -0.3600  N
ATOM     57  C9  665 L   1      11.278 -10.570  -3.249  1.00  0.00    +0.0921  C
ATOM     58 H36  665 L   1      11.938 -12.348  -2.494  1.00  0.00    +0.3450 HD
ATOM     59 H37  665 L   1      12.928 -11.053  -2.149  1.00  0.00    +0.3450 HD
ATOM     60 H38  665 L   1      12.917 -11.707  -3.681  1.00  0.00    +0.3450 HD
ATOM     61 H40  665 L   1      10.681 -10.352  -2.387  1.00  0.00    +0.0926  H
ATOM     62 H41  665 L   1      10.694 -11.040  -4.012  1.00  0.00    +0.0926  H
ENDBRANCH 21 57
ENDBRANCH 19 21
ENDBRANCH 2 18
TORSDOF 8
ENDMDL
MODEL 2
REMARK VINA RESULT:    -7.358      3.555     10.878
REMARK INTER + INTRA:         -11.747
REMARK INTER:                 -10.551
REMARK INTRA:                  -1.196
REMARK UNBOUND:                -0.948
ROOT
ATOM      1  N6  665 L   1       7.426  -5.392   6.648  1.00  0.00    -0.2626 NA
ATOM      2 C16  665 L   1      10.979  -4.792   3.095  1.00  0.00    +0.0423  A
ATOM      3 C18  665 L   1      10.318  -5.904   3.619  1.00  0.00    -0.0305  A
ATOM      4 C19  665 L   1       9.352  -5.753   4.627  1.00  0.00    -0.0131  A
ATOM      5 C20  665 L   1      10.686  -3.516   3.570  1.00  0.00    -0.0377  A
ATOM      6 C21  665 L   1       9.058  -4.459   5.106  1.00  0.00    +0.0004  A
ATOM      7 C22  665 L   1       9.730  -3.346   4.571  1.00  0.00    -0.0506  A
ATOM      8 C26  665 L   1       8.672  -6.848   5.173  1.00  0.00    -0.0358  A
ATOM      9 C30  665 L   1       8.093  -4.347   6.109  1.00  0.00    +0.0353  A
ATOM     10 C33  665 L   1       7.733  -6.615   6.166  1.00  0.00    +0.0281  A
ATOM     11 H48  665 L   1      10.541  -6.847   3.262  1.00  0.00    +0.0644  H
ATOM     12 H49  665 L   1      11.176  -2.695   3.181  1.00  0.00    +0.0638  H
ATOM     13 H50  665 L   1       9.515  -2.400   4.921  1.00  0.00    +0.0625  H
ATOM     14 H51  665 L   1       8.866  -7.806   4.844  1.00  0.00    +0.0639  H
ATOM     15 H54  665 L   1       7.874  -3.402   6.462  1.00  0.00    +0.0836  H
ATOM     16 H59  665 L   1       7.238  -7.428   6.561  1.00  0.00    +0.0830  H
ENDROOT
BRANCH 2 18
ATOM     17  O2  665 L   1      13.968  -4.961   3.275  1.00  0.00    -0.2720 OA
ATOM     18  N4  665 L   1      11.936  -4.959   2.092  1.00  0.00    -0.3255  N
ATOM     19 C10  665 L   1      13.332  -5.026   2.226  1.00  0.00    +0.2381  C
ATOM     20 H35  665 L   1      11.587  -5.041   1.175  1.00  0.00    +0.1686 HD
BRANCH 19 21
ATOM     21  C7  665 L   1      14.032  -5.217   0.872  1.00  0.00    +0.1122  C
ATOM     22 H39  665 L   1      15.003  -5.640   1.026  1.00  0.00    +0.0502  H
BRANCH 21 23
ATOM     23  C8  665 L   1      13.254  -6.200   0.011  1.00  0.00    -0.0300  A
ATOM     24 C11  665 L   1      13.000  -7.489   0.479  1.00  0.00    -0.0573  A
ATOM     25 C12  665 L   1      12.793  -5.811  -1.247  1.00  0.00    -0.0573  A
ATOM     26 C13  665 L   1      11.826  -8.002  -1.568  1.00  0.00    -0.0103  A
ATOM     27 C14  665 L   1      12.287  -8.390  -0.311  1.00  0.00    -0.0551  A
ATOM     28 C15  665 L   1      12.080  -6.713  -2.037  1.00  0.00    -0.0551  A
ATOM     29 H42  665 L   1      13.341  -7.777   1.411  1.00  0.00    +0.0621  H
ATOM     30 H43  665 L   1      12.980  -4.858  -1.594  1.00  0.00    +0.0621  H
ATOM     31 H44  665 L   1      12.099  -9.345   0.036  1.00  0.00    +0.0621  H
ATOM     32 H45  665 L   1      11.739  -6.426  -2.968  1.00  0.00    +0.0621  H
BRANCH 26 33
ATOM     33 C17  665 L   1      11.063  -8.966  -2.413  1.00  0.00    +0.1179  C
ATOM     34 H46  665 L   1      11.565  -9.910  -2.421  1.00  0.00    +0.0749  H
ATOM     35 H47  665 L   1      10.078  -9.089  -2.013  1.00  0.00    +0.0749  H
BRANCH 33 36
ATOM     36  O1  665 L   1      10.976  -8.462  -3.742  1.00  0.00    -0.4564 OA
BRANCH 36 38
ATOM     37  O3  665 L   1      12.027 -10.114  -4.952  1.00  0.00    -0.2449 OA
ATOM     38 C25  665 L   1      11.071  -9.386  -4.737  1.00  0.00    +0.3398  C
BRANCH 38 39
ATOM     39 C23  665 L   1       9.833  -9.402  -5.558  1.00  0.00    +0.0619  A
ATOM     40 C24  665 L   1       9.735  -8.649  -6.728  1.00  0.00    -0.0362  A
ATOM     41 C27  665 L   1       7.485  -9.467  -7.064  1.00  0.00    -0.0502  A
ATOM     42 C28  665 L   1       8.561  -8.682  -7.481  1.00  0.00    -0.0551  A
ATOM     43 C29  665 L   1       8.758 -10.187  -5.140  1.00  0.00    -0.0473  A
ATOM     44 C31  665 L   1       7.584 -10.220  -5.893  1.00  0.00    -0.0580  A
ATOM     45 C32  665 L   1      10.871  -7.801  -7.199  1.00  0.00    -0.0389  C
ATOM     46 C34  665 L   1       6.230  -9.502  -7.867  1.00  0.00    -0.0397  C
ATOM     47 H52  665 L   1       8.487  -8.125  -8.347  1.00  0.00    +0.0623  H
ATOM     48 H53  665 L   1       8.832 -10.744  -4.276  1.00  0.00    +0.0626  H
ATOM     49 H55  665 L   1       6.790 -10.801  -5.584  1.00  0.00    +0.0620  H
ATOM     50 H56  665 L   1      11.688  -7.888  -6.514  1.00  0.00    +0.0278  H
ATOM     51 H57  665 L   1      10.556  -6.780  -7.250  1.00  0.00    +0.0278  H
ATOM     52 H58  665 L   1      11.182  -8.127  -8.169  1.00  0.00    +0.0278  H
ATOM     53 H60  665 L   1       6.336  -8.869  -8.723  1.00  0.00    +0.0278  H
ATOM     54 H61  665 L   1       5.413  -9.158  -7.268  1.00  0.00    +0.0278  H
ATOM     55 H62  665 L   1       6.039 -10.505  -8.187  1.00  0.00    +0.0278  H
ENDBRANCH 38 39
ENDBRANCH 36 38
ENDBRANCH 33 36
ENDBRANCH 26 33
ENDBRANCH 21 23
BRANCH 21 57
ATOM     56  N5  665 L   1      14.750  -2.847   1.112  1.00  0.00    -0.3600  N
ATOM     57  C9  665 L   1      14.245  -3.854   0.183  1.00  0.00    +0.0921  C
ATOM     58 H36  665 L   1      14.878  -1.963   0.619  1.00  0.00    +0.3450 HD
ATOM     59 H37  665 L   1      15.644  -3.155   1.494  1.00  0.00    +0.3450 HD
ATOM     60 H38  665 L   1      14.081  -2.720   1.871  1.00  0.00    +0.3450 HD
ATOM     61 H40  665 L   1      14.950  -3.976  -0.614  1.00  0.00    +0.0926  H
ATOM     62 H41  665 L   1      13.299  -3.518  -0.189  1.00  0.00    +0.0926  H
ENDBRANCH 21 57
ENDBRANCH 19 21
ENDBRANCH 2 18
TORSDOF 8
ENDMDL
MODEL 3
REMARK VINA RESULT:    -7.345      2.982     11.264
REMARK INTER + INTRA:         -11.728
REMARK INTER:                 -10.716
REMARK INTRA:                  -1.012
REMARK UNBOUND:                -0.948
ROOT
ATOM      1  N6  665 L   1      14.094  -2.459   2.939  1.00  0.00    -0.2626 NA
ATOM      2 C16  665 L   1      13.101  -6.350  -0.140  1.00  0.00    +0.0423  A
ATOM      3 C18  665 L   1      12.544  -5.904   1.060  1.00  0.00    -0.0305  A
ATOM      4 C19  665 L   1      13.047  -4.759   1.699  1.00  0.00    -0.0131  A
ATOM      5 C20  665 L   1      14.165  -5.662  -0.716  1.00  0.00    -0.0377  A
ATOM      6 C21  665 L   1      14.125  -4.064   1.112  1.00  0.00    +0.0004  A
ATOM      7 C22  665 L   1      14.678  -4.523  -0.095  1.00  0.00    -0.0506  A
ATOM      8 C26  665 L   1      12.510  -4.286   2.903  1.00  0.00    -0.0358  A
ATOM      9 C30  665 L   1      14.599  -2.931   1.777  1.00  0.00    +0.0353  A
ATOM     10 C33  665 L   1      13.064  -3.149   3.471  1.00  0.00    +0.0281  A
ATOM     11 H48  665 L   1      11.755  -6.419   1.481  1.00  0.00    +0.0644  H
ATOM     12 H49  665 L   1      14.575  -5.994  -1.603  1.00  0.00    +0.0638  H
ATOM     13 H50  665 L   1      15.467  -4.015  -0.524  1.00  0.00    +0.0625  H
ATOM     14 H51  665 L   1      11.722  -4.773   3.356  1.00  0.00    +0.0639  H
ATOM     15 H54  665 L   1      15.388  -2.419   1.351  1.00  0.00    +0.0836  H
ATOM     16 H59  665 L   1      12.661  -2.809   4.357  1.00  0.00    +0.0830  H
ENDROOT
BRANCH 2 18
ATOM     17  O2  665 L   1      10.442  -6.814  -1.449  1.00  0.00    -0.2720 OA
ATOM     18  N4  665 L   1      12.588  -7.490  -0.764  1.00  0.00    -0.3255  N
ATOM     19 C10  665 L   1      11.328  -7.661  -1.360  1.00  0.00    +0.2381  C
ATOM     20 H35  665 L   1      13.186  -8.271  -0.789  1.00  0.00    +0.1686 HD
BRANCH 19 21
ATOM     21  C7  665 L   1      11.151  -9.073  -1.938  1.00  0.00    +0.1122  C
ATOM     22 H39  665 L   1      10.186  -9.452  -1.673  1.00  0.00    +0.0502  H
BRANCH 21 23
ATOM     23  C8  665 L   1      11.207  -9.030  -3.457  1.00  0.00    -0.0300  A
ATOM     24 C11  665 L   1      12.078  -8.150  -4.099  1.00  0.00    -0.0573  A
ATOM     25 C12  665 L   1      10.388  -9.873  -4.209  1.00  0.00    -0.0573  A
ATOM     26 C13  665 L   1      11.310  -8.952  -6.244  1.00  0.00    -0.0103  A
ATOM     27 C14  665 L   1      12.129  -8.110  -5.492  1.00  0.00    -0.0551  A
ATOM     28 C15  665 L   1      10.439  -9.833  -5.602  1.00  0.00    -0.0551  A
ATOM     29 H42  665 L   1      12.685  -7.526  -3.543  1.00  0.00    +0.0621  H
ATOM     30 H43  665 L   1       9.744 -10.524  -3.734  1.00  0.00    +0.0621  H
ATOM     31 H44  665 L   1      12.774  -7.458  -5.967  1.00  0.00    +0.0621  H
ATOM     32 H45  665 L   1       9.832 -10.456  -6.159  1.00  0.00    +0.0621  H
BRANCH 26 33
ATOM     33 C17  665 L   1      11.364  -8.910  -7.734  1.00  0.00    +0.1179  C
ATOM     34 H46  665 L   1      11.611  -7.920  -8.055  1.00  0.00    +0.0749  H
ATOM     35 H47  665 L   1      12.109  -9.594  -8.083  1.00  0.00    +0.0749  H
BRANCH 33 36
ATOM     36  O1  665 L   1      10.095  -9.280  -8.263  1.00  0.00    -0.4564 OA
BRANCH 36 38
ATOM     37  O3  665 L   1       9.322  -7.131  -7.975  1.00  0.00    -0.2449 OA
ATOM     38 C25  665 L   1       9.175  -8.282  -8.358  1.00  0.00    +0.3398  C
BRANCH 38 39
ATOM     39 C23  665 L   1       7.931  -8.774  -9.002  1.00  0.00    +0.0619  A
ATOM     40 C24  665 L   1       6.897  -9.325  -8.245  1.00  0.00    -0.0362  A
ATOM     41 C27  665 L   1       5.615  -9.686 -10.261  1.00  0.00    -0.0502  A
ATOM     42 C28  665 L   1       5.738  -9.780  -8.875  1.00  0.00    -0.0551  A
ATOM     43 C29  665 L   1       7.808  -8.680 -10.388  1.00  0.00    -0.0473  A
ATOM     44 C31  665 L   1       6.650  -9.136 -11.019  1.00  0.00    -0.0580  A
ATOM     45 C32  665 L   1       7.002  -9.435  -6.759  1.00  0.00    -0.0389  C
ATOM     46 C34  665 L   1       4.378 -10.174 -10.936  1.00  0.00    -0.0397  C
ATOM     47 H52  665 L   1       4.972 -10.187  -8.315  1.00  0.00    +0.0623  H
ATOM     48 H53  665 L   1       8.573  -8.273 -10.947  1.00  0.00    +0.0626  H
ATOM     49 H55  665 L   1       6.559  -9.067 -12.044  1.00  0.00    +0.0620  H
ATOM     50 H56  665 L   1       7.944  -9.044  -6.438  1.00  0.00    +0.0278  H
ATOM     51 H57  665 L   1       6.927 -10.464  -6.472  1.00  0.00    +0.0278  H
ATOM     52 H58  665 L   1       6.210  -8.880  -6.302  1.00  0.00    +0.0278  H
ATOM     53 H60  665 L   1       3.700 -10.559 -10.204  1.00  0.00    +0.0278  H
ATOM     54 H61  665 L   1       4.631 -10.948 -11.630  1.00  0.00    +0.0278  H
ATOM     55 H62  665 L   1       3.914  -9.364 -11.459  1.00  0.00    +0.0278  H
ENDBRANCH 38 39
ENDBRANCH 36 38
ENDBRANCH 33 36
ENDBRANCH 26 33
ENDBRANCH 21 23
BRANCH 21 57
ATOM     56  N5  665 L   1      11.555 -11.180  -0.677  1.00  0.00    -0.3600  N
ATOM     57  C9  665 L   1      12.190 -10.035  -1.326  1.00  0.00    +0.0921  C
ATOM     58 H36  665 L   1      12.273 -11.790  -0.288  1.00  0.00    +0.3450 HD
ATOM     59 H37  665 L   1      11.005 -11.697  -1.363  1.00  0.00    +0.3450 HD
ATOM     60 H38  665 L   1      10.945 -10.851   0.071  1.00  0.00    +0.3450 HD
ATOM     61 H40  665 L   1      12.832 -10.391  -2.105  1.00  0.00    +0.0926  H
ATOM     62 H41  665 L   1      12.744  -9.499  -0.585  1.00  0.00    +0.0926  H
ENDBRANCH 21 57
ENDBRANCH 19 21
ENDBRANCH 2 18
TORSDOF 8
ENDMDL
MODEL 4
REMARK VINA RESULT:    -7.292      2.074      2.894
REMARK INTER + INTRA:         -11.651
REMARK INTER:                 -10.263
REMARK INTRA:                  -1.388
REMARK UNBOUND:                -0.948
ROOT
ATOM      1  N6  665 L   1       9.225  -7.466  -9.343  1.00  0.00    -0.2626 NA
ATOM      2 C16  665 L   1      11.115  -8.789  -4.839  1.00  0.00    +0.0423  A
ATOM      3 C18  665 L   1      11.480  -7.842  -5.797  1.00  0.00    -0.0305  A
ATOM      4 C19  665 L   1      10.741  -7.703  -6.983  1.00  0.00    -0.0131  A
ATOM      5 C20  665 L   1      10.009  -9.610  -5.053  1.00  0.00    -0.0377  A
ATOM      6 C21  665 L   1       9.622  -8.535  -7.196  1.00  0.00    +0.0004  A
ATOM      7 C22  665 L   1       9.264  -9.486  -6.224  1.00  0.00    -0.0506  A
ATOM      8 C26  665 L   1      11.081  -6.762  -7.963  1.00  0.00    -0.0358  A
ATOM      9 C30  665 L   1       8.912  -8.369  -8.386  1.00  0.00    +0.0353  A
ATOM     10 C33  665 L   1      10.302  -6.687  -9.107  1.00  0.00    +0.0281  A
ATOM     11 H48  665 L   1      12.300  -7.237  -5.632  1.00  0.00    +0.0644  H
ATOM     12 H49  665 L   1       9.742 -10.310  -4.343  1.00  0.00    +0.0638  H
ATOM     13 H50  665 L   1       8.446 -10.095  -6.380  1.00  0.00    +0.0625  H
ATOM     14 H51  665 L   1      11.894  -6.140  -7.836  1.00  0.00    +0.0639  H
ATOM     15 H54  665 L   1       8.092  -8.975  -8.546  1.00  0.00    +0.0836  H
ATOM     16 H59  665 L   1      10.560  -5.991  -9.822  1.00  0.00    +0.0830  H
ENDROOT
BRANCH 2 18
ATOM     17  O2  665 L   1      10.403  -8.096  -2.009  1.00  0.00    -0.2720 OA
ATOM     18  N4  665 L   1      11.859  -8.914  -3.664  1.00  0.00    -0.3255  N
ATOM     19 C10  665 L   1      11.482  -8.568  -2.356  1.00  0.00    +0.2381  C
ATOM     20 H35  665 L   1      12.761  -9.294  -3.766  1.00  0.00    +0.1686 HD
BRANCH 19 21
ATOM     21  C7  665 L   1      12.594  -8.864  -1.339  1.00  0.00    +0.1122  C
ATOM     22 H39  665 L   1      13.469  -9.205  -1.852  1.00  0.00    +0.0502  H
BRANCH 21 23
ATOM     23  C8  665 L   1      12.984  -7.593  -0.601  1.00  0.00    -0.0300  A
ATOM     24 C11  665 L   1      13.526  -6.516  -1.302  1.00  0.00    -0.0573  A
ATOM     25 C12  665 L   1      12.798  -7.504   0.780  1.00  0.00    -0.0573  A
ATOM     26 C13  665 L   1      13.698  -5.262   0.755  1.00  0.00    -0.0103  A
ATOM     27 C14  665 L   1      13.884  -5.351  -0.624  1.00  0.00    -0.0551  A
ATOM     28 C15  665 L   1      13.156  -6.338   1.457  1.00  0.00    -0.0551  A
ATOM     29 H42  665 L   1      13.664  -6.581  -2.323  1.00  0.00    +0.0621  H
ATOM     30 H43  665 L   1      12.397  -8.300   1.299  1.00  0.00    +0.0621  H
ATOM     31 H44  665 L   1      14.286  -4.554  -1.143  1.00  0.00    +0.0621  H
ATOM     32 H45  665 L   1      13.019  -6.273   2.479  1.00  0.00    +0.0621  H
BRANCH 26 33
ATOM     33 C17  665 L   1      14.080  -4.016   1.481  1.00  0.00    +0.1179  C
ATOM     34 H46  665 L   1      15.137  -3.866   1.403  1.00  0.00    +0.0749  H
ATOM     35 H47  665 L   1      13.569  -3.181   1.050  1.00  0.00    +0.0749  H
BRANCH 33 36
ATOM     36  O1  665 L   1      13.718  -4.138   2.852  1.00  0.00    -0.4564 OA
BRANCH 36 38
ATOM     37  O3  665 L   1      13.413  -1.909   3.342  1.00  0.00    -0.2449 OA
ATOM     38 C25  665 L   1      13.057  -3.077   3.391  1.00  0.00    +0.3398  C
BRANCH 38 39
ATOM     39 C23  665 L   1      11.813  -3.522   4.068  1.00  0.00    +0.0619  A
ATOM     40 C24  665 L   1      11.853  -4.119   5.329  1.00  0.00    -0.0362  A
ATOM     41 C27  665 L   1       9.446  -4.342   5.297  1.00  0.00    -0.0502  A
ATOM     42 C28  665 L   1      10.669  -4.528   5.943  1.00  0.00    -0.0551  A
ATOM     43 C29  665 L   1      10.591  -3.336   3.422  1.00  0.00    -0.0473  A
ATOM     44 C31  665 L   1       9.407  -3.746   4.036  1.00  0.00    -0.0580  A
ATOM     45 C32  665 L   1      13.148  -4.329   6.043  1.00  0.00    -0.0389  C
ATOM     46 C34  665 L   1       8.181  -4.781   5.952  1.00  0.00    -0.0397  C
ATOM     47 H52  665 L   1      10.698  -4.970   6.876  1.00  0.00    +0.0623  H
ATOM     48 H53  665 L   1      10.562  -2.894   2.491  1.00  0.00    +0.0626  H
ATOM     49 H55  665 L   1       8.504  -3.608   3.558  1.00  0.00    +0.0620  H
ATOM     50 H56  665 L   1      13.951  -3.962   5.440  1.00  0.00    +0.0278  H
ATOM     51 H57  665 L   1      13.288  -5.374   6.227  1.00  0.00    +0.0278  H
ATOM     52 H58  665 L   1      13.131  -3.803   6.975  1.00  0.00    +0.0278  H
ATOM     53 H60  665 L   1       8.403  -5.212   6.905  1.00  0.00    +0.0278  H
ATOM     54 H61  665 L   1       7.693  -5.507   5.337  1.00  0.00    +0.0278  H
ATOM     55 H62  665 L   1       7.537  -3.937   6.085  1.00  0.00    +0.0278  H
ENDBRANCH 38 39
ENDBRANCH 36 38
ENDBRANCH 33 36
ENDBRANCH 26 33
ENDBRANCH 21 23
BRANCH 21 57
ATOM     56  N5  665 L   1      11.119 -10.834  -0.979  1.00  0.00    -0.3600  N
ATOM     57  C9  665 L   1      12.163 -10.001  -0.391  1.00  0.00    +0.0921  C
ATOM     58 H36  665 L   1      10.863 -11.573  -0.323  1.00  0.00    +0.3450 HD
ATOM     59 H37  665 L   1      11.465 -11.252  -1.843  1.00  0.00    +0.3450 HD
ATOM     60 H38  665 L   1      10.301 -10.261  -1.183  1.00  0.00    +0.3450 HD
ATOM     61 H40  665 L   1      13.015 -10.612  -0.175  1.00  0.00    +0.0926  H
ATOM     62 H41  665 L   1      11.771  -9.559   0.502  1.00  0.00    +0.0926  H
ENDBRANCH 21 57
ENDBRANCH 19 21
ENDBRANCH 2 18
TORSDOF 8
ENDMDL
MODEL 5
REMARK VINA RESULT:    -7.240      1.001      1.997
REMARK INTER + INTRA:         -11.575
REMARK INTER:                 -10.957
REMARK INTRA:                  -0.618
REMARK UNBOUND:                -0.948
ROOT
ATOM      1  N6  665 L   1       6.774  -8.470 -10.105  1.00  0.00    -0.2626 NA
ATOM      2 C16  665 L   1      10.375  -8.732  -6.560  1.00  0.00    +0.0423  A
ATOM      3 C18  665 L   1       9.045  -9.150  -6.615  1.00  0.00    -0.0305  A
ATOM      4 C19  665 L   1       8.274  -8.933  -7.768  1.00  0.00    -0.0131  A
ATOM      5 C20  665 L   1      10.953  -8.091  -7.653  1.00  0.00    -0.0377  A
ATOM      6 C21  665 L   1       8.862  -8.283  -8.874  1.00  0.00    +0.0004  A
ATOM      7 C22  665 L   1      10.203  -7.866  -8.807  1.00  0.00    -0.0506  A
ATOM      8 C26  665 L   1       6.937  -9.341  -7.855  1.00  0.00    -0.0358  A
ATOM      9 C30  665 L   1       8.065  -8.083 -10.002  1.00  0.00    +0.0353  A
ATOM     10 C33  665 L   1       6.244  -9.088  -9.028  1.00  0.00    +0.0281  A
ATOM     11 H48  665 L   1       8.623  -9.625  -5.801  1.00  0.00    +0.0644  H
ATOM     12 H49  665 L   1      11.937  -7.782  -7.609  1.00  0.00    +0.0638  H
ATOM     13 H50  665 L   1      10.633  -7.391  -9.615  1.00  0.00    +0.0625  H
ATOM     14 H51  665 L   1       6.479  -9.818  -7.063  1.00  0.00    +0.0639  H
ATOM     15 H54  665 L   1       8.491  -7.609 -10.814  1.00  0.00    +0.0836  H
ATOM     16 H59  665 L   1       5.260  -9.393  -9.082  1.00  0.00    +0.0830  H
ENDROOT
BRANCH 2 18
ATOM     17  O2  665 L   1      12.831  -7.341  -5.545  1.00  0.00    -0.2720 OA
ATOM     18  N4  665 L   1      11.129  -8.958  -5.406  1.00  0.00    -0.3255  N
ATOM     19 C10  665 L   1      12.281  -8.280  -4.975  1.00  0.00    +0.2381  C
ATOM     20 H35  665 L   1      10.812  -9.683  -4.821  1.00  0.00    +0.1686 HD
BRANCH 19 21
ATOM     21  C7  665 L   1      12.812  -8.836  -3.645  1.00  0.00    +0.1122  C
ATOM     22 H39  665 L   1      13.876  -8.938  -3.698  1.00  0.00    +0.0502  H
BRANCH 21 23
ATOM     23  C8  665 L   1      12.518  -7.863  -2.514  1.00  0.00    -0.0300  A
ATOM     24 C11  665 L   1      11.341  -7.988  -1.774  1.00  0.00    -0.0573  A
ATOM     25 C12  665 L   1      13.425  -6.846  -2.215  1.00  0.00    -0.0573  A
ATOM     26 C13  665 L   1      11.978  -6.079  -0.438  1.00  0.00    -0.0103  A
ATOM     27 C14  665 L   1      11.071  -7.095  -0.737  1.00  0.00    -0.0551  A
ATOM     28 C15  665 L   1      13.154  -5.953  -1.178  1.00  0.00    -0.0551  A
ATOM     29 H42  665 L   1      10.670  -8.741  -1.995  1.00  0.00    +0.0621  H
ATOM     30 H43  665 L   1      14.295  -6.753  -2.762  1.00  0.00    +0.0621  H
ATOM     31 H44  665 L   1      10.200  -7.188  -0.190  1.00  0.00    +0.0621  H
ATOM     32 H45  665 L   1      13.825  -5.200  -0.957  1.00  0.00    +0.0621  H
BRANCH 26 33
ATOM     33 C17  665 L   1      11.689  -5.124   0.671  1.00  0.00    +0.1179  C
ATOM     34 H46  665 L   1      12.599  -4.882   1.179  1.00  0.00    +0.0749  H
ATOM     35 H47  665 L   1      11.256  -4.232   0.270  1.00  0.00    +0.0749  H
BRANCH 33 36
ATOM     36  O1  665 L   1      10.779  -5.725   1.586  1.00  0.00    -0.4564 OA
BRANCH 36 38
ATOM     37  O3  665 L   1      11.971  -6.641   3.329  1.00  0.00    -0.2449 OA
ATOM     38 C25  665 L   1      11.200  -5.808   2.877  1.00  0.00    +0.3398  C
BRANCH 38 39
ATOM     39 C23  665 L   1      10.588  -4.733   3.699  1.00  0.00    +0.0619  A
ATOM     40 C24  665 L   1       9.303  -4.870   4.225  1.00  0.00    -0.0362  A
ATOM     41 C27  665 L   1       9.485  -2.682   5.236  1.00  0.00    -0.0502  A
ATOM     42 C28  665 L   1       8.753  -3.844   4.994  1.00  0.00    -0.0551  A
ATOM     43 C29  665 L   1      11.322  -3.571   3.941  1.00  0.00    -0.0473  A
ATOM     44 C31  665 L   1      10.770  -2.545   4.709  1.00  0.00    -0.0580  A
ATOM     45 C32  665 L   1       8.497  -6.104   3.983  1.00  0.00    -0.0389  C
ATOM     46 C34  665 L   1       8.897  -1.585   6.056  1.00  0.00    -0.0397  C
ATOM     47 H52  665 L   1       7.802  -3.945   5.383  1.00  0.00    +0.0623  H
ATOM     48 H53  665 L   1      12.272  -3.471   3.552  1.00  0.00    +0.0626  H
ATOM     49 H55  665 L   1      11.313  -1.686   4.887  1.00  0.00    +0.0620  H
ATOM     50 H56  665 L   1       9.061  -6.786   3.381  1.00  0.00    +0.0278  H
ATOM     51 H57  665 L   1       7.592  -5.844   3.475  1.00  0.00    +0.0278  H
ATOM     52 H58  665 L   1       8.261  -6.565   4.918  1.00  0.00    +0.0278  H
ATOM     53 H60  665 L   1       7.914  -1.863   6.372  1.00  0.00    +0.0278  H
ATOM     54 H61  665 L   1       8.844  -0.691   5.471  1.00  0.00    +0.0278  H
ATOM     55 H62  665 L   1       9.512  -1.412   6.914  1.00  0.00    +0.0278  H
ENDBRANCH 38 39
ENDBRANCH 36 38
ENDBRANCH 33 36
ENDBRANCH 26 33
ENDBRANCH 21 23
BRANCH 21 57
ATOM     56  N5  665 L   1      13.281 -11.186  -2.977  1.00  0.00    -0.3600  N
ATOM     57  C9  665 L   1      12.242 -10.245  -3.388  1.00  0.00    +0.0921  C
ATOM     58 H36  665 L   1      12.864 -12.103  -2.816  1.00  0.00    +0.3450 HD
ATOM     59 H37  665 L   1      13.717 -10.856  -2.116  1.00  0.00    +0.3450 HD
ATOM     60 H38  665 L   1      13.986 -11.256  -3.710  1.00  0.00    +0.3450 HD
ATOM     61 H40  665 L   1      11.504 -10.184  -2.615  1.00  0.00    +0.0926  H
ATOM     62 H41  665 L   1      11.814 -10.602  -4.301  1.00  0.00    +0.0926  H
ENDBRANCH 21 57
ENDBRANCH 19 21
ENDBRANCH 2 18
TORSDOF 8
ENDMDL
MODEL 6
REMARK VINA RESULT:    -7.216      1.471      2.298
REMARK INTER + INTRA:         -11.539
REMARK INTER:                 -10.676
REMARK INTRA:                  -0.863
REMARK UNBOUND:                -0.948
ROOT
ATOM      1  N6  665 L   1       7.411  -8.220 -10.526  1.00  0.00    -0.2626 NA
ATOM      2 C16  665 L   1      10.323  -8.436  -6.393  1.00  0.00    +0.0423  A
ATOM      3 C18  665 L   1       9.069  -8.957  -6.716  1.00  0.00    -0.0305  A
ATOM      4 C19  665 L   1       8.502  -8.722  -7.980  1.00  0.00    -0.0131  A
ATOM      5 C20  665 L   1      11.026  -7.675  -7.324  1.00  0.00    -0.0377  A
ATOM      6 C21  665 L   1       9.217  -7.950  -8.920  1.00  0.00    +0.0004  A
ATOM      7 C22  665 L   1      10.478  -7.431  -8.582  1.00  0.00    -0.0506  A
ATOM      8 C26  665 L   1       7.247  -9.230  -8.335  1.00  0.00    -0.0358  A
ATOM      9 C30  665 L   1       8.621  -7.737 -10.164  1.00  0.00    +0.0353  A
ATOM     10 C33  665 L   1       6.755  -8.953  -9.601  1.00  0.00    +0.0281  A
ATOM     11 H48  665 L   1       8.554  -9.520  -6.022  1.00  0.00    +0.0644  H
ATOM     12 H49  665 L   1      11.953  -7.290  -7.081  1.00  0.00    +0.0638  H
ATOM     13 H50  665 L   1      11.001  -6.867  -9.270  1.00  0.00    +0.0625  H
ATOM     14 H51  665 L   1       6.700  -9.798  -7.668  1.00  0.00    +0.0639  H
ATOM     15 H54  665 L   1       9.140  -7.173 -10.856  1.00  0.00    +0.0836  H
ATOM     16 H59  665 L   1       5.830  -9.333  -9.853  1.00  0.00    +0.0830  H
ENDROOT
BRANCH 2 18
ATOM     17  O2  665 L   1      12.932  -7.544  -5.212  1.00  0.00    -0.2720 OA
ATOM     18  N4  665 L   1      10.874  -8.680  -5.133  1.00  0.00    -0.3255  N
ATOM     19 C10  665 L   1      12.110  -8.244  -4.626  1.00  0.00    +0.2381  C
ATOM     20 H35  665 L   1      10.328  -9.226  -4.524  1.00  0.00    +0.1686 HD
BRANCH 19 21
ATOM     21  C7  665 L   1      12.346  -8.730  -3.188  1.00  0.00    +0.1122  C
ATOM     22 H39  665 L   1      13.034  -9.549  -3.194  1.00  0.00    +0.0502  H
BRANCH 21 23
ATOM     23  C8  665 L   1      12.981  -7.626  -2.358  1.00  0.00    -0.0300  A
ATOM     24 C11  665 L   1      12.210  -6.545  -1.927  1.00  0.00    -0.0573  A
ATOM     25 C12  665 L   1      14.334  -7.693  -2.025  1.00  0.00    -0.0573  A
ATOM     26 C13  665 L   1      14.146  -5.600  -0.834  1.00  0.00    -0.0103  A
ATOM     27 C14  665 L   1      12.794  -5.532  -1.166  1.00  0.00    -0.0551  A
ATOM     28 C15  665 L   1      14.917  -6.680  -1.264  1.00  0.00    -0.0551  A
ATOM     29 H42  665 L   1      11.209  -6.495  -2.172  1.00  0.00    +0.0621  H
ATOM     30 H43  665 L   1      14.904  -8.493  -2.344  1.00  0.00    +0.0621  H
ATOM     31 H44  665 L   1      12.223  -4.732  -0.847  1.00  0.00    +0.0621  H
ATOM     32 H45  665 L   1      15.918  -6.730  -1.019  1.00  0.00    +0.0621  H
BRANCH 26 33
ATOM     33 C17  665 L   1      14.770  -4.517  -0.019  1.00  0.00    +0.1179  C
ATOM     34 H46  665 L   1      15.578  -4.921   0.553  1.00  0.00    +0.0749  H
ATOM     35 H47  665 L   1      15.140  -3.751  -0.668  1.00  0.00    +0.0749  H
BRANCH 33 36
ATOM     36  O1  665 L   1      13.795  -3.965   0.858  1.00  0.00    -0.4564 OA
BRANCH 36 38
ATOM     37  O3  665 L   1      14.617  -5.221   2.603  1.00  0.00    -0.2449 OA
ATOM     38 C25  665 L   1      13.809  -4.432   2.136  1.00  0.00    +0.3398  C
BRANCH 38 39
ATOM     39 C23  665 L   1      12.690  -3.851   2.921  1.00  0.00    +0.0619  A
ATOM     40 C24  665 L   1      11.422  -4.433   2.905  1.00  0.00    -0.0362  A
ATOM     41 C27  665 L   1      10.621  -2.720   4.411  1.00  0.00    -0.0502  A
ATOM     42 C28  665 L   1      10.388  -3.867   3.651  1.00  0.00    -0.0551  A
ATOM     43 C29  665 L   1      12.924  -2.705   3.679  1.00  0.00    -0.0473  A
ATOM     44 C31  665 L   1      11.889  -2.139   4.425  1.00  0.00    -0.0580  A
ATOM     45 C32  665 L   1      11.145  -5.662   2.103  1.00  0.00    -0.0389  C
ATOM     46 C34  665 L   1       9.516  -2.114   5.207  1.00  0.00    -0.0397  C
ATOM     47 H52  665 L   1       9.449  -4.297   3.641  1.00  0.00    +0.0623  H
ATOM     48 H53  665 L   1      13.862  -2.276   3.691  1.00  0.00    +0.0626  H
ATOM     49 H55  665 L   1      12.062  -1.290   4.986  1.00  0.00    +0.0620  H
ATOM     50 H56  665 L   1      12.037  -5.964   1.595  1.00  0.00    +0.0278  H
ATOM     51 H57  665 L   1      10.379  -5.453   1.385  1.00  0.00    +0.0278  H
ATOM     52 H58  665 L   1      10.820  -6.447   2.752  1.00  0.00    +0.0278  H
ATOM     53 H60  665 L   1       8.624  -2.690   5.076  1.00  0.00    +0.0278  H
ATOM     54 H61  665 L   1       9.345  -1.111   4.875  1.00  0.00    +0.0278  H
ATOM     55 H62  665 L   1       9.785  -2.105   6.242  1.00  0.00    +0.0278  H
ENDBRANCH 38 39
ENDBRANCH 36 38
ENDBRANCH 33 36
ENDBRANCH 26 33
ENDBRANCH 21 23
BRANCH 21 57
ATOM     56  N5  665 L   1      11.269 -10.058  -1.381  1.00  0.00    -0.3600  N
ATOM     57  C9  665 L   1      11.031  -9.258  -2.579  1.00  0.00    +0.0921  C
ATOM     58 H36  665 L   1      10.378 -10.387  -1.009  1.00  0.00    +0.3450 HD
ATOM     59 H37  665 L   1      11.740  -9.487  -0.679  1.00  0.00    +0.3450 HD
ATOM     60 H38  665 L   1      11.856 -10.858  -1.617  1.00  0.00    +0.3450 HD
ATOM     61 H40  665 L   1      10.410  -8.425  -2.322  1.00  0.00    +0.0926  H
ATOM     62 H41  665 L   1      10.555  -9.883  -3.306  1.00  0.00    +0.0926  H
ENDBRANCH 21 57
ENDBRANCH 19 21
ENDBRANCH 2 18
TORSDOF 8
ENDMDL
MODEL 7
REMARK VINA RESULT:    -7.205      1.765      2.627
REMARK INTER + INTRA:         -11.522
REMARK INTER:                 -10.208
REMARK INTRA:                  -1.315
REMARK UNBOUND:                -0.948
ROOT
ATOM      1  N6  665 L   1       6.723  -9.454  -8.231  1.00  0.00    -0.2626 NA
ATOM      2 C16  665 L   1      10.667  -9.004  -5.092  1.00  0.00    +0.0423  A
ATOM      3 C18  665 L   1       9.443  -9.671  -5.013  1.00  0.00    -0.0305  A
ATOM      4 C19  665 L   1       8.526  -9.611  -6.075  1.00  0.00    -0.0131  A
ATOM      5 C20  665 L   1      10.990  -8.268  -6.230  1.00  0.00    -0.0377  A
ATOM      6 C21  665 L   1       8.857  -8.864  -7.225  1.00  0.00    +0.0004  A
ATOM      7 C22  665 L   1      10.091  -8.195  -7.293  1.00  0.00    -0.0506  A
ATOM      8 C26  665 L   1       7.291 -10.269  -6.026  1.00  0.00    -0.0358  A
ATOM      9 C30  665 L   1       7.920  -8.825  -8.259  1.00  0.00    +0.0353  A
ATOM     10 C33  665 L   1       6.440 -10.159  -7.115  1.00  0.00    +0.0281  A
ATOM     11 H48  665 L   1       9.211 -10.216  -4.167  1.00  0.00    +0.0644  H
ATOM     12 H49  665 L   1      11.895  -7.775  -6.285  1.00  0.00    +0.0638  H
ATOM     13 H50  665 L   1      10.333  -7.649  -8.134  1.00  0.00    +0.0625  H
ATOM     14 H51  665 L   1       7.021 -10.822  -5.199  1.00  0.00    +0.0639  H
ATOM     15 H54  665 L   1       8.158  -8.280  -9.104  1.00  0.00    +0.0836  H
ATOM     16 H59  665 L   1       5.534 -10.648  -7.070  1.00  0.00    +0.0830  H
ENDROOT
BRANCH 2 18
ATOM     17  O2  665 L   1      10.362  -8.158  -2.231  1.00  0.00    -0.2720 OA
ATOM     18  N4  665 L   1      11.569  -9.076  -4.029  1.00  0.00    -0.3255  N
ATOM     19 C10  665 L   1      11.381  -8.658  -2.701  1.00  0.00    +0.2381  C
ATOM     20 H35  665 L   1      12.447  -9.469  -4.236  1.00  0.00    +0.1686 HD
BRANCH 19 21
ATOM     21  C7  665 L   1      12.625  -8.913  -1.836  1.00  0.00    +0.1122  C
ATOM     22 H39  665 L   1      13.466  -9.115  -2.466  1.00  0.00    +0.0502  H
BRANCH 21 23
ATOM     23  C8  665 L   1      12.968  -7.670  -1.029  1.00  0.00    -0.0300  A
ATOM     24 C11  665 L   1      12.696  -7.629   0.339  1.00  0.00    -0.0573  A
ATOM     25 C12  665 L   1      13.555  -6.571  -1.657  1.00  0.00    -0.0573  A
ATOM     26 C13  665 L   1      13.596  -5.390   0.451  1.00  0.00    -0.0103  A
ATOM     27 C14  665 L   1      13.010  -6.489   1.078  1.00  0.00    -0.0551  A
ATOM     28 C15  665 L   1      13.868  -5.431  -0.917  1.00  0.00    -0.0551  A
ATOM     29 H42  665 L   1      12.262  -8.442   0.804  1.00  0.00    +0.0621  H
ATOM     30 H43  665 L   1      13.755  -6.601  -2.669  1.00  0.00    +0.0621  H
ATOM     31 H44  665 L   1      12.808  -6.459   2.091  1.00  0.00    +0.0621  H
ATOM     32 H45  665 L   1      14.302  -4.617  -1.382  1.00  0.00    +0.0621  H
BRANCH 26 33
ATOM     33 C17  665 L   1      13.932  -4.171   1.241  1.00  0.00    +0.1179  C
ATOM     34 H46  665 L   1      14.984  -3.987   1.184  1.00  0.00    +0.0749  H
ATOM     35 H47  665 L   1      13.401  -3.331   0.845  1.00  0.00    +0.0749  H
BRANCH 33 36
ATOM     36  O1  665 L   1      13.557  -4.371   2.599  1.00  0.00    -0.4564 OA
BRANCH 36 38
ATOM     37  O3  665 L   1      13.506  -2.159   3.233  1.00  0.00    -0.2449 OA
ATOM     38 C25  665 L   1      13.040  -3.288   3.241  1.00  0.00    +0.3398  C
BRANCH 38 39
ATOM     39 C23  665 L   1      11.803  -3.654   3.976  1.00  0.00    +0.0619  A
ATOM     40 C24  665 L   1      11.859  -4.158   5.276  1.00  0.00    -0.0362  A
ATOM     41 C27  665 L   1       9.449  -4.328   5.313  1.00  0.00    -0.0502  A
ATOM     42 C28  665 L   1      10.682  -4.494   5.944  1.00  0.00    -0.0551  A
ATOM     43 C29  665 L   1      10.570  -3.488   3.345  1.00  0.00    -0.0473  A
ATOM     44 C31  665 L   1       9.393  -3.825   4.013  1.00  0.00    -0.0580  A
ATOM     45 C32  665 L   1      13.166  -4.344   5.976  1.00  0.00    -0.0389  C
ATOM     46 C34  665 L   1       8.190  -4.689   6.026  1.00  0.00    -0.0397  C
ATOM     47 H52  665 L   1      10.723  -4.867   6.906  1.00  0.00    +0.0623  H
ATOM     48 H53  665 L   1      10.529  -3.115   2.384  1.00  0.00    +0.0626  H
ATOM     49 H55  665 L   1       8.481  -3.702   3.546  1.00  0.00    +0.0620  H
ATOM     50 H56  665 L   1      13.963  -4.040   5.330  1.00  0.00    +0.0278  H
ATOM     51 H57  665 L   1      13.288  -5.375   6.233  1.00  0.00    +0.0278  H
ATOM     52 H58  665 L   1      13.182  -3.751   6.866  1.00  0.00    +0.0278  H
ATOM     53 H60  665 L   1       8.425  -5.054   7.004  1.00  0.00    +0.0278  H
ATOM     54 H61  665 L   1       7.673  -5.448   5.477  1.00  0.00    +0.0278  H
ATOM     55 H62  665 L   1       7.567  -3.823   6.110  1.00  0.00    +0.0278  H
ENDBRANCH 38 39
ENDBRANCH 36 38
ENDBRANCH 33 36
ENDBRANCH 26 33
ENDBRANCH 21 23
BRANCH 21 57
ATOM     56  N5  665 L   1      11.089 -10.739  -1.133  1.00  0.00    -0.3600  N
ATOM     57  C9  665 L   1      12.418 -10.161  -0.955  1.00  0.00    +0.0921  C
ATOM     58 H36  665 L   1      10.992 -11.561  -0.536  1.00  0.00    +0.3450 HD
ATOM     59 H37  665 L   1      10.965 -11.011  -2.108  1.00  0.00    +0.3450 HD
ATOM     60 H38  665 L   1      10.382 -10.049  -0.881  1.00  0.00    +0.3450 HD
ATOM     61 H40  665 L   1      13.153 -10.895  -1.217  1.00  0.00    +0.0926  H
ATOM     62 H41  665 L   1      12.517  -9.866   0.069  1.00  0.00    +0.0926  H
ENDBRANCH 21 57
ENDBRANCH 19 21
ENDBRANCH 2 18
TORSDOF 8
ENDMDL
MODEL 8
REMARK VINA RESULT:    -7.094      3.049     11.368
REMARK INTER + INTRA:         -11.359
REMARK INTER:                 -10.330
REMARK INTRA:                  -1.030
REMARK UNBOUND:                -0.948
ROOT
ATOM      1  N6  665 L   1      14.402  -2.799   2.788  1.00  0.00    -0.2626 NA
ATOM      2 C16  665 L   1      13.139  -6.471  -0.456  1.00  0.00    +0.0423  A
ATOM      3 C18  665 L   1      12.645  -6.071   0.787  1.00  0.00    -0.0305  A
ATOM      4 C19  665 L   1      13.217  -4.984   1.467  1.00  0.00    -0.0131  A
ATOM      5 C20  665 L   1      14.210  -5.794  -1.034  1.00  0.00    -0.0377  A
ATOM      6 C21  665 L   1      14.302  -4.300   0.878  1.00  0.00    +0.0004  A
ATOM      7 C22  665 L   1      14.792  -4.713  -0.373  1.00  0.00    -0.0506  A
ATOM      8 C26  665 L   1      12.744  -4.557   2.714  1.00  0.00    -0.0358  A
ATOM      9 C30  665 L   1      14.846  -3.225   1.584  1.00  0.00    +0.0353  A
ATOM     10 C33  665 L   1      13.364  -3.476   3.321  1.00  0.00    +0.0281  A
ATOM     11 H48  665 L   1      11.851  -6.577   1.209  1.00  0.00    +0.0644  H
ATOM     12 H49  665 L   1      14.574  -6.093  -1.953  1.00  0.00    +0.0638  H
ATOM     13 H50  665 L   1      15.585  -4.213  -0.803  1.00  0.00    +0.0625  H
ATOM     14 H51  665 L   1      11.953  -5.038   3.170  1.00  0.00    +0.0639  H
ATOM     15 H54  665 L   1      15.639  -2.722   1.157  1.00  0.00    +0.0836  H
ATOM     16 H59  665 L   1      13.008  -3.170   4.239  1.00  0.00    +0.0830  H
ENDROOT
BRANCH 2 18
ATOM     17  O2  665 L   1      10.385  -6.792  -1.600  1.00  0.00    -0.2720 OA
ATOM     18  N4  665 L   1      12.558  -7.553  -1.120  1.00  0.00    -0.3255  N
ATOM     19 C10  665 L   1      11.255  -7.659  -1.635  1.00  0.00    +0.2381  C
ATOM     20 H35  665 L   1      13.135  -8.341  -1.244  1.00  0.00    +0.1686 HD
BRANCH 19 21
ATOM     21  C7  665 L   1      11.007  -9.022  -2.297  1.00  0.00    +0.1122  C
ATOM     22 H39  665 L   1       9.990  -9.318  -2.141  1.00  0.00    +0.0502  H
BRANCH 21 23
ATOM     23  C8  665 L   1      11.211  -8.922  -3.800  1.00  0.00    -0.0300  A
ATOM     24 C11  665 L   1      12.186  -8.068  -4.317  1.00  0.00    -0.0573  A
ATOM     25 C12  665 L   1      10.423  -9.684  -4.664  1.00  0.00    -0.0573  A
ATOM     26 C13  665 L   1      11.584  -8.737  -6.559  1.00  0.00    -0.0103  A
ATOM     27 C14  665 L   1      12.372  -7.975  -5.696  1.00  0.00    -0.0551  A
ATOM     28 C15  665 L   1      10.609  -9.590  -6.043  1.00  0.00    -0.0551  A
ATOM     29 H42  665 L   1      12.769  -7.504  -3.678  1.00  0.00    +0.0621  H
ATOM     30 H43  665 L   1       9.701 -10.315  -4.282  1.00  0.00    +0.0621  H
ATOM     31 H44  665 L   1      13.094  -7.343  -6.078  1.00  0.00    +0.0621  H
ATOM     32 H45  665 L   1      10.026 -10.154  -6.682  1.00  0.00    +0.0621  H
BRANCH 26 33
ATOM     33 C17  665 L   1      11.784  -8.638  -8.034  1.00  0.00    +0.1179  C
ATOM     34 H46  665 L   1      12.034  -7.631  -8.294  1.00  0.00    +0.0749  H
ATOM     35 H47  665 L   1      12.577  -9.292  -8.331  1.00  0.00    +0.0749  H
BRANCH 33 36
ATOM     36  O1  665 L   1      10.584  -9.017  -8.699  1.00  0.00    -0.4564 OA
BRANCH 36 38
ATOM     37  O3  665 L   1      10.094  -6.815  -9.159  1.00  0.00    -0.2449 OA
ATOM     38 C25  665 L   1       9.786  -7.996  -9.116  1.00  0.00    +0.3398  C
BRANCH 38 39
ATOM     39 C23  665 L   1       8.452  -8.506  -9.526  1.00  0.00    +0.0619  A
ATOM     40 C24  665 L   1       8.141  -8.709 -10.871  1.00  0.00    -0.0362  A
ATOM     41 C27  665 L   1       5.932  -9.462 -10.243  1.00  0.00    -0.0502  A
ATOM     42 C28  665 L   1       6.880  -9.188 -11.228  1.00  0.00    -0.0551  A
ATOM     43 C29  665 L   1       7.504  -8.780  -8.540  1.00  0.00    -0.0473  A
ATOM     44 C31  665 L   1       6.244  -9.258  -8.898  1.00  0.00    -0.0580  A
ATOM     45 C32  665 L   1       9.138  -8.425 -11.946  1.00  0.00    -0.0389  C
ATOM     46 C34  665 L   1       4.584  -9.973 -10.624  1.00  0.00    -0.0397  C
ATOM     47 H52  665 L   1       6.649  -9.338 -12.223  1.00  0.00    +0.0623  H
ATOM     48 H53  665 L   1       7.736  -8.630  -7.546  1.00  0.00    +0.0626  H
ATOM     49 H55  665 L   1       5.543  -9.461  -8.169  1.00  0.00    +0.0620  H
ATOM     50 H56  665 L   1      10.045  -8.068 -11.506  1.00  0.00    +0.0278  H
ATOM     51 H57  665 L   1       8.746  -7.681 -12.608  1.00  0.00    +0.0278  H
ATOM     52 H58  665 L   1       9.335  -9.321 -12.495  1.00  0.00    +0.0278  H
ATOM     53 H60  665 L   1       4.526 -10.067 -11.689  1.00  0.00    +0.0278  H
ATOM     54 H61  665 L   1       3.834  -9.289 -10.285  1.00  0.00    +0.0278  H
ATOM     55 H62  665 L   1       4.424 -10.930 -10.174  1.00  0.00    +0.0278  H
ENDBRANCH 38 39
ENDBRANCH 36 38
ENDBRANCH 33 36
ENDBRANCH 26 33
ENDBRANCH 21 23
BRANCH 21 57
ATOM     56  N5  665 L   1      11.104 -11.251  -1.195  1.00  0.00    -0.3600  N
ATOM     57  C9  665 L   1      11.890 -10.104  -1.643  1.00  0.00    +0.0921  C
ATOM     58 H36  665 L   1      11.722 -11.942  -0.771  1.00  0.00    +0.3450 HD
ATOM     59 H37  665 L   1      10.626 -11.668  -1.993  1.00  0.00    +0.3450 HD
ATOM     60 H38  665 L   1      10.415 -10.943  -0.509  1.00  0.00    +0.3450 HD
ATOM     61 H40  665 L   1      12.613 -10.438  -2.358  1.00  0.00    +0.0926  H
ATOM     62 H41  665 L   1      12.365  -9.673  -0.787  1.00  0.00    +0.0926  H
ENDBRANCH 21 57
ENDBRANCH 19 21
ENDBRANCH 2 18
TORSDOF 8
ENDMDL
MODEL 9
REMARK VINA RESULT:    -7.011      3.280     11.416
REMARK INTER + INTRA:         -11.238
REMARK INTER:                 -10.117
REMARK INTRA:                  -1.121
REMARK UNBOUND:                -0.948
ROOT
ATOM      1  N6  665 L   1       8.824  -3.084   6.596  1.00  0.00    -0.2626 NA
ATOM      2 C16  665 L   1      11.971  -4.810   3.029  1.00  0.00    +0.0423  A
ATOM      3 C18  665 L   1      10.890  -5.368   3.712  1.00  0.00    -0.0305  A
ATOM      4 C19  665 L   1      10.190  -4.623   4.674  1.00  0.00    -0.0131  A
ATOM      5 C20  665 L   1      12.369  -3.503   3.298  1.00  0.00    -0.0377  A
ATOM      6 C21  665 L   1      10.596  -3.299   4.945  1.00  0.00    +0.0004  A
ATOM      7 C22  665 L   1      11.687  -2.748   4.251  1.00  0.00    -0.0506  A
ATOM      8 C26  665 L   1       9.101  -5.154   5.377  1.00  0.00    -0.0358  A
ATOM      9 C30  665 L   1       9.878  -2.589   5.909  1.00  0.00    +0.0353  A
ATOM     10 C33  665 L   1       8.464  -4.354   6.312  1.00  0.00    +0.0281  A
ATOM     11 H48  665 L   1      10.600  -6.338   3.507  1.00  0.00    +0.0644  H
ATOM     12 H49  665 L   1      13.170  -3.093   2.792  1.00  0.00    +0.0638  H
ATOM     13 H50  665 L   1      11.984  -1.780   4.449  1.00  0.00    +0.0625  H
ATOM     14 H51  665 L   1       8.781  -6.119   5.201  1.00  0.00    +0.0639  H
ATOM     15 H54  665 L   1      10.171  -1.619   6.110  1.00  0.00    +0.0836  H
ATOM     16 H59  665 L   1       7.663  -4.754   6.823  1.00  0.00    +0.0830  H
ENDROOT
BRANCH 2 18
ATOM     17  O2  665 L   1      11.478  -5.120   0.087  1.00  0.00    -0.2720 OA
ATOM     18  N4  665 L   1      12.655  -5.564   2.073  1.00  0.00    -0.3255  N
ATOM     19 C10  665 L   1      12.381  -5.683   0.701  1.00  0.00    +0.2381  C
ATOM     20 H35  665 L   1      13.428  -6.077   2.403  1.00  0.00    +0.1686 HD
BRANCH 19 21
ATOM     21  C7  665 L   1      13.375  -6.616  -0.007  1.00  0.00    +0.1122  C
ATOM     22 H39  665 L   1      13.735  -7.348   0.685  1.00  0.00    +0.0502  H
BRANCH 21 23
ATOM     23  C8  665 L   1      12.679  -7.372  -1.128  1.00  0.00    -0.0300  A
ATOM     24 C11  665 L   1      11.728  -8.347  -0.827  1.00  0.00    -0.0573  A
ATOM     25 C12  665 L   1      12.992  -7.090  -2.458  1.00  0.00    -0.0573  A
ATOM     26 C13  665 L   1      11.404  -8.760  -3.185  1.00  0.00    -0.0103  A
ATOM     27 C14  665 L   1      11.091  -9.041  -1.856  1.00  0.00    -0.0551  A
ATOM     28 C15  665 L   1      12.355  -7.785  -3.486  1.00  0.00    -0.0551  A
ATOM     29 H42  665 L   1      11.496  -8.556   0.157  1.00  0.00    +0.0621  H
ATOM     30 H43  665 L   1      13.696  -6.369  -2.681  1.00  0.00    +0.0621  H
ATOM     31 H44  665 L   1      10.387  -9.763  -1.632  1.00  0.00    +0.0621  H
ATOM     32 H45  665 L   1      12.587  -7.577  -4.471  1.00  0.00    +0.0621  H
BRANCH 26 33
ATOM     33 C17  665 L   1      10.723  -9.502  -4.285  1.00  0.00    +0.1179  C
ATOM     34 H46  665 L   1      11.384 -10.245  -4.677  1.00  0.00    +0.0749  H
ATOM     35 H47  665 L   1       9.841  -9.973  -3.905  1.00  0.00    +0.0749  H
BRANCH 33 36
ATOM     36  O1  665 L   1      10.365  -8.591  -5.318  1.00  0.00    -0.4564 OA
BRANCH 36 38
ATOM     37  O3  665 L   1      11.811  -9.240  -6.987  1.00  0.00    -0.2449 OA
ATOM     38 C25  665 L   1      10.691  -8.967  -6.585  1.00  0.00    +0.3398  C
BRANCH 38 39
ATOM     39 C23  665 L   1       9.483  -9.008  -7.448  1.00  0.00    +0.0619  A
ATOM     40 C24  665 L   1       9.224  -7.997  -8.373  1.00  0.00    -0.0362  A
ATOM     41 C27  665 L   1       7.198  -9.131  -9.043  1.00  0.00    -0.0502  A
ATOM     42 C28  665 L   1       8.081  -8.059  -9.171  1.00  0.00    -0.0551  A
ATOM     43 C29  665 L   1       8.600 -10.080  -7.319  1.00  0.00    -0.0473  A
ATOM     44 C31  665 L   1       7.457 -10.142  -8.117  1.00  0.00    -0.0580  A
ATOM     45 C32  665 L   1      10.153  -6.838  -8.532  1.00  0.00    -0.0389  C
ATOM     46 C34  665 L   1       5.976  -9.198  -9.895  1.00  0.00    -0.0397  C
ATOM     47 H52  665 L   1       7.889  -7.311  -9.856  1.00  0.00    +0.0623  H
ATOM     48 H53  665 L   1       8.792 -10.828  -6.635  1.00  0.00    +0.0626  H
ATOM     49 H55  665 L   1       6.804 -10.936  -8.022  1.00  0.00    +0.0620  H
ATOM     50 H56  665 L   1      10.972  -6.943  -7.851  1.00  0.00    +0.0278  H
ATOM     51 H57  665 L   1       9.629  -5.930  -8.322  1.00  0.00    +0.0278  H
ATOM     52 H58  665 L   1      10.523  -6.812  -9.535  1.00  0.00    +0.0278  H
ATOM     53 H60  665 L   1       5.943  -8.346 -10.540  1.00  0.00    +0.0278  H
ATOM     54 H61  665 L   1       5.106  -9.208  -9.272  1.00  0.00    +0.0278  H
ATOM     55 H62  665 L   1       6.001 -10.090 -10.485  1.00  0.00    +0.0278  H
ENDBRANCH 38 39
ENDBRANCH 36 38
ENDBRANCH 33 36
ENDBRANCH 26 33
ENDBRANCH 21 23
BRANCH 21 57
ATOM     56  N5  665 L   1      14.372  -4.379  -0.444  1.00  0.00    -0.3600  N
ATOM     57  C9  665 L   1      14.603  -5.820  -0.493  1.00  0.00    +0.0921  C
ATOM     58 H36  665 L   1      15.205  -3.889  -0.771  1.00  0.00    +0.3450 HD
ATOM     59 H37  665 L   1      14.169  -4.099   0.515  1.00  0.00    +0.3450 HD
ATOM     60 H38  665 L   1      13.580  -4.141  -1.042  1.00  0.00    +0.3450 HD
ATOM     61 H40  665 L   1      15.438  -6.058   0.132  1.00  0.00    +0.0926  H
ATOM     62 H41  665 L   1      14.794  -6.091  -1.510  1.00  0.00    +0.0926  H
ENDBRANCH 21 57
ENDBRANCH 19 21
ENDBRANCH 2 18
TORSDOF 8
ENDMDL
MODEL 10
REMARK VINA RESULT:    -6.921      2.599      3.949
REMARK INTER + INTRA:         -11.106
REMARK INTER:                  -9.811
REMARK INTRA:                  -1.295
REMARK UNBOUND:                -0.948
ROOT
ATOM      1  N6  665 L   1      10.872  -7.130  -9.792  1.00  0.00    -0.2626 NA
ATOM      2 C16  665 L   1      12.169  -8.389  -5.065  1.00  0.00    +0.0423  A
ATOM      3 C18  665 L   1      10.955  -8.086  -5.683  1.00  0.00    -0.0305  A
ATOM      4 C19  665 L   1      10.908  -7.767  -7.049  1.00  0.00    -0.0131  A
ATOM      5 C20  665 L   1      13.351  -8.375  -5.801  1.00  0.00    -0.0377  A
ATOM      6 C21  665 L   1      12.107  -7.753  -7.792  1.00  0.00    +0.0004  A
ATOM      7 C22  665 L   1      13.324  -8.059  -7.159  1.00  0.00    -0.0506  A
ATOM      8 C26  665 L   1       9.706  -7.458  -7.698  1.00  0.00    -0.0358  A
ATOM      9 C30  665 L   1      12.022  -7.430  -9.147  1.00  0.00    +0.0353  A
ATOM     10 C33  665 L   1       9.744  -7.152  -9.050  1.00  0.00    +0.0281  A
ATOM     11 H48  665 L   1      10.083  -8.099  -5.131  1.00  0.00    +0.0644  H
ATOM     12 H49  665 L   1      14.248  -8.599  -5.342  1.00  0.00    +0.0638  H
ATOM     13 H50  665 L   1      14.201  -8.050  -7.702  1.00  0.00    +0.0625  H
ATOM     14 H51  665 L   1       8.813  -7.459  -7.181  1.00  0.00    +0.0639  H
ATOM     15 H54  665 L   1      12.897  -7.419  -9.695  1.00  0.00    +0.0836  H
ATOM     16 H59  665 L   1       8.854  -6.927  -9.518  1.00  0.00    +0.0830  H
ENDROOT
BRANCH 2 18
ATOM     17  O2  665 L   1      13.296  -6.864  -2.741  1.00  0.00    -0.2720 OA
ATOM     18  N4  665 L   1      12.199  -8.707  -3.706  1.00  0.00    -0.3255  N
ATOM     19 C10  665 L   1      12.746  -7.959  -2.650  1.00  0.00    +0.2381  C
ATOM     20 H35  665 L   1      11.783  -9.563  -3.456  1.00  0.00    +0.1686 HD
BRANCH 19 21
ATOM     21  C7  665 L   1      12.573  -8.662  -1.296  1.00  0.00    +0.1122  C
ATOM     22 H39  665 L   1      13.457  -9.218  -1.063  1.00  0.00    +0.0502  H
BRANCH 21 23
ATOM     23  C8  665 L   1      12.393  -7.635  -0.189  1.00  0.00    -0.0300  A
ATOM     24 C11  665 L   1      13.429  -7.393   0.714  1.00  0.00    -0.0573  A
ATOM     25 C12  665 L   1      11.192  -6.933  -0.077  1.00  0.00    -0.0573  A
ATOM     26 C13  665 L   1      12.063  -5.750   1.841  1.00  0.00    -0.0103  A
ATOM     27 C14  665 L   1      13.263  -6.451   1.729  1.00  0.00    -0.0551  A
ATOM     28 C15  665 L   1      11.027  -5.991   0.939  1.00  0.00    -0.0551  A
ATOM     29 H42  665 L   1      14.318  -7.912   0.631  1.00  0.00    +0.0621  H
ATOM     30 H43  665 L   1      10.426  -7.112  -0.745  1.00  0.00    +0.0621  H
ATOM     31 H44  665 L   1      14.030  -6.272   2.398  1.00  0.00    +0.0621  H
ATOM     32 H45  665 L   1      10.138  -5.473   1.021  1.00  0.00    +0.0621  H
BRANCH 26 33
ATOM     33 C17  665 L   1      11.886  -4.742   2.926  1.00  0.00    +0.1179  C
ATOM     34 H46  665 L   1      11.878  -5.237   3.875  1.00  0.00    +0.0749  H
ATOM     35 H47  665 L   1      12.693  -4.040   2.897  1.00  0.00    +0.0749  H
BRANCH 33 36
ATOM     36  O1  665 L   1      10.653  -4.056   2.737  1.00  0.00    -0.4564 OA
BRANCH 36 38
ATOM     37  O3  665 L   1       9.779  -2.712   4.388  1.00  0.00    -0.2449 OA
ATOM     38 C25  665 L   1       9.932  -3.804   3.863  1.00  0.00    +0.3398  C
BRANCH 38 39
ATOM     39 C23  665 L   1       9.335  -5.055   4.396  1.00  0.00    +0.0619  A
ATOM     40 C24  665 L   1       9.717  -5.563   5.639  1.00  0.00    -0.0362  A
ATOM     41 C27  665 L   1       8.185  -7.411   5.352  1.00  0.00    -0.0502  A
ATOM     42 C28  665 L   1       9.141  -6.741   6.116  1.00  0.00    -0.0551  A
ATOM     43 C29  665 L   1       8.380  -5.724   3.632  1.00  0.00    -0.0473  A
ATOM     44 C31  665 L   1       7.805  -6.902   4.109  1.00  0.00    -0.0580  A
ATOM     45 C32  665 L   1      10.737  -4.865   6.478  1.00  0.00    -0.0389  C
ATOM     46 C34  665 L   1       7.570  -8.670   5.860  1.00  0.00    -0.0397  C
ATOM     47 H52  665 L   1       9.423  -7.117   7.035  1.00  0.00    +0.0623  H
ATOM     48 H53  665 L   1       8.098  -5.348   2.714  1.00  0.00    +0.0626  H
ATOM     49 H55  665 L   1       7.098  -7.397   3.543  1.00  0.00    +0.0620  H
ATOM     50 H56  665 L   1      11.075  -3.986   5.971  1.00  0.00    +0.0278  H
ATOM     51 H57  665 L   1      11.566  -5.520   6.649  1.00  0.00    +0.0278  H
ATOM     52 H58  665 L   1      10.300  -4.592   7.416  1.00  0.00    +0.0278  H
ATOM     53 H60  665 L   1       7.980  -8.904   6.820  1.00  0.00    +0.0278  H
ATOM     54 H61  665 L   1       7.777  -9.469   5.179  1.00  0.00    +0.0278  H
ATOM     55 H62  665 L   1       6.512  -8.540   5.947  1.00  0.00    +0.0278  H
ENDBRANCH 38 39
ENDBRANCH 36 38
ENDBRANCH 33 36
ENDBRANCH 26 33
ENDBRANCH 21 23
BRANCH 21 57
ATOM     56  N5  665 L   1      11.554 -10.732  -0.364  1.00  0.00    -0.3600  N
ATOM     57  C9  665 L   1      11.414  -9.678  -1.364  1.00  0.00    +0.0921  C
ATOM     58 H36  665 L   1      10.771 -11.381  -0.441  1.00  0.00    +0.3450 HD
ATOM     59 H37  665 L   1      11.561 -10.317   0.568  1.00  0.00    +0.3450 HD
ATOM     60 H38  665 L   1      12.429 -11.234  -0.518  1.00  0.00    +0.3450 HD
ATOM     61 H40  665 L   1      10.492  -9.162  -1.197  1.00  0.00    +0.0926  H
ATOM     62 H41  665 L   1      11.430 -10.135  -2.332  1.00  0.00    +0.0926  H
ENDBRANCH 21 57
ENDBRANCH 19 21
ENDBRANCH 2 18
TORSDOF 8
ENDMDL
MODEL 11
REMARK VINA RESULT:    -6.900      6.394      9.468
REMARK INTER + INTRA:         -11.076
REMARK INTER:                  -8.339
REMARK INTRA:                  -2.737
REMARK UNBOUND:                -0.948
ROOT
ATOM      1  N6  665 L   1      14.678  -5.844 -13.451  1.00  0.00    -0.2626 NA
ATOM      2 C16  665 L   1      10.564  -8.463 -12.101  1.00  0.00    +0.0423  A
ATOM      3 C18  665 L   1      11.824  -8.286 -11.528  1.00  0.00    -0.0305  A
ATOM      4 C19  665 L   1      12.786  -7.476 -12.154  1.00  0.00    -0.0131  A
ATOM      5 C20  665 L   1      10.247  -7.836 -13.304  1.00  0.00    -0.0377  A
ATOM      6 C21  665 L   1      12.462  -6.843 -13.372  1.00  0.00    +0.0004  A
ATOM      7 C22  665 L   1      11.190  -7.029 -13.939  1.00  0.00    -0.0506  A
ATOM      8 C26  665 L   1      14.059  -7.279 -11.605  1.00  0.00    -0.0358  A
ATOM      9 C30  665 L   1      13.444  -6.047 -13.965  1.00  0.00    +0.0353  A
ATOM     10 C33  665 L   1      14.953  -6.465 -12.285  1.00  0.00    +0.0281  A
ATOM     11 H48  665 L   1      12.051  -8.753 -10.637  1.00  0.00    +0.0644  H
ATOM     12 H49  665 L   1       9.314  -7.969 -13.725  1.00  0.00    +0.0638  H
ATOM     13 H50  665 L   1      10.953  -6.566 -14.830  1.00  0.00    +0.0625  H
ATOM     14 H51  665 L   1      14.325  -7.729 -10.716  1.00  0.00    +0.0639  H
ATOM     15 H54  665 L   1      13.211  -5.581 -14.857  1.00  0.00    +0.0836  H
ATOM     16 H59  665 L   1      15.887  -6.326 -11.872  1.00  0.00    +0.0830  H
ENDROOT
BRANCH 2 18
ATOM     17  O2  665 L   1       7.709  -7.898 -11.371  1.00  0.00    -0.2720 OA
ATOM     18  N4  665 L   1       9.617  -9.270 -11.465  1.00  0.00    -0.3255  N
ATOM     19 C10  665 L   1       8.288  -8.956 -11.138  1.00  0.00    +0.2381  C
ATOM     20 H35  665 L   1       9.921 -10.172 -11.216  1.00  0.00    +0.1686 HD
BRANCH 19 21
ATOM     21  C7  665 L   1       7.576 -10.125 -10.440  1.00  0.00    +0.1122  C
ATOM     22 H39  665 L   1       7.935 -11.052 -10.836  1.00  0.00    +0.0502  H
BRANCH 21 23
ATOM     23  C8  665 L   1       7.898 -10.125  -8.954  1.00  0.00    -0.0300  A
ATOM     24 C11  665 L   1       8.808 -11.048  -8.436  1.00  0.00    -0.0573  A
ATOM     25 C12  665 L   1       7.284  -9.201  -8.107  1.00  0.00    -0.0573  A
ATOM     26 C13  665 L   1       8.488 -10.125  -6.227  1.00  0.00    -0.0103  A
ATOM     27 C14  665 L   1       9.102 -11.048  -7.073  1.00  0.00    -0.0551  A
ATOM     28 C15  665 L   1       7.579  -9.202  -6.744  1.00  0.00    -0.0551  A
ATOM     29 H42  665 L   1       9.262 -11.731  -9.063  1.00  0.00    +0.0621  H
ATOM     30 H43  665 L   1       6.611  -8.518  -8.490  1.00  0.00    +0.0621  H
ATOM     31 H44  665 L   1       9.775 -11.731  -6.690  1.00  0.00    +0.0621  H
ATOM     32 H45  665 L   1       7.124  -8.518  -6.118  1.00  0.00    +0.0621  H
BRANCH 26 33
ATOM     33 C17  665 L   1       8.803 -10.124  -4.769  1.00  0.00    +0.1179  C
ATOM     34 H46  665 L   1       8.558  -9.171  -4.351  1.00  0.00    +0.0749  H
ATOM     35 H47  665 L   1       8.232 -10.886  -4.281  1.00  0.00    +0.0749  H
BRANCH 33 36
ATOM     36  O1  665 L   1      10.191 -10.381  -4.586  1.00  0.00    -0.4564 OA
BRANCH 36 38
ATOM     37  O3  665 L   1      10.991  -8.365  -3.815  1.00  0.00    -0.2449 OA
ATOM     38 C25  665 L   1      11.007  -9.292  -4.610  1.00  0.00    +0.3398  C
BRANCH 38 39
ATOM     39 C23  665 L   1      11.950  -9.367  -5.755  1.00  0.00    +0.0619  A
ATOM     40 C24  665 L   1      11.836  -8.496  -6.839  1.00  0.00    -0.0362  A
ATOM     41 C27  665 L   1      13.744  -9.550  -7.884  1.00  0.00    -0.0502  A
ATOM     42 C28  665 L   1      12.734  -8.587  -7.903  1.00  0.00    -0.0551  A
ATOM     43 C29  665 L   1      12.958 -10.330  -5.736  1.00  0.00    -0.0473  A
ATOM     44 C31  665 L   1      13.856 -10.422  -6.800  1.00  0.00    -0.0580  A
ATOM     45 C32  665 L   1      10.766  -7.455  -6.885  1.00  0.00    -0.0389  C
ATOM     46 C34  665 L   1      14.703  -9.650  -9.021  1.00  0.00    -0.0397  C
ATOM     47 H52  665 L   1      12.651  -7.943  -8.706  1.00  0.00    +0.0623  H
ATOM     48 H53  665 L   1      13.042 -10.973  -4.934  1.00  0.00    +0.0626  H
ATOM     49 H55  665 L   1      14.602 -11.134  -6.785  1.00  0.00    +0.0620  H
ATOM     50 H56  665 L   1      10.168  -7.518  -6.000  1.00  0.00    +0.0278  H
ATOM     51 H57  665 L   1      10.149  -7.616  -7.745  1.00  0.00    +0.0278  H
ATOM     52 H58  665 L   1      11.214  -6.485  -6.945  1.00  0.00    +0.0278  H
ATOM     53 H60  665 L   1      14.466  -8.908  -9.754  1.00  0.00    +0.0278  H
ATOM     54 H61  665 L   1      14.635 -10.622  -9.461  1.00  0.00    +0.0278  H
ATOM     55 H62  665 L   1      15.699  -9.491  -8.662  1.00  0.00    +0.0278  H
ENDBRANCH 38 39
ENDBRANCH 36 38
ENDBRANCH 33 36
ENDBRANCH 26 33
ENDBRANCH 21 23
BRANCH 21 57
ATOM     56  N5  665 L   1       5.769 -10.246 -12.146  1.00  0.00    -0.3600  N
ATOM     57  C9  665 L   1       6.061 -10.076 -10.725  1.00  0.00    +0.0921  C
ATOM     58 H36  665 L   1       4.760 -10.209 -12.292  1.00  0.00    +0.3450 HD
ATOM     59 H37  665 L   1       6.125 -11.148 -12.460  1.00  0.00    +0.3450 HD
ATOM     60 H38  665 L   1       6.218  -9.500 -12.677  1.00  0.00    +0.3450 HD
ATOM     61 H40  665 L   1       5.581 -10.860 -10.176  1.00  0.00    +0.0926  H
ATOM     62 H41  665 L   1       5.697  -9.116 -10.424  1.00  0.00    +0.0926  H
ENDBRANCH 21 57
ENDBRANCH 19 21
ENDBRANCH 2 18
TORSDOF 8
ENDMDL
MODEL 12
REMARK VINA RESULT:    -6.873      1.178      1.548
REMARK INTER + INTRA:         -11.036
REMARK INTER:                 -10.162
REMARK INTRA:                  -0.874
REMARK UNBOUND:                -0.948
ROOT
ATOM      1  N6  665 L   1       6.883  -8.838 -10.143  1.00  0.00    -0.2626 NA
ATOM      2 C16  665 L   1      10.255  -8.438  -6.391  1.00  0.00    +0.0423  A
ATOM      3 C18  665 L   1      10.223  -7.983  -7.710  1.00  0.00    -0.0305  A
ATOM      4 C19  665 L   1       9.119  -8.258  -8.534  1.00  0.00    -0.0131  A
ATOM      5 C20  665 L   1       9.189  -9.172  -5.878  1.00  0.00    -0.0377  A
ATOM      6 C21  665 L   1       8.041  -9.003  -8.011  1.00  0.00    +0.0004  A
ATOM      7 C22  665 L   1       8.085  -9.455  -6.681  1.00  0.00    -0.0506  A
ATOM      8 C26  665 L   1       9.057  -7.816  -9.861  1.00  0.00    -0.0358  A
ATOM      9 C30  665 L   1       6.962  -9.257  -8.860  1.00  0.00    +0.0353  A
ATOM     10 C33  665 L   1       7.933  -8.130 -10.610  1.00  0.00    +0.0281  A
ATOM     11 H48  665 L   1      11.017  -7.439  -8.084  1.00  0.00    +0.0644  H
ATOM     12 H49  665 L   1       9.216  -9.508  -4.902  1.00  0.00    +0.0638  H
ATOM     13 H50  665 L   1       7.297 -10.000  -6.299  1.00  0.00    +0.0625  H
ATOM     14 H51  665 L   1       9.830  -7.270 -10.272  1.00  0.00    +0.0639  H
ATOM     15 H54  665 L   1       6.170  -9.801  -8.481  1.00  0.00    +0.0836  H
ATOM     16 H59  665 L   1       7.896  -7.799 -11.586  1.00  0.00    +0.0830  H
ENDROOT
BRANCH 2 18
ATOM     17  O2  665 L   1      12.354 -10.262  -5.266  1.00  0.00    -0.2720 OA
ATOM     18  N4  665 L   1      11.359  -8.155  -5.584  1.00  0.00    -0.3255  N
ATOM     19 C10  665 L   1      12.315  -9.049  -5.074  1.00  0.00    +0.2381  C
ATOM     20 H35  665 L   1      11.482  -7.209  -5.342  1.00  0.00    +0.1686 HD
BRANCH 19 21
ATOM     21  C7  665 L   1      13.376  -8.335  -4.224  1.00  0.00    +0.1122  C
ATOM     22 H39  665 L   1      13.780  -7.509  -4.772  1.00  0.00    +0.0502  H
BRANCH 21 23
ATOM     23  C8  665 L   1      12.743  -7.762  -2.966  1.00  0.00    -0.0300  A
ATOM     24 C11  665 L   1      13.302  -6.641  -2.352  1.00  0.00    -0.0573  A
ATOM     25 C12  665 L   1      11.603  -8.357  -2.425  1.00  0.00    -0.0573  A
ATOM     26 C13  665 L   1      11.583  -6.711  -0.657  1.00  0.00    -0.0103  A
ATOM     27 C14  665 L   1      12.722  -6.116  -1.197  1.00  0.00    -0.0551  A
ATOM     28 C15  665 L   1      11.023  -7.832  -1.270  1.00  0.00    -0.0551  A
ATOM     29 H42  665 L   1      14.146  -6.200  -2.751  1.00  0.00    +0.0621  H
ATOM     30 H43  665 L   1      11.189  -9.186  -2.880  1.00  0.00    +0.0621  H
ATOM     31 H44  665 L   1      13.137  -5.286  -0.742  1.00  0.00    +0.0621  H
ATOM     32 H45  665 L   1      10.180  -8.273  -0.870  1.00  0.00    +0.0621  H
BRANCH 26 33
ATOM     33 C17  665 L   1      10.962  -6.150   0.578  1.00  0.00    +0.1179  C
ATOM     34 H46  665 L   1      10.253  -5.395   0.310  1.00  0.00    +0.0749  H
ATOM     35 H47  665 L   1      10.466  -6.931   1.115  1.00  0.00    +0.0749  H
BRANCH 33 36
ATOM     36  O1  665 L   1      11.975  -5.580   1.399  1.00  0.00    -0.4564 OA
BRANCH 36 38
ATOM     37  O3  665 L   1      12.364  -6.896   3.246  1.00  0.00    -0.2449 OA
ATOM     38 C25  665 L   1      11.914  -5.888   2.723  1.00  0.00    +0.3398  C
BRANCH 38 39
ATOM     39 C23  665 L   1      11.212  -4.820   3.479  1.00  0.00    +0.0619  A
ATOM     40 C24  665 L   1      11.852  -3.621   3.795  1.00  0.00    -0.0362  A
ATOM     41 C27  665 L   1       9.850  -2.847   4.905  1.00  0.00    -0.0502  A
ATOM     42 C28  665 L   1      11.170  -2.635   4.507  1.00  0.00    -0.0551  A
ATOM     43 C29  665 L   1       9.892  -5.034   3.877  1.00  0.00    -0.0473  A
ATOM     44 C31  665 L   1       9.211  -4.047   4.590  1.00  0.00    -0.0580  A
ATOM     45 C32  665 L   1      13.264  -3.367   3.380  1.00  0.00    -0.0389  C
ATOM     46 C34  665 L   1       9.120  -1.794   5.667  1.00  0.00    -0.0397  C
ATOM     47 H52  665 L   1      11.642  -1.747   4.741  1.00  0.00    +0.0623  H
ATOM     48 H53  665 L   1       9.420  -5.920   3.643  1.00  0.00    +0.0626  H
ATOM     49 H55  665 L   1       8.234  -4.205   4.884  1.00  0.00    +0.0620  H
ATOM     50 H56  665 L   1      13.638  -4.216   2.846  1.00  0.00    +0.0278  H
ATOM     51 H57  665 L   1      13.866  -3.198   4.248  1.00  0.00    +0.0278  H
ATOM     52 H58  665 L   1      13.301  -2.504   2.749  1.00  0.00    +0.0278  H
ATOM     53 H60  665 L   1       9.762  -0.951   5.815  1.00  0.00    +0.0278  H
ATOM     54 H61  665 L   1       8.819  -2.185   6.617  1.00  0.00    +0.0278  H
ATOM     55 H62  665 L   1       8.255  -1.490   5.117  1.00  0.00    +0.0278  H
ENDBRANCH 38 39
ENDBRANCH 36 38
ENDBRANCH 33 36
ENDBRANCH 26 33
ENDBRANCH 21 23
BRANCH 21 57
ATOM     56  N5  665 L   1      14.152 -10.385  -3.047  1.00  0.00    -0.3600  N
ATOM     57  C9  665 L   1      14.551  -9.287  -3.924  1.00  0.00    +0.0921  C
ATOM     58 H36  665 L   1      14.955 -10.991  -2.874  1.00  0.00    +0.3450 HD
ATOM     59 H37  665 L   1      13.410 -10.923  -3.494  1.00  0.00    +0.3450 HD
ATOM     60 H38  665 L   1      13.813 -10.007  -2.163  1.00  0.00    +0.3450 HD
ATOM     61 H40  665 L   1      14.911  -9.693  -4.847  1.00  0.00    +0.0926  H
ATOM     62 H41  665 L   1      15.315  -8.726  -3.427  1.00  0.00    +0.0926  H
ENDBRANCH 21 57
ENDBRANCH 19 21
ENDBRANCH 2 18
TORSDOF 8
ENDMDL
MODEL 13
REMARK VINA RESULT:    -6.842      3.461     11.561
REMARK INTER + INTRA:         -10.991
REMARK INTER:                  -9.669
REMARK INTRA:                  -1.321
REMARK UNBOUND:                -0.948
ROOT
ATOM      1  N6  665 L   1      13.775  -4.118   1.201  1.00  0.00    -0.2626 NA
ATOM      2 C16  665 L   1      12.120  -7.612  -2.064  1.00  0.00    +0.0423  A
ATOM      3 C18  665 L   1      13.321  -6.914  -1.926  1.00  0.00    -0.0305  A
ATOM      4 C19  665 L   1      13.490  -5.980  -0.891  1.00  0.00    -0.0131  A
ATOM      5 C20  665 L   1      11.074  -7.388  -1.172  1.00  0.00    -0.0377  A
ATOM      6 C21  665 L   1      12.428  -5.755   0.009  1.00  0.00    +0.0004  A
ATOM      7 C22  665 L   1      11.223  -6.463  -0.139  1.00  0.00    -0.0506  A
ATOM      8 C26  665 L   1      14.682  -5.264  -0.726  1.00  0.00    -0.0358  A
ATOM      9 C30  665 L   1      12.632  -4.818   1.025  1.00  0.00    +0.0353  A
ATOM     10 C33  665 L   1      14.769  -4.358   0.320  1.00  0.00    +0.0281  A
ATOM     11 H48  665 L   1      14.092  -7.086  -2.590  1.00  0.00    +0.0644  H
ATOM     12 H49  665 L   1      10.187  -7.905  -1.277  1.00  0.00    +0.0638  H
ATOM     13 H50  665 L   1      10.447  -6.299   0.519  1.00  0.00    +0.0625  H
ATOM     14 H51  665 L   1      15.476  -5.406  -1.369  1.00  0.00    +0.0639  H
ATOM     15 H54  665 L   1      11.858  -4.650   1.687  1.00  0.00    +0.0836  H
ATOM     16 H59  665 L   1      15.651  -3.837   0.433  1.00  0.00    +0.0830  H
ENDROOT
BRANCH 2 18
ATOM     17  O2  665 L   1      12.930  -7.452  -4.947  1.00  0.00    -0.2720 OA
ATOM     18  N4  665 L   1      11.968  -8.539  -3.097  1.00  0.00    -0.3255  N
ATOM     19 C10  665 L   1      12.360  -8.415  -4.440  1.00  0.00    +0.2381  C
ATOM     20 H35  665 L   1      11.532  -9.387  -2.853  1.00  0.00    +0.1686 HD
BRANCH 19 21
ATOM     21  C7  665 L   1      12.011  -9.666  -5.260  1.00  0.00    +0.1122  C
ATOM     22 H39  665 L   1      12.041 -10.529  -4.629  1.00  0.00    +0.0502  H
BRANCH 21 23
ATOM     23  C8  665 L   1      10.593  -9.562  -5.799  1.00  0.00    -0.0300  A
ATOM     24 C11  665 L   1      10.289  -8.628  -6.790  1.00  0.00    -0.0573  A
ATOM     25 C12  665 L   1       9.595 -10.402  -5.303  1.00  0.00    -0.0573  A
ATOM     26 C13  665 L   1       7.991  -9.372  -6.787  1.00  0.00    -0.0103  A
ATOM     27 C14  665 L   1       8.988  -8.532  -7.283  1.00  0.00    -0.0551  A
ATOM     28 C15  665 L   1       8.294 -10.305  -5.796  1.00  0.00    -0.0551  A
ATOM     29 H42  665 L   1      11.027  -8.007  -7.158  1.00  0.00    +0.0621  H
ATOM     30 H43  665 L   1       9.820 -11.092  -4.570  1.00  0.00    +0.0621  H
ATOM     31 H44  665 L   1       8.763  -7.841  -8.017  1.00  0.00    +0.0621  H
ATOM     32 H45  665 L   1       7.556 -10.927  -5.429  1.00  0.00    +0.0621  H
BRANCH 26 33
ATOM     33 C17  665 L   1       6.599  -9.270  -7.315  1.00  0.00    +0.1179  C
ATOM     34 H46  665 L   1       5.922  -9.729  -6.626  1.00  0.00    +0.0749  H
ATOM     35 H47  665 L   1       6.339  -8.240  -7.439  1.00  0.00    +0.0749  H
BRANCH 33 36
ATOM     36  O1  665 L   1       6.521  -9.934  -8.571  1.00  0.00    -0.4564 OA
BRANCH 36 38
ATOM     37  O3  665 L   1       5.216  -8.505  -9.817  1.00  0.00    -0.2449 OA
ATOM     38 C25  665 L   1       6.241  -9.147  -9.645  1.00  0.00    +0.3398  C
BRANCH 38 39
ATOM     39 C23  665 L   1       7.365  -9.162 -10.616  1.00  0.00    +0.0619  A
ATOM     40 C24  665 L   1       7.476 -10.169 -11.574  1.00  0.00    -0.0362  A
ATOM     41 C27  665 L   1       9.498  -9.146 -12.414  1.00  0.00    -0.0502  A
ATOM     42 C28  665 L   1       8.542 -10.160 -12.474  1.00  0.00    -0.0551  A
ATOM     43 C29  665 L   1       8.321  -8.147 -10.555  1.00  0.00    -0.0473  A
ATOM     44 C31  665 L   1       9.387  -8.139 -11.454  1.00  0.00    -0.0580  A
ATOM     45 C32  665 L   1       6.466 -11.267 -11.662  1.00  0.00    -0.0389  C
ATOM     46 C34  665 L   1      10.639  -9.136 -13.374  1.00  0.00    -0.0397  C
ATOM     47 H52  665 L   1       8.625 -10.906 -13.184  1.00  0.00    +0.0623  H
ATOM     48 H53  665 L   1       8.238  -7.403  -9.846  1.00  0.00    +0.0626  H
ATOM     49 H55  665 L   1      10.094  -7.388 -11.409  1.00  0.00    +0.0620  H
ATOM     50 H56  665 L   1       5.721 -11.126 -10.908  1.00  0.00    +0.0278  H
ATOM     51 H57  665 L   1       6.950 -12.209 -11.514  1.00  0.00    +0.0278  H
ATOM     52 H58  665 L   1       6.005 -11.251 -12.627  1.00  0.00    +0.0278  H
ATOM     53 H60  665 L   1      10.560  -9.977 -14.031  1.00  0.00    +0.0278  H
ATOM     54 H61  665 L   1      11.560  -9.190 -12.834  1.00  0.00    +0.0278  H
ATOM     55 H62  665 L   1      10.614  -8.233 -13.948  1.00  0.00    +0.0278  H
ENDBRANCH 38 39
ENDBRANCH 36 38
ENDBRANCH 33 36
ENDBRANCH 26 33
ENDBRANCH 21 23
BRANCH 21 57
ATOM     56  N5  665 L   1      14.405 -10.040  -5.824  1.00  0.00    -0.3600  N
ATOM     57  C9  665 L   1      13.059  -9.888  -6.370  1.00  0.00    +0.0921  C
ATOM     58 H36  665 L   1      15.067 -10.186  -6.587  1.00  0.00    +0.3450 HD
ATOM     59 H37  665 L   1      14.428 -10.843  -5.196  1.00  0.00    +0.3450 HD
ATOM     60 H38  665 L   1      14.660  -9.198  -5.308  1.00  0.00    +0.3450 HD
ATOM     61 H40  665 L   1      12.803 -10.774  -6.914  1.00  0.00    +0.0926  H
ATOM     62 H41  665 L   1      13.055  -9.030  -7.008  1.00  0.00    +0.0926  H
ENDBRANCH 21 57
ENDBRANCH 19 21
ENDBRANCH 2 18
TORSDOF 8
ENDMDL
MODEL 14
REMARK VINA RESULT:    -6.826      2.292      3.226
REMARK INTER + INTRA:         -10.967
REMARK INTER:                  -9.321
REMARK INTRA:                  -1.646
REMARK UNBOUND:                -0.948
ROOT
ATOM      1  N6  665 L   1      10.235  -8.295 -10.477  1.00  0.00    -0.2626 NA
ATOM      2 C16  665 L   1      11.780  -8.767  -5.682  1.00  0.00    +0.0423  A
ATOM      3 C18  665 L   1      10.786  -8.010  -6.304  1.00  0.00    -0.0305  A
ATOM      4 C19  665 L   1      10.588  -8.093  -7.691  1.00  0.00    -0.0131  A
ATOM      5 C20  665 L   1      12.590  -9.614  -6.435  1.00  0.00    -0.0377  A
ATOM      6 C21  665 L   1      11.410  -8.951  -8.452  1.00  0.00    +0.0004  A
ATOM      7 C22  665 L   1      12.408  -9.708  -7.815  1.00  0.00    -0.0506  A
ATOM      8 C26  665 L   1       9.600  -7.347  -8.345  1.00  0.00    -0.0358  A
ATOM      9 C30  665 L   1      11.185  -9.006  -9.829  1.00  0.00    +0.0353  A
ATOM     10 C33  665 L   1       9.469  -7.483  -9.719  1.00  0.00    +0.0281  A
ATOM     11 H48  665 L   1      10.190  -7.385  -5.739  1.00  0.00    +0.0644  H
ATOM     12 H49  665 L   1      13.325 -10.172  -5.973  1.00  0.00    +0.0638  H
ATOM     13 H50  665 L   1      13.009 -10.336  -8.371  1.00  0.00    +0.0625  H
ATOM     14 H51  665 L   1       8.984  -6.710  -7.816  1.00  0.00    +0.0639  H
ATOM     15 H54  665 L   1      11.783  -9.634 -10.389  1.00  0.00    +0.0836  H
ATOM     16 H59  665 L   1       8.737  -6.930 -10.190  1.00  0.00    +0.0830  H
ENDROOT
BRANCH 2 18
ATOM     17  O2  665 L   1      14.073  -7.655  -4.099  1.00  0.00    -0.2720 OA
ATOM     18  N4  665 L   1      11.964  -8.675  -4.300  1.00  0.00    -0.3255  N
ATOM     19 C10  665 L   1      13.064  -8.149  -3.603  1.00  0.00    +0.2381  C
ATOM     20 H35  665 L   1      11.229  -9.023  -3.746  1.00  0.00    +0.1686 HD
BRANCH 19 21
ATOM     21  C7  665 L   1      12.875  -8.235  -2.081  1.00  0.00    +0.1122  C
ATOM     22 H39  665 L   1      13.390  -9.093  -1.702  1.00  0.00    +0.0502  H
BRANCH 21 23
ATOM     23  C8  665 L   1      13.489  -7.019  -1.406  1.00  0.00    -0.0300  A
ATOM     24 C11  665 L   1      14.698  -7.137  -0.720  1.00  0.00    -0.0573  A
ATOM     25 C12  665 L   1      12.842  -5.784  -1.472  1.00  0.00    -0.0573  A
ATOM     26 C13  665 L   1      14.614  -4.787  -0.166  1.00  0.00    -0.0103  A
ATOM     27 C14  665 L   1      15.260  -6.021  -0.100  1.00  0.00    -0.0551  A
ATOM     28 C15  665 L   1      13.405  -4.669  -0.851  1.00  0.00    -0.0551  A
ATOM     29 H42  665 L   1      15.177  -8.050  -0.672  1.00  0.00    +0.0621  H
ATOM     30 H43  665 L   1      11.948  -5.696  -1.978  1.00  0.00    +0.0621  H
ATOM     31 H44  665 L   1      16.156  -6.109   0.407  1.00  0.00    +0.0621  H
ATOM     32 H45  665 L   1      12.926  -3.755  -0.900  1.00  0.00    +0.0621  H
BRANCH 26 33
ATOM     33 C17  665 L   1      15.216  -3.594   0.496  1.00  0.00    +0.1179  C
ATOM     34 H46  665 L   1      16.106  -3.884   1.015  1.00  0.00    +0.0749  H
ATOM     35 H47  665 L   1      15.457  -2.859  -0.243  1.00  0.00    +0.0749  H
BRANCH 33 36
ATOM     36  O1  665 L   1      14.283  -3.047   1.422  1.00  0.00    -0.4564 OA
BRANCH 36 38
ATOM     37  O3  665 L   1      15.365  -3.907   3.263  1.00  0.00    -0.2449 OA
ATOM     38 C25  665 L   1      14.353  -3.527   2.693  1.00  0.00    +0.3398  C
BRANCH 38 39
ATOM     39 C23  665 L   1      13.009  -3.537   3.326  1.00  0.00    +0.0619  A
ATOM     40 C24  665 L   1      12.207  -4.678   3.297  1.00  0.00    -0.0362  A
ATOM     41 C27  665 L   1      10.492  -3.502   4.528  1.00  0.00    -0.0502  A
ATOM     42 C28  665 L   1      10.949  -4.660   3.899  1.00  0.00    -0.0551  A
ATOM     43 C29  665 L   1      12.553  -2.378   3.955  1.00  0.00    -0.0473  A
ATOM     44 C31  665 L   1      11.295  -2.360   4.556  1.00  0.00    -0.0580  A
ATOM     45 C32  665 L   1      12.672  -5.932   2.631  1.00  0.00    -0.0389  C
ATOM     46 C34  665 L   1       9.147  -3.481   5.170  1.00  0.00    -0.0397  C
ATOM     47 H52  665 L   1      10.354  -5.504   3.877  1.00  0.00    +0.0623  H
ATOM     48 H53  665 L   1      13.147  -1.536   3.977  1.00  0.00    +0.0626  H
ATOM     49 H55  665 L   1      10.958  -1.504   5.022  1.00  0.00    +0.0620  H
ATOM     50 H56  665 L   1      13.649  -5.778   2.224  1.00  0.00    +0.0278  H
ATOM     51 H57  665 L   1      11.994  -6.190   1.844  1.00  0.00    +0.0278  H
ATOM     52 H58  665 L   1      12.704  -6.726   3.347  1.00  0.00    +0.0278  H
ATOM     53 H60  665 L   1       8.679  -4.436   5.051  1.00  0.00    +0.0278  H
ATOM     54 H61  665 L   1       8.543  -2.728   4.710  1.00  0.00    +0.0278  H
ATOM     55 H62  665 L   1       9.252  -3.265   6.213  1.00  0.00    +0.0278  H
ENDBRANCH 38 39
ENDBRANCH 36 38
ENDBRANCH 33 36
ENDBRANCH 26 33
ENDBRANCH 21 23
BRANCH 21 57
ATOM     56  N5  665 L   1      11.100  -9.775  -1.262  1.00  0.00    -0.3600  N
ATOM     57  C9  665 L   1      11.383  -8.423  -1.736  1.00  0.00    +0.0921  C
ATOM     58 H36  665 L   1      10.107  -9.858  -1.045  1.00  0.00    +0.3450 HD
ATOM     59 H37  665 L   1      11.648  -9.962  -0.423  1.00  0.00    +0.3450 HD
ATOM     60 H38  665 L   1      11.348 -10.448  -1.987  1.00  0.00    +0.3450 HD
ATOM     61 H40  665 L   1      11.114  -7.724  -0.972  1.00  0.00    +0.0926  H
ATOM     62 H41  665 L   1      10.813  -8.257  -2.626  1.00  0.00    +0.0926  H
ENDBRANCH 21 57
ENDBRANCH 19 21
ENDBRANCH 2 18
TORSDOF 8
ENDMDL
MODEL 15
REMARK VINA RESULT:    -6.826      3.127     11.392
REMARK INTER + INTRA:         -10.967
REMARK INTER:                 -10.190
REMARK INTRA:                  -0.777
REMARK UNBOUND:                -0.948
ROOT
ATOM      1  N6  665 L   1       8.398  -3.993   6.602  1.00  0.00    -0.2626 NA
ATOM      2 C16  665 L   1      11.573  -5.127   2.828  1.00  0.00    +0.0423  A
ATOM      3 C18  665 L   1      10.637  -5.865   3.554  1.00  0.00    -0.0305  A
ATOM      4 C19  665 L   1       9.882  -5.258   4.571  1.00  0.00    -0.0131  A
ATOM      5 C20  665 L   1      11.770  -3.777   3.109  1.00  0.00    -0.0377  A
ATOM      6 C21  665 L   1      10.085  -3.891   4.853  1.00  0.00    +0.0004  A
ATOM      7 C22  665 L   1      11.031  -3.158   4.116  1.00  0.00    -0.0506  A
ATOM      8 C26  665 L   1       8.935  -5.970   5.318  1.00  0.00    -0.0358  A
ATOM      9 C30  665 L   1       9.318  -3.322   5.871  1.00  0.00    +0.0353  A
ATOM     10 C33  665 L   1       8.232  -5.299   6.306  1.00  0.00    +0.0281  A
ATOM     11 H48  665 L   1      10.496  -6.865   3.341  1.00  0.00    +0.0644  H
ATOM     12 H49  665 L   1      12.464  -3.235   2.571  1.00  0.00    +0.0638  H
ATOM     13 H50  665 L   1      11.179  -2.158   4.321  1.00  0.00    +0.0625  H
ATOM     14 H51  665 L   1       8.765  -6.971   5.135  1.00  0.00    +0.0639  H
ATOM     15 H54  665 L   1       9.462  -2.321   6.081  1.00  0.00    +0.0836  H
ATOM     16 H59  665 L   1       7.536  -5.832   6.849  1.00  0.00    +0.0830  H
ENDROOT
BRANCH 2 18
ATOM     17  O2  665 L   1      10.868  -5.677  -0.035  1.00  0.00    -0.2720 OA
ATOM     18  N4  665 L   1      12.314  -5.745   1.819  1.00  0.00    -0.3255  N
ATOM     19 C10  665 L   1      11.936  -5.987   0.487  1.00  0.00    +0.2381  C
ATOM     20 H35  665 L   1      13.215  -6.049   2.072  1.00  0.00    +0.1686 HD
BRANCH 19 21
ATOM     21  C7  665 L   1      13.044  -6.695  -0.306  1.00  0.00    +0.1122  C
ATOM     22 H39  665 L   1      13.622  -7.309   0.353  1.00  0.00    +0.0502  H
BRANCH 21 23
ATOM     23  C8  665 L   1      12.435  -7.619  -1.349  1.00  0.00    -0.0300  A
ATOM     24 C11  665 L   1      12.678  -7.397  -2.705  1.00  0.00    -0.0573  A
ATOM     25 C12  665 L   1      11.634  -8.689  -0.951  1.00  0.00    -0.0573  A
ATOM     26 C13  665 L   1      11.318  -9.313  -3.263  1.00  0.00    -0.0103  A
ATOM     27 C14  665 L   1      12.118  -8.244  -3.662  1.00  0.00    -0.0551  A
ATOM     28 C15  665 L   1      11.074  -9.536  -1.908  1.00  0.00    -0.0551  A
ATOM     29 H42  665 L   1      13.271  -6.605  -3.001  1.00  0.00    +0.0621  H
ATOM     30 H43  665 L   1      11.454  -8.853   0.052  1.00  0.00    +0.0621  H
ATOM     31 H44  665 L   1      12.298  -8.079  -4.665  1.00  0.00    +0.0621  H
ATOM     32 H45  665 L   1      10.481 -10.328  -1.612  1.00  0.00    +0.0621  H
BRANCH 26 33
ATOM     33 C17  665 L   1      10.719 -10.220  -4.286  1.00  0.00    +0.1179  C
ATOM     34 H46  665 L   1      11.456 -10.922  -4.615  1.00  0.00    +0.0749  H
ATOM     35 H47  665 L   1       9.892 -10.745  -3.857  1.00  0.00    +0.0749  H
BRANCH 33 36
ATOM     36  O1  665 L   1      10.269  -9.449  -5.394  1.00  0.00    -0.4564 OA
BRANCH 36 38
ATOM     37  O3  665 L   1       8.068  -9.559  -4.729  1.00  0.00    -0.2449 OA
ATOM     38 C25  665 L   1       8.923  -9.417  -5.590  1.00  0.00    +0.3398  C
BRANCH 38 39
ATOM     39 C23  665 L   1       8.606  -9.182  -7.022  1.00  0.00    +0.0619  A
ATOM     40 C24  665 L   1       7.668  -9.969  -7.691  1.00  0.00    -0.0362  A
ATOM     41 C27  665 L   1       8.048  -8.700  -9.713  1.00  0.00    -0.0502  A
ATOM     42 C28  665 L   1       7.389  -9.727  -9.036  1.00  0.00    -0.0551  A
ATOM     43 C29  665 L   1       9.265  -8.155  -7.697  1.00  0.00    -0.0473  A
ATOM     44 C31  665 L   1       8.986  -7.914  -9.043  1.00  0.00    -0.0580  A
ATOM     45 C32  665 L   1       6.947 -11.074  -6.991  1.00  0.00    -0.0389  C
ATOM     46 C34  665 L   1       7.751  -8.442 -11.151  1.00  0.00    -0.0397  C
ATOM     47 H52  665 L   1       6.695 -10.309  -9.532  1.00  0.00    +0.0623  H
ATOM     48 H53  665 L   1       9.957  -7.573  -7.202  1.00  0.00    +0.0626  H
ATOM     49 H55  665 L   1       9.474  -7.154  -9.542  1.00  0.00    +0.0620  H
ATOM     50 H56  665 L   1       7.274 -11.125  -5.973  1.00  0.00    +0.0278  H
ATOM     51 H57  665 L   1       7.157 -12.002  -7.479  1.00  0.00    +0.0278  H
ATOM     52 H58  665 L   1       5.894 -10.887  -7.019  1.00  0.00    +0.0278  H
ATOM     53 H60  665 L   1       7.013  -9.136 -11.493  1.00  0.00    +0.0278  H
ATOM     54 H61  665 L   1       8.646  -8.559 -11.726  1.00  0.00    +0.0278  H
ATOM     55 H62  665 L   1       7.382  -7.444 -11.265  1.00  0.00    +0.0278  H
ENDBRANCH 38 39
ENDBRANCH 36 38
ENDBRANCH 33 36
ENDBRANCH 26 33
ENDBRANCH 21 23
BRANCH 21 57
ATOM     56  N5  665 L   1      13.415  -4.329  -0.980  1.00  0.00    -0.3600  N
ATOM     57  C9  665 L   1      14.012  -5.660  -0.914  1.00  0.00    +0.0921  C
ATOM     58 H36  665 L   1      14.085  -3.675  -1.385  1.00  0.00    +0.3450 HD
ATOM     59 H37  665 L   1      13.167  -4.021  -0.039  1.00  0.00    +0.3450 HD
ATOM     60 H38  665 L   1      12.576  -4.360  -1.559  1.00  0.00    +0.3450 HD
ATOM     61 H40  665 L   1      14.894  -5.615  -0.310  1.00  0.00    +0.0926  H
ATOM     62 H41  665 L   1      14.245  -5.968  -1.912  1.00  0.00    +0.0926  H
ENDBRANCH 21 57
ENDBRANCH 19 21
ENDBRANCH 2 18
TORSDOF 8
ENDMDL
MODEL 16
REMARK VINA RESULT:    -6.818      7.120      9.073
REMARK INTER + INTRA:         -10.955
REMARK INTER:                  -8.682
REMARK INTRA:                  -2.273
REMARK UNBOUND:                -0.948
ROOT
ATOM      1  N6  665 L   1       3.911 -10.977 -10.935  1.00  0.00    -0.2626 NA
ATOM      2 C16  665 L   1       8.612  -9.219 -11.587  1.00  0.00    +0.0423  A
ATOM      3 C18  665 L   1       7.901 -10.293 -12.125  1.00  0.00    -0.0305  A
ATOM      4 C19  665 L   1       6.572 -10.536 -11.741  1.00  0.00    -0.0131  A
ATOM      5 C20  665 L   1       8.007  -8.375 -10.658  1.00  0.00    -0.0377  A
ATOM      6 C21  665 L   1       5.963  -9.679 -10.800  1.00  0.00    +0.0004  A
ATOM      7 C22  665 L   1       6.689  -8.601 -10.265  1.00  0.00    -0.0506  A
ATOM      8 C26  665 L   1       5.833 -11.604 -12.262  1.00  0.00    -0.0358  A
ATOM      9 C30  665 L   1       4.642  -9.951 -10.441  1.00  0.00    +0.0353  A
ATOM     10 C33  665 L   1       4.526 -11.777 -11.831  1.00  0.00    +0.0281  A
ATOM     11 H48  665 L   1       8.356 -10.915 -12.813  1.00  0.00    +0.0644  H
ATOM     12 H49  665 L   1       8.535  -7.582 -10.261  1.00  0.00    +0.0638  H
ATOM     13 H50  665 L   1       6.243  -7.974  -9.577  1.00  0.00    +0.0625  H
ATOM     14 H51  665 L   1       6.251 -12.248 -12.951  1.00  0.00    +0.0639  H
ATOM     15 H54  665 L   1       4.191  -9.327  -9.754  1.00  0.00    +0.0836  H
ATOM     16 H59  665 L   1       3.990 -12.566 -12.222  1.00  0.00    +0.0830  H
ENDROOT
BRANCH 2 18
ATOM     17  O2  665 L   1       9.718  -7.401 -13.700  1.00  0.00    -0.2720 OA
ATOM     18  N4  665 L   1       9.932  -8.991 -11.980  1.00  0.00    -0.3255  N
ATOM     19 C10  665 L   1      10.402  -8.129 -12.985  1.00  0.00    +0.2381  C
ATOM     20 H35  665 L   1      10.620  -9.497 -11.491  1.00  0.00    +0.1686 HD
BRANCH 19 21
ATOM     21  C7  665 L   1      11.933  -8.167 -13.107  1.00  0.00    +0.1122  C
ATOM     22 H39  665 L   1      12.286  -7.233 -13.490  1.00  0.00    +0.0502  H
BRANCH 21 23
ATOM     23  C8  665 L   1      12.564  -8.349 -11.736  1.00  0.00    -0.0300  A
ATOM     24 C11  665 L   1      13.267  -7.298 -11.145  1.00  0.00    -0.0573  A
ATOM     25 C12  665 L   1      12.442  -9.568 -11.067  1.00  0.00    -0.0573  A
ATOM     26 C13  665 L   1      13.724  -8.684  -9.221  1.00  0.00    -0.0103  A
ATOM     27 C14  665 L   1      13.847  -7.466  -9.888  1.00  0.00    -0.0551  A
ATOM     28 C15  665 L   1      13.023  -9.735  -9.810  1.00  0.00    -0.0551  A
ATOM     29 H42  665 L   1      13.357  -6.396 -11.640  1.00  0.00    +0.0621  H
ATOM     30 H43  665 L   1      11.922 -10.346 -11.504  1.00  0.00    +0.0621  H
ATOM     31 H44  665 L   1      14.367  -6.688  -9.452  1.00  0.00    +0.0621  H
ATOM     32 H45  665 L   1      12.932 -10.637  -9.316  1.00  0.00    +0.0621  H
BRANCH 26 33
ATOM     33 C17  665 L   1      14.344  -8.863  -7.876  1.00  0.00    +0.1179  C
ATOM     34 H46  665 L   1      15.109  -9.609  -7.932  1.00  0.00    +0.0749  H
ATOM     35 H47  665 L   1      14.772  -7.937  -7.553  1.00  0.00    +0.0749  H
BRANCH 33 36
ATOM     36  O1  665 L   1      13.347  -9.274  -6.947  1.00  0.00    -0.4564 OA
BRANCH 36 38
ATOM     37  O3  665 L   1      13.000  -7.234  -5.940  1.00  0.00    -0.2449 OA
ATOM     38 C25  665 L   1      12.586  -8.282  -6.411  1.00  0.00    +0.3398  C
BRANCH 38 39
ATOM     39 C23  665 L   1      11.145  -8.636  -6.469  1.00  0.00    +0.0619  A
ATOM     40 C24  665 L   1      10.271  -7.964  -7.324  1.00  0.00    -0.0362  A
ATOM     41 C27  665 L   1       8.446  -9.339  -6.536  1.00  0.00    -0.0502  A
ATOM     42 C28  665 L   1       8.922  -8.317  -7.358  1.00  0.00    -0.0551  A
ATOM     43 C29  665 L   1      10.670  -9.659  -5.647  1.00  0.00    -0.0473  A
ATOM     44 C31  665 L   1       9.320 -10.010  -5.680  1.00  0.00    -0.0580  A
ATOM     45 C32  665 L   1      10.753  -6.867  -8.215  1.00  0.00    -0.0389  C
ATOM     46 C34  665 L   1       7.003  -9.716  -6.571  1.00  0.00    -0.0397  C
ATOM     47 H52  665 L   1       8.274  -7.820  -7.990  1.00  0.00    +0.0623  H
ATOM     48 H53  665 L   1      11.317 -10.155  -5.016  1.00  0.00    +0.0626  H
ATOM     49 H55  665 L   1       8.969 -10.767  -5.073  1.00  0.00    +0.0620  H
ATOM     50 H56  665 L   1      11.803  -6.724  -8.067  1.00  0.00    +0.0278  H
ATOM     51 H57  665 L   1      10.234  -5.962  -7.979  1.00  0.00    +0.0278  H
ATOM     52 H58  665 L   1      10.568  -7.128  -9.235  1.00  0.00    +0.0278  H
ATOM     53 H60  665 L   1       6.491  -9.100  -7.279  1.00  0.00    +0.0278  H
ATOM     54 H61  665 L   1       6.575  -9.576  -5.600  1.00  0.00    +0.0278  H
ATOM     55 H62  665 L   1       6.910 -10.742  -6.858  1.00  0.00    +0.0278  H
ENDBRANCH 38 39
ENDBRANCH 36 38
ENDBRANCH 33 36
ENDBRANCH 26 33
ENDBRANCH 21 23
BRANCH 21 57
ATOM     56  N5  665 L   1      11.404  -9.393 -15.206  1.00  0.00    -0.3600  N
ATOM     57  C9  665 L   1      12.363  -9.253 -14.114  1.00  0.00    +0.0921  C
ATOM     58 H36  665 L   1      11.724 -10.118 -15.849  1.00  0.00    +0.3450 HD
ATOM     59 H37  665 L   1      11.325  -8.507 -15.705  1.00  0.00    +0.3450 HD
ATOM     60 H38  665 L   1      10.493  -9.652 -14.827  1.00  0.00    +0.3450 HD
ATOM     61 H40  665 L   1      13.316  -8.987 -14.522  1.00  0.00    +0.0926  H
ATOM     62 H41  665 L   1      12.414 -10.187 -13.595  1.00  0.00    +0.0926  H
ENDBRANCH 21 57
ENDBRANCH 19 21
ENDBRANCH 2 18
TORSDOF 8
ENDMDL
MODEL 17
REMARK VINA RESULT:    -6.792      3.492     11.774
REMARK INTER + INTRA:         -10.917
REMARK INTER:                  -9.569
REMARK INTRA:                  -1.348
REMARK UNBOUND:                -0.948
ROOT
ATOM      1  N6  665 L   1      13.039  -4.253   1.966  1.00  0.00    -0.2626 NA
ATOM      2 C16  665 L   1      12.348  -7.116  -2.149  1.00  0.00    +0.0423  A
ATOM      3 C18  665 L   1      13.355  -6.238  -1.744  1.00  0.00    -0.0305  A
ATOM      4 C19  665 L   1      13.267  -5.569  -0.512  1.00  0.00    -0.0131  A
ATOM      5 C20  665 L   1      11.241  -7.336  -1.333  1.00  0.00    -0.0377  A
ATOM      6 C21  665 L   1      12.144  -5.795   0.312  1.00  0.00    +0.0004  A
ATOM      7 C22  665 L   1      11.137  -6.680  -0.107  1.00  0.00    -0.0506  A
ATOM      8 C26  665 L   1      14.259  -4.683  -0.077  1.00  0.00    -0.0358  A
ATOM      9 C30  665 L   1      12.091  -5.112   1.529  1.00  0.00    +0.0353  A
ATOM     10 C33  665 L   1      14.098  -4.061   1.152  1.00  0.00    +0.0281  A
ATOM     11 H48  665 L   1      14.172  -6.080  -2.354  1.00  0.00    +0.0644  H
ATOM     12 H49  665 L   1      10.498  -7.985  -1.635  1.00  0.00    +0.0638  H
ATOM     13 H50  665 L   1      10.316  -6.846   0.496  1.00  0.00    +0.0625  H
ATOM     14 H51  665 L   1      15.092  -4.497  -0.658  1.00  0.00    +0.0639  H
ATOM     15 H54  665 L   1      11.272  -5.274   2.136  1.00  0.00    +0.0836  H
ATOM     16 H59  665 L   1      14.835  -3.411   1.463  1.00  0.00    +0.0830  H
ENDROOT
BRANCH 2 18
ATOM     17  O2  665 L   1      10.369  -8.847  -3.593  1.00  0.00    -0.2720 OA
ATOM     18  N4  665 L   1      12.451  -7.775  -3.376  1.00  0.00    -0.3255  N
ATOM     19 C10  665 L   1      11.494  -8.584  -4.011  1.00  0.00    +0.2381  C
ATOM     20 H35  665 L   1      13.302  -7.657  -3.856  1.00  0.00    +0.1686 HD
BRANCH 19 21
ATOM     21  C7  665 L   1      12.000  -9.125  -5.356  1.00  0.00    +0.1122  C
ATOM     22 H39  665 L   1      12.178 -10.177  -5.276  1.00  0.00    +0.0502  H
BRANCH 21 23
ATOM     23  C8  665 L   1      10.939  -8.938  -6.430  1.00  0.00    -0.0300  A
ATOM     24 C11  665 L   1      10.654  -7.661  -6.916  1.00  0.00    -0.0573  A
ATOM     25 C12  665 L   1      10.251 -10.044  -6.931  1.00  0.00    -0.0573  A
ATOM     26 C13  665 L   1       8.993  -8.595  -8.400  1.00  0.00    -0.0103  A
ATOM     27 C14  665 L   1       9.681  -7.491  -7.900  1.00  0.00    -0.0551  A
ATOM     28 C15  665 L   1       9.277  -9.872  -7.915  1.00  0.00    -0.0551  A
ATOM     29 H42  665 L   1      11.164  -6.843  -6.546  1.00  0.00    +0.0621  H
ATOM     30 H43  665 L   1      10.461 -10.988  -6.572  1.00  0.00    +0.0621  H
ATOM     31 H44  665 L   1       9.471  -6.545  -8.259  1.00  0.00    +0.0621  H
ATOM     32 H45  665 L   1       8.768 -10.690  -8.285  1.00  0.00    +0.0621  H
BRANCH 26 33
ATOM     33 C17  665 L   1       7.953  -8.413  -9.453  1.00  0.00    +0.1179  C
ATOM     34 H46  665 L   1       7.505  -9.358  -9.680  1.00  0.00    +0.0749  H
ATOM     35 H47  665 L   1       7.201  -7.739  -9.099  1.00  0.00    +0.0749  H
BRANCH 33 36
ATOM     36  O1  665 L   1       8.556  -7.877 -10.625  1.00  0.00    -0.4564 OA
BRANCH 36 38
ATOM     37  O3  665 L   1       8.887  -9.937 -11.598  1.00  0.00    -0.2449 OA
ATOM     38 C25  665 L   1       9.202  -8.770 -11.424  1.00  0.00    +0.3398  C
BRANCH 38 39
ATOM     39 C23  665 L   1      10.373  -8.135 -12.081  1.00  0.00    +0.0619  A
ATOM     40 C24  665 L   1      11.659  -8.283 -11.560  1.00  0.00    -0.0362  A
ATOM     41 C27  665 L   1      12.540  -6.921 -13.352  1.00  0.00    -0.0502  A
ATOM     42 C28  665 L   1      12.742  -7.677 -12.196  1.00  0.00    -0.0551  A
ATOM     43 C29  665 L   1      10.170  -7.380 -13.236  1.00  0.00    -0.0473  A
ATOM     44 C31  665 L   1      11.253  -6.772 -13.872  1.00  0.00    -0.0580  A
ATOM     45 C32  665 L   1      11.904  -9.088 -10.326  1.00  0.00    -0.0389  C
ATOM     46 C34  665 L   1      13.696  -6.271 -14.032  1.00  0.00    -0.0397  C
ATOM     47 H52  665 L   1      13.694  -7.786 -11.812  1.00  0.00    +0.0623  H
ATOM     48 H53  665 L   1       9.219  -7.271 -13.621  1.00  0.00    +0.0626  H
ATOM     49 H55  665 L   1      11.103  -6.214 -14.726  1.00  0.00    +0.0620  H
ATOM     50 H56  665 L   1      10.976  -9.482  -9.967  1.00  0.00    +0.0278  H
ATOM     51 H57  665 L   1      12.341  -8.464  -9.575  1.00  0.00    +0.0278  H
ATOM     52 H58  665 L   1      12.571  -9.893 -10.551  1.00  0.00    +0.0278  H
ATOM     53 H60  665 L   1      14.596  -6.493 -13.496  1.00  0.00    +0.0278  H
ATOM     54 H61  665 L   1      13.547  -5.212 -14.056  1.00  0.00    +0.0278  H
ATOM     55 H62  665 L   1      13.777  -6.642 -15.032  1.00  0.00    +0.0278  H
ENDBRANCH 38 39
ENDBRANCH 36 38
ENDBRANCH 33 36
ENDBRANCH 26 33
ENDBRANCH 21 23
BRANCH 21 57
ATOM     56  N5  665 L   1      13.982  -9.135  -6.860  1.00  0.00    -0.3600  N
ATOM     57  C9  665 L   1      13.347  -8.472  -5.724  1.00  0.00    +0.0921  C
ATOM     58 H36  665 L   1      14.867  -8.674  -7.072  1.00  0.00    +0.3450 HD
ATOM     59 H37  665 L   1      13.367  -9.080  -7.672  1.00  0.00    +0.3450 HD
ATOM     60 H38  665 L   1      14.153 -10.114  -6.630  1.00  0.00    +0.3450 HD
ATOM     61 H40  665 L   1      13.177  -7.445  -5.974  1.00  0.00    +0.0926  H
ATOM     62 H41  665 L   1      14.000  -8.560  -4.882  1.00  0.00    +0.0926  H
ENDBRANCH 21 57
ENDBRANCH 19 21
ENDBRANCH 2 18
TORSDOF 8
ENDMDL
MODEL 18
REMARK VINA RESULT:    -6.714      5.767     10.881
REMARK INTER + INTRA:         -10.802
REMARK INTER:                  -9.719
REMARK INTRA:                  -1.083
REMARK UNBOUND:                -0.948
ROOT
ATOM      1  N6  665 L   1       7.317 -11.379   6.993  1.00  0.00    -0.2626 NA
ATOM      2 C16  665 L   1       9.475  -6.851   6.324  1.00  0.00    +0.0423  A
ATOM      3 C18  665 L   1       8.403  -7.506   5.717  1.00  0.00    -0.0305  A
ATOM      4 C19  665 L   1       8.027  -8.795   6.129  1.00  0.00    -0.0131  A
ATOM      5 C20  665 L   1      10.187  -7.472   7.347  1.00  0.00    -0.0377  A
ATOM      6 C21  665 L   1       8.750  -9.421   7.166  1.00  0.00    +0.0004  A
ATOM      7 C22  665 L   1       9.828  -8.752   7.769  1.00  0.00    -0.0506  A
ATOM      8 C26  665 L   1       6.956  -9.479   5.541  1.00  0.00    -0.0358  A
ATOM      9 C30  665 L   1       8.349 -10.703   7.548  1.00  0.00    +0.0353  A
ATOM     10 C33  665 L   1       6.649 -10.749   6.003  1.00  0.00    +0.0281  A
ATOM     11 H48  665 L   1       7.880  -7.039   4.959  1.00  0.00    +0.0644  H
ATOM     12 H49  665 L   1      10.980  -6.985   7.793  1.00  0.00    +0.0638  H
ATOM     13 H50  665 L   1      10.357  -9.210   8.527  1.00  0.00    +0.0625  H
ATOM     14 H51  665 L   1       6.409  -9.047   4.780  1.00  0.00    +0.0639  H
ATOM     15 H54  665 L   1       8.874 -11.165   8.307  1.00  0.00    +0.0836  H
ATOM     16 H59  665 L   1       5.858 -11.244   5.564  1.00  0.00    +0.0830  H
ENDROOT
BRANCH 2 18
ATOM     17  O2  665 L   1      10.913  -4.663   7.787  1.00  0.00    -0.2720 OA
ATOM     18  N4  665 L   1       9.835  -5.568   5.904  1.00  0.00    -0.3255  N
ATOM     19 C10  665 L   1      10.505  -4.572   6.632  1.00  0.00    +0.2381  C
ATOM     20 H35  665 L   1       9.588  -5.334   4.981  1.00  0.00    +0.1686 HD
BRANCH 19 21
ATOM     21  C7  665 L   1      10.712  -3.294   5.805  1.00  0.00    +0.1122  C
ATOM     22 H39  665 L   1      10.954  -2.480   6.455  1.00  0.00    +0.0502  H
BRANCH 21 23
ATOM     23  C8  665 L   1      11.888  -3.466   4.856  1.00  0.00    -0.0300  A
ATOM     24 C11  665 L   1      12.566  -4.684   4.798  1.00  0.00    -0.0573  A
ATOM     25 C12  665 L   1      12.288  -2.406   4.042  1.00  0.00    -0.0573  A
ATOM     26 C13  665 L   1      14.045  -3.782   3.115  1.00  0.00    -0.0103  A
ATOM     27 C14  665 L   1      13.645  -4.841   3.929  1.00  0.00    -0.0551  A
ATOM     28 C15  665 L   1      13.367  -2.564   3.172  1.00  0.00    -0.0551  A
ATOM     29 H42  665 L   1      12.270  -5.469   5.400  1.00  0.00    +0.0621  H
ATOM     30 H43  665 L   1      11.786  -1.505   4.084  1.00  0.00    +0.0621  H
ATOM     31 H44  665 L   1      14.147  -5.743   3.886  1.00  0.00    +0.0621  H
ATOM     32 H45  665 L   1      13.663  -1.779   2.570  1.00  0.00    +0.0621  H
BRANCH 26 33
ATOM     33 C17  665 L   1      15.198  -3.950   2.184  1.00  0.00    +0.1179  C
ATOM     34 H46  665 L   1      15.414  -3.015   1.711  1.00  0.00    +0.0749  H
ATOM     35 H47  665 L   1      16.056  -4.277   2.734  1.00  0.00    +0.0749  H
BRANCH 33 36
ATOM     36  O1  665 L   1      14.870  -4.919   1.196  1.00  0.00    -0.4564 OA
BRANCH 36 38
ATOM     37  O3  665 L   1      14.034  -3.338  -0.253  1.00  0.00    -0.2449 OA
ATOM     38 C25  665 L   1      14.092  -4.483   0.168  1.00  0.00    +0.3398  C
BRANCH 38 39
ATOM     39 C23  665 L   1      13.295  -5.601  -0.398  1.00  0.00    +0.0619  A
ATOM     40 C24  665 L   1      12.022  -5.898   0.090  1.00  0.00    -0.0362  A
ATOM     41 C27  665 L   1      11.839  -7.712  -1.496  1.00  0.00    -0.0502  A
ATOM     42 C28  665 L   1      11.294  -6.953  -0.460  1.00  0.00    -0.0551  A
ATOM     43 C29  665 L   1      13.840  -6.359  -1.434  1.00  0.00    -0.0473  A
ATOM     44 C31  665 L   1      13.112  -7.415  -1.983  1.00  0.00    -0.0580  A
ATOM     45 C32  665 L   1      11.414  -5.100   1.197  1.00  0.00    -0.0389  C
ATOM     46 C34  665 L   1      11.062  -8.842  -2.083  1.00  0.00    -0.0397  C
ATOM     47 H52  665 L   1      10.352  -7.174  -0.099  1.00  0.00    +0.0623  H
ATOM     48 H53  665 L   1      14.780  -6.139  -1.795  1.00  0.00    +0.0626  H
ATOM     49 H55  665 L   1      13.516  -7.976  -2.749  1.00  0.00    +0.0620  H
ATOM     50 H56  665 L   1      12.097  -4.335   1.502  1.00  0.00    +0.0278  H
ATOM     51 H57  665 L   1      11.206  -5.743   2.027  1.00  0.00    +0.0278  H
ATOM     52 H58  665 L   1      10.504  -4.653   0.857  1.00  0.00    +0.0278  H
ATOM     53 H60  665 L   1      10.117  -8.920  -1.588  1.00  0.00    +0.0278  H
ATOM     54 H61  665 L   1      11.608  -9.754  -1.957  1.00  0.00    +0.0278  H
ATOM     55 H62  665 L   1      10.905  -8.662  -3.126  1.00  0.00    +0.0278  H
ENDBRANCH 38 39
ENDBRANCH 36 38
ENDBRANCH 33 36
ENDBRANCH 26 33
ENDBRANCH 21 23
BRANCH 21 57
ATOM     56  N5  665 L   1       9.048  -1.513   5.306  1.00  0.00    -0.3600  N
ATOM     57  C9  665 L   1       9.407  -2.910   5.078  1.00  0.00    +0.0921  C
ATOM     58 H36  665 L   1       8.183  -1.298   4.810  1.00  0.00    +0.3450 HD
ATOM     59 H37  665 L   1       9.795  -0.910   4.961  1.00  0.00    +0.3450 HD
ATOM     60 H38  665 L   1       8.917  -1.353   6.304  1.00  0.00    +0.3450 HD
ATOM     61 H40  665 L   1       9.536  -3.068   4.028  1.00  0.00    +0.0926  H
ATOM     62 H41  665 L   1       8.619  -3.522   5.465  1.00  0.00    +0.0926  H
ENDBRANCH 21 57
ENDBRANCH 19 21
ENDBRANCH 2 18
TORSDOF 8
ENDMDL
MODEL 19
REMARK VINA RESULT:    -6.665      2.501      3.597
REMARK INTER + INTRA:         -10.731
REMARK INTER:                  -9.740
REMARK INTRA:                  -0.991
REMARK UNBOUND:                -0.948
ROOT
ATOM      1  N6  665 L   1      12.383  -7.305 -12.183  1.00  0.00    -0.2626 NA
ATOM      2 C16  665 L   1      13.004  -8.512  -7.308  1.00  0.00    +0.0423  A
ATOM      3 C18  665 L   1      11.908  -8.528  -8.173  1.00  0.00    -0.0305  A
ATOM      4 C19  665 L   1      12.048  -8.125  -9.511  1.00  0.00    -0.0131  A
ATOM      5 C20  665 L   1      14.251  -8.094  -7.766  1.00  0.00    -0.0377  A
ATOM      6 C21  665 L   1      13.312  -7.701  -9.971  1.00  0.00    +0.0004  A
ATOM      7 C22  665 L   1      14.408  -7.689  -9.091  1.00  0.00    -0.0506  A
ATOM      8 C26  665 L   1      10.969  -8.129 -10.403  1.00  0.00    -0.0358  A
ATOM      9 C30  665 L   1      13.413  -7.307 -11.307  1.00  0.00    +0.0353  A
ATOM     10 C33  665 L   1      11.188  -7.715 -11.708  1.00  0.00    +0.0281  A
ATOM     11 H48  665 L   1      10.987  -8.839  -7.826  1.00  0.00    +0.0644  H
ATOM     12 H49  665 L   1      15.059  -8.083  -7.124  1.00  0.00    +0.0638  H
ATOM     13 H50  665 L   1      15.333  -7.380  -9.428  1.00  0.00    +0.0625  H
ATOM     14 H51  665 L   1      10.032  -8.433 -10.095  1.00  0.00    +0.0639  H
ATOM     15 H54  665 L   1      14.336  -6.997 -11.649  1.00  0.00    +0.0836  H
ATOM     16 H59  665 L   1      10.387  -7.723 -12.357  1.00  0.00    +0.0830  H
ENDROOT
BRANCH 2 18
ATOM     17  O2  665 L   1      10.991  -7.677  -5.248  1.00  0.00    -0.2720 OA
ATOM     18  N4  665 L   1      12.849  -8.918  -5.981  1.00  0.00    -0.3255  N
ATOM     19 C10  665 L   1      11.889  -8.490  -5.048  1.00  0.00    +0.2381  C
ATOM     20 H35  665 L   1      13.493  -9.588  -5.659  1.00  0.00    +0.1686 HD
BRANCH 19 21
ATOM     21  C7  665 L   1      12.061  -9.182  -3.688  1.00  0.00    +0.1122  C
ATOM     22 H39  665 L   1      13.013  -9.668  -3.649  1.00  0.00    +0.0502  H
BRANCH 21 23
ATOM     23  C8  665 L   1      12.045  -8.153  -2.569  1.00  0.00    -0.0300  A
ATOM     24 C11  665 L   1      13.006  -7.141  -2.537  1.00  0.00    -0.0573  A
ATOM     25 C12  665 L   1      11.069  -8.219  -1.573  1.00  0.00    -0.0573  A
ATOM     26 C13  665 L   1      12.017  -6.264  -0.515  1.00  0.00    -0.0103  A
ATOM     27 C14  665 L   1      12.992  -6.198  -1.510  1.00  0.00    -0.0551  A
ATOM     28 C15  665 L   1      11.056  -7.275  -0.547  1.00  0.00    -0.0551  A
ATOM     29 H42  665 L   1      13.728  -7.092  -3.273  1.00  0.00    +0.0621  H
ATOM     30 H43  665 L   1      10.359  -8.967  -1.597  1.00  0.00    +0.0621  H
ATOM     31 H44  665 L   1      13.704  -5.450  -1.486  1.00  0.00    +0.0621  H
ATOM     32 H45  665 L   1      10.334  -7.325   0.190  1.00  0.00    +0.0621  H
BRANCH 26 33
ATOM     33 C17  665 L   1      12.001  -5.255   0.583  1.00  0.00    +0.1179  C
ATOM     34 H46  665 L   1      12.932  -5.286   1.109  1.00  0.00    +0.0749  H
ATOM     35 H47  665 L   1      11.858  -4.279   0.169  1.00  0.00    +0.0749  H
BRANCH 33 36
ATOM     36  O1  665 L   1      10.937  -5.551   1.481  1.00  0.00    -0.4564 OA
BRANCH 36 38
ATOM     37  O3  665 L   1      12.010  -6.584   3.236  1.00  0.00    -0.2449 OA
ATOM     38 C25  665 L   1      11.286  -5.709   2.787  1.00  0.00    +0.3398  C
BRANCH 38 39
ATOM     39 C23  665 L   1      10.659  -4.658   3.629  1.00  0.00    +0.0619  A
ATOM     40 C24  665 L   1       9.392  -4.840   4.184  1.00  0.00    -0.0362  A
ATOM     41 C27  665 L   1       9.526  -2.652   5.201  1.00  0.00    -0.0502  A
ATOM     42 C28  665 L   1       8.826  -3.837   4.971  1.00  0.00    -0.0551  A
ATOM     43 C29  665 L   1      11.359  -3.474   3.859  1.00  0.00    -0.0473  A
ATOM     44 C31  665 L   1      10.793  -2.470   4.645  1.00  0.00    -0.0580  A
ATOM     45 C32  665 L   1       8.622  -6.099   3.954  1.00  0.00    -0.0389  C
ATOM     46 C34  665 L   1       8.921  -1.578   6.041  1.00  0.00    -0.0397  C
ATOM     47 H52  665 L   1       7.889  -3.970   5.382  1.00  0.00    +0.0623  H
ATOM     48 H53  665 L   1      12.296  -3.341   3.449  1.00  0.00    +0.0626  H
ATOM     49 H55  665 L   1      11.311  -1.595   4.815  1.00  0.00    +0.0620  H
ATOM     50 H56  665 L   1       9.193  -6.759   3.335  1.00  0.00    +0.0278  H
ATOM     51 H57  665 L   1       7.696  -5.867   3.469  1.00  0.00    +0.0278  H
ATOM     52 H58  665 L   1       8.422  -6.572   4.893  1.00  0.00    +0.0278  H
ATOM     53 H60  665 L   1       7.956  -1.891   6.379  1.00  0.00    +0.0278  H
ATOM     54 H61  665 L   1       8.825  -0.684   5.462  1.00  0.00    +0.0278  H
ATOM     55 H62  665 L   1       9.550  -1.390   6.886  1.00  0.00    +0.0278  H
ENDBRANCH 38 39
ENDBRANCH 36 38
ENDBRANCH 33 36
ENDBRANCH 26 33
ENDBRANCH 21 23
BRANCH 21 57
ATOM     56  N5  665 L   1       9.747  -9.946  -4.191  1.00  0.00    -0.3600  N
ATOM     57  C9  665 L   1      10.993 -10.280  -3.507  1.00  0.00    +0.0921  C
ATOM     58 H36  665 L   1       9.070 -10.695  -4.049  1.00  0.00    +0.3450 HD
ATOM     59 H37  665 L   1       9.927  -9.836  -5.189  1.00  0.00    +0.3450 HD
ATOM     60 H38  665 L   1       9.376  -9.074  -3.815  1.00  0.00    +0.3450 HD
ATOM     61 H40  665 L   1      11.372 -11.199  -3.905  1.00  0.00    +0.0926  H
ATOM     62 H41  665 L   1      10.784 -10.371  -2.462  1.00  0.00    +0.0926  H
ENDBRANCH 21 57
ENDBRANCH 19 21
ENDBRANCH 2 18
TORSDOF 8
ENDMDL
MODEL 20
REMARK VINA RESULT:    -6.623      2.324      2.840
REMARK INTER + INTRA:         -10.669
REMARK INTER:                  -9.099
REMARK INTRA:                  -1.569
REMARK UNBOUND:                -0.948
ROOT
ATOM      1  N6  665 L   1       9.953  -8.955 -11.086  1.00  0.00    -0.2626 NA
ATOM      2 C16  665 L   1      11.042  -8.299  -6.188  1.00  0.00    +0.0423  A
ATOM      3 C18  665 L   1      11.005  -9.415  -7.026  1.00  0.00    -0.0305  A
ATOM      4 C19  665 L   1      10.658  -9.280  -8.380  1.00  0.00    -0.0131  A
ATOM      5 C20  665 L   1      10.732  -7.037  -6.689  1.00  0.00    -0.0377  A
ATOM      6 C21  665 L   1      10.344  -8.001  -8.884  1.00  0.00    +0.0004  A
ATOM      7 C22  665 L   1      10.384  -6.885  -8.031  1.00  0.00    -0.0506  A
ATOM      8 C26  665 L   1      10.612 -10.380  -9.246  1.00  0.00    -0.0358  A
ATOM      9 C30  665 L   1      10.003  -7.906 -10.234  1.00  0.00    +0.0353  A
ATOM     10 C33  665 L   1      10.259 -10.164 -10.569  1.00  0.00    +0.0281  A
ATOM     11 H48  665 L   1      11.236 -10.347  -6.647  1.00  0.00    +0.0644  H
ATOM     12 H49  665 L   1      10.760  -6.214  -6.067  1.00  0.00    +0.0638  H
ATOM     13 H50  665 L   1      10.155  -5.949  -8.399  1.00  0.00    +0.0625  H
ATOM     14 H51  665 L   1      10.835 -11.328  -8.906  1.00  0.00    +0.0639  H
ATOM     15 H54  665 L   1       9.773  -6.972 -10.608  1.00  0.00    +0.0836  H
ATOM     16 H59  665 L   1      10.228 -10.980 -11.199  1.00  0.00    +0.0830  H
ENDROOT
BRANCH 2 18
ATOM     17  O2  665 L   1      13.625  -7.715  -4.778  1.00  0.00    -0.2720 OA
ATOM     18  N4  665 L   1      11.391  -8.449  -4.844  1.00  0.00    -0.3255  N
ATOM     19 C10  665 L   1      12.622  -8.166  -4.229  1.00  0.00    +0.2381  C
ATOM     20 H35  665 L   1      10.685  -8.796  -4.253  1.00  0.00    +0.1686 HD
BRANCH 19 21
ATOM     21  C7  665 L   1      12.598  -8.471  -2.724  1.00  0.00    +0.1122  C
ATOM     22 H39  665 L   1      13.171  -9.353  -2.527  1.00  0.00    +0.0502  H
BRANCH 21 23
ATOM     23  C8  665 L   1      13.250  -7.338  -1.948  1.00  0.00    -0.0300  A
ATOM     24 C11  665 L   1      12.571  -6.132  -1.769  1.00  0.00    -0.0573  A
ATOM     25 C12  665 L   1      14.528  -7.504  -1.413  1.00  0.00    -0.0573  A
ATOM     26 C13  665 L   1      14.448  -5.259  -0.524  1.00  0.00    -0.0103  A
ATOM     27 C14  665 L   1      13.171  -5.093  -1.058  1.00  0.00    -0.0551  A
ATOM     28 C15  665 L   1      15.127  -6.464  -0.702  1.00  0.00    -0.0551  A
ATOM     29 H42  665 L   1      11.626  -6.009  -2.165  1.00  0.00    +0.0621  H
ATOM     30 H43  665 L   1      15.031  -8.396  -1.545  1.00  0.00    +0.0621  H
ATOM     31 H44  665 L   1      12.668  -4.200  -0.926  1.00  0.00    +0.0621  H
ATOM     32 H45  665 L   1      16.073  -6.587  -0.306  1.00  0.00    +0.0621  H
BRANCH 26 33
ATOM     33 C17  665 L   1      15.088  -4.148   0.238  1.00  0.00    +0.1179  C
ATOM     34 H46  665 L   1      15.878  -4.539   0.845  1.00  0.00    +0.0749  H
ATOM     35 H47  665 L   1      15.488  -3.430  -0.447  1.00  0.00    +0.0749  H
BRANCH 33 36
ATOM     36  O1  665 L   1      14.116  -3.522   1.068  1.00  0.00    -0.4564 OA
BRANCH 36 38
ATOM     37  O3  665 L   1      15.063  -3.929   3.126  1.00  0.00    -0.2449 OA
ATOM     38 C25  665 L   1      14.103  -3.914   2.371  1.00  0.00    +0.3398  C
BRANCH 38 39
ATOM     39 C23  665 L   1      12.738  -4.336   2.778  1.00  0.00    +0.0619  A
ATOM     40 C24  665 L   1      11.932  -3.508   3.560  1.00  0.00    -0.0362  A
ATOM     41 C27  665 L   1      10.184  -5.176   3.520  1.00  0.00    -0.0502  A
ATOM     42 C28  665 L   1      10.654  -3.928   3.929  1.00  0.00    -0.0551  A
ATOM     43 C29  665 L   1      12.269  -5.583   2.368  1.00  0.00    -0.0473  A
ATOM     44 C31  665 L   1      10.991  -6.004   2.739  1.00  0.00    -0.0580  A
ATOM     45 C32  665 L   1      12.410  -2.166   4.011  1.00  0.00    -0.0389  C
ATOM     46 C34  665 L   1       8.819  -5.627   3.915  1.00  0.00    -0.0397  C
ATOM     47 H52  665 L   1      10.056  -3.316   4.508  1.00  0.00    +0.0623  H
ATOM     48 H53  665 L   1      12.865  -6.194   1.790  1.00  0.00    +0.0626  H
ATOM     49 H55  665 L   1      10.644  -6.927   2.435  1.00  0.00    +0.0620  H
ATOM     50 H56  665 L   1      13.401  -1.999   3.645  1.00  0.00    +0.0278  H
ATOM     51 H57  665 L   1      12.414  -2.131   5.081  1.00  0.00    +0.0278  H
ATOM     52 H58  665 L   1      11.756  -1.409   3.633  1.00  0.00    +0.0278  H
ATOM     53 H60  665 L   1       8.350  -4.869   4.507  1.00  0.00    +0.0278  H
ATOM     54 H61  665 L   1       8.892  -6.530   4.485  1.00  0.00    +0.0278  H
ATOM     55 H62  665 L   1       8.234  -5.806   3.037  1.00  0.00    +0.0278  H
ENDBRANCH 38 39
ENDBRANCH 36 38
ENDBRANCH 33 36
ENDBRANCH 26 33
ENDBRANCH 21 23
BRANCH 21 57
ATOM     56  N5  665 L   1      10.998 -10.145  -1.816  1.00  0.00    -0.3600  N
ATOM     57  C9  665 L   1      11.157  -8.763  -2.261  1.00  0.00    +0.0921  C
ATOM     58 H36  665 L   1      10.034 -10.298  -1.518  1.00  0.00    +0.3450 HD
ATOM     59 H37  665 L   1      11.628 -10.325  -1.035  1.00  0.00    +0.3450 HD
ATOM     60 H38  665 L   1      11.221 -10.777  -2.585  1.00  0.00    +0.3450 HD
ATOM     61 H40  665 L   1      10.915  -8.108  -1.449  1.00  0.00    +0.0926  H
ATOM     62 H41  665 L   1      10.501  -8.605  -3.092  1.00  0.00    +0.0926  H
ENDBRANCH 21 57
ENDBRANCH 19 21
ENDBRANCH 2 18
TORSDOF 8
ENDMDL
