MODEL 1
REMARK VINA RESULT:    -7.347      0.000      0.000
REMARK INTER + INTRA:         -11.927
REMARK INTER:                 -10.783
REMARK INTRA:                  -1.145
REMARK UNBOUND:                -1.145
ROOT
ATOM      1  N6  665 L   1       6.159  -8.880 -10.464  1.00  0.00    -0.2626 NA
ATOM      2 C16  665 L   1       9.017  -9.472  -6.330  1.00  0.00    +0.0423  A
ATOM      3 C18  665 L   1       9.304  -9.211  -7.671  1.00  0.00    -0.0305  A
ATOM      4 C19  665 L   1       8.270  -9.096  -8.614  1.00  0.00    -0.0131  A
ATOM      5 C20  665 L   1       7.697  -9.624  -5.914  1.00  0.00    -0.0377  A
ATOM      6 C21  665 L   1       6.934  -9.252  -8.189  1.00  0.00    +0.0004  A
ATOM      7 C22  665 L   1       6.657  -9.515  -6.837  1.00  0.00    -0.0506  A
ATOM      8 C26  665 L   1       8.525  -8.835  -9.966  1.00  0.00    -0.0358  A
ATOM      9 C30  665 L   1       5.933  -9.133  -9.155  1.00  0.00    +0.0353  A
ATOM     10 C33  665 L   1       7.449  -8.738 -10.835  1.00  0.00    +0.0281  A
ATOM     11 H47  665 L   1      10.340  -9.092  -7.989  1.00  0.00    +0.0644  H
ATOM     12 H48  665 L   1       7.397  -9.825  -4.896  1.00  0.00    +0.0638  H
ATOM     13 H49  665 L   1       5.631  -9.636  -6.497  1.00  0.00    +0.0625  H
ATOM     14 H50  665 L   1       9.536  -8.709 -10.338  1.00  0.00    +0.0639  H
ATOM     15 H53  665 L   1       4.883  -9.240  -8.894  1.00  0.00    +0.0836  H
ATOM     16 H58  665 L   1       7.606  -8.536 -11.889  1.00  0.00    +0.0830  H
ENDROOT
BRANCH 2 18
ATOM     17  O2  665 L   1      11.210  -7.544  -5.641  1.00  0.00    -0.2722 OA
ATOM     18  N4  665 L   1      10.057  -9.581  -5.404  1.00  0.00    -0.3256  N
ATOM     19 C10  665 L   1      11.069  -8.648  -5.121  1.00  0.00    +0.2339  C
ATOM     20 H42  665 L   1      10.076 -10.452  -4.880  1.00  0.00    +0.1686 HD
BRANCH 19 21
ATOM     21  C7  665 L   1      12.026  -9.151  -4.030  1.00  0.00    +0.0752  C
ATOM     22 H35  665 L   1      13.029  -9.221  -4.476  1.00  0.00    +0.0458  H
BRANCH 21 23
ATOM     23  C8  665 L   1      12.068  -8.165  -2.873  1.00  0.00    -0.0341  A
ATOM     24 C11  665 L   1      13.143  -7.285  -2.744  1.00  0.00    -0.0574  A
ATOM     25 C12  665 L   1      11.032  -8.141  -1.939  1.00  0.00    -0.0574  A
ATOM     26 C13  665 L   1      12.146  -6.358  -0.749  1.00  0.00    -0.0103  A
ATOM     27 C14  665 L   1      13.182  -6.382  -1.682  1.00  0.00    -0.0551  A
ATOM     28 C15  665 L   1      11.072  -7.237  -0.877  1.00  0.00    -0.0551  A
ATOM     29 H38  665 L   1      13.958  -7.293  -3.465  1.00  0.00    +0.0621  H
ATOM     30 H39  665 L   1      10.185  -8.815  -2.021  1.00  0.00    +0.0621  H
ATOM     31 H40  665 L   1      14.025  -5.702  -1.596  1.00  0.00    +0.0621  H
ATOM     32 H41  665 L   1      10.258  -7.227  -0.156  1.00  0.00    +0.0621  H
BRANCH 26 33
ATOM     33 C17  665 L   1      12.188  -5.391   0.386  1.00  0.00    +0.1179  C
ATOM     34 H43  665 L   1      13.168  -5.441   0.876  1.00  0.00    +0.0749  H
ATOM     35 H44  665 L   1      12.044  -4.365   0.027  1.00  0.00    +0.0749  H
BRANCH 33 36
ATOM     36  O1  665 L   1      11.163  -5.715   1.319  1.00  0.00    -0.4564 OA
BRANCH 36 38
ATOM     37  O3  665 L   1      12.304  -6.657   3.083  1.00  0.00    -0.2449 OA
ATOM     38 C25  665 L   1      11.550  -5.814   2.620  1.00  0.00    +0.3398  C
BRANCH 38 39
ATOM     39 C23  665 L   1      10.926  -4.742   3.437  1.00  0.00    +0.0619  A
ATOM     40 C24  665 L   1      11.624  -3.574   3.747  1.00  0.00    -0.0362  A
ATOM     41 C27  665 L   1       9.709  -2.760   4.977  1.00  0.00    -0.0502  A
ATOM     42 C28  665 L   1      11.014  -2.583   4.516  1.00  0.00    -0.0551  A
ATOM     43 C29  665 L   1       9.622  -4.920   3.897  1.00  0.00    -0.0473  A
ATOM     44 C31  665 L   1       9.013  -3.929   4.668  1.00  0.00    -0.0580  A
ATOM     45 C32  665 L   1      13.021  -3.358   3.265  1.00  0.00    -0.0389  C
ATOM     46 C34  665 L   1       9.058  -1.702   5.801  1.00  0.00    -0.0397  C
ATOM     47 H51  665 L   1      11.554  -1.672   4.764  1.00  0.00    +0.0623  H
ATOM     48 H52  665 L   1       9.068  -5.826   3.667  1.00  0.00    +0.0626  H
ATOM     49 H54  665 L   1       7.997  -4.080   5.022  1.00  0.00    +0.0620  H
ATOM     50 H55  665 L   1      13.712  -4.024   3.793  1.00  0.00    +0.0278  H
ATOM     51 H56  665 L   1      13.095  -3.536   2.188  1.00  0.00    +0.0278  H
ATOM     52 H57  665 L   1      13.354  -2.329   3.441  1.00  0.00    +0.0278  H
ATOM     53 H59  665 L   1       7.970  -1.709   5.667  1.00  0.00    +0.0278  H
ATOM     54 H60  665 L   1       9.409  -0.705   5.512  1.00  0.00    +0.0278  H
ATOM     55 H61  665 L   1       9.281  -1.859   6.860  1.00  0.00    +0.0278  H
ENDBRANCH 38 39
ENDBRANCH 36 38
ENDBRANCH 33 36
ENDBRANCH 26 33
ENDBRANCH 21 23
BRANCH 21 57
ATOM     56  N5  665 L   1      12.131 -11.589  -4.517  1.00  0.00    -0.3289 NA
ATOM     57  C9  665 L   1      11.634 -10.576  -3.589  1.00  0.00    +0.0085  C
ATOM     58 H36  665 L   1      12.006 -10.803  -2.583  1.00  0.00    +0.0432  H
ATOM     59 H37  665 L   1      10.540 -10.652  -3.541  1.00  0.00    +0.0432  H
ATOM     60 H45  665 L   1      11.843 -12.511  -4.193  1.00  0.00    +0.1182 HD
ATOM     61 H46  665 L   1      13.150 -11.594  -4.512  1.00  0.00    +0.1182 HD
ENDBRANCH 21 57
ENDBRANCH 19 21
ENDBRANCH 2 18
TORSDOF 8
ENDMDL
MODEL 2
REMARK VINA RESULT:    -7.300      2.159      3.013
REMARK INTER + INTRA:         -11.859
REMARK INTER:                 -10.091
REMARK INTRA:                  -1.768
REMARK UNBOUND:                -1.145
ROOT
ATOM      1  N6  665 L   1       8.940  -7.804  -9.140  1.00  0.00    -0.2626 NA
ATOM      2 C16  665 L   1      11.063  -8.779  -4.651  1.00  0.00    +0.0423  A
ATOM      3 C18  665 L   1      11.361  -7.891  -5.686  1.00  0.00    -0.0305  A
ATOM      4 C19  665 L   1      10.566  -7.848  -6.842  1.00  0.00    -0.0131  A
ATOM      5 C20  665 L   1       9.969  -9.635  -4.757  1.00  0.00    -0.0377  A
ATOM      6 C21  665 L   1       9.459  -8.717  -6.947  1.00  0.00    +0.0004  A
ATOM      7 C22  665 L   1       9.169  -9.607  -5.899  1.00  0.00    -0.0506  A
ATOM      8 C26  665 L   1      10.839  -6.969  -7.897  1.00  0.00    -0.0358  A
ATOM      9 C30  665 L   1       8.693  -8.646  -8.111  1.00  0.00    +0.0353  A
ATOM     10 C33  665 L   1      10.006  -6.988  -9.006  1.00  0.00    +0.0281  A
ATOM     11 H47  665 L   1      12.218  -7.224  -5.595  1.00  0.00    +0.0644  H
ATOM     12 H48  665 L   1       9.674 -10.346  -3.999  1.00  0.00    +0.0638  H
ATOM     13 H49  665 L   1       8.318 -10.281  -5.967  1.00  0.00    +0.0625  H
ATOM     14 H50  665 L   1      11.679  -6.284  -7.861  1.00  0.00    +0.0639  H
ATOM     15 H53  665 L   1       7.826  -9.287  -8.255  1.00  0.00    +0.0836  H
ATOM     16 H58  665 L   1      10.186  -6.321  -9.843  1.00  0.00    +0.0830  H
ENDROOT
BRANCH 2 18
ATOM     17  O2  665 L   1      10.665  -7.486  -1.974  1.00  0.00    -0.2722 OA
ATOM     18  N4  665 L   1      11.862  -8.808  -3.506  1.00  0.00    -0.3256  N
ATOM     19 C10  665 L   1      11.635  -8.178  -2.272  1.00  0.00    +0.2339  C
ATOM     20 H42  665 L   1      12.716  -9.354  -3.593  1.00  0.00    +0.1686 HD
BRANCH 19 21
ATOM     21  C7  665 L   1      12.761  -8.460  -1.266  1.00  0.00    +0.0752  C
ATOM     22 H35  665 L   1      13.651  -8.761  -1.840  1.00  0.00    +0.0458  H
BRANCH 21 23
ATOM     23  C8  665 L   1      13.086  -7.203  -0.474  1.00  0.00    -0.0341  A
ATOM     24 C11  665 L   1      13.758  -6.145  -1.088  1.00  0.00    -0.0574  A
ATOM     25 C12  665 L   1      12.713  -7.107   0.867  1.00  0.00    -0.0574  A
ATOM     26 C13  665 L   1      13.683  -4.897   0.978  1.00  0.00    -0.0103  A
ATOM     27 C14  665 L   1      14.057  -4.993  -0.361  1.00  0.00    -0.0551  A
ATOM     28 C15  665 L   1      13.012  -5.954   1.593  1.00  0.00    -0.0551  A
ATOM     29 H38  665 L   1      14.055  -6.206  -2.133  1.00  0.00    +0.0621  H
ATOM     30 H39  665 L   1      12.188  -7.917   1.364  1.00  0.00    +0.0621  H
ATOM     31 H40  665 L   1      14.579  -4.177  -0.854  1.00  0.00    +0.0621  H
ATOM     32 H41  665 L   1      12.715  -5.891   2.637  1.00  0.00    +0.0621  H
BRANCH 26 33
ATOM     33 C17  665 L   1      14.003  -3.665   1.756  1.00  0.00    +0.1179  C
ATOM     34 H43  665 L   1      15.078  -3.459   1.693  1.00  0.00    +0.0749  H
ATOM     35 H44  665 L   1      13.471  -2.798   1.343  1.00  0.00    +0.0749  H
BRANCH 33 36
ATOM     36  O1  665 L   1      13.623  -3.852   3.115  1.00  0.00    -0.4564 OA
BRANCH 36 38
ATOM     37  O3  665 L   1      13.073  -1.683   3.653  1.00  0.00    -0.2449 OA
ATOM     38 C25  665 L   1      12.837  -2.881   3.653  1.00  0.00    +0.3398  C
BRANCH 38 39
ATOM     39 C23  665 L   1      11.618  -3.471   4.263  1.00  0.00    +0.0619  A
ATOM     40 C24  665 L   1      11.642  -4.001   5.554  1.00  0.00    -0.0362  A
ATOM     41 C27  665 L   1       9.300  -4.568   5.363  1.00  0.00    -0.0502  A
ATOM     42 C28  665 L   1      10.483  -4.549   6.103  1.00  0.00    -0.0551  A
ATOM     43 C29  665 L   1      10.436  -3.490   3.522  1.00  0.00    -0.0473  A
ATOM     44 C31  665 L   1       9.277  -4.039   4.072  1.00  0.00    -0.0580  A
ATOM     45 C32  665 L   1      12.893  -3.991   6.369  1.00  0.00    -0.0389  C
ATOM     46 C34  665 L   1       8.061  -5.155   5.948  1.00  0.00    -0.0397  C
ATOM     47 H51  665 L   1      10.496  -4.966   7.107  1.00  0.00    +0.0623  H
ATOM     48 H52  665 L   1      10.404  -3.084   2.515  1.00  0.00    +0.0626  H
ATOM     49 H54  665 L   1       8.364  -4.050   3.484  1.00  0.00    +0.0620  H
ATOM     50 H55  665 L   1      13.619  -4.703   5.961  1.00  0.00    +0.0278  H
ATOM     51 H56  665 L   1      13.337  -2.991   6.392  1.00  0.00    +0.0278  H
ATOM     52 H57  665 L   1      12.700  -4.276   7.409  1.00  0.00    +0.0278  H
ATOM     53 H59  665 L   1       7.164  -4.682   5.533  1.00  0.00    +0.0278  H
ATOM     54 H60  665 L   1       8.029  -5.005   7.033  1.00  0.00    +0.0278  H
ATOM     55 H61  665 L   1       8.019  -6.229   5.740  1.00  0.00    +0.0278  H
ENDBRANCH 38 39
ENDBRANCH 36 38
ENDBRANCH 33 36
ENDBRANCH 26 33
ENDBRANCH 21 23
BRANCH 21 57
ATOM     56  N5  665 L   1      11.241 -10.393  -0.889  1.00  0.00    -0.3289 NA
ATOM     57  C9  665 L   1      12.387  -9.655  -0.366  1.00  0.00    +0.0085  C
ATOM     58 H36  665 L   1      13.230 -10.347  -0.245  1.00  0.00    +0.0432  H
ATOM     59 H37  665 L   1      12.139  -9.289   0.638  1.00  0.00    +0.0432  H
ATOM     60 H45  665 L   1      11.024 -11.166  -0.261  1.00  0.00    +0.1182 HD
ATOM     61 H46  665 L   1      11.479 -10.816  -1.784  1.00  0.00    +0.1182 HD
ENDBRANCH 21 57
ENDBRANCH 19 21
ENDBRANCH 2 18
TORSDOF 8
ENDMDL
MODEL 3
REMARK VINA RESULT:    -7.291      4.050     11.084
REMARK INTER + INTRA:         -11.846
REMARK INTER:                 -10.450
REMARK INTRA:                  -1.395
REMARK UNBOUND:                -1.145
ROOT
ATOM      1  N6  665 L   1       7.437  -5.477   6.537  1.00  0.00    -0.2626 NA
ATOM      2 C16  665 L   1      11.375  -4.380   3.554  1.00  0.00    +0.0423  A
ATOM      3 C18  665 L   1      10.736  -5.569   3.907  1.00  0.00    -0.0305  A
ATOM      4 C19  665 L   1       9.636  -5.557   4.780  1.00  0.00    -0.0131  A
ATOM      5 C20  665 L   1      10.927  -3.165   4.067  1.00  0.00    -0.0377  A
ATOM      6 C21  665 L   1       9.185  -4.325   5.299  1.00  0.00    +0.0004  A
ATOM      7 C22  665 L   1       9.837  -3.134   4.936  1.00  0.00    -0.0506  A
ATOM      8 C26  665 L   1       8.973  -6.733   5.154  1.00  0.00    -0.0358  A
ATOM      9 C30  665 L   1       8.090  -4.352   6.165  1.00  0.00    +0.0353  A
ATOM     10 C33  665 L   1       7.896  -6.637   6.022  1.00  0.00    +0.0281  A
ATOM     11 H47  665 L   1      11.092  -6.516   3.501  1.00  0.00    +0.0644  H
ATOM     12 H48  665 L   1      11.368  -2.206   3.839  1.00  0.00    +0.0638  H
ATOM     13 H49  665 L   1       9.498  -2.178   5.329  1.00  0.00    +0.0625  H
ATOM     14 H50  665 L   1       9.285  -7.703   4.781  1.00  0.00    +0.0639  H
ATOM     15 H53  665 L   1       7.692  -3.439   6.599  1.00  0.00    +0.0836  H
ATOM     16 H58  665 L   1       7.357  -7.525   6.334  1.00  0.00    +0.0830  H
ENDROOT
BRANCH 2 18
ATOM     17  O2  665 L   1      14.316  -4.477   4.132  1.00  0.00    -0.2722 OA
ATOM     18  N4  665 L   1      12.466  -4.409   2.683  1.00  0.00    -0.3256  N
ATOM     19 C10  665 L   1      13.833  -4.447   3.003  1.00  0.00    +0.2339  C
ATOM     20 H42  665 L   1      12.227  -4.393   1.694  1.00  0.00    +0.1686 HD
BRANCH 19 21
ATOM     21  C7  665 L   1      14.719  -4.469   1.749  1.00  0.00    +0.0752  C
ATOM     22 H35  665 L   1      15.674  -4.941   2.025  1.00  0.00    +0.0458  H
BRANCH 21 23
ATOM     23  C8  665 L   1      14.060  -5.293   0.654  1.00  0.00    -0.0341  A
ATOM     24 C11  665 L   1      13.905  -6.670   0.814  1.00  0.00    -0.0574  A
ATOM     25 C12  665 L   1      13.608  -4.671  -0.511  1.00  0.00    -0.0574  A
ATOM     26 C13  665 L   1      12.851  -6.805  -1.355  1.00  0.00    -0.0103  A
ATOM     27 C14  665 L   1      13.302  -7.426  -0.191  1.00  0.00    -0.0551  A
ATOM     28 C15  665 L   1      13.005  -5.428  -1.516  1.00  0.00    -0.0551  A
ATOM     29 H38  665 L   1      14.252  -7.168   1.716  1.00  0.00    +0.0621  H
ATOM     30 H39  665 L   1      13.717  -3.601  -0.655  1.00  0.00    +0.0621  H
ATOM     31 H40  665 L   1      13.187  -8.497  -0.052  1.00  0.00    +0.0621  H
ATOM     32 H41  665 L   1      12.656  -4.932  -2.419  1.00  0.00    +0.0621  H
BRANCH 26 33
ATOM     33 C17  665 L   1      12.205  -7.613  -2.430  1.00  0.00    +0.1179  C
ATOM     34 H43  665 L   1      12.316  -8.680  -2.204  1.00  0.00    +0.0749  H
ATOM     35 H44  665 L   1      11.132  -7.392  -2.488  1.00  0.00    +0.0749  H
BRANCH 33 36
ATOM     36  O1  665 L   1      12.819  -7.315  -3.679  1.00  0.00    -0.4564 OA
BRANCH 36 38
ATOM     37  O3  665 L   1      13.627  -9.313  -4.485  1.00  0.00    -0.2449 OA
ATOM     38 C25  665 L   1      12.892  -8.342  -4.568  1.00  0.00    +0.3398  C
BRANCH 38 39
ATOM     39 C23  665 L   1      11.940  -8.134  -5.689  1.00  0.00    +0.0619  A
ATOM     40 C24  665 L   1      10.714  -8.799  -5.725  1.00  0.00    -0.0362  A
ATOM     41 C27  665 L   1      10.188  -7.711  -7.818  1.00  0.00    -0.0502  A
ATOM     42 C28  665 L   1       9.838  -8.586  -6.790  1.00  0.00    -0.0551  A
ATOM     43 C29  665 L   1      12.291  -7.259  -6.717  1.00  0.00    -0.0473  A
ATOM     44 C31  665 L   1      11.415  -7.047  -7.782  1.00  0.00    -0.0580  A
ATOM     45 C32  665 L   1      10.313  -9.740  -4.637  1.00  0.00    -0.0389  C
ATOM     46 C34  665 L   1       9.253  -7.484  -8.958  1.00  0.00    -0.0397  C
ATOM     47 H51  665 L   1       8.882  -9.104  -6.826  1.00  0.00    +0.0623  H
ATOM     48 H52  665 L   1      13.244  -6.737  -6.703  1.00  0.00    +0.0626  H
ATOM     49 H54  665 L   1      11.700  -6.364  -8.577  1.00  0.00    +0.0620  H
ATOM     50 H55  665 L   1      10.917 -10.652  -4.682  1.00  0.00    +0.0278  H
ATOM     51 H56  665 L   1      10.430  -9.273  -3.654  1.00  0.00    +0.0278  H
ATOM     52 H57  665 L   1       9.261 -10.035  -4.725  1.00  0.00    +0.0278  H
ATOM     53 H59  665 L   1       9.382  -6.481  -9.382  1.00  0.00    +0.0278  H
ATOM     54 H60  665 L   1       8.210  -7.562  -8.633  1.00  0.00    +0.0278  H
ATOM     55 H61  665 L   1       9.433  -8.223  -9.744  1.00  0.00    +0.0278  H
ENDBRANCH 38 39
ENDBRANCH 36 38
ENDBRANCH 33 36
ENDBRANCH 26 33
ENDBRANCH 21 23
BRANCH 21 57
ATOM     56  N5  665 L   1      14.480  -2.035   2.206  1.00  0.00    -0.3289 NA
ATOM     57  C9  665 L   1      15.047  -3.030   1.301  1.00  0.00    +0.0085  C
ATOM     58 H36  665 L   1      16.129  -2.868   1.228  1.00  0.00    +0.0432  H
ATOM     59 H37  665 L   1      14.639  -2.862   0.296  1.00  0.00    +0.0432  H
ATOM     60 H45  665 L   1      14.713  -1.102   1.869  1.00  0.00    +0.1182 HD
ATOM     61 H46  665 L   1      14.910  -2.117   3.126  1.00  0.00    +0.1182 HD
ENDBRANCH 21 57
ENDBRANCH 19 21
ENDBRANCH 2 18
TORSDOF 8
ENDMDL
MODEL 4
REMARK VINA RESULT:    -7.279      3.158     11.289
REMARK INTER + INTRA:         -11.828
REMARK INTER:                 -10.592
REMARK INTRA:                  -1.235
REMARK UNBOUND:                -1.145
ROOT
ATOM      1  N6  665 L   1      14.097  -2.405   2.930  1.00  0.00    -0.2626 NA
ATOM      2 C16  665 L   1      13.225  -6.317  -0.159  1.00  0.00    +0.0423  A
ATOM      3 C18  665 L   1      12.645  -5.883   1.034  1.00  0.00    -0.0305  A
ATOM      4 C19  665 L   1      13.114  -4.727   1.678  1.00  0.00    -0.0131  A
ATOM      5 C20  665 L   1      14.282  -5.606  -0.722  1.00  0.00    -0.0377  A
ATOM      6 C21  665 L   1      14.185  -4.009   1.105  1.00  0.00    +0.0004  A
ATOM      7 C22  665 L   1      14.763  -4.457  -0.095  1.00  0.00    -0.0506  A
ATOM      8 C26  665 L   1      12.553  -4.265   2.875  1.00  0.00    -0.0358  A
ATOM      9 C30  665 L   1      14.626  -2.866   1.775  1.00  0.00    +0.0353  A
ATOM     10 C33  665 L   1      13.075  -3.117   3.450  1.00  0.00    +0.0281  A
ATOM     11 H47  665 L   1      11.818  -6.444   1.468  1.00  0.00    +0.0644  H
ATOM     12 H48  665 L   1      14.781  -5.878  -1.641  1.00  0.00    +0.0638  H
ATOM     13 H49  665 L   1      15.588  -3.911  -0.548  1.00  0.00    +0.0625  H
ATOM     14 H50  665 L   1      11.729  -4.786   3.353  1.00  0.00    +0.0639  H
ATOM     15 H53  665 L   1      15.446  -2.268   1.387  1.00  0.00    +0.0836  H
ATOM     16 H58  665 L   1      12.666  -2.728   4.377  1.00  0.00    +0.0830  H
ENDROOT
BRANCH 2 18
ATOM     17  O2  665 L   1      10.597  -6.835  -1.508  1.00  0.00    -0.2722 OA
ATOM     18  N4  665 L   1      12.745  -7.467  -0.789  1.00  0.00    -0.3256  N
ATOM     19 C10  665 L   1      11.498  -7.664  -1.404  1.00  0.00    +0.2339  C
ATOM     20 H42  665 L   1      13.387  -8.256  -0.790  1.00  0.00    +0.1686 HD
BRANCH 19 21
ATOM     21  C7  665 L   1      11.359  -9.080  -1.982  1.00  0.00    +0.0752  C
ATOM     22 H35  665 L   1      10.398  -9.489  -1.631  1.00  0.00    +0.0458  H
BRANCH 21 23
ATOM     23  C8  665 L   1      11.347  -9.029  -3.502  1.00  0.00    -0.0341  A
ATOM     24 C11  665 L   1      12.211  -8.168  -4.178  1.00  0.00    -0.0574  A
ATOM     25 C12  665 L   1      10.472  -9.845  -4.220  1.00  0.00    -0.0574  A
ATOM     26 C13  665 L   1      11.325  -8.935  -6.290  1.00  0.00    -0.0103  A
ATOM     27 C14  665 L   1      12.199  -8.120  -5.572  1.00  0.00    -0.0551  A
ATOM     28 C15  665 L   1      10.460  -9.797  -5.614  1.00  0.00    -0.0551  A
ATOM     29 H38  665 L   1      12.899  -7.527  -3.631  1.00  0.00    +0.0621  H
ATOM     30 H39  665 L   1       9.792 -10.524  -3.714  1.00  0.00    +0.0621  H
ATOM     31 H40  665 L   1      12.879  -7.446  -6.085  1.00  0.00    +0.0621  H
ATOM     32 H41  665 L   1       9.775 -10.438  -6.163  1.00  0.00    +0.0621  H
BRANCH 26 33
ATOM     33 C17  665 L   1      11.312  -8.885  -7.781  1.00  0.00    +0.1179  C
ATOM     34 H43  665 L   1      11.538  -7.866  -8.116  1.00  0.00    +0.0749  H
ATOM     35 H44  665 L   1      12.077  -9.552  -8.197  1.00  0.00    +0.0749  H
BRANCH 33 36
ATOM     36  O1  665 L   1      10.029  -9.279  -8.255  1.00  0.00    -0.4564 OA
BRANCH 36 38
ATOM     37  O3  665 L   1       9.262  -7.118  -8.057  1.00  0.00    -0.2449 OA
ATOM     38 C25  665 L   1       9.114  -8.282  -8.395  1.00  0.00    +0.3398  C
BRANCH 38 39
ATOM     39 C23  665 L   1       7.871  -8.795  -9.026  1.00  0.00    +0.0619  A
ATOM     40 C24  665 L   1       6.846  -9.346  -8.256  1.00  0.00    -0.0362  A
ATOM     41 C27  665 L   1       5.557  -9.747 -10.261  1.00  0.00    -0.0502  A
ATOM     42 C28  665 L   1       5.689  -9.821  -8.874  1.00  0.00    -0.0551  A
ATOM     43 C29  665 L   1       7.740  -8.721 -10.413  1.00  0.00    -0.0473  A
ATOM     44 C31  665 L   1       6.583  -9.196 -11.031  1.00  0.00    -0.0580  A
ATOM     45 C32  665 L   1       6.960  -9.437  -6.770  1.00  0.00    -0.0389  C
ATOM     46 C34  665 L   1       4.322 -10.256 -10.923  1.00  0.00    -0.0397  C
ATOM     47 H51  665 L   1       4.888 -10.255  -8.280  1.00  0.00    +0.0623  H
ATOM     48 H52  665 L   1       8.532  -8.297 -11.025  1.00  0.00    +0.0626  H
ATOM     49 H54  665 L   1       6.494  -9.134 -12.112  1.00  0.00    +0.0620  H
ATOM     50 H55  665 L   1       7.704 -10.190  -6.490  1.00  0.00    +0.0278  H
ATOM     51 H56  665 L   1       7.242  -8.470  -6.340  1.00  0.00    +0.0278  H
ATOM     52 H57  665 L   1       6.009  -9.724  -6.308  1.00  0.00    +0.0278  H
ATOM     53 H59  665 L   1       4.120  -9.714 -11.854  1.00  0.00    +0.0278  H
ATOM     54 H60  665 L   1       3.446 -10.121 -10.278  1.00  0.00    +0.0278  H
ATOM     55 H61  665 L   1       4.430 -11.320 -11.152  1.00  0.00    +0.0278  H
ENDBRANCH 38 39
ENDBRANCH 36 38
ENDBRANCH 33 36
ENDBRANCH 26 33
ENDBRANCH 21 23
BRANCH 21 57
ATOM     56  N5  665 L   1      12.260 -10.293  -0.006  1.00  0.00    -0.3289 NA
ATOM     57  C9  665 L   1      12.464  -9.999  -1.422  1.00  0.00    +0.0085  C
ATOM     58 H36  665 L   1      12.522 -10.943  -1.976  1.00  0.00    +0.0432  H
ATOM     59 H37  665 L   1      13.437  -9.508  -1.540  1.00  0.00    +0.0432  H
ATOM     60 H45  665 L   1      13.015 -10.894   0.324  1.00  0.00    +0.1182 HD
ATOM     61 H46  665 L   1      11.401 -10.827   0.118  1.00  0.00    +0.1182 HD
ENDBRANCH 21 57
ENDBRANCH 19 21
ENDBRANCH 2 18
TORSDOF 8
ENDMDL
MODEL 5
REMARK VINA RESULT:    -7.267      3.654     10.926
REMARK INTER + INTRA:         -11.810
REMARK INTER:                 -10.463
REMARK INTRA:                  -1.347
REMARK UNBOUND:                -1.145
ROOT
ATOM      1  N6  665 L   1       7.694  -5.102   6.665  1.00  0.00    -0.2626 NA
ATOM      2 C16  665 L   1      11.230  -4.695   3.068  1.00  0.00    +0.0423  A
ATOM      3 C18  665 L   1      10.492  -5.764   3.577  1.00  0.00    -0.0305  A
ATOM      4 C19  665 L   1       9.556  -5.562   4.604  1.00  0.00    -0.0131  A
ATOM      5 C20  665 L   1      11.046  -3.412   3.578  1.00  0.00    -0.0377  A
ATOM      6 C21  665 L   1       9.372  -4.262   5.118  1.00  0.00    +0.0004  A
ATOM      7 C22  665 L   1      10.122  -3.192   4.598  1.00  0.00    -0.0506  A
ATOM      8 C26  665 L   1       8.800  -6.614   5.136  1.00  0.00    -0.0358  A
ATOM      9 C30  665 L   1       8.434  -4.099   6.140  1.00  0.00    +0.0353  A
ATOM     10 C33  665 L   1       7.897  -6.333   6.150  1.00  0.00    +0.0281  A
ATOM     11 H47  665 L   1      10.642  -6.765   3.173  1.00  0.00    +0.0644  H
ATOM     12 H48  665 L   1      11.577  -2.535   3.235  1.00  0.00    +0.0638  H
ATOM     13 H49  665 L   1       9.988  -2.185   4.986  1.00  0.00    +0.0625  H
ATOM     14 H50  665 L   1       8.909  -7.631   4.773  1.00  0.00    +0.0639  H
ATOM     15 H53  665 L   1       8.243  -3.124   6.579  1.00  0.00    +0.0836  H
ATOM     16 H58  665 L   1       7.294  -7.121   6.586  1.00  0.00    +0.0830  H
ENDROOT
BRANCH 2 18
ATOM     17  O2  665 L   1      14.188  -5.178   3.199  1.00  0.00    -0.2722 OA
ATOM     18  N4  665 L   1      12.156  -4.912   2.045  1.00  0.00    -0.3256  N
ATOM     19 C10  665 L   1      13.540  -5.128   2.157  1.00  0.00    +0.2339  C
ATOM     20 H42  665 L   1      11.767  -4.904   1.105  1.00  0.00    +0.1686 HD
BRANCH 19 21
ATOM     21  C7  665 L   1      14.204  -5.325   0.786  1.00  0.00    +0.0752  C
ATOM     22 H35  665 L   1      15.204  -5.749   0.961  1.00  0.00    +0.0458  H
BRANCH 21 23
ATOM     23  C8  665 L   1      13.395  -6.300  -0.055  1.00  0.00    -0.0341  A
ATOM     24 C11  665 L   1      12.980  -5.938  -1.337  1.00  0.00    -0.0574  A
ATOM     25 C12  665 L   1      13.068  -7.557   0.455  1.00  0.00    -0.0574  A
ATOM     26 C13  665 L   1      11.910  -8.088  -1.598  1.00  0.00    -0.0103  A
ATOM     27 C14  665 L   1      12.237  -6.832  -2.108  1.00  0.00    -0.0551  A
ATOM     28 C15  665 L   1      12.325  -8.450  -0.316  1.00  0.00    -0.0551  A
ATOM     29 H38  665 L   1      13.228  -4.962  -1.748  1.00  0.00    +0.0621  H
ATOM     30 H39  665 L   1      13.382  -7.859   1.450  1.00  0.00    +0.0621  H
ATOM     31 H40  665 L   1      11.923  -6.537  -3.105  1.00  0.00    +0.0621  H
ATOM     32 H41  665 L   1      12.077  -9.427   0.092  1.00  0.00    +0.0621  H
BRANCH 26 33
ATOM     33 C17  665 L   1      11.116  -9.045  -2.422  1.00  0.00    +0.1179  C
ATOM     34 H43  665 L   1      11.655  -9.997  -2.502  1.00  0.00    +0.0749  H
ATOM     35 H44  665 L   1      10.145  -9.247  -1.953  1.00  0.00    +0.0749  H
BRANCH 33 36
ATOM     36  O1  665 L   1      10.912  -8.494  -3.718  1.00  0.00    -0.4564 OA
BRANCH 36 38
ATOM     37  O3  665 L   1      12.002 -10.057  -5.009  1.00  0.00    -0.2449 OA
ATOM     38 C25  665 L   1      11.029  -9.361  -4.760  1.00  0.00    +0.3398  C
BRANCH 38 39
ATOM     39 C23  665 L   1       9.795  -9.361  -5.586  1.00  0.00    +0.0619  A
ATOM     40 C24  665 L   1       9.711  -8.606  -6.756  1.00  0.00    -0.0362  A
ATOM     41 C27  665 L   1       7.452  -9.393  -7.101  1.00  0.00    -0.0502  A
ATOM     42 C28  665 L   1       8.540  -8.623  -7.514  1.00  0.00    -0.0551  A
ATOM     43 C29  665 L   1       8.708 -10.131  -5.172  1.00  0.00    -0.0473  A
ATOM     44 C31  665 L   1       7.536 -10.147  -5.929  1.00  0.00    -0.0580  A
ATOM     45 C32  665 L   1      10.861  -7.774  -7.223  1.00  0.00    -0.0389  C
ATOM     46 C34  665 L   1       6.199  -9.410  -7.908  1.00  0.00    -0.0397  C
ATOM     47 H51  665 L   1       8.467  -8.034  -8.425  1.00  0.00    +0.0623  H
ATOM     48 H52  665 L   1       8.758 -10.721  -4.261  1.00  0.00    +0.0626  H
ATOM     49 H54  665 L   1       6.696 -10.749  -5.596  1.00  0.00    +0.0620  H
ATOM     50 H55  665 L   1      10.998  -6.911  -6.563  1.00  0.00    +0.0278  H
ATOM     51 H56  665 L   1      11.783  -8.362  -7.249  1.00  0.00    +0.0278  H
ATOM     52 H57  665 L   1      10.699  -7.392  -8.237  1.00  0.00    +0.0278  H
ATOM     53 H59  665 L   1       5.667 -10.362  -7.793  1.00  0.00    +0.0278  H
ATOM     54 H60  665 L   1       6.417  -9.293  -8.976  1.00  0.00    +0.0278  H
ATOM     55 H61  665 L   1       5.537  -8.598  -7.593  1.00  0.00    +0.0278  H
ENDBRANCH 38 39
ENDBRANCH 36 38
ENDBRANCH 33 36
ENDBRANCH 26 33
ENDBRANCH 21 23
BRANCH 21 57
ATOM     56  N5  665 L   1      14.734  -2.908   1.048  1.00  0.00    -0.3289 NA
ATOM     57  C9  665 L   1      14.413  -3.964   0.092  1.00  0.00    +0.0085  C
ATOM     58 H36  665 L   1      15.209  -4.014  -0.661  1.00  0.00    +0.0432  H
ATOM     59 H37  665 L   1      13.496  -3.685  -0.442  1.00  0.00    +0.0432  H
ATOM     60 H45  665 L   1      14.855  -2.028   0.549  1.00  0.00    +0.1182 HD
ATOM     61 H46  665 L   1      15.628  -3.104   1.495  1.00  0.00    +0.1182 HD
ENDBRANCH 21 57
ENDBRANCH 19 21
ENDBRANCH 2 18
TORSDOF 8
ENDMDL
MODEL 6
REMARK VINA RESULT:    -7.185      0.874      2.075
REMARK INTER + INTRA:         -11.690
REMARK INTER:                 -10.821
REMARK INTRA:                  -0.870
REMARK UNBOUND:                -1.145
ROOT
ATOM      1  N6  665 L   1       6.349  -8.753  -9.752  1.00  0.00    -0.2626 NA
ATOM      2 C16  665 L   1      10.209  -8.830  -6.481  1.00  0.00    +0.0423  A
ATOM      3 C18  665 L   1       8.880  -9.250  -6.413  1.00  0.00    -0.0305  A
ATOM      4 C19  665 L   1       8.024  -9.093  -7.515  1.00  0.00    -0.0131  A
ATOM      5 C20  665 L   1      10.701  -8.248  -7.647  1.00  0.00    -0.0377  A
ATOM      6 C21  665 L   1       8.524  -8.503  -8.694  1.00  0.00    +0.0004  A
ATOM      7 C22  665 L   1       9.865  -8.083  -8.751  1.00  0.00    -0.0506  A
ATOM      8 C26  665 L   1       6.686  -9.504  -7.478  1.00  0.00    -0.0358  A
ATOM      9 C30  665 L   1       7.644  -8.362  -9.768  1.00  0.00    +0.0353  A
ATOM     10 C33  665 L   1       5.904  -9.313  -8.608  1.00  0.00    +0.0281  A
ATOM     11 H47  665 L   1       8.503  -9.705  -5.497  1.00  0.00    +0.0644  H
ATOM     12 H48  665 L   1      11.716  -7.901  -7.776  1.00  0.00    +0.0638  H
ATOM     13 H49  665 L   1      10.262  -7.628  -9.655  1.00  0.00    +0.0625  H
ATOM     14 H50  665 L   1       6.257  -9.961  -6.592  1.00  0.00    +0.0639  H
ATOM     15 H53  665 L   1       7.966  -7.917 -10.706  1.00  0.00    +0.0836  H
ATOM     16 H58  665 L   1       4.864  -9.619  -8.617  1.00  0.00    +0.0830  H
ENDROOT
BRANCH 2 18
ATOM     17  O2  665 L   1      12.603  -7.245  -5.611  1.00  0.00    -0.2722 OA
ATOM     18  N4  665 L   1      11.049  -8.994  -5.377  1.00  0.00    -0.3256  N
ATOM     19 C10  665 L   1      12.167  -8.226  -5.014  1.00  0.00    +0.2339  C
ATOM     20 H42  665 L   1      10.813  -9.776  -4.771  1.00  0.00    +0.1686 HD
BRANCH 19 21
ATOM     21  C7  665 L   1      12.823  -8.738  -3.723  1.00  0.00    +0.0752  C
ATOM     22 H35  665 L   1      13.909  -8.781  -3.897  1.00  0.00    +0.0458  H
BRANCH 21 23
ATOM     23  C8  665 L   1      12.545  -7.779  -2.576  1.00  0.00    -0.0341  A
ATOM     24 C11  665 L   1      11.381  -7.914  -1.819  1.00  0.00    -0.0574  A
ATOM     25 C12  665 L   1      13.455  -6.763  -2.280  1.00  0.00    -0.0574  A
ATOM     26 C13  665 L   1      12.036  -6.019  -0.472  1.00  0.00    -0.0103  A
ATOM     27 C14  665 L   1      11.126  -7.034  -0.768  1.00  0.00    -0.0551  A
ATOM     28 C15  665 L   1      13.200  -5.883  -1.229  1.00  0.00    -0.0551  A
ATOM     29 H38  665 L   1      10.663  -8.701  -2.038  1.00  0.00    +0.0621  H
ATOM     30 H39  665 L   1      14.368  -6.641  -2.855  1.00  0.00    +0.0621  H
ATOM     31 H40  665 L   1      10.216  -7.153  -0.186  1.00  0.00    +0.0621  H
ATOM     32 H41  665 L   1      13.916  -5.096  -1.007  1.00  0.00    +0.0621  H
BRANCH 26 33
ATOM     33 C17  665 L   1      11.763  -5.078   0.653  1.00  0.00    +0.1179  C
ATOM     34 H43  665 L   1      12.695  -4.873   1.194  1.00  0.00    +0.0749  H
ATOM     35 H44  665 L   1      11.379  -4.122   0.274  1.00  0.00    +0.0749  H
BRANCH 33 36
ATOM     36  O1  665 L   1      10.808  -5.658   1.534  1.00  0.00    -0.4564 OA
BRANCH 36 38
ATOM     37  O3  665 L   1      11.952  -6.632   3.277  1.00  0.00    -0.2449 OA
ATOM     38 C25  665 L   1      11.194  -5.784   2.832  1.00  0.00    +0.3398  C
BRANCH 38 39
ATOM     39 C23  665 L   1      10.561  -4.735   3.672  1.00  0.00    +0.0619  A
ATOM     40 C24  665 L   1       9.341  -4.962   4.310  1.00  0.00    -0.0362  A
ATOM     41 C27  665 L   1       9.413  -2.731   5.238  1.00  0.00    -0.0502  A
ATOM     42 C28  665 L   1       8.768  -3.960   5.093  1.00  0.00    -0.0551  A
ATOM     43 C29  665 L   1      11.207  -3.507   3.816  1.00  0.00    -0.0473  A
ATOM     44 C31  665 L   1      10.633  -2.505   4.598  1.00  0.00    -0.0580  A
ATOM     45 C32  665 L   1       8.629  -6.268   4.174  1.00  0.00    -0.0389  C
ATOM     46 C34  665 L   1       8.801  -1.659   6.073  1.00  0.00    -0.0397  C
ATOM     47 H51  665 L   1       7.816  -4.129   5.590  1.00  0.00    +0.0623  H
ATOM     48 H52  665 L   1      12.156  -3.316   3.322  1.00  0.00    +0.0626  H
ATOM     49 H54  665 L   1      11.145  -1.552   4.701  1.00  0.00    +0.0620  H
ATOM     50 H55  665 L   1       8.229  -6.379   3.161  1.00  0.00    +0.0278  H
ATOM     51 H56  665 L   1       9.301  -7.104   4.394  1.00  0.00    +0.0278  H
ATOM     52 H57  665 L   1       7.789  -6.345   4.872  1.00  0.00    +0.0278  H
ATOM     53 H59  665 L   1       9.569  -1.007   6.505  1.00  0.00    +0.0278  H
ATOM     54 H60  665 L   1       8.236  -2.085   6.909  1.00  0.00    +0.0278  H
ATOM     55 H61  665 L   1       8.125  -1.049   5.466  1.00  0.00    +0.0278  H
ENDBRANCH 38 39
ENDBRANCH 36 38
ENDBRANCH 33 36
ENDBRANCH 26 33
ENDBRANCH 21 23
BRANCH 21 57
ATOM     56  N5  665 L   1      13.001 -11.149  -4.310  1.00  0.00    -0.3289 NA
ATOM     57  C9  665 L   1      12.363 -10.179  -3.424  1.00  0.00    +0.0085  C
ATOM     58 H36  665 L   1      12.568 -10.459  -2.384  1.00  0.00    +0.0432  H
ATOM     59 H37  665 L   1      11.276 -10.247  -3.556  1.00  0.00    +0.0432  H
ATOM     60 H45  665 L   1      12.664 -12.083  -4.084  1.00  0.00    +0.1182 HD
ATOM     61 H46  665 L   1      14.006 -11.164  -4.142  1.00  0.00    +0.1182 HD
ENDBRANCH 21 57
ENDBRANCH 19 21
ENDBRANCH 2 18
TORSDOF 8
ENDMDL
MODEL 7
REMARK VINA RESULT:    -7.122      1.554      2.487
REMARK INTER + INTRA:         -11.598
REMARK INTER:                 -10.503
REMARK INTRA:                  -1.095
REMARK UNBOUND:                -1.145
ROOT
ATOM      1  N6  665 L   1       7.466  -8.368 -10.363  1.00  0.00    -0.2626 NA
ATOM      2 C16  665 L   1      10.314  -8.357  -6.180  1.00  0.00    +0.0423  A
ATOM      3 C18  665 L   1       9.166  -9.053  -6.563  1.00  0.00    -0.0305  A
ATOM      4 C19  665 L   1       8.587  -8.838  -7.824  1.00  0.00    -0.0131  A
ATOM      5 C20  665 L   1      10.897  -7.438  -7.049  1.00  0.00    -0.0377  A
ATOM      6 C21  665 L   1       9.180  -7.906  -8.701  1.00  0.00    +0.0004  A
ATOM      7 C22  665 L   1      10.336  -7.211  -8.305  1.00  0.00    -0.0506  A
ATOM      8 C26  665 L   1       7.436  -9.520  -8.237  1.00  0.00    -0.0358  A
ATOM      9 C30  665 L   1       8.576  -7.718  -9.946  1.00  0.00    +0.0353  A
ATOM     10 C33  665 L   1       6.925  -9.251  -9.498  1.00  0.00    +0.0281  A
ATOM     11 H47  665 L   1       8.715  -9.771  -5.878  1.00  0.00    +0.0644  H
ATOM     12 H48  665 L   1      11.785  -6.865  -6.825  1.00  0.00    +0.0638  H
ATOM     13 H49  665 L   1      10.803  -6.491  -8.973  1.00  0.00    +0.0625  H
ATOM     14 H50  665 L   1       6.945 -10.244  -7.596  1.00  0.00    +0.0639  H
ATOM     15 H53  665 L   1       8.983  -7.016 -10.669  1.00  0.00    +0.0836  H
ATOM     16 H58  665 L   1       6.035  -9.760  -9.853  1.00  0.00    +0.0830  H
ENDROOT
BRANCH 2 18
ATOM     17  O2  665 L   1      13.048  -7.702  -5.136  1.00  0.00    -0.2722 OA
ATOM     18  N4  665 L   1      10.878  -8.584  -4.923  1.00  0.00    -0.3256  N
ATOM     19 C10  665 L   1      12.173  -8.262  -4.482  1.00  0.00    +0.2339  C
ATOM     20 H42  665 L   1      10.267  -9.045  -4.254  1.00  0.00    +0.1686 HD
BRANCH 19 21
ATOM     21  C7  665 L   1      12.403  -8.681  -3.022  1.00  0.00    +0.0752  C
ATOM     22 H35  665 L   1      13.087  -9.544  -3.029  1.00  0.00    +0.0458  H
BRANCH 21 23
ATOM     23  C8  665 L   1      13.051  -7.546  -2.245  1.00  0.00    -0.0341  A
ATOM     24 C11  665 L   1      12.294  -6.435  -1.871  1.00  0.00    -0.0574  A
ATOM     25 C12  665 L   1      14.402  -7.614  -1.905  1.00  0.00    -0.0574  A
ATOM     26 C13  665 L   1      14.239  -5.462  -0.820  1.00  0.00    -0.0103  A
ATOM     27 C14  665 L   1      12.888  -5.393  -1.160  1.00  0.00    -0.0551  A
ATOM     28 C15  665 L   1      14.996  -6.572  -1.194  1.00  0.00    -0.0551  A
ATOM     29 H38  665 L   1      11.239  -6.368  -2.128  1.00  0.00    +0.0621  H
ATOM     30 H39  665 L   1      15.009  -8.470  -2.185  1.00  0.00    +0.0621  H
ATOM     31 H40  665 L   1      12.285  -4.536  -0.874  1.00  0.00    +0.0621  H
ATOM     32 H41  665 L   1      16.050  -6.637  -0.934  1.00  0.00    +0.0621  H
BRANCH 26 33
ATOM     33 C17  665 L   1      14.874  -4.348  -0.058  1.00  0.00    +0.1179  C
ATOM     34 H43  665 L   1      15.742  -4.729   0.495  1.00  0.00    +0.0749  H
ATOM     35 H44  665 L   1      15.229  -3.566  -0.741  1.00  0.00    +0.0749  H
BRANCH 33 36
ATOM     36  O1  665 L   1      13.927  -3.794   0.847  1.00  0.00    -0.4564 OA
BRANCH 36 38
ATOM     37  O3  665 L   1      14.756  -5.092   2.558  1.00  0.00    -0.2449 OA
ATOM     38 C25  665 L   1      13.934  -4.310   2.107  1.00  0.00    +0.3398  C
BRANCH 38 39
ATOM     39 C23  665 L   1      12.784  -3.793   2.892  1.00  0.00    +0.0619  A
ATOM     40 C24  665 L   1      11.554  -4.452   2.888  1.00  0.00    -0.0362  A
ATOM     41 C27  665 L   1      10.655  -2.779   4.383  1.00  0.00    -0.0502  A
ATOM     42 C28  665 L   1      10.490  -3.945   3.635  1.00  0.00    -0.0551  A
ATOM     43 C29  665 L   1      12.949  -2.627   3.640  1.00  0.00    -0.0473  A
ATOM     44 C31  665 L   1      11.885  -2.120   4.386  1.00  0.00    -0.0580  A
ATOM     45 C32  665 L   1      11.350  -5.702   2.097  1.00  0.00    -0.0389  C
ATOM     46 C34  665 L   1       9.518  -2.236   5.180  1.00  0.00    -0.0397  C
ATOM     47 H51  665 L   1       9.528  -4.452   3.633  1.00  0.00    +0.0623  H
ATOM     48 H52  665 L   1      13.901  -2.102   3.650  1.00  0.00    +0.0626  H
ATOM     49 H54  665 L   1      12.026  -1.210   4.963  1.00  0.00    +0.0620  H
ATOM     50 H55  665 L   1      11.341  -5.477   1.026  1.00  0.00    +0.0278  H
ATOM     51 H56  665 L   1      12.139  -6.431   2.309  1.00  0.00    +0.0278  H
ATOM     52 H57  665 L   1      10.398  -6.185   2.342  1.00  0.00    +0.0278  H
ATOM     53 H59  665 L   1       9.877  -1.683   6.056  1.00  0.00    +0.0278  H
ATOM     54 H60  665 L   1       8.876  -3.042   5.551  1.00  0.00    +0.0278  H
ATOM     55 H61  665 L   1       8.915  -1.562   4.564  1.00  0.00    +0.0278  H
ENDBRANCH 38 39
ENDBRANCH 36 38
ENDBRANCH 33 36
ENDBRANCH 26 33
ENDBRANCH 21 23
BRANCH 21 57
ATOM     56  N5  665 L   1      10.769 -10.540  -2.767  1.00  0.00    -0.3289 NA
ATOM     57  C9  665 L   1      11.083  -9.165  -2.389  1.00  0.00    +0.0085  C
ATOM     58 H36  665 L   1      11.113  -9.096  -1.295  1.00  0.00    +0.0432  H
ATOM     59 H37  665 L   1      10.264  -8.515  -2.720  1.00  0.00    +0.0432  H
ATOM     60 H45  665 L   1       9.888 -10.815  -2.335  1.00  0.00    +0.1182 HD
ATOM     61 H46  665 L   1      11.475 -11.173  -2.394  1.00  0.00    +0.1182 HD
ENDBRANCH 21 57
ENDBRANCH 19 21
ENDBRANCH 2 18
TORSDOF 8
ENDMDL
MODEL 8
REMARK VINA RESULT:    -7.107      3.435     11.427
REMARK INTER + INTRA:         -11.576
REMARK INTER:                 -10.181
REMARK INTRA:                  -1.395
REMARK UNBOUND:                -1.145
ROOT
ATOM      1  N6  665 L   1       8.846  -3.090   6.560  1.00  0.00    -0.2626 NA
ATOM      2 C16  665 L   1      12.017  -4.778   2.996  1.00  0.00    +0.0423  A
ATOM      3 C18  665 L   1      10.920  -5.338   3.654  1.00  0.00    -0.0305  A
ATOM      4 C19  665 L   1      10.218  -4.604   4.623  1.00  0.00    -0.0131  A
ATOM      5 C20  665 L   1      12.427  -3.482   3.298  1.00  0.00    -0.0377  A
ATOM      6 C21  665 L   1      10.636  -3.292   4.927  1.00  0.00    +0.0004  A
ATOM      7 C22  665 L   1      11.742  -2.739   4.259  1.00  0.00    -0.0506  A
ATOM      8 C26  665 L   1       9.114  -5.137   5.300  1.00  0.00    -0.0358  A
ATOM      9 C30  665 L   1       9.914  -2.594   5.896  1.00  0.00    +0.0353  A
ATOM     10 C33  665 L   1       8.474  -4.349   6.245  1.00  0.00    +0.0281  A
ATOM     11 H47  665 L   1      10.605  -6.353   3.411  1.00  0.00    +0.0644  H
ATOM     12 H48  665 L   1      13.263  -2.981   2.832  1.00  0.00    +0.0638  H
ATOM     13 H49  665 L   1      12.073  -1.728   4.483  1.00  0.00    +0.0625  H
ATOM     14 H50  665 L   1       8.757  -6.142   5.100  1.00  0.00    +0.0639  H
ATOM     15 H53  665 L   1      10.183  -1.578   6.177  1.00  0.00    +0.0836  H
ATOM     16 H58  665 L   1       7.615  -4.727   6.789  1.00  0.00    +0.0830  H
ENDROOT
BRANCH 2 18
ATOM     17  O2  665 L   1      11.501  -5.093   0.058  1.00  0.00    -0.2722 OA
ATOM     18  N4  665 L   1      12.704  -5.520   2.033  1.00  0.00    -0.3256  N
ATOM     19 C10  665 L   1      12.419  -5.642   0.663  1.00  0.00    +0.2339  C
ATOM     20 H42  665 L   1      13.508  -6.038   2.382  1.00  0.00    +0.1686 HD
BRANCH 19 21
ATOM     21  C7  665 L   1      13.421  -6.558  -0.055  1.00  0.00    +0.0752  C
ATOM     22 H35  665 L   1      13.809  -7.271   0.688  1.00  0.00    +0.0458  H
BRANCH 21 23
ATOM     23  C8  665 L   1      12.726  -7.330  -1.165  1.00  0.00    -0.0341  A
ATOM     24 C11  665 L   1      13.064  -7.094  -2.498  1.00  0.00    -0.0574  A
ATOM     25 C12  665 L   1      11.749  -8.276  -0.850  1.00  0.00    -0.0574  A
ATOM     26 C13  665 L   1      11.449  -8.747  -3.201  1.00  0.00    -0.0103  A
ATOM     27 C14  665 L   1      12.425  -7.802  -3.515  1.00  0.00    -0.0551  A
ATOM     28 C15  665 L   1      11.111  -8.984  -1.869  1.00  0.00    -0.0551  A
ATOM     29 H38  665 L   1      13.823  -6.360  -2.758  1.00  0.00    +0.0621  H
ATOM     30 H39  665 L   1      11.472  -8.477   0.180  1.00  0.00    +0.0621  H
ATOM     31 H40  665 L   1      12.700  -7.608  -4.549  1.00  0.00    +0.0621  H
ATOM     32 H41  665 L   1      10.353  -9.719  -1.612  1.00  0.00    +0.0621  H
BRANCH 26 33
ATOM     33 C17  665 L   1      10.766  -9.505  -4.289  1.00  0.00    +0.1179  C
ATOM     34 H43  665 L   1      11.450 -10.260  -4.697  1.00  0.00    +0.0749  H
ATOM     35 H44  665 L   1       9.883 -10.027  -3.902  1.00  0.00    +0.0749  H
BRANCH 33 36
ATOM     36  O1  665 L   1      10.372  -8.603  -5.317  1.00  0.00    -0.4564 OA
BRANCH 36 38
ATOM     37  O3  665 L   1      11.822  -9.226  -6.993  1.00  0.00    -0.2449 OA
ATOM     38 C25  665 L   1      10.699  -8.965  -6.587  1.00  0.00    +0.3398  C
BRANCH 38 39
ATOM     39 C23  665 L   1       9.491  -9.006  -7.450  1.00  0.00    +0.0619  A
ATOM     40 C24  665 L   1       9.236  -7.999  -8.380  1.00  0.00    -0.0362  A
ATOM     41 C27  665 L   1       7.206  -9.130  -9.045  1.00  0.00    -0.0502  A
ATOM     42 C28  665 L   1       8.093  -8.061  -9.178  1.00  0.00    -0.0551  A
ATOM     43 C29  665 L   1       8.604 -10.075  -7.316  1.00  0.00    -0.0473  A
ATOM     44 C31  665 L   1       7.461 -10.137  -8.113  1.00  0.00    -0.0580  A
ATOM     45 C32  665 L   1      10.169  -6.844  -8.545  1.00  0.00    -0.0389  C
ATOM     46 C34  665 L   1       5.983  -9.197  -9.896  1.00  0.00    -0.0397  C
ATOM     47 H51  665 L   1       7.887  -7.277  -9.903  1.00  0.00    +0.0623  H
ATOM     48 H52  665 L   1       8.789 -10.864  -6.592  1.00  0.00    +0.0626  H
ATOM     49 H54  665 L   1       6.777 -10.973  -7.998  1.00  0.00    +0.0620  H
ATOM     50 H55  665 L   1      10.116  -6.184  -7.673  1.00  0.00    +0.0278  H
ATOM     51 H56  665 L   1      11.199  -7.191  -8.676  1.00  0.00    +0.0278  H
ATOM     52 H57  665 L   1       9.921  -6.247  -9.429  1.00  0.00    +0.0278  H
ATOM     53 H59  665 L   1       5.676 -10.235 -10.067  1.00  0.00    +0.0278  H
ATOM     54 H60  665 L   1       6.164  -8.750 -10.880  1.00  0.00    +0.0278  H
ATOM     55 H61  665 L   1       5.160  -8.663  -9.414  1.00  0.00    +0.0278  H
ENDBRANCH 38 39
ENDBRANCH 36 38
ENDBRANCH 33 36
ENDBRANCH 26 33
ENDBRANCH 21 23
BRANCH 21 57
ATOM     56  N5  665 L   1      14.550  -4.342  -0.142  1.00  0.00    -0.3289 NA
ATOM     57  C9  665 L   1      14.628  -5.740  -0.558  1.00  0.00    +0.0085  C
ATOM     58 H36  665 L   1      15.576  -6.164  -0.206  1.00  0.00    +0.0432  H
ATOM     59 H37  665 L   1      14.658  -5.777  -1.654  1.00  0.00    +0.0432  H
ATOM     60 H45  665 L   1      15.360  -3.839  -0.502  1.00  0.00    +0.1182 HD
ATOM     61 H46  665 L   1      14.608  -4.279   0.873  1.00  0.00    +0.1182 HD
ENDBRANCH 21 57
ENDBRANCH 19 21
ENDBRANCH 2 18
TORSDOF 8
ENDMDL
MODEL 9
REMARK VINA RESULT:    -7.055      5.749     10.925
REMARK INTER + INTRA:         -11.499
REMARK INTER:                  -9.949
REMARK INTRA:                  -1.550
REMARK UNBOUND:                -1.145
ROOT
ATOM      1  N6  665 L   1       7.367 -10.907   6.929  1.00  0.00    -0.2626 NA
ATOM      2 C16  665 L   1       9.086  -6.329   5.625  1.00  0.00    +0.0423  A
ATOM      3 C18  665 L   1       9.425  -7.235   6.631  1.00  0.00    -0.0305  A
ATOM      4 C19  665 L   1       8.751  -8.462   6.745  1.00  0.00    -0.0131  A
ATOM      5 C20  665 L   1       8.071  -6.635   4.721  1.00  0.00    -0.0377  A
ATOM      6 C21  665 L   1       7.723  -8.768   5.828  1.00  0.00    +0.0004  A
ATOM      7 C22  665 L   1       7.391  -7.847   4.819  1.00  0.00    -0.0506  A
ATOM      8 C26  665 L   1       9.067  -9.392   7.743  1.00  0.00    -0.0358  A
ATOM      9 C30  665 L   1       7.075  -9.996   5.973  1.00  0.00    +0.0353  A
ATOM     10 C33  665 L   1       8.355 -10.580   7.789  1.00  0.00    +0.0281  A
ATOM     11 H47  665 L   1      10.221  -6.990   7.334  1.00  0.00    +0.0644  H
ATOM     12 H48  665 L   1       7.755  -5.987   3.916  1.00  0.00    +0.0638  H
ATOM     13 H49  665 L   1       6.601  -8.072   4.106  1.00  0.00    +0.0625  H
ATOM     14 H50  665 L   1       9.849  -9.199   8.470  1.00  0.00    +0.0639  H
ATOM     15 H53  665 L   1       6.275 -10.293   5.300  1.00  0.00    +0.0836  H
ATOM     16 H58  665 L   1       8.571 -11.325   8.547  1.00  0.00    +0.0830  H
ENDROOT
BRANCH 2 18
ATOM     17  O2  665 L   1      10.388  -4.654   7.745  1.00  0.00    -0.2722 OA
ATOM     18  N4  665 L   1       9.767  -5.114   5.524  1.00  0.00    -0.3256  N
ATOM     19 C10  665 L   1      10.357  -4.361   6.552  1.00  0.00    +0.2339  C
ATOM     20 H42  665 L   1       9.832  -4.735   4.582  1.00  0.00    +0.1686 HD
BRANCH 19 21
ATOM     21  C7  665 L   1      11.011  -3.076   6.023  1.00  0.00    +0.0752  C
ATOM     22 H35  665 L   1      11.457  -2.553   6.882  1.00  0.00    +0.0458  H
BRANCH 21 23
ATOM     23  C8  665 L   1      12.110  -3.417   5.028  1.00  0.00    -0.0341  A
ATOM     24 C11  665 L   1      12.838  -4.599   5.170  1.00  0.00    -0.0574  A
ATOM     25 C12  665 L   1      12.391  -2.548   3.974  1.00  0.00    -0.0574  A
ATOM     26 C13  665 L   1      14.126  -4.042   3.204  1.00  0.00    -0.0103  A
ATOM     27 C14  665 L   1      13.846  -4.911   4.258  1.00  0.00    -0.0551  A
ATOM     28 C15  665 L   1      13.399  -2.860   3.062  1.00  0.00    -0.0551  A
ATOM     29 H38  665 L   1      12.630  -5.287   5.986  1.00  0.00    +0.0621  H
ATOM     30 H39  665 L   1      11.835  -1.624   3.844  1.00  0.00    +0.0621  H
ATOM     31 H40  665 L   1      14.403  -5.836   4.380  1.00  0.00    +0.0621  H
ATOM     32 H41  665 L   1      13.608  -2.175   2.244  1.00  0.00    +0.0621  H
BRANCH 26 33
ATOM     33 C17  665 L   1      15.204  -4.375   2.229  1.00  0.00    +0.1179  C
ATOM     34 H43  665 L   1      15.508  -3.468   1.691  1.00  0.00    +0.0749  H
ATOM     35 H44  665 L   1      16.088  -4.768   2.748  1.00  0.00    +0.0749  H
BRANCH 33 36
ATOM     36  O1  665 L   1      14.723  -5.347   1.307  1.00  0.00    -0.4564 OA
BRANCH 36 38
ATOM     37  O3  665 L   1      14.193  -3.724  -0.237  1.00  0.00    -0.2449 OA
ATOM     38 C25  665 L   1      14.099  -4.861   0.200  1.00  0.00    +0.3398  C
BRANCH 38 39
ATOM     39 C23  665 L   1      13.261  -5.911  -0.434  1.00  0.00    +0.0619  A
ATOM     40 C24  665 L   1      11.990  -6.212   0.056  1.00  0.00    -0.0362  A
ATOM     41 C27  665 L   1      11.728  -7.894  -1.660  1.00  0.00    -0.0502  A
ATOM     42 C28  665 L   1      11.224  -7.203  -0.558  1.00  0.00    -0.0551  A
ATOM     43 C29  665 L   1      13.766  -6.601  -1.536  1.00  0.00    -0.0473  A
ATOM     44 C31  665 L   1      13.000  -7.593  -2.149  1.00  0.00    -0.0580  A
ATOM     45 C32  665 L   1      11.425  -5.487   1.233  1.00  0.00    -0.0389  C
ATOM     46 C34  665 L   1      10.911  -8.954  -2.316  1.00  0.00    -0.0397  C
ATOM     47 H51  665 L   1      10.233  -7.444  -0.178  1.00  0.00    +0.0623  H
ATOM     48 H52  665 L   1      14.756  -6.380  -1.926  1.00  0.00    +0.0626  H
ATOM     49 H54  665 L   1      13.406  -8.125  -3.005  1.00  0.00    +0.0620  H
ATOM     50 H55  665 L   1      11.951  -5.779   2.148  1.00  0.00    +0.0278  H
ATOM     51 H56  665 L   1      11.502  -4.403   1.099  1.00  0.00    +0.0278  H
ATOM     52 H57  665 L   1      10.363  -5.714   1.376  1.00  0.00    +0.0278  H
ATOM     53 H59  665 L   1      11.158  -9.043  -3.380  1.00  0.00    +0.0278  H
ATOM     54 H60  665 L   1       9.842  -8.722  -2.253  1.00  0.00    +0.0278  H
ATOM     55 H61  665 L   1      11.090  -9.919  -1.833  1.00  0.00    +0.0278  H
ENDBRANCH 38 39
ENDBRANCH 36 38
ENDBRANCH 33 36
ENDBRANCH 26 33
ENDBRANCH 21 23
BRANCH 21 57
ATOM     56  N5  665 L   1       8.629  -2.357   6.035  1.00  0.00    -0.3289 NA
ATOM     57  C9  665 L   1       9.941  -2.134   5.434  1.00  0.00    +0.0085  C
ATOM     58 H36  665 L   1      10.217  -1.081   5.564  1.00  0.00    +0.0432  H
ATOM     59 H37  665 L   1       9.864  -2.304   4.353  1.00  0.00    +0.0432  H
ATOM     60 H45  665 L   1       7.954  -1.722   5.613  1.00  0.00    +0.1182 HD
ATOM     61 H46  665 L   1       8.657  -2.121   7.026  1.00  0.00    +0.1182 HD
ENDBRANCH 21 57
ENDBRANCH 19 21
ENDBRANCH 2 18
TORSDOF 8
ENDMDL
MODEL 10
REMARK VINA RESULT:    -6.977      3.241     11.406
REMARK INTER + INTRA:         -11.385
REMARK INTER:                 -10.066
REMARK INTRA:                  -1.319
REMARK UNBOUND:                -1.145
ROOT
ATOM      1  N6  665 L   1       8.840  -2.665   6.124  1.00  0.00    -0.2626 NA
ATOM      2 C16  665 L   1      11.084  -5.498   2.581  1.00  0.00    +0.0423  A
ATOM      3 C18  665 L   1      11.372  -4.255   3.146  1.00  0.00    -0.0305  A
ATOM      4 C19  665 L   1      10.541  -3.711   4.139  1.00  0.00    -0.0131  A
ATOM      5 C20  665 L   1       9.963  -6.212   2.997  1.00  0.00    -0.0377  A
ATOM      6 C21  665 L   1       9.407  -4.437   4.557  1.00  0.00    +0.0004  A
ATOM      7 C22  665 L   1       9.126  -5.687   3.981  1.00  0.00    -0.0506  A
ATOM      8 C26  665 L   1      10.803  -2.466   4.725  1.00  0.00    -0.0358  A
ATOM      9 C30  665 L   1       8.603  -3.864   5.545  1.00  0.00    +0.0353  A
ATOM     10 C33  665 L   1       9.934  -1.998   5.698  1.00  0.00    +0.0281  A
ATOM     11 H47  665 L   1      12.251  -3.702   2.816  1.00  0.00    +0.0644  H
ATOM     12 H48  665 L   1       9.676  -7.179   2.609  1.00  0.00    +0.0638  H
ATOM     13 H49  665 L   1       8.254  -6.257   4.296  1.00  0.00    +0.0625  H
ATOM     14 H50  665 L   1      11.663  -1.872   4.434  1.00  0.00    +0.0639  H
ATOM     15 H53  665 L   1       7.715  -4.371   5.913  1.00  0.00    +0.0836  H
ATOM     16 H58  665 L   1      10.104  -1.039   6.176  1.00  0.00    +0.0830  H
ENDROOT
BRANCH 2 18
ATOM     17  O2  665 L   1      10.710  -5.680  -0.390  1.00  0.00    -0.2722 OA
ATOM     18  N4  665 L   1      11.921  -6.026   1.596  1.00  0.00    -0.3256  N
ATOM     19 C10  665 L   1      11.698  -6.095   0.211  1.00  0.00    +0.2339  C
ATOM     20 H42  665 L   1      12.797  -6.412   1.939  1.00  0.00    +0.1686 HD
BRANCH 19 21
ATOM     21  C7  665 L   1      12.871  -6.754  -0.529  1.00  0.00    +0.0752  C
ATOM     22 H35  665 L   1      13.415  -7.376   0.199  1.00  0.00    +0.0458  H
BRANCH 21 23
ATOM     23  C8  665 L   1      12.353  -7.644  -1.648  1.00  0.00    -0.0341  A
ATOM     24 C11  665 L   1      12.678  -7.359  -2.974  1.00  0.00    -0.0574  A
ATOM     25 C12  665 L   1      11.552  -8.747  -1.348  1.00  0.00    -0.0574  A
ATOM     26 C13  665 L   1      11.402  -9.277  -3.701  1.00  0.00    -0.0103  A
ATOM     27 C14  665 L   1      12.202  -8.175  -4.000  1.00  0.00    -0.0551  A
ATOM     28 C15  665 L   1      11.077  -9.563  -2.375  1.00  0.00    -0.0551  A
ATOM     29 H38  665 L   1      13.302  -6.503  -3.223  1.00  0.00    +0.0621  H
ATOM     30 H39  665 L   1      11.289  -8.988  -0.323  1.00  0.00    +0.0621  H
ATOM     31 H40  665 L   1      12.465  -7.941  -5.028  1.00  0.00    +0.0621  H
ATOM     32 H41  665 L   1      10.455 -10.420  -2.129  1.00  0.00    +0.0621  H
BRANCH 26 33
ATOM     33 C17  665 L   1      10.893 -10.150  -4.798  1.00  0.00    +0.1179  C
ATOM     34 H43  665 L   1      11.668 -10.872  -5.083  1.00  0.00    +0.0749  H
ATOM     35 H44  665 L   1      10.014 -10.716  -4.466  1.00  0.00    +0.0749  H
BRANCH 33 36
ATOM     36  O1  665 L   1      10.545  -9.345  -5.919  1.00  0.00    -0.4564 OA
BRANCH 36 38
ATOM     37  O3  665 L   1       8.342  -9.161  -5.277  1.00  0.00    -0.2449 OA
ATOM     38 C25  665 L   1       9.213  -9.166  -6.133  1.00  0.00    +0.3398  C
BRANCH 38 39
ATOM     39 C23  665 L   1       8.935  -8.973  -7.579  1.00  0.00    +0.0619  A
ATOM     40 C24  665 L   1       8.219  -9.923  -8.308  1.00  0.00    -0.0362  A
ATOM     41 C27  665 L   1       8.442  -8.564 -10.295  1.00  0.00    -0.0502  A
ATOM     42 C28  665 L   1       7.973  -9.718  -9.666  1.00  0.00    -0.0551  A
ATOM     43 C29  665 L   1       9.405  -7.820  -8.207  1.00  0.00    -0.0473  A
ATOM     44 C31  665 L   1       9.159  -7.615  -9.565  1.00  0.00    -0.0580  A
ATOM     45 C32  665 L   1       7.704 -11.167  -7.660  1.00  0.00    -0.0389  C
ATOM     46 C34  665 L   1       8.180  -8.344 -11.746  1.00  0.00    -0.0397  C
ATOM     47 H51  665 L   1       7.418 -10.457 -10.240  1.00  0.00    +0.0623  H
ATOM     48 H52  665 L   1       9.967  -7.073  -7.652  1.00  0.00    +0.0626  H
ATOM     49 H54  665 L   1       9.532  -6.713 -10.043  1.00  0.00    +0.0620  H
ATOM     50 H55  665 L   1       8.533 -11.839  -7.415  1.00  0.00    +0.0278  H
ATOM     51 H56  665 L   1       7.146 -10.929  -6.749  1.00  0.00    +0.0278  H
ATOM     52 H57  665 L   1       7.019 -11.711  -8.319  1.00  0.00    +0.0278  H
ATOM     53 H59  665 L   1       8.131  -7.275 -11.982  1.00  0.00    +0.0278  H
ATOM     54 H60  665 L   1       7.221  -8.782 -12.043  1.00  0.00    +0.0278  H
ATOM     55 H61  665 L   1       8.975  -8.799 -12.344  1.00  0.00    +0.0278  H
ENDBRANCH 38 39
ENDBRANCH 36 38
ENDBRANCH 33 36
ENDBRANCH 26 33
ENDBRANCH 21 23
BRANCH 21 57
ATOM     56  N5  665 L   1      13.346  -4.330  -0.825  1.00  0.00    -0.3289 NA
ATOM     57  C9  665 L   1      13.862  -5.682  -1.026  1.00  0.00    +0.0085  C
ATOM     58 H36  665 L   1      14.834  -5.769  -0.526  1.00  0.00    +0.0432  H
ATOM     59 H37  665 L   1      14.048  -5.830  -2.097  1.00  0.00    +0.0432  H
ATOM     60 H45  665 L   1      14.027  -3.656  -1.174  1.00  0.00    +0.1182 HD
ATOM     61 H46  665 L   1      13.247  -4.140   0.171  1.00  0.00    +0.1182 HD
ENDBRANCH 21 57
ENDBRANCH 19 21
ENDBRANCH 2 18
TORSDOF 8
ENDMDL
MODEL 11
REMARK VINA RESULT:    -6.928      1.385      1.936
REMARK INTER + INTRA:         -11.312
REMARK INTER:                 -10.213
REMARK INTRA:                  -1.099
REMARK UNBOUND:                -1.145
ROOT
ATOM      1  N6  665 L   1       6.502  -9.156  -9.387  1.00  0.00    -0.2626 NA
ATOM      2 C16  665 L   1      10.695  -7.924  -6.836  1.00  0.00    +0.0423  A
ATOM      3 C18  665 L   1       9.550  -8.655  -6.514  1.00  0.00    -0.0305  A
ATOM      4 C19  665 L   1       8.526  -8.833  -7.458  1.00  0.00    -0.0131  A
ATOM      5 C20  665 L   1      10.831  -7.359  -8.102  1.00  0.00    -0.0377  A
ATOM      6 C21  665 L   1       8.667  -8.259  -8.739  1.00  0.00    +0.0004  A
ATOM      7 C22  665 L   1       9.823  -7.524  -9.052  1.00  0.00    -0.0506  A
ATOM      8 C26  665 L   1       7.367  -9.561  -7.166  1.00  0.00    -0.0358  A
ATOM      9 C30  665 L   1       7.628  -8.456  -9.651  1.00  0.00    +0.0353  A
ATOM     10 C33  665 L   1       6.401  -9.690  -8.152  1.00  0.00    +0.0281  A
ATOM     11 H47  665 L   1       9.452  -9.095  -5.521  1.00  0.00    +0.0644  H
ATOM     12 H48  665 L   1      11.686  -6.783  -8.425  1.00  0.00    +0.0638  H
ATOM     13 H49  665 L   1       9.944  -7.078 -10.036  1.00  0.00    +0.0625  H
ATOM     14 H50  665 L   1       7.215 -10.019  -6.194  1.00  0.00    +0.0639  H
ATOM     15 H53  665 L   1       7.674  -8.042 -10.654  1.00  0.00    +0.0836  H
ATOM     16 H58  665 L   1       5.489 -10.247  -7.963  1.00  0.00    +0.0830  H
ENDROOT
BRANCH 2 18
ATOM     17  O2  665 L   1      12.441  -9.956  -5.488  1.00  0.00    -0.2722 OA
ATOM     18  N4  665 L   1      11.705  -7.758  -5.887  1.00  0.00    -0.3256  N
ATOM     19 C10  665 L   1      12.495  -8.747  -5.277  1.00  0.00    +0.2339  C
ATOM     20 H42  665 L   1      11.877  -6.796  -5.606  1.00  0.00    +0.1686 HD
BRANCH 19 21
ATOM     21  C7  665 L   1      13.500  -8.148  -4.281  1.00  0.00    +0.0752  C
ATOM     22 H35  665 L   1      13.977  -7.286  -4.770  1.00  0.00    +0.0458  H
BRANCH 21 23
ATOM     23  C8  665 L   1      12.779  -7.670  -3.031  1.00  0.00    -0.0341  A
ATOM     24 C11  665 L   1      13.269  -6.574  -2.319  1.00  0.00    -0.0574  A
ATOM     25 C12  665 L   1      11.627  -8.326  -2.594  1.00  0.00    -0.0574  A
ATOM     26 C13  665 L   1      11.457  -6.791  -0.736  1.00  0.00    -0.0103  A
ATOM     27 C14  665 L   1      12.608  -6.136  -1.172  1.00  0.00    -0.0551  A
ATOM     28 C15  665 L   1      10.968  -7.887  -1.447  1.00  0.00    -0.0551  A
ATOM     29 H38  665 L   1      14.165  -6.052  -2.647  1.00  0.00    +0.0621  H
ATOM     30 H39  665 L   1      11.228  -9.179  -3.134  1.00  0.00    +0.0621  H
ATOM     31 H40  665 L   1      13.000  -5.280  -0.629  1.00  0.00    +0.0621  H
ATOM     32 H41  665 L   1      10.071  -8.406  -1.117  1.00  0.00    +0.0621  H
BRANCH 26 33
ATOM     33 C17  665 L   1      10.750  -6.323   0.491  1.00  0.00    +0.1179  C
ATOM     34 H43  665 L   1       9.835  -5.789   0.207  1.00  0.00    +0.0749  H
ATOM     35 H44  665 L   1      10.461  -7.174   1.120  1.00  0.00    +0.0749  H
BRANCH 33 36
ATOM     36  O1  665 L   1      11.607  -5.457   1.228  1.00  0.00    -0.4564 OA
BRANCH 36 38
ATOM     37  O3  665 L   1      12.304  -6.699   3.035  1.00  0.00    -0.2449 OA
ATOM     38 C25  665 L   1      11.735  -5.731   2.554  1.00  0.00    +0.3398  C
BRANCH 38 39
ATOM     39 C23  665 L   1      11.077  -4.682   3.374  1.00  0.00    +0.0619  A
ATOM     40 C24  665 L   1      11.756  -3.516   3.731  1.00  0.00    -0.0362  A
ATOM     41 C27  665 L   1       9.797  -2.741   4.917  1.00  0.00    -0.0502  A
ATOM     42 C28  665 L   1      11.115  -2.546   4.502  1.00  0.00    -0.0551  A
ATOM     43 C29  665 L   1       9.760  -4.878   3.788  1.00  0.00    -0.0473  A
ATOM     44 C31  665 L   1       9.120  -3.908   4.560  1.00  0.00    -0.0580  A
ATOM     45 C32  665 L   1      13.166  -3.281   3.299  1.00  0.00    -0.0389  C
ATOM     46 C34  665 L   1       9.112  -1.706   5.742  1.00  0.00    -0.0397  C
ATOM     47 H51  665 L   1      11.640  -1.637   4.786  1.00  0.00    +0.0623  H
ATOM     48 H52  665 L   1       9.220  -5.783   3.520  1.00  0.00    +0.0626  H
ATOM     49 H54  665 L   1       8.094  -4.073   4.878  1.00  0.00    +0.0620  H
ATOM     50 H55  665 L   1      13.845  -3.953   3.834  1.00  0.00    +0.0278  H
ATOM     51 H56  665 L   1      13.275  -3.435   2.221  1.00  0.00    +0.0278  H
ATOM     52 H57  665 L   1      13.486  -2.254   3.507  1.00  0.00    +0.0278  H
ATOM     53 H59  665 L   1       8.029  -1.717   5.573  1.00  0.00    +0.0278  H
ATOM     54 H60  665 L   1       9.466  -0.701   5.486  1.00  0.00    +0.0278  H
ATOM     55 H61  665 L   1       9.303  -1.885   6.804  1.00  0.00    +0.0278  H
ENDBRANCH 38 39
ENDBRANCH 36 38
ENDBRANCH 33 36
ENDBRANCH 26 33
ENDBRANCH 21 23
BRANCH 21 57
ATOM     56  N5  665 L   1      15.282  -9.625  -5.193  1.00  0.00    -0.3289 NA
ATOM     57  C9  665 L   1      14.620  -9.163  -3.976  1.00  0.00    +0.0085  C
ATOM     58 H36  665 L   1      15.373  -8.740  -3.300  1.00  0.00    +0.0432  H
ATOM     59 H37  665 L   1      14.192 -10.031  -3.460  1.00  0.00    +0.0432  H
ATOM     60 H45  665 L   1      16.007 -10.298  -4.946  1.00  0.00    +0.1182 HD
ATOM     61 H46  665 L   1      15.762  -8.848  -5.644  1.00  0.00    +0.1182 HD
ENDBRANCH 21 57
ENDBRANCH 19 21
ENDBRANCH 2 18
TORSDOF 8
ENDMDL
MODEL 12
REMARK VINA RESULT:    -6.902      3.246     11.021
REMARK INTER + INTRA:         -11.274
REMARK INTER:                  -9.531
REMARK INTRA:                  -1.743
REMARK UNBOUND:                -1.145
ROOT
ATOM      1  N6  665 L   1      14.407  -3.309   2.029  1.00  0.00    -0.2626 NA
ATOM      2 C16  665 L   1      11.757  -6.730  -0.595  1.00  0.00    +0.0423  A
ATOM      3 C18  665 L   1      12.907  -5.987  -0.866  1.00  0.00    -0.0305  A
ATOM      4 C19  665 L   1      13.420  -5.091   0.086  1.00  0.00    -0.0131  A
ATOM      5 C20  665 L   1      11.104  -6.588   0.628  1.00  0.00    -0.0377  A
ATOM      6 C21  665 L   1      12.757  -4.950   1.322  1.00  0.00    +0.0004  A
ATOM      7 C22  665 L   1      11.600  -5.703   1.584  1.00  0.00    -0.0506  A
ATOM      8 C26  665 L   1      14.572  -4.332  -0.156  1.00  0.00    -0.0358  A
ATOM      9 C30  665 L   1      13.296  -4.050   2.243  1.00  0.00    +0.0353  A
ATOM     10 C33  665 L   1      15.015  -3.469   0.834  1.00  0.00    +0.0281  A
ATOM     11 H47  665 L   1      13.412  -6.104  -1.825  1.00  0.00    +0.0644  H
ATOM     12 H48  665 L   1      10.213  -7.128   0.911  1.00  0.00    +0.0638  H
ATOM     13 H49  665 L   1      11.080  -5.603   2.535  1.00  0.00    +0.0625  H
ATOM     14 H50  665 L   1      15.114  -4.407  -1.093  1.00  0.00    +0.0639  H
ATOM     15 H53  665 L   1      12.835  -3.894   3.215  1.00  0.00    +0.0836  H
ATOM     16 H58  665 L   1      15.903  -2.865   0.684  1.00  0.00    +0.0830  H
ENDROOT
BRANCH 2 18
ATOM     17  O2  665 L   1      13.169  -8.811  -2.228  1.00  0.00    -0.2722 OA
ATOM     18  N4  665 L   1      11.259  -7.617  -1.551  1.00  0.00    -0.3256  N
ATOM     19 C10  665 L   1      11.966  -8.575  -2.298  1.00  0.00    +0.2339  C
ATOM     20 H42  665 L   1      10.259  -7.548  -1.723  1.00  0.00    +0.1686 HD
BRANCH 19 21
ATOM     21  C7  665 L   1      11.047  -9.355  -3.250  1.00  0.00    +0.0752  C
ATOM     22 H35  665 L   1      10.024  -8.973  -3.110  1.00  0.00    +0.0458  H
BRANCH 21 23
ATOM     23  C8  665 L   1      11.466  -9.124  -4.693  1.00  0.00    -0.0341  A
ATOM     24 C11  665 L   1      11.429 -10.176  -5.608  1.00  0.00    -0.0574  A
ATOM     25 C12  665 L   1      11.887  -7.858  -5.103  1.00  0.00    -0.0574  A
ATOM     26 C13  665 L   1      12.235  -8.699  -7.341  1.00  0.00    -0.0103  A
ATOM     27 C14  665 L   1      11.815  -9.964  -6.931  1.00  0.00    -0.0551  A
ATOM     28 C15  665 L   1      12.272  -7.646  -6.427  1.00  0.00    -0.0551  A
ATOM     29 H38  665 L   1      11.103 -11.168  -5.303  1.00  0.00    +0.0621  H
ATOM     30 H39  665 L   1      11.921  -7.025  -4.408  1.00  0.00    +0.0621  H
ATOM     31 H40  665 L   1      11.780 -10.793  -7.633  1.00  0.00    +0.0621  H
ATOM     32 H41  665 L   1      12.597  -6.656  -6.735  1.00  0.00    +0.0621  H
BRANCH 26 33
ATOM     33 C17  665 L   1      12.647  -8.472  -8.756  1.00  0.00    +0.1179  C
ATOM     34 H43  665 L   1      12.994  -7.438  -8.877  1.00  0.00    +0.0749  H
ATOM     35 H44  665 L   1      13.475  -9.137  -9.031  1.00  0.00    +0.0749  H
BRANCH 33 36
ATOM     36  O1  665 L   1      11.539  -8.714  -9.616  1.00  0.00    -0.4564 OA
BRANCH 36 38
ATOM     37  O3  665 L   1      10.902  -6.503  -9.656  1.00  0.00    -0.2449 OA
ATOM     38 C25  665 L   1      10.647  -7.694  -9.741  1.00  0.00    +0.3398  C
BRANCH 38 39
ATOM     39 C23  665 L   1       9.282  -8.218 -10.002  1.00  0.00    +0.0619  A
ATOM     40 C24  665 L   1       8.399  -8.481  -8.955  1.00  0.00    -0.0362  A
ATOM     41 C27  665 L   1       6.730  -9.204 -10.546  1.00  0.00    -0.0502  A
ATOM     42 C28  665 L   1       7.122  -8.973  -9.227  1.00  0.00    -0.0551  A
ATOM     43 C29  665 L   1       8.890  -8.450 -11.321  1.00  0.00    -0.0473  A
ATOM     44 C31  665 L   1       7.614  -8.943 -11.593  1.00  0.00    -0.0580  A
ATOM     45 C32  665 L   1       8.792  -8.241  -7.534  1.00  0.00    -0.0389  C
ATOM     46 C34  665 L   1       5.366  -9.732 -10.838  1.00  0.00    -0.0397  C
ATOM     47 H51  665 L   1       6.430  -9.182  -8.415  1.00  0.00    +0.0623  H
ATOM     48 H52  665 L   1       9.570  -8.253 -12.146  1.00  0.00    +0.0626  H
ATOM     49 H54  665 L   1       7.322  -9.120 -12.624  1.00  0.00    +0.0620  H
ATOM     50 H55  665 L   1       9.538  -8.977  -7.216  1.00  0.00    +0.0278  H
ATOM     51 H56  665 L   1       9.199  -7.232  -7.407  1.00  0.00    +0.0278  H
ATOM     52 H57  665 L   1       7.935  -8.325  -6.857  1.00  0.00    +0.0278  H
ATOM     53 H59  665 L   1       5.016  -9.401 -11.823  1.00  0.00    +0.0278  H
ATOM     54 H60  665 L   1       4.639  -9.373 -10.102  1.00  0.00    +0.0278  H
ATOM     55 H61  665 L   1       5.374 -10.826 -10.819  1.00  0.00    +0.0278  H
ENDBRANCH 38 39
ENDBRANCH 36 38
ENDBRANCH 33 36
ENDBRANCH 26 33
ENDBRANCH 21 23
BRANCH 21 57
ATOM     56  N5  665 L   1      11.138 -11.040  -1.422  1.00  0.00    -0.3289 NA
ATOM     57  C9  665 L   1      11.021 -10.848  -2.865  1.00  0.00    +0.0085  C
ATOM     58 H36  665 L   1      10.105 -11.338  -3.216  1.00  0.00    +0.0432  H
ATOM     59 H37  665 L   1      11.857 -11.363  -3.355  1.00  0.00    +0.0432  H
ATOM     60 H45  665 L   1      11.125 -12.038  -1.214  1.00  0.00    +0.1182 HD
ATOM     61 H46  665 L   1      10.325 -10.644  -0.952  1.00  0.00    +0.1182 HD
ENDBRANCH 21 57
ENDBRANCH 19 21
ENDBRANCH 2 18
TORSDOF 8
ENDMDL
MODEL 13
REMARK VINA RESULT:    -6.878      3.649     11.244
REMARK INTER + INTRA:         -11.239
REMARK INTER:                 -10.278
REMARK INTRA:                  -0.962
REMARK UNBOUND:                -1.145
ROOT
ATOM      1  N6  665 L   1       7.695  -5.178   6.390  1.00  0.00    -0.2626 NA
ATOM      2 C16  665 L   1      11.071  -4.765   2.644  1.00  0.00    +0.0423  A
ATOM      3 C18  665 L   1      10.260  -5.805   3.100  1.00  0.00    -0.0305  A
ATOM      4 C19  665 L   1       9.400  -5.614   4.193  1.00  0.00    -0.0131  A
ATOM      5 C20  665 L   1      11.036  -3.522   3.273  1.00  0.00    -0.0377  A
ATOM      6 C21  665 L   1       9.367  -4.355   4.828  1.00  0.00    +0.0004  A
ATOM      7 C22  665 L   1      10.188  -3.315   4.360  1.00  0.00    -0.0506  A
ATOM      8 C26  665 L   1       8.574  -6.637   4.674  1.00  0.00    -0.0358  A
ATOM      9 C30  665 L   1       8.500  -4.202   5.912  1.00  0.00    +0.0353  A
ATOM     10 C33  665 L   1       7.753  -6.369   5.759  1.00  0.00    +0.0281  A
ATOM     11 H47  665 L   1      10.293  -6.774   2.602  1.00  0.00    +0.0644  H
ATOM     12 H48  665 L   1      11.631  -2.670   2.977  1.00  0.00    +0.0638  H
ATOM     13 H49  665 L   1      10.171  -2.339   4.841  1.00  0.00    +0.0625  H
ATOM     14 H50  665 L   1       8.567  -7.622   4.218  1.00  0.00    +0.0639  H
ATOM     15 H53  665 L   1       8.425  -3.258   6.445  1.00  0.00    +0.0836  H
ATOM     16 H58  665 L   1       7.099  -7.137   6.160  1.00  0.00    +0.0830  H
ENDROOT
BRANCH 2 18
ATOM     17  O2  665 L   1      13.219  -6.814   2.218  1.00  0.00    -0.2722 OA
ATOM     18  N4  665 L   1      11.920  -4.970   1.554  1.00  0.00    -0.3256  N
ATOM     19 C10  665 L   1      12.920  -5.945   1.403  1.00  0.00    +0.2339  C
ATOM     20 H42  665 L   1      11.791  -4.321   0.781  1.00  0.00    +0.1686 HD
BRANCH 19 21
ATOM     21  C7  665 L   1      13.634  -5.833   0.048  1.00  0.00    +0.0752  C
ATOM     22 H35  665 L   1      14.668  -6.181   0.188  1.00  0.00    +0.0458  H
BRANCH 21 23
ATOM     23  C8  665 L   1      12.950  -6.719  -0.981  1.00  0.00    -0.0341  A
ATOM     24 C11  665 L   1      13.512  -6.879  -2.248  1.00  0.00    -0.0574  A
ATOM     25 C12  665 L   1      11.761  -7.374  -0.658  1.00  0.00    -0.0574  A
ATOM     26 C13  665 L   1      11.696  -8.346  -2.869  1.00  0.00    -0.0103  A
ATOM     27 C14  665 L   1      12.884  -7.692  -3.192  1.00  0.00    -0.0551  A
ATOM     28 C15  665 L   1      11.134  -8.186  -1.603  1.00  0.00    -0.0551  A
ATOM     29 H38  665 L   1      14.439  -6.376  -2.514  1.00  0.00    +0.0621  H
ATOM     30 H39  665 L   1      11.308  -7.265   0.322  1.00  0.00    +0.0621  H
ATOM     31 H40  665 L   1      13.335  -7.808  -4.174  1.00  0.00    +0.0621  H
ATOM     32 H41  665 L   1      10.208  -8.692  -1.340  1.00  0.00    +0.0621  H
BRANCH 26 33
ATOM     33 C17  665 L   1      11.025  -9.215  -3.879  1.00  0.00    +0.1179  C
ATOM     34 H43  665 L   1      11.634 -10.110  -4.057  1.00  0.00    +0.0749  H
ATOM     35 H44  665 L   1      10.044  -9.545  -3.514  1.00  0.00    +0.0749  H
BRANCH 33 36
ATOM     36  O1  665 L   1      10.861  -8.490  -5.092  1.00  0.00    -0.4564 OA
BRANCH 36 38
ATOM     37  O3  665 L   1       8.777  -9.378  -5.497  1.00  0.00    -0.2449 OA
ATOM     38 C25  665 L   1       9.822  -8.875  -5.881  1.00  0.00    +0.3398  C
BRANCH 38 39
ATOM     39 C23  665 L   1      10.118  -8.603  -7.311  1.00  0.00    +0.0619  A
ATOM     40 C24  665 L   1      10.756  -9.554  -8.108  1.00  0.00    -0.0362  A
ATOM     41 C27  665 L   1      10.654  -8.041  -9.991  1.00  0.00    -0.0502  A
ATOM     42 C28  665 L   1      11.022  -9.272  -9.448  1.00  0.00    -0.0551  A
ATOM     43 C29  665 L   1       9.749  -7.371  -7.852  1.00  0.00    -0.0473  A
ATOM     44 C31  665 L   1      10.017  -7.090  -9.192  1.00  0.00    -0.0580  A
ATOM     45 C32  665 L   1      11.160 -10.880  -7.554  1.00  0.00    -0.0389  C
ATOM     46 C34  665 L   1      10.940  -7.739 -11.422  1.00  0.00    -0.0397  C
ATOM     47 H51  665 L   1      11.522 -10.009 -10.074  1.00  0.00    +0.0623  H
ATOM     48 H52  665 L   1       9.255  -6.620  -7.242  1.00  0.00    +0.0626  H
ATOM     49 H54  665 L   1       9.726  -6.127  -9.602  1.00  0.00    +0.0620  H
ATOM     50 H55  665 L   1      11.997 -10.763  -6.858  1.00  0.00    +0.0278  H
ATOM     51 H56  665 L   1      10.322 -11.360  -7.037  1.00  0.00    +0.0278  H
ATOM     52 H57  665 L   1      11.480 -11.568  -8.344  1.00  0.00    +0.0278  H
ATOM     53 H59  665 L   1      10.206  -7.036 -11.833  1.00  0.00    +0.0278  H
ATOM     54 H60  665 L   1      10.891  -8.647 -12.033  1.00  0.00    +0.0278  H
ATOM     55 H61  665 L   1      11.938  -7.302 -11.522  1.00  0.00    +0.0278  H
ENDBRANCH 38 39
ENDBRANCH 36 38
ENDBRANCH 33 36
ENDBRANCH 26 33
ENDBRANCH 21 23
BRANCH 21 57
ATOM     56  N5  665 L   1      14.474  -3.547   0.557  1.00  0.00    -0.3289 NA
ATOM     57  C9  665 L   1      13.717  -4.357  -0.393  1.00  0.00    +0.0085  C
ATOM     58 H36  665 L   1      14.172  -4.259  -1.386  1.00  0.00    +0.0432  H
ATOM     59 H37  665 L   1      12.703  -3.946  -0.474  1.00  0.00    +0.0432  H
ATOM     60 H45  665 L   1      14.497  -2.582   0.232  1.00  0.00    +0.1182 HD
ATOM     61 H46  665 L   1      15.444  -3.858   0.583  1.00  0.00    +0.1182 HD
ENDBRANCH 21 57
ENDBRANCH 19 21
ENDBRANCH 2 18
TORSDOF 8
ENDMDL
MODEL 14
REMARK VINA RESULT:    -6.867      6.985      9.019
REMARK INTER + INTRA:         -11.223
REMARK INTER:                  -7.894
REMARK INTRA:                  -3.329
REMARK UNBOUND:                -1.145
ROOT
ATOM      1  N6  665 L   1       3.847 -11.373 -11.354  1.00  0.00    -0.2626 NA
ATOM      2 C16  665 L   1       8.658  -9.926 -11.965  1.00  0.00    +0.0423  A
ATOM      3 C18  665 L   1       7.576  -9.401 -11.256  1.00  0.00    -0.0305  A
ATOM      4 C19  665 L   1       6.328 -10.044 -11.277  1.00  0.00    -0.0131  A
ATOM      5 C20  665 L   1       8.508 -11.097 -12.704  1.00  0.00    -0.0377  A
ATOM      6 C21  665 L   1       6.180 -11.230 -12.026  1.00  0.00    +0.0004  A
ATOM      7 C22  665 L   1       7.276 -11.749 -12.737  1.00  0.00    -0.0506  A
ATOM      8 C26  665 L   1       5.224  -9.543 -10.577  1.00  0.00    -0.0358  A
ATOM      9 C30  665 L   1       4.925 -11.841 -12.024  1.00  0.00    +0.0353  A
ATOM     10 C33  665 L   1       4.025 -10.237 -10.649  1.00  0.00    +0.0281  A
ATOM     11 H47  665 L   1       7.701  -8.485 -10.680  1.00  0.00    +0.0644  H
ATOM     12 H48  665 L   1       9.298 -11.565 -13.275  1.00  0.00    +0.0638  H
ATOM     13 H49  665 L   1       7.175 -12.664 -13.317  1.00  0.00    +0.0625  H
ATOM     14 H50  665 L   1       5.291  -8.634  -9.988  1.00  0.00    +0.0639  H
ATOM     15 H53  665 L   1       4.743 -12.758 -12.580  1.00  0.00    +0.0836  H
ATOM     16 H58  665 L   1       3.148  -9.880 -10.119  1.00  0.00    +0.0830  H
ENDROOT
BRANCH 2 18
ATOM     17  O2  665 L   1       9.654  -7.577 -13.542  1.00  0.00    -0.2722 OA
ATOM     18  N4  665 L   1       9.893  -9.275 -11.933  1.00  0.00    -0.3256  N
ATOM     19 C10  665 L   1      10.317  -8.177 -12.700  1.00  0.00    +0.2339  C
ATOM     20 H42  665 L   1      10.563  -9.658 -11.271  1.00  0.00    +0.1686 HD
BRANCH 19 21
ATOM     21  C7  665 L   1      11.755  -7.759 -12.361  1.00  0.00    +0.0752  C
ATOM     22 H35  665 L   1      11.914  -6.752 -12.776  1.00  0.00    +0.0458  H
BRANCH 21 23
ATOM     23  C8  665 L   1      11.947  -7.708 -10.854  1.00  0.00    -0.0341  A
ATOM     24 C11  665 L   1      13.093  -8.255 -10.276  1.00  0.00    -0.0574  A
ATOM     25 C12  665 L   1      10.976  -7.112 -10.047  1.00  0.00    -0.0574  A
ATOM     26 C13  665 L   1      12.298  -7.613  -8.088  1.00  0.00    -0.0103  A
ATOM     27 C14  665 L   1      13.267  -8.208  -8.893  1.00  0.00    -0.0551  A
ATOM     28 C15  665 L   1      11.152  -7.066  -8.664  1.00  0.00    -0.0551  A
ATOM     29 H38  665 L   1      13.858  -8.722 -10.892  1.00  0.00    +0.0621  H
ATOM     30 H39  665 L   1      10.078  -6.678 -10.476  1.00  0.00    +0.0621  H
ATOM     31 H40  665 L   1      14.166  -8.637  -8.458  1.00  0.00    +0.0621  H
ATOM     32 H41  665 L   1      10.389  -6.598  -8.046  1.00  0.00    +0.0621  H
BRANCH 26 33
ATOM     33 C17  665 L   1      12.484  -7.562  -6.608  1.00  0.00    +0.1179  C
ATOM     34 H43  665 L   1      13.371  -8.145  -6.329  1.00  0.00    +0.0749  H
ATOM     35 H44  665 L   1      12.643  -6.530  -6.273  1.00  0.00    +0.0749  H
BRANCH 33 36
ATOM     36  O1  665 L   1      11.332  -8.098  -5.968  1.00  0.00    -0.4564 OA
BRANCH 36 38
ATOM     37  O3  665 L   1      12.090 -10.263  -5.792  1.00  0.00    -0.2449 OA
ATOM     38 C25  665 L   1      11.203  -9.452  -6.006  1.00  0.00    +0.3398  C
BRANCH 38 39
ATOM     39 C23  665 L   1       9.811  -9.838  -6.351  1.00  0.00    +0.0619  A
ATOM     40 C24  665 L   1       9.510 -10.426  -7.580  1.00  0.00    -0.0362  A
ATOM     41 C27  665 L   1       7.179 -10.542  -6.951  1.00  0.00    -0.0502  A
ATOM     42 C28  665 L   1       8.194 -10.779  -7.879  1.00  0.00    -0.0551  A
ATOM     43 C29  665 L   1       8.797  -9.600  -5.423  1.00  0.00    -0.0473  A
ATOM     44 C31  665 L   1       7.480  -9.952  -5.723  1.00  0.00    -0.0580  A
ATOM     45 C32  665 L   1      10.577 -10.693  -8.591  1.00  0.00    -0.0389  C
ATOM     46 C34  665 L   1       5.772 -10.917  -7.271  1.00  0.00    -0.0397  C
ATOM     47 H51  665 L   1       7.952 -11.235  -8.836  1.00  0.00    +0.0623  H
ATOM     48 H52  665 L   1       9.016  -9.139  -4.464  1.00  0.00    +0.0626  H
ATOM     49 H54  665 L   1       6.699  -9.761  -4.993  1.00  0.00    +0.0620  H
ATOM     50 H55  665 L   1      10.936  -9.752  -9.021  1.00  0.00    +0.0278  H
ATOM     51 H56  665 L   1      11.416 -11.231  -8.139  1.00  0.00    +0.0278  H
ATOM     52 H57  665 L   1      10.207 -11.314  -9.414  1.00  0.00    +0.0278  H
ATOM     53 H59  665 L   1       5.209 -11.155  -6.361  1.00  0.00    +0.0278  H
ATOM     54 H60  665 L   1       5.737 -11.806  -7.910  1.00  0.00    +0.0278  H
ATOM     55 H61  665 L   1       5.271 -10.093  -7.787  1.00  0.00    +0.0278  H
ENDBRANCH 38 39
ENDBRANCH 36 38
ENDBRANCH 33 36
ENDBRANCH 26 33
ENDBRANCH 21 23
BRANCH 21 57
ATOM     56  N5  665 L   1      12.120  -9.527 -14.073  1.00  0.00    -0.3289 NA
ATOM     57  C9  665 L   1      12.763  -8.693 -13.062  1.00  0.00    +0.0085  C
ATOM     58 H36  665 L   1      13.576  -8.127 -13.533  1.00  0.00    +0.0432  H
ATOM     59 H37  665 L   1      13.231  -9.346 -12.315  1.00  0.00    +0.0432  H
ATOM     60 H45  665 L   1      12.818 -10.132 -14.503  1.00  0.00    +0.1182 HD
ATOM     61 H46  665 L   1      11.753  -8.944 -14.823  1.00  0.00    +0.1182 HD
ENDBRANCH 21 57
ENDBRANCH 19 21
ENDBRANCH 2 18
TORSDOF 8
ENDMDL
MODEL 15
REMARK VINA RESULT:    -6.813      1.925      2.726
REMARK INTER + INTRA:         -11.144
REMARK INTER:                 -10.504
REMARK INTRA:                  -0.641
REMARK UNBOUND:                -1.145
ROOT
ATOM      1  N6  665 L   1       7.272  -8.396  -9.997  1.00  0.00    -0.2626 NA
ATOM      2 C16  665 L   1      10.953  -7.962  -6.552  1.00  0.00    +0.0423  A
ATOM      3 C18  665 L   1       9.772  -8.703  -6.612  1.00  0.00    -0.0305  A
ATOM      4 C19  665 L   1       8.928  -8.614  -7.731  1.00  0.00    -0.0131  A
ATOM      5 C20  665 L   1      11.306  -7.122  -7.605  1.00  0.00    -0.0377  A
ATOM      6 C21  665 L   1       9.289  -7.762  -8.796  1.00  0.00    +0.0004  A
ATOM      7 C22  665 L   1      10.481  -7.020  -8.724  1.00  0.00    -0.0506  A
ATOM      8 C26  665 L   1       7.737  -9.344  -7.822  1.00  0.00    -0.0358  A
ATOM      9 C30  665 L   1       8.426  -7.698  -9.891  1.00  0.00    +0.0353  A
ATOM     10 C33  665 L   1       6.958  -9.200  -8.960  1.00  0.00    +0.0281  A
ATOM     11 H47  665 L   1       9.503  -9.359  -5.784  1.00  0.00    +0.0644  H
ATOM     12 H48  665 L   1      12.203  -6.520  -7.632  1.00  0.00    +0.0638  H
ATOM     13 H49  665 L   1      10.770  -6.360  -9.539  1.00  0.00    +0.0625  H
ATOM     14 H50  665 L   1       7.419 -10.011  -7.027  1.00  0.00    +0.0639  H
ATOM     15 H53  665 L   1       8.645  -7.062 -10.745  1.00  0.00    +0.0836  H
ATOM     16 H58  665 L   1       6.029  -9.750  -9.066  1.00  0.00    +0.0830  H
ENDROOT
BRANCH 2 18
ATOM     17  O2  665 L   1      10.357  -8.937  -3.779  1.00  0.00    -0.2722 OA
ATOM     18  N4  665 L   1      11.782  -8.063  -5.433  1.00  0.00    -0.3256  N
ATOM     19 C10  665 L   1      11.454  -8.522  -4.146  1.00  0.00    +0.2339  C
ATOM     20 H42  665 L   1      12.741  -7.757  -5.579  1.00  0.00    +0.1686 HD
BRANCH 19 21
ATOM     21  C7  665 L   1      12.657  -8.475  -3.193  1.00  0.00    +0.0752  C
ATOM     22 H35  665 L   1      13.525  -8.126  -3.773  1.00  0.00    +0.0458  H
BRANCH 21 23
ATOM     23  C8  665 L   1      12.393  -7.494  -2.061  1.00  0.00    -0.0341  A
ATOM     24 C11  665 L   1      13.172  -6.343  -1.939  1.00  0.00    -0.0574  A
ATOM     25 C12  665 L   1      11.371  -7.745  -1.145  1.00  0.00    -0.0574  A
ATOM     26 C13  665 L   1      11.909  -5.696   0.015  1.00  0.00    -0.0103  A
ATOM     27 C14  665 L   1      12.930  -5.445  -0.900  1.00  0.00    -0.0551  A
ATOM     28 C15  665 L   1      11.130  -6.846  -0.106  1.00  0.00    -0.0551  A
ATOM     29 H38  665 L   1      13.972  -6.134  -2.646  1.00  0.00    +0.0621  H
ATOM     30 H39  665 L   1      10.752  -8.634  -1.223  1.00  0.00    +0.0621  H
ATOM     31 H40  665 L   1      13.544  -4.552  -0.818  1.00  0.00    +0.0621  H
ATOM     32 H41  665 L   1      10.330  -7.052   0.601  1.00  0.00    +0.0621  H
BRANCH 26 33
ATOM     33 C17  665 L   1      11.650  -4.735   1.126  1.00  0.00    +0.1179  C
ATOM     34 H43  665 L   1      12.571  -4.186   1.361  1.00  0.00    +0.0749  H
ATOM     35 H44  665 L   1      10.888  -4.001   0.834  1.00  0.00    +0.0749  H
BRANCH 33 36
ATOM     36  O1  665 L   1      11.205  -5.449   2.274  1.00  0.00    -0.4564 OA
BRANCH 36 38
ATOM     37  O3  665 L   1      10.399  -3.508   3.213  1.00  0.00    -0.2449 OA
ATOM     38 C25  665 L   1      10.520  -4.723   3.200  1.00  0.00    +0.3398  C
BRANCH 38 39
ATOM     39 C23  665 L   1       9.919  -5.614   4.225  1.00  0.00    +0.0619  A
ATOM     40 C24  665 L   1      10.593  -5.903   5.412  1.00  0.00    -0.0362  A
ATOM     41 C27  665 L   1       8.746  -7.294   6.119  1.00  0.00    -0.0502  A
ATOM     42 C28  665 L   1      10.005  -6.743   6.359  1.00  0.00    -0.0551  A
ATOM     43 C29  665 L   1       8.660  -6.164   3.984  1.00  0.00    -0.0473  A
ATOM     44 C31  665 L   1       8.073  -7.005   4.931  1.00  0.00    -0.0580  A
ATOM     45 C32  665 L   1      11.941  -5.326   5.696  1.00  0.00    -0.0389  C
ATOM     46 C34  665 L   1       8.119  -8.193   7.129  1.00  0.00    -0.0397  C
ATOM     47 H51  665 L   1      10.527  -6.975   7.284  1.00  0.00    +0.0623  H
ATOM     48 H52  665 L   1       8.126  -5.950   3.063  1.00  0.00    +0.0626  H
ATOM     49 H54  665 L   1       7.093  -7.429   4.731  1.00  0.00    +0.0620  H
ATOM     50 H55  665 L   1      12.694  -5.782   5.045  1.00  0.00    +0.0278  H
ATOM     51 H56  665 L   1      11.940  -4.242   5.547  1.00  0.00    +0.0278  H
ATOM     52 H57  665 L   1      12.247  -5.505   6.732  1.00  0.00    +0.0278  H
ATOM     53 H59  665 L   1       7.025  -8.139   7.082  1.00  0.00    +0.0278  H
ATOM     54 H60  665 L   1       8.410  -7.906   8.146  1.00  0.00    +0.0278  H
ATOM     55 H61  665 L   1       8.427  -9.228   6.954  1.00  0.00    +0.0278  H
ENDBRANCH 38 39
ENDBRANCH 36 38
ENDBRANCH 33 36
ENDBRANCH 26 33
ENDBRANCH 21 23
BRANCH 21 57
ATOM     56  N5  665 L   1      12.745 -10.907  -3.711  1.00  0.00    -0.3289 NA
ATOM     57  C9  665 L   1      12.998  -9.893  -2.691  1.00  0.00    +0.0085  C
ATOM     58 H36  665 L   1      14.044  -9.965  -2.369  1.00  0.00    +0.0432  H
ATOM     59 H37  665 L   1      12.386 -10.122  -1.810  1.00  0.00    +0.0432  H
ATOM     60 H45  665 L   1      12.975 -11.826  -3.335  1.00  0.00    +0.1182 HD
ATOM     61 H46  665 L   1      13.368 -10.764  -4.505  1.00  0.00    +0.1182 HD
ENDBRANCH 21 57
ENDBRANCH 19 21
ENDBRANCH 2 18
TORSDOF 8
ENDMDL
MODEL 16
REMARK VINA RESULT:    -6.662      2.360      3.559
REMARK INTER + INTRA:         -10.922
REMARK INTER:                  -9.441
REMARK INTRA:                  -1.481
REMARK UNBOUND:                -1.145
ROOT
ATOM      1  N6  665 L   1       8.387  -8.400  -9.230  1.00  0.00    -0.2626 NA
ATOM      2 C16  665 L   1      11.131  -8.560  -4.981  1.00  0.00    +0.0423  A
ATOM      3 C18  665 L   1      11.141  -7.731  -6.104  1.00  0.00    -0.0305  A
ATOM      4 C19  665 L   1      10.232  -7.939  -7.154  1.00  0.00    -0.0131  A
ATOM      5 C20  665 L   1      10.215  -9.605  -4.891  1.00  0.00    -0.0377  A
ATOM      6 C21  665 L   1       9.305  -8.999  -7.059  1.00  0.00    +0.0004  A
ATOM      7 C22  665 L   1       9.305  -9.826  -5.924  1.00  0.00    -0.0506  A
ATOM      8 C26  665 L   1      10.216  -7.126  -8.293  1.00  0.00    -0.0358  A
ATOM      9 C30  665 L   1       8.417  -9.175  -8.122  1.00  0.00    +0.0353  A
ATOM     10 C33  665 L   1       9.287  -7.396  -9.286  1.00  0.00    +0.0281  A
ATOM     11 H47  665 L   1      11.861  -6.915  -6.167  1.00  0.00    +0.0644  H
ATOM     12 H48  665 L   1      10.145 -10.285  -4.054  1.00  0.00    +0.0638  H
ATOM     13 H49  665 L   1       8.595 -10.646  -5.839  1.00  0.00    +0.0625  H
ATOM     14 H50  665 L   1      10.911  -6.300  -8.410  1.00  0.00    +0.0639  H
ATOM     15 H53  665 L   1       7.678  -9.972  -8.112  1.00  0.00    +0.0836  H
ATOM     16 H58  665 L   1       9.245  -6.788 -10.184  1.00  0.00    +0.0830  H
ENDROOT
BRANCH 2 18
ATOM     17  O2  665 L   1      10.661  -7.842  -2.107  1.00  0.00    -0.2722 OA
ATOM     18  N4  665 L   1      12.041  -8.339  -3.945  1.00  0.00    -0.3256  N
ATOM     19 C10  665 L   1      11.771  -7.997  -2.610  1.00  0.00    +0.2339  C
ATOM     20 H42  665 L   1      13.020  -8.436  -4.205  1.00  0.00    +0.1686 HD
BRANCH 19 21
ATOM     21  C7  665 L   1      13.057  -7.843  -1.783  1.00  0.00    +0.0752  C
ATOM     22 H35  665 L   1      13.810  -7.366  -2.429  1.00  0.00    +0.0458  H
BRANCH 21 23
ATOM     23  C8  665 L   1      12.804  -6.951  -0.578  1.00  0.00    -0.0341  A
ATOM     24 C11  665 L   1      12.329  -7.503   0.612  1.00  0.00    -0.0574  A
ATOM     25 C12  665 L   1      13.047  -5.580  -0.662  1.00  0.00    -0.0574  A
ATOM     26 C13  665 L   1      12.340  -5.314   1.632  1.00  0.00    -0.0103  A
ATOM     27 C14  665 L   1      12.096  -6.684   1.716  1.00  0.00    -0.0551  A
ATOM     28 C15  665 L   1      12.814  -4.761   0.443  1.00  0.00    -0.0551  A
ATOM     29 H38  665 L   1      12.136  -8.570   0.692  1.00  0.00    +0.0621  H
ATOM     30 H39  665 L   1      13.418  -5.130  -1.578  1.00  0.00    +0.0621  H
ATOM     31 H40  665 L   1      11.728  -7.129   2.637  1.00  0.00    +0.0621  H
ATOM     32 H41  665 L   1      13.008  -3.694   0.366  1.00  0.00    +0.0621  H
BRANCH 26 33
ATOM     33 C17  665 L   1      12.091  -4.438   2.814  1.00  0.00    +0.1179  C
ATOM     34 H43  665 L   1      12.988  -3.842   3.025  1.00  0.00    +0.0749  H
ATOM     35 H44  665 L   1      11.266  -3.742   2.614  1.00  0.00    +0.0749  H
BRANCH 33 36
ATOM     36  O1  665 L   1      11.769  -5.245   3.941  1.00  0.00    -0.4564 OA
BRANCH 36 38
ATOM     37  O3  665 L   1      10.547  -3.587   4.968  1.00  0.00    -0.2449 OA
ATOM     38 C25  665 L   1      10.793  -4.765   4.759  1.00  0.00    +0.3398  C
BRANCH 38 39
ATOM     39 C23  665 L   1      10.040  -5.880   5.389  1.00  0.00    +0.0619  A
ATOM     40 C24  665 L   1       8.877  -6.383   4.807  1.00  0.00    -0.0362  A
ATOM     41 C27  665 L   1       8.662  -7.973   6.615  1.00  0.00    -0.0502  A
ATOM     42 C28  665 L   1       8.188  -7.430   5.420  1.00  0.00    -0.0551  A
ATOM     43 C29  665 L   1      10.515  -6.422   6.584  1.00  0.00    -0.0473  A
ATOM     44 C31  665 L   1       9.825  -7.468   7.197  1.00  0.00    -0.0580  A
ATOM     45 C32  665 L   1       8.348  -5.822   3.527  1.00  0.00    -0.0389  C
ATOM     46 C34  665 L   1       7.926  -9.091   7.271  1.00  0.00    -0.0397  C
ATOM     47 H51  665 L   1       7.279  -7.825   4.972  1.00  0.00    +0.0623  H
ATOM     48 H52  665 L   1      11.418  -6.037   7.050  1.00  0.00    +0.0626  H
ATOM     49 H54  665 L   1      10.204  -7.880   8.128  1.00  0.00    +0.0620  H
ATOM     50 H55  665 L   1       7.946  -4.817   3.690  1.00  0.00    +0.0278  H
ATOM     51 H56  665 L   1       9.133  -5.781   2.765  1.00  0.00    +0.0278  H
ATOM     52 H57  665 L   1       7.541  -6.439   3.118  1.00  0.00    +0.0278  H
ATOM     53 H59  665 L   1       8.606  -9.726   7.851  1.00  0.00    +0.0278  H
ATOM     54 H60  665 L   1       7.443  -9.734   6.528  1.00  0.00    +0.0278  H
ATOM     55 H61  665 L   1       7.160  -8.693   7.944  1.00  0.00    +0.0278  H
ENDBRANCH 38 39
ENDBRANCH 36 38
ENDBRANCH 33 36
ENDBRANCH 26 33
ENDBRANCH 21 23
BRANCH 21 57
ATOM     56  N5  665 L   1      12.691 -10.304  -1.749  1.00  0.00    -0.3289 NA
ATOM     57  C9  665 L   1      13.614  -9.228  -1.398  1.00  0.00    +0.0085  C
ATOM     58 H36  665 L   1      14.582  -9.420  -1.876  1.00  0.00    +0.0432  H
ATOM     59 H37  665 L   1      13.791  -9.259  -0.315  1.00  0.00    +0.0432  H
ATOM     60 H45  665 L   1      13.094 -11.197  -1.470  1.00  0.00    +0.1182 HD
ATOM     61 H46  665 L   1      12.580 -10.349  -2.761  1.00  0.00    +0.1182 HD
ENDBRANCH 21 57
ENDBRANCH 19 21
ENDBRANCH 2 18
TORSDOF 8
ENDMDL
MODEL 17
REMARK VINA RESULT:    -6.636      3.370     11.211
REMARK INTER + INTRA:         -10.884
REMARK INTER:                  -9.063
REMARK INTRA:                  -1.821
REMARK UNBOUND:                -1.145
ROOT
ATOM      1  N6  665 L   1      12.903  -5.604   2.553  1.00  0.00    -0.2626 NA
ATOM      2 C16  665 L   1      11.368  -8.485  -1.315  1.00  0.00    +0.0423  A
ATOM      3 C18  665 L   1      12.225  -8.699  -0.234  1.00  0.00    -0.0305  A
ATOM      4 C19  665 L   1      12.461  -7.681   0.703  1.00  0.00    -0.0131  A
ATOM      5 C20  665 L   1      10.738  -7.252  -1.475  1.00  0.00    -0.0377  A
ATOM      6 C21  665 L   1      11.823  -6.434   0.538  1.00  0.00    +0.0004  A
ATOM      7 C22  665 L   1      10.962  -6.229  -0.554  1.00  0.00    -0.0506  A
ATOM      8 C26  665 L   1      13.315  -7.865   1.798  1.00  0.00    -0.0358  A
ATOM      9 C30  665 L   1      12.083  -5.446   1.489  1.00  0.00    +0.0353  A
ATOM     10 C33  665 L   1      13.498  -6.810   2.679  1.00  0.00    +0.0281  A
ATOM     11 H47  665 L   1      12.713  -9.666  -0.115  1.00  0.00    +0.0644  H
ATOM     12 H48  665 L   1      10.062  -7.012  -2.282  1.00  0.00    +0.0638  H
ATOM     13 H49  665 L   1      10.463  -5.273  -0.692  1.00  0.00    +0.0625  H
ATOM     14 H50  665 L   1      13.828  -8.806   1.965  1.00  0.00    +0.0639  H
ATOM     15 H53  665 L   1      11.623  -4.463   1.421  1.00  0.00    +0.0836  H
ATOM     16 H58  665 L   1      14.151  -6.914   3.539  1.00  0.00    +0.0830  H
ENDROOT
BRANCH 2 18
ATOM     17  O2  665 L   1      11.169  -8.390  -4.306  1.00  0.00    -0.2722 OA
ATOM     18  N4  665 L   1      11.141  -9.508  -2.237  1.00  0.00    -0.3256  N
ATOM     19 C10  665 L   1      11.049  -9.412  -3.636  1.00  0.00    +0.2339  C
ATOM     20 H42  665 L   1      11.023 -10.433  -1.832  1.00  0.00    +0.1686 HD
BRANCH 19 21
ATOM     21  C7  665 L   1      10.790 -10.777  -4.291  1.00  0.00    +0.0752  C
ATOM     22 H35  665 L   1      10.528 -11.485  -3.489  1.00  0.00    +0.0458  H
BRANCH 21 23
ATOM     23  C8  665 L   1       9.626 -10.681  -5.264  1.00  0.00    -0.0341  A
ATOM     24 C11  665 L   1       8.480  -9.967  -4.914  1.00  0.00    -0.0574  A
ATOM     25 C12  665 L   1       9.704 -11.307  -6.509  1.00  0.00    -0.0574  A
ATOM     26 C13  665 L   1       7.490 -10.505  -7.050  1.00  0.00    -0.0103  A
ATOM     27 C14  665 L   1       7.412  -9.880  -5.807  1.00  0.00    -0.0551  A
ATOM     28 C15  665 L   1       8.636 -11.220  -7.401  1.00  0.00    -0.0551  A
ATOM     29 H38  665 L   1       8.405  -9.474  -3.948  1.00  0.00    +0.0621  H
ATOM     30 H39  665 L   1      10.587 -11.866  -6.802  1.00  0.00    +0.0621  H
ATOM     31 H40  665 L   1       6.527  -9.319  -5.521  1.00  0.00    +0.0621  H
ATOM     32 H41  665 L   1       8.709 -11.711  -8.369  1.00  0.00    +0.0621  H
BRANCH 26 33
ATOM     33 C17  665 L   1       6.349 -10.412  -8.006  1.00  0.00    +0.1179  C
ATOM     34 H43  665 L   1       5.778 -11.349  -7.990  1.00  0.00    +0.0749  H
ATOM     35 H44  665 L   1       5.669  -9.600  -7.718  1.00  0.00    +0.0749  H
BRANCH 33 36
ATOM     36  O1  665 L   1       6.848 -10.171  -9.317  1.00  0.00    -0.4564 OA
BRANCH 36 38
ATOM     37  O3  665 L   1       5.923  -8.079  -9.569  1.00  0.00    -0.2449 OA
ATOM     38 C25  665 L   1       6.835  -8.875  -9.731  1.00  0.00    +0.3398  C
BRANCH 38 39
ATOM     39 C23  665 L   1       8.102  -8.533 -10.427  1.00  0.00    +0.0619  A
ATOM     40 C24  665 L   1       9.164  -7.943  -9.741  1.00  0.00    -0.0362  A
ATOM     41 C27  665 L   1      10.460  -7.909 -11.781  1.00  0.00    -0.0502  A
ATOM     42 C28  665 L   1      10.343  -7.632 -10.419  1.00  0.00    -0.0551  A
ATOM     43 C29  665 L   1       8.218  -8.810 -11.789  1.00  0.00    -0.0473  A
ATOM     44 C31  665 L   1       9.397  -8.498 -12.467  1.00  0.00    -0.0580  A
ATOM     45 C32  665 L   1       9.067  -7.638  -8.282  1.00  0.00    -0.0389  C
ATOM     46 C34  665 L   1      11.719  -7.575 -12.506  1.00  0.00    -0.0397  C
ATOM     47 H51  665 L   1      11.174  -7.169  -9.890  1.00  0.00    +0.0623  H
ATOM     48 H52  665 L   1       7.397  -9.266 -12.336  1.00  0.00    +0.0626  H
ATOM     49 H54  665 L   1       9.474  -8.717 -13.528  1.00  0.00    +0.0620  H
ATOM     50 H55  665 L   1       8.372  -6.808  -8.113  1.00  0.00    +0.0278  H
ATOM     51 H56  665 L   1       8.730  -8.515  -7.721  1.00  0.00    +0.0278  H
ATOM     52 H57  665 L   1      10.037  -7.347  -7.865  1.00  0.00    +0.0278  H
ATOM     53 H59  665 L   1      11.881  -8.253 -13.352  1.00  0.00    +0.0278  H
ATOM     54 H60  665 L   1      12.590  -7.671 -11.848  1.00  0.00    +0.0278  H
ATOM     55 H61  665 L   1      11.675  -6.549 -12.883  1.00  0.00    +0.0278  H
ENDBRANCH 38 39
ENDBRANCH 36 38
ENDBRANCH 33 36
ENDBRANCH 26 33
ENDBRANCH 21 23
BRANCH 21 57
ATOM     56  N5  665 L   1      13.267 -10.615  -4.458  1.00  0.00    -0.3289 NA
ATOM     57  C9  665 L   1      12.080 -11.309  -4.949  1.00  0.00    +0.0085  C
ATOM     58 H36  665 L   1      12.203 -12.386  -4.781  1.00  0.00    +0.0432  H
ATOM     59 H37  665 L   1      12.016 -11.169  -6.035  1.00  0.00    +0.0432  H
ATOM     60 H45  665 L   1      14.092 -10.991  -4.924  1.00  0.00    +0.1182 HD
ATOM     61 H46  665 L   1      13.394 -10.804  -3.465  1.00  0.00    +0.1182 HD
ENDBRANCH 21 57
ENDBRANCH 19 21
ENDBRANCH 2 18
TORSDOF 8
ENDMDL
MODEL 18
REMARK VINA RESULT:    -6.556      2.639      3.234
REMARK INTER + INTRA:         -10.767
REMARK INTER:                  -9.309
REMARK INTRA:                  -1.458
REMARK UNBOUND:                -1.145
ROOT
ATOM      1  N6  665 L   1      13.272  -7.065 -12.365  1.00  0.00    -0.2626 NA
ATOM      2 C16  665 L   1      12.331  -8.826  -7.715  1.00  0.00    +0.0423  A
ATOM      3 C18  665 L   1      13.391  -8.116  -8.281  1.00  0.00    -0.0305  A
ATOM      4 C19  665 L   1      13.368  -7.757  -9.638  1.00  0.00    -0.0131  A
ATOM      5 C20  665 L   1      11.236  -9.188  -8.496  1.00  0.00    -0.0377  A
ATOM      6 C21  665 L   1      12.258  -8.126 -10.426  1.00  0.00    +0.0004  A
ATOM      7 C22  665 L   1      11.196  -8.842  -9.846  1.00  0.00    -0.0506  A
ATOM      8 C26  665 L   1      14.416  -7.045 -10.235  1.00  0.00    -0.0358  A
ATOM      9 C30  665 L   1      12.270  -7.753 -11.772  1.00  0.00    +0.0353  A
ATOM     10 C33  665 L   1      14.318  -6.730 -11.581  1.00  0.00    +0.0281  A
ATOM     11 H47  665 L   1      14.244  -7.835  -7.663  1.00  0.00    +0.0644  H
ATOM     12 H48  665 L   1      10.379  -9.735  -8.131  1.00  0.00    +0.0638  H
ATOM     13 H49  665 L   1      10.334  -9.131 -10.443  1.00  0.00    +0.0625  H
ATOM     14 H50  665 L   1      15.290  -6.741  -9.668  1.00  0.00    +0.0639  H
ATOM     15 H53  665 L   1      11.446  -8.005 -12.434  1.00  0.00    +0.0836  H
ATOM     16 H58  665 L   1      15.109  -6.178 -12.078  1.00  0.00    +0.0830  H
ENDROOT
BRANCH 2 18
ATOM     17  O2  665 L   1      10.713  -7.804  -5.405  1.00  0.00    -0.2722 OA
ATOM     18  N4  665 L   1      12.368  -9.173  -6.363  1.00  0.00    -0.3256  N
ATOM     19 C10  665 L   1      11.591  -8.659  -5.312  1.00  0.00    +0.2339  C
ATOM     20 H42  665 L   1      13.053  -9.885  -6.121  1.00  0.00    +0.1686 HD
BRANCH 19 21
ATOM     21  C7  665 L   1      11.941  -9.309  -3.966  1.00  0.00    +0.0752  C
ATOM     22 H35  665 L   1      12.914  -9.810  -4.082  1.00  0.00    +0.0458  H
BRANCH 21 23
ATOM     23  C8  665 L   1      12.059  -8.247  -2.884  1.00  0.00    -0.0341  A
ATOM     24 C11  665 L   1      13.138  -7.362  -2.889  1.00  0.00    -0.0574  A
ATOM     25 C12  665 L   1      11.088  -8.157  -1.885  1.00  0.00    -0.0574  A
ATOM     26 C13  665 L   1      12.276  -6.299  -0.899  1.00  0.00    -0.0103  A
ATOM     27 C14  665 L   1      13.246  -6.389  -1.896  1.00  0.00    -0.0551  A
ATOM     28 C15  665 L   1      11.198  -7.183  -0.893  1.00  0.00    -0.0551  A
ATOM     29 H38  665 L   1      13.901  -7.420  -3.661  1.00  0.00    +0.0621  H
ATOM     30 H39  665 L   1      10.240  -8.834  -1.863  1.00  0.00    +0.0621  H
ATOM     31 H40  665 L   1      14.091  -5.705  -1.915  1.00  0.00    +0.0621  H
ATOM     32 H41  665 L   1      10.435  -7.122  -0.121  1.00  0.00    +0.0621  H
BRANCH 26 33
ATOM     33 C17  665 L   1      12.392  -5.257   0.163  1.00  0.00    +0.1179  C
ATOM     34 H43  665 L   1      13.351  -5.367   0.683  1.00  0.00    +0.0749  H
ATOM     35 H44  665 L   1      12.362  -4.252  -0.276  1.00  0.00    +0.0749  H
BRANCH 33 36
ATOM     36  O1  665 L   1      11.319  -5.404   1.087  1.00  0.00    -0.4564 OA
BRANCH 36 38
ATOM     37  O3  665 L   1      12.411  -6.502   2.790  1.00  0.00    -0.2449 OA
ATOM     38 C25  665 L   1      11.674  -5.617   2.383  1.00  0.00    +0.3398  C
BRANCH 38 39
ATOM     39 C23  665 L   1      11.037  -4.614   3.274  1.00  0.00    +0.0619  A
ATOM     40 C24  665 L   1      11.728  -3.474   3.686  1.00  0.00    -0.0362  A
ATOM     41 C27  665 L   1       9.795  -2.761   4.950  1.00  0.00    -0.0502  A
ATOM     42 C28  665 L   1      11.107  -2.548   4.524  1.00  0.00    -0.0551  A
ATOM     43 C29  665 L   1       9.726  -4.828   3.700  1.00  0.00    -0.0473  A
ATOM     44 C31  665 L   1       9.105  -3.902   4.538  1.00  0.00    -0.0580  A
ATOM     45 C32  665 L   1      13.132  -3.221   3.244  1.00  0.00    -0.0389  C
ATOM     46 C34  665 L   1       9.131  -1.772   5.846  1.00  0.00    -0.0397  C
ATOM     47 H51  665 L   1      11.642  -1.659   4.851  1.00  0.00    +0.0623  H
ATOM     48 H52  665 L   1       9.177  -5.713   3.389  1.00  0.00    +0.0626  H
ATOM     49 H54  665 L   1       8.084  -4.081   4.864  1.00  0.00    +0.0620  H
ATOM     50 H55  665 L   1      13.817  -3.927   3.726  1.00  0.00    +0.0278  H
ATOM     51 H56  665 L   1      13.222  -3.312   2.157  1.00  0.00    +0.0278  H
ATOM     52 H57  665 L   1      13.462  -2.209   3.506  1.00  0.00    +0.0278  H
ATOM     53 H59  665 L   1       8.045  -1.769   5.696  1.00  0.00    +0.0278  H
ATOM     54 H60  665 L   1       9.485  -0.756   5.642  1.00  0.00    +0.0278  H
ATOM     55 H61  665 L   1       9.339  -2.014   6.892  1.00  0.00    +0.0278  H
ENDBRANCH 38 39
ENDBRANCH 36 38
ENDBRANCH 33 36
ENDBRANCH 26 33
ENDBRANCH 21 23
BRANCH 21 57
ATOM     56  N5  665 L   1       9.865 -10.510  -4.627  1.00  0.00    -0.3289 NA
ATOM     57  C9  665 L   1      10.915 -10.407  -3.618  1.00  0.00    +0.0085  C
ATOM     58 H36  665 L   1      11.396 -11.386  -3.505  1.00  0.00    +0.0432  H
ATOM     59 H37  665 L   1      10.450 -10.175  -2.652  1.00  0.00    +0.0432  H
ATOM     60 H45  665 L   1       9.207 -11.239  -4.354  1.00  0.00    +0.1182 HD
ATOM     61 H46  665 L   1      10.264 -10.810  -5.515  1.00  0.00    +0.1182 HD
ENDBRANCH 21 57
ENDBRANCH 19 21
ENDBRANCH 2 18
TORSDOF 8
ENDMDL
MODEL 19
REMARK VINA RESULT:    -6.537      3.645      6.963
REMARK INTER + INTRA:         -10.738
REMARK INTER:                  -9.791
REMARK INTRA:                  -0.947
REMARK UNBOUND:                -1.145
ROOT
ATOM      1  N6  665 L   1      14.460  -6.222 -13.813  1.00  0.00    -0.2626 NA
ATOM      2 C16  665 L   1      10.507  -8.374 -11.500  1.00  0.00    +0.0423  A
ATOM      3 C18  665 L   1      11.795  -8.030 -11.087  1.00  0.00    -0.0305  A
ATOM      4 C19  665 L   1      12.695  -7.427 -11.980  1.00  0.00    -0.0131  A
ATOM      5 C20  665 L   1      10.101  -8.122 -12.809  1.00  0.00    -0.0377  A
ATOM      6 C21  665 L   1      12.281  -7.174 -13.305  1.00  0.00    +0.0004  A
ATOM      7 C22  665 L   1      10.982  -7.525 -13.710  1.00  0.00    -0.0506  A
ATOM      8 C26  665 L   1      13.993  -7.070 -11.597  1.00  0.00    -0.0358  A
ATOM      9 C30  665 L   1      13.203  -6.575 -14.165  1.00  0.00    +0.0353  A
ATOM     10 C33  665 L   1      14.822  -6.480 -12.538  1.00  0.00    +0.0281  A
ATOM     11 H47  665 L   1      12.104  -8.229 -10.061  1.00  0.00    +0.0644  H
ATOM     12 H48  665 L   1       9.122  -8.357 -13.201  1.00  0.00    +0.0638  H
ATOM     13 H49  665 L   1      10.651  -7.335 -14.729  1.00  0.00    +0.0625  H
ATOM     14 H50  665 L   1      14.355  -7.246 -10.589  1.00  0.00    +0.0639  H
ATOM     15 H53  665 L   1      12.948  -6.352 -15.198  1.00  0.00    +0.0836  H
ATOM     16 H58  665 L   1      15.835  -6.189 -12.278  1.00  0.00    +0.0830  H
ENDROOT
BRANCH 2 18
ATOM     17  O2  665 L   1       7.693  -7.637 -10.767  1.00  0.00    -0.2722 OA
ATOM     18  N4  665 L   1       9.623  -8.971 -10.599  1.00  0.00    -0.3256  N
ATOM     19 C10  665 L   1       8.310  -8.583 -10.284  1.00  0.00    +0.2339  C
ATOM     20 H42  665 L   1       9.990  -9.785 -10.113  1.00  0.00    +0.1686 HD
BRANCH 19 21
ATOM     21  C7  665 L   1       7.672  -9.508  -9.237  1.00  0.00    +0.0752  C
ATOM     22 H35  665 L   1       7.571 -10.504  -9.692  1.00  0.00    +0.0458  H
BRANCH 21 23
ATOM     23  C8  665 L   1       8.568  -9.614  -8.013  1.00  0.00    -0.0341  A
ATOM     24 C11  665 L   1       8.817 -10.859  -7.435  1.00  0.00    -0.0574  A
ATOM     25 C12  665 L   1       9.144  -8.465  -7.468  1.00  0.00    -0.0574  A
ATOM     26 C13  665 L   1      10.213  -9.808  -5.768  1.00  0.00    -0.0103  A
ATOM     27 C14  665 L   1       9.638 -10.956  -6.312  1.00  0.00    -0.0551  A
ATOM     28 C15  665 L   1       9.965  -8.562  -6.345  1.00  0.00    -0.0551  A
ATOM     29 H38  665 L   1       8.376 -11.763  -7.849  1.00  0.00    +0.0621  H
ATOM     30 H39  665 L   1       8.965  -7.487  -7.903  1.00  0.00    +0.0621  H
ATOM     31 H40  665 L   1       9.823 -11.933  -5.874  1.00  0.00    +0.0621  H
ATOM     32 H41  665 L   1      10.408  -7.661  -5.930  1.00  0.00    +0.0621  H
BRANCH 26 33
ATOM     33 C17  665 L   1      11.092  -9.911  -4.567  1.00  0.00    +0.1179  C
ATOM     34 H43  665 L   1      10.998 -10.912  -4.127  1.00  0.00    +0.0749  H
ATOM     35 H44  665 L   1      12.143  -9.763  -4.843  1.00  0.00    +0.0749  H
BRANCH 33 36
ATOM     36  O1  665 L   1      10.708  -8.926  -3.614  1.00  0.00    -0.4564 OA
BRANCH 36 38
ATOM     37  O3  665 L   1      11.123 -10.106  -1.683  1.00  0.00    -0.2449 OA
ATOM     38 C25  665 L   1      11.198  -9.089  -2.356  1.00  0.00    +0.3398  C
BRANCH 38 39
ATOM     39 C23  665 L   1      11.856  -7.845  -1.882  1.00  0.00    +0.0619  A
ATOM     40 C24  665 L   1      13.194  -7.580  -2.176  1.00  0.00    -0.0362  A
ATOM     41 C27  665 L   1      13.044  -5.492  -0.967  1.00  0.00    -0.0502  A
ATOM     42 C28  665 L   1      13.787  -6.403  -1.718  1.00  0.00    -0.0551  A
ATOM     43 C29  665 L   1      11.112  -6.934  -1.131  1.00  0.00    -0.0473  A
ATOM     44 C31  665 L   1      11.706  -5.758  -0.673  1.00  0.00    -0.0580  A
ATOM     45 C32  665 L   1      14.012  -8.537  -2.979  1.00  0.00    -0.0389  C
ATOM     46 C34  665 L   1      13.678  -4.235  -0.477  1.00  0.00    -0.0397  C
ATOM     47 H51  665 L   1      14.831  -6.193  -1.941  1.00  0.00    +0.0623  H
ATOM     48 H52  665 L   1      10.070  -7.129  -0.893  1.00  0.00    +0.0626  H
ATOM     49 H54  665 L   1      11.117  -5.058  -0.088  1.00  0.00    +0.0620  H
ATOM     50 H55  665 L   1      14.219  -9.442  -2.398  1.00  0.00    +0.0278  H
ATOM     51 H56  665 L   1      13.497  -8.810  -3.905  1.00  0.00    +0.0278  H
ATOM     52 H57  665 L   1      14.975  -8.102  -3.268  1.00  0.00    +0.0278  H
ATOM     53 H59  665 L   1      12.938  -3.433  -0.372  1.00  0.00    +0.0278  H
ATOM     54 H60  665 L   1      14.440  -3.879  -1.179  1.00  0.00    +0.0278  H
ATOM     55 H61  665 L   1      14.149  -4.406   0.496  1.00  0.00    +0.0278  H
ENDBRANCH 38 39
ENDBRANCH 36 38
ENDBRANCH 33 36
ENDBRANCH 26 33
ENDBRANCH 21 23
BRANCH 21 57
ATOM     56  N5  665 L   1       5.370  -9.053 -10.063  1.00  0.00    -0.3289 NA
ATOM     57  C9  665 L   1       6.247  -9.028  -8.896  1.00  0.00    +0.0085  C
ATOM     58 H36  665 L   1       5.797  -9.634  -8.101  1.00  0.00    +0.0432  H
ATOM     59 H37  665 L   1       6.292  -8.000  -8.515  1.00  0.00    +0.0432  H
ATOM     60 H45  665 L   1       4.444  -8.722  -9.796  1.00  0.00    +0.1182 HD
ATOM     61 H46  665 L   1       5.244 -10.013 -10.382  1.00  0.00    +0.1182 HD
ENDBRANCH 21 57
ENDBRANCH 19 21
ENDBRANCH 2 18
TORSDOF 8
ENDMDL
MODEL 20
REMARK VINA RESULT:    -6.432      4.244      7.238
REMARK INTER + INTRA:         -10.585
REMARK INTER:                  -8.613
REMARK INTRA:                  -1.971
REMARK UNBOUND:                -1.145
ROOT
ATOM      1  N6  665 L   1      10.766 -10.062  -3.291  1.00  0.00    -0.2626 NA
ATOM      2 C16  665 L   1      12.554  -7.785   0.860  1.00  0.00    +0.0423  A
ATOM      3 C18  665 L   1      12.629  -9.089   0.368  1.00  0.00    -0.0305  A
ATOM      4 C19  665 L   1      12.016  -9.431  -0.848  1.00  0.00    -0.0131  A
ATOM      5 C20  665 L   1      11.865  -6.807   0.147  1.00  0.00    -0.0377  A
ATOM      6 C21  665 L   1      11.319  -8.437  -1.567  1.00  0.00    +0.0004  A
ATOM      7 C22  665 L   1      11.249  -7.128  -1.062  1.00  0.00    -0.0506  A
ATOM      8 C26  665 L   1      12.074 -10.729  -1.369  1.00  0.00    -0.0358  A
ATOM      9 C30  665 L   1      10.721  -8.814  -2.772  1.00  0.00    +0.0353  A
ATOM     10 C33  665 L   1      11.441 -10.986  -2.575  1.00  0.00    +0.0281  A
ATOM     11 H47  665 L   1      13.171  -9.849   0.931  1.00  0.00    +0.0644  H
ATOM     12 H48  665 L   1      11.765  -5.778   0.462  1.00  0.00    +0.0638  H
ATOM     13 H49  665 L   1      10.716  -6.353  -1.608  1.00  0.00    +0.0625  H
ATOM     14 H50  665 L   1      12.597 -11.525  -0.850  1.00  0.00    +0.0639  H
ATOM     15 H53  665 L   1      10.170  -8.097  -3.375  1.00  0.00    +0.0836  H
ATOM     16 H58  665 L   1      11.464 -11.980  -3.011  1.00  0.00    +0.0830  H
ENDROOT
BRANCH 2 18
ATOM     17  O2  665 L   1      15.456  -7.403   1.516  1.00  0.00    -0.2722 OA
ATOM     18  N4  665 L   1      13.171  -7.461   2.070  1.00  0.00    -0.3256  N
ATOM     19 C10  665 L   1      14.542  -7.299   2.330  1.00  0.00    +0.2339  C
ATOM     20 H42  665 L   1      12.537  -7.335   2.856  1.00  0.00    +0.1686 HD
BRANCH 19 21
ATOM     21  C7  665 L   1      14.811  -6.942   3.800  1.00  0.00    +0.0752  C
ATOM     22 H35  665 L   1      15.865  -6.635   3.879  1.00  0.00    +0.0458  H
BRANCH 21 23
ATOM     23  C8  665 L   1      13.926  -5.782   4.230  1.00  0.00    -0.0341  A
ATOM     24 C11  665 L   1      13.098  -5.912   5.345  1.00  0.00    -0.0574  A
ATOM     25 C12  665 L   1      13.943  -4.587   3.509  1.00  0.00    -0.0574  A
ATOM     26 C13  665 L   1      12.303  -3.655   5.018  1.00  0.00    -0.0103  A
ATOM     27 C14  665 L   1      12.286  -4.848   5.738  1.00  0.00    -0.0551  A
ATOM     28 C15  665 L   1      13.131  -3.524   3.903  1.00  0.00    -0.0551  A
ATOM     29 H38  665 L   1      13.075  -6.837   5.917  1.00  0.00    +0.0621  H
ATOM     30 H39  665 L   1      14.581  -4.465   2.639  1.00  0.00    +0.0621  H
ATOM     31 H40  665 L   1      11.648  -4.963   6.610  1.00  0.00    +0.0621  H
ATOM     32 H41  665 L   1      13.153  -2.598   3.334  1.00  0.00    +0.0621  H
BRANCH 26 33
ATOM     33 C17  665 L   1      11.435  -2.517   5.439  1.00  0.00    +0.1179  C
ATOM     34 H43  665 L   1      11.400  -2.466   6.534  1.00  0.00    +0.0749  H
ATOM     35 H44  665 L   1      11.840  -1.565   5.072  1.00  0.00    +0.0749  H
BRANCH 33 36
ATOM     36  O1  665 L   1      10.124  -2.706   4.920  1.00  0.00    -0.4564 OA
BRANCH 36 38
ATOM     37  O3  665 L   1       8.509  -1.943   6.371  1.00  0.00    -0.2449 OA
ATOM     38 C25  665 L   1       9.133  -2.850   5.841  1.00  0.00    +0.3398  C
BRANCH 38 39
ATOM     39 C23  665 L   1       8.893  -4.286   6.135  1.00  0.00    +0.0619  A
ATOM     40 C24  665 L   1       8.642  -5.199   5.111  1.00  0.00    -0.0362  A
ATOM     41 C27  665 L   1       8.447  -6.972   6.742  1.00  0.00    -0.0502  A
ATOM     42 C28  665 L   1       8.420  -6.542   5.415  1.00  0.00    -0.0551  A
ATOM     43 C29  665 L   1       8.920  -4.714   7.462  1.00  0.00    -0.0473  A
ATOM     44 C31  665 L   1       8.696  -6.057   7.766  1.00  0.00    -0.0580  A
ATOM     45 C32  665 L   1       8.610  -4.767   3.682  1.00  0.00    -0.0389  C
ATOM     46 C34  665 L   1       8.208  -8.407   7.068  1.00  0.00    -0.0397  C
ATOM     47 H51  665 L   1       8.221  -7.259   4.621  1.00  0.00    +0.0623  H
ATOM     48 H52  665 L   1       9.110  -4.013   8.271  1.00  0.00    +0.0626  H
ATOM     49 H54  665 L   1       8.718  -6.378   8.804  1.00  0.00    +0.0620  H
ATOM     50 H55  665 L   1       7.719  -4.160   3.488  1.00  0.00    +0.0278  H
ATOM     51 H56  665 L   1       9.505  -4.191   3.427  1.00  0.00    +0.0278  H
ATOM     52 H57  665 L   1       8.581  -5.624   3.001  1.00  0.00    +0.0278  H
ATOM     53 H59  665 L   1       8.729  -8.696   7.988  1.00  0.00    +0.0278  H
ATOM     54 H60  665 L   1       8.580  -9.059   6.271  1.00  0.00    +0.0278  H
ATOM     55 H61  665 L   1       7.137  -8.589   7.200  1.00  0.00    +0.0278  H
ENDBRANCH 38 39
ENDBRANCH 36 38
ENDBRANCH 33 36
ENDBRANCH 26 33
ENDBRANCH 21 23
BRANCH 21 57
ATOM     56  N5  665 L   1      14.331  -9.381   3.910  1.00  0.00    -0.3289 NA
ATOM     57  C9  665 L   1      14.642  -8.188   4.693  1.00  0.00    +0.0085  C
ATOM     58 H36  665 L   1      15.542  -8.379   5.290  1.00  0.00    +0.0432  H
ATOM     59 H37  665 L   1      13.827  -8.014   5.406  1.00  0.00    +0.0432  H
ATOM     60 H45  665 L   1      14.220 -10.175   4.538  1.00  0.00    +0.1182 HD
ATOM     61 H46  665 L   1      15.115  -9.611   3.301  1.00  0.00    +0.1182 HD
ENDBRANCH 21 57
ENDBRANCH 19 21
ENDBRANCH 2 18
TORSDOF 8
ENDMDL
