ROOT
ATOM      1  C3  23C L   1      -0.273  -0.045   0.313  1.00  0.00    +0.0311  A
ATOM      2  C4  23C L   1       0.461  -1.242   0.212  1.00  0.00    -0.0516  A
ATOM      3  C5  23C L   1       1.802  -1.224  -0.171  1.00  0.00    -0.0598  A
ATOM      4  C6  23C L   1       2.432  -0.015  -0.460  1.00  0.00    -0.0419  A
ATOM      5  C7  23C L   1       1.724   1.185  -0.367  1.00  0.00    +0.0597  A
ATOM      6 CL8  23C L   1       2.570   2.642  -0.749  1.00  0.00    -0.0820 Cl
ATOM      7  C9  23C L   1       0.374   1.175   0.018  1.00  0.00    +0.0679  A
ATOM      8 CL10 23C L   1      -0.523   2.657   0.128  1.00  0.00    -0.0816 Cl
ATOM      9 H15  23C L   1       0.009  -2.207   0.441  1.00  0.00    +0.0623  H
ATOM     10 H16  23C L   1       2.367  -2.153  -0.240  1.00  0.00    +0.0618  H
ATOM     11 H17  23C L   1       3.480  -0.014  -0.756  1.00  0.00    +0.0633  H
ENDROOT
BRANCH 1 13
ATOM     12  N1  23C L   1      -2.638   0.171  -0.408  1.00  0.00    -0.1914  N
ATOM     13  C2  23C L   1      -1.720  -0.102   0.721  1.00  0.00    +0.1480  C
ATOM     14 H11  23C L   1      -3.622   0.143  -0.115  1.00  0.00    +0.4054 HD
ATOM     15 H12  23C L   1      -2.507  -0.497  -1.177  1.00  0.00    +0.4054 HD
ATOM     16 H13  23C L   1      -1.947   0.619   1.512  1.00  0.00    +0.1017  H
ATOM     17 H14  23C L   1      -1.989  -1.094   1.098  1.00  0.00    +0.1017  H
ENDBRANCH 1 13
TORSDOF 1
