ROOT
ATOM      1  C4  25D L   1       0.074  -0.240  -0.153  1.00  0.00    +0.0338  A
ATOM      2  C5  25D L   1       0.754   0.939  -0.525  1.00  0.00    -0.0330  A
ATOM      3  C6  25D L   1       2.150   1.009  -0.473  1.00  0.00    +0.0415  A
ATOM      4 CL7  25D L   1       2.939   2.462  -0.944  1.00  0.00    -0.0835 Cl
ATOM      5  C8  25D L   1       2.898  -0.079  -0.041  1.00  0.00    -0.0420  A
ATOM      6  C9  25D L   1       2.246  -1.248   0.350  1.00  0.00    -0.0415  A
ATOM      7 C10  25D L   1       0.850  -1.327   0.300  1.00  0.00    +0.0500  A
ATOM      8 CL11 25D L   1       0.123  -2.802   0.830  1.00  0.00    -0.0831 Cl
ATOM      9 H18  25D L   1       0.220   1.826  -0.857  1.00  0.00    +0.0637  H
ATOM     10 H19  25D L   1       3.984  -0.024   0.002  1.00  0.00    +0.0633  H
ATOM     11 H20  25D L   1       2.837  -2.094   0.697  1.00  0.00    +0.0633  H
ENDROOT
BRANCH 1 13
ATOM     12  C1  25D L   1      -2.066   0.214   1.095  1.00  0.00    -0.0030  C
ATOM     13  C2  25D L   1      -1.439  -0.319  -0.190  1.00  0.00    +0.1553  C
ATOM     14  N3  25D L   1      -2.043   0.424  -1.336  1.00  0.00    -0.1890  N
ATOM     15 H12  25D L   1      -3.158   0.129   1.062  1.00  0.00    +0.0292  H
ATOM     16 H13  25D L   1      -1.715  -0.348   1.967  1.00  0.00    +0.0292  H
ATOM     17 H14  25D L   1      -1.815   1.268   1.260  1.00  0.00    +0.0292  H
ATOM     18 H15  25D L   1      -1.765  -1.348  -0.363  1.00  0.00    +0.1051  H
ATOM     19 H16  25D L   1      -2.062   1.438  -1.176  1.00  0.00    +0.4057 HD
ATOM     20 H17  25D L   1      -3.010   0.119  -1.505  1.00  0.00    +0.4057 HD
ENDBRANCH 1 13
TORSDOF 1
