ROOT
ATOM      1  C4  26D L   1       0.075   0.163  -0.160  1.00  0.00    +0.0507  A
ATOM      2  C5  26D L   1       0.485  -1.186  -0.090  1.00  0.00    +0.0513  A
ATOM      3 CL6  26D L   1      -0.643  -2.495  -0.184  1.00  0.00    -0.0830 Cl
ATOM      4  C7  26D L   1       1.832  -1.535   0.055  1.00  0.00    -0.0428  A
ATOM      5  C8  26D L   1       2.807  -0.548   0.147  1.00  0.00    -0.0590  A
ATOM      6  C9  26D L   1       2.433   0.790   0.102  1.00  0.00    -0.0428  A
ATOM      7 C10  26D L   1       1.087   1.143  -0.043  1.00  0.00    +0.0513  A
ATOM      8 CL11 26D L   1       0.731   2.835  -0.059  1.00  0.00    -0.0830 Cl
ATOM      9 H18  26D L   1       2.136  -2.581   0.106  1.00  0.00    +0.0632  H
ATOM     10 H19  26D L   1       3.854  -0.820   0.265  1.00  0.00    +0.0618  H
ATOM     11 H20  26D L   1       3.202   1.558   0.189  1.00  0.00    +0.0632  H
ENDROOT
BRANCH 1 13
ATOM     12  C1  26D L   1      -2.124   0.514   1.041  1.00  0.00    -0.0030  C
ATOM     13  C2  26D L   1      -1.379   0.579  -0.289  1.00  0.00    +0.1566  C
ATOM     14  N3  26D L   1      -2.160  -0.197  -1.296  1.00  0.00    -0.1889  N
ATOM     15 H12  26D L   1      -3.155   0.867   0.928  1.00  0.00    +0.0292  H
ATOM     16 H13  26D L   1      -1.636   1.146   1.792  1.00  0.00    +0.0292  H
ATOM     17 H14  26D L   1      -2.164  -0.503   1.445  1.00  0.00    +0.0292  H
ATOM     18 H15  26D L   1      -1.459   1.598  -0.676  1.00  0.00    +0.1052  H
ATOM     19 H16  26D L   1      -1.731  -0.131  -2.227  1.00  0.00    +0.4057 HD
ATOM     20 H17  26D L   1      -2.193  -1.196  -1.045  1.00  0.00    +0.4057 HD
ENDBRANCH 1 13
TORSDOF 1
