ROOT
ATOM      1  C3  2CL L   1      -0.312   0.084   0.349  1.00  0.00    +0.0296  A
ATOM      2  C4  2CL L   1       0.328  -1.074   0.824  1.00  0.00    -0.0517  A
ATOM      3  C5  2CL L   1       1.640  -1.366   0.445  1.00  0.00    -0.0612  A
ATOM      4  C6  2CL L   1       2.331  -0.510  -0.409  1.00  0.00    -0.0604  A
ATOM      5  C7  2CL L   1       1.713   0.643  -0.888  1.00  0.00    -0.0429  A
ATOM      6  C8  2CL L   1       0.403   0.938  -0.510  1.00  0.00    +0.0497  A
ATOM      7 CL9  2CL L   1      -0.330   2.364  -1.155  1.00  0.00    -0.0831 Cl
ATOM      8 H14  2CL L   1      -0.173  -1.762   1.505  1.00  0.00    +0.0623  H
ATOM      9 H15  2CL L   1       2.132  -2.262   0.823  1.00  0.00    +0.0618  H
ATOM     10 H16  2CL L   1       3.356  -0.740  -0.697  1.00  0.00    +0.0618  H
ATOM     11 H17  2CL L   1       2.266   1.306  -1.552  1.00  0.00    +0.0632  H
ENDROOT
BRANCH 1 13
ATOM     12  N1  2CL L   1      -2.680   0.369  -0.356  1.00  0.00    -0.1914  N
ATOM     13  C2  2CL L   1      -1.722   0.381   0.775  1.00  0.00    +0.1479  C
ATOM     14 H10  2CL L   1      -2.462   1.139  -1.005  1.00  0.00    +0.4054 HD
ATOM     15 H11  2CL L   1      -2.600  -0.506  -0.889  1.00  0.00    +0.4054 HD
ATOM     16 H12  2CL L   1      -2.093  -0.366   1.484  1.00  0.00    +0.1017  H
ATOM     17 H13  2CL L   1      -1.796   1.362   1.255  1.00  0.00    +0.1017  H
ENDBRANCH 1 13
TORSDOF 1
