ROOT
ATOM      1  C4  34D L   1       0.032  -0.199  -0.185  1.00  0.00    +0.0156  A
ATOM      2  C5  34D L   1       0.826  -0.822  -1.164  1.00  0.00    -0.0513  A
ATOM      3  C6  34D L   1       2.221  -0.848  -1.049  1.00  0.00    -0.0415  A
ATOM      4  C7  34D L   1       2.854  -0.246   0.040  1.00  0.00    +0.0593  A
ATOM      5 CL8  34D L   1       4.575  -0.310   0.112  1.00  0.00    -0.0820 Cl
ATOM      6  C9  34D L   1       2.082   0.386   1.017  1.00  0.00    +0.0597  A
ATOM      7 CL10 34D L   1       2.779   1.168   2.389  1.00  0.00    -0.0820 Cl
ATOM      8 C11  34D L   1       0.682   0.411   0.902  1.00  0.00    -0.0330  A
ATOM      9 H18  34D L   1       0.377  -1.306  -2.032  1.00  0.00    +0.0623  H
ATOM     10 H19  34D L   1       2.815  -1.343  -1.817  1.00  0.00    +0.0633  H
ATOM     11 H20  34D L   1       0.121   0.912   1.689  1.00  0.00    +0.0637  H
ENDROOT
BRANCH 1 13
ATOM     12  C1  34D L   1      -2.290  -0.136   0.924  1.00  0.00    -0.0031  C
ATOM     13  C2  34D L   1      -1.472  -0.169  -0.365  1.00  0.00    +0.1539  C
ATOM     14  N3  34D L   1      -1.870   1.001  -1.193  1.00  0.00    -0.1890  N
ATOM     15 H12  34D L   1      -2.155   0.800   1.477  1.00  0.00    +0.0292  H
ATOM     16 H13  34D L   1      -3.360  -0.233   0.705  1.00  0.00    +0.0292  H
ATOM     17 H14  34D L   1      -2.011  -0.964   1.586  1.00  0.00    +0.0292  H
ATOM     18 H15  34D L   1      -1.783  -1.052  -0.937  1.00  0.00    +0.1051  H
ATOM     19 H16  34D L   1      -1.533   1.883  -0.787  1.00  0.00    +0.4057 HD
ATOM     20 H17  34D L   1      -2.889   1.067  -1.310  1.00  0.00    +0.4057 HD
ENDBRANCH 1 13
TORSDOF 1
