ROOT
ATOM      1  C4  AMB L   1       0.024  -0.214   0.060  1.00  0.00    +0.0142  A
ATOM      2  C5  AMB L   1       0.507   0.871  -0.692  1.00  0.00    -0.0528  A
ATOM      3  C6  AMB L   1       1.872   0.999  -0.958  1.00  0.00    -0.0613  A
ATOM      4  C7  AMB L   1       2.771   0.054  -0.473  1.00  0.00    -0.0617  A
ATOM      5  C8  AMB L   1       2.310  -1.025   0.275  1.00  0.00    -0.0613  A
ATOM      6  C9  AMB L   1       0.947  -1.158   0.544  1.00  0.00    -0.0528  A
ATOM      7 H16  AMB L   1      -0.156   1.631  -1.101  1.00  0.00    +0.0622  H
ATOM      8 H17  AMB L   1       2.239   1.834  -1.552  1.00  0.00    +0.0618  H
ATOM      9 H18  AMB L   1       3.834   0.152  -0.689  1.00  0.00    +0.0618  H
ATOM     10 H19  AMB L   1       3.017  -1.767   0.642  1.00  0.00    +0.0618  H
ATOM     11 H20  AMB L   1       0.625  -2.023   1.124  1.00  0.00    +0.0622  H
ENDROOT
BRANCH 1 13
ATOM     12  C1  AMB L   1      -2.418  -0.026  -0.702  1.00  0.00    -0.0031  C
ATOM     13  C2  AMB L   1      -1.437  -0.358   0.417  1.00  0.00    +0.1539  C
ATOM     14  N3  AMB L   1      -1.760   0.509   1.584  1.00  0.00    -0.1890  N
ATOM     15 H10  AMB L   1      -2.206  -0.625  -1.595  1.00  0.00    +0.0292  H
ATOM     16 H11  AMB L   1      -3.445  -0.244  -0.391  1.00  0.00    +0.0292  H
ATOM     17 H12  AMB L   1      -2.382   1.030  -0.990  1.00  0.00    +0.0292  H
ATOM     18 H13  AMB L   1      -1.637  -1.383   0.752  1.00  0.00    +0.1051  H
ATOM     19 H14  AMB L   1      -1.161   0.253   2.378  1.00  0.00    +0.4057 HD
ATOM     20 H15  AMB L   1      -1.545   1.490   1.366  1.00  0.00    +0.4057 HD
ENDBRANCH 1 13
TORSDOF 1
