ROOT
ATOM      1  C4  DCM L   1       0.052   0.137   0.130  1.00  0.00    +0.0339  A
ATOM      2  C5  DCM L   1       0.659  -1.137   0.129  1.00  0.00    -0.0513  A
ATOM      3  C6  DCM L   1       2.047  -1.273   0.113  1.00  0.00    -0.0598  A
ATOM      4  C7  DCM L   1       2.858  -0.142   0.088  1.00  0.00    -0.0419  A
ATOM      5  C8  DCM L   1       2.286   1.131   0.071  1.00  0.00    +0.0597  A
ATOM      6 CL9  DCM L   1       3.361   2.483   0.034  1.00  0.00    -0.0820 Cl
ATOM      7 C10  DCM L   1       0.888   1.277   0.086  1.00  0.00    +0.0682  A
ATOM      8 CL11 DCM L   1       0.179   2.861   0.046  1.00  0.00    -0.0815 Cl
ATOM      9 H18  DCM L   1       0.063  -2.051   0.124  1.00  0.00    +0.0623  H
ATOM     10 H19  DCM L   1       2.504  -2.262   0.109  1.00  0.00    +0.0618  H
ATOM     11 H20  DCM L   1       3.941  -0.259   0.072  1.00  0.00    +0.0633  H
ENDROOT
BRANCH 1 13
ATOM     12  C1  DCM L   1      -2.057  -0.083  -1.230  1.00  0.00    -0.0030  C
ATOM     13  C2  DCM L   1      -1.461   0.246   0.134  1.00  0.00    +0.1553  C
ATOM     14  N3  DCM L   1      -2.084  -0.668   1.137  1.00  0.00    -0.1890  N
ATOM     15 H12  DCM L   1      -1.661   0.588  -2.001  1.00  0.00    +0.0292  H
ATOM     16 H13  DCM L   1      -3.147   0.032  -1.219  1.00  0.00    +0.0292  H
ATOM     17 H14  DCM L   1      -1.833  -1.111  -1.538  1.00  0.00    +0.0292  H
ATOM     18 H15  DCM L   1      -1.800   1.235   0.449  1.00  0.00    +0.1051  H
ATOM     19 H16  DCM L   1      -1.696  -0.489   2.072  1.00  0.00    +0.4057 HD
ATOM     20 H17  DCM L   1      -3.099  -0.515   1.194  1.00  0.00    +0.4057 HD
ENDBRANCH 1 13
TORSDOF 1
