ROOT
ATOM      1  C4  DCM L   1       0.056  -0.129   0.137  1.00  0.00    +0.0339  A
ATOM      2  C5  DCM L   1       0.806  -1.318   0.262  1.00  0.00    -0.0513  A
ATOM      3  C6  DCM L   1       2.200  -1.293   0.292  1.00  0.00    -0.0598  A
ATOM      4  C7  DCM L   1       2.879  -0.083   0.193  1.00  0.00    -0.0419  A
ATOM      5  C8  DCM L   1       2.166   1.109   0.059  1.00  0.00    +0.0597  A
ATOM      6 CL9  DCM L   1       3.083   2.570  -0.054  1.00  0.00    -0.0820 Cl
ATOM      7 C10  DCM L   1       0.759   1.094   0.027  1.00  0.00    +0.0682  A
ATOM      8 CL11 DCM L   1      -0.111   2.589  -0.131  1.00  0.00    -0.0815 Cl
ATOM      9 H18  DCM L   1       0.318  -2.291   0.328  1.00  0.00    +0.0623  H
ATOM     10 H19  DCM L   1       2.765  -2.221   0.386  1.00  0.00    +0.0618  H
ATOM     11 H20  DCM L   1       3.968  -0.075   0.214  1.00  0.00    +0.0633  H
ENDROOT
BRANCH 1 13
ATOM     12  C1  DCM L   1      -2.033  -0.076  -1.308  1.00  0.00    -0.0030  C
ATOM     13  C2  DCM L   1      -1.455  -0.255   0.093  1.00  0.00    +0.1553  C
ATOM     14  N3  DCM L   1      -2.164   0.661   1.023  1.00  0.00    -0.1890  N
ATOM     15 H12  DCM L   1      -1.870   0.931  -1.704  1.00  0.00    +0.0292  H
ATOM     16 H13  DCM L   1      -3.113  -0.260  -1.310  1.00  0.00    +0.0292  H
ATOM     17 H14  DCM L   1      -1.575  -0.782  -2.009  1.00  0.00    +0.0292  H
ATOM     18 H15  DCM L   1      -1.737  -1.254   0.449  1.00  0.00    +0.1051  H
ATOM     19 H16  DCM L   1      -1.771   0.623   1.971  1.00  0.00    +0.4057 HD
ATOM     20 H17  DCM L   1      -3.170   0.459   1.081  1.00  0.00    +0.4057 HD
ENDBRANCH 1 13
TORSDOF 1
