ROOT
ATOM      1 CL1  SKF L   1       1.470   3.177  -0.306  1.00  0.00    -0.0831 Cl
ATOM      2  C2  SKF L   1       1.486   1.450  -0.340  1.00  0.00    +0.0498  A
ATOM      3  C3  SKF L   1       2.697   0.813  -0.609  1.00  0.00    -0.0429  A
ATOM      4  C4  SKF L   1       2.761  -0.578  -0.633  1.00  0.00    -0.0601  A
ATOM      5  C5  SKF L   1       1.619  -1.334  -0.377  1.00  0.00    -0.0579  A
ATOM      6  C6  SKF L   1       0.398  -0.706  -0.093  1.00  0.00    -0.0321  A
ATOM      7  C7  SKF L   1      -0.822  -1.561   0.163  1.00  0.00    +0.0227  C
ATOM      8  C8  SKF L   1      -1.943  -0.795   0.859  1.00  0.00    +0.0823  C
ATOM      9  N9  SKF L   1      -2.170   0.495   0.145  1.00  0.00    -0.3450  N
ATOM     10 C10  SKF L   1      -0.980   1.401   0.213  1.00  0.00    +0.1054  C
ATOM     11 C11  SKF L   1       0.318   0.705  -0.096  1.00  0.00    +0.0285  A
ATOM     12 H12  SKF L   1       3.599   1.392  -0.801  1.00  0.00    +0.0632  H
ATOM     13 H13  SKF L   1       3.707  -1.074  -0.847  1.00  0.00    +0.0618  H
ATOM     14 H14  SKF L   1       1.695  -2.421  -0.399  1.00  0.00    +0.0620  H
ATOM     15 H15  SKF L   1      -0.551  -2.426   0.780  1.00  0.00    +0.0368  H
ATOM     16 H16  SKF L   1      -1.180  -1.939  -0.803  1.00  0.00    +0.0368  H
ATOM     17 H17  SKF L   1      -1.699  -0.553   1.899  1.00  0.00    +0.0919  H
ATOM     18 H18  SKF L   1      -2.884  -1.352   0.831  1.00  0.00    +0.0919  H
ATOM     19 H19  SKF L   1      -2.987   0.983   0.534  1.00  0.00    +0.3469 HD
ATOM     20 H20  SKF L   1      -2.384   0.313  -0.844  1.00  0.00    +0.3469 HD
ATOM     21 H21  SKF L   1      -1.191   2.200  -0.505  1.00  0.00    +0.0970  H
ATOM     22 H22  SKF L   1      -0.959   1.810   1.228  1.00  0.00    +0.0970  H
ENDROOT
TORSDOF 0
