BEGIN_RES SER A 29
REMARK INDEX MAP 3 1 15 2 18 3 19 4
ROOT
ATOM      1  CA  SER A  29       5.259 -11.150 -15.111  1.00  0.00    +0.197 C 
ENDROOT
BRANCH   1   2
ATOM      2  CB  SER A  29       3.952 -10.733 -15.792  1.00  0.00    +0.191 C 
BRANCH   2   3
ATOM      3  OG  SER A  29       2.940 -10.534 -14.819  1.00  0.00    -0.392 OA
ATOM      4  HG  SER A  29       3.333 -10.611 -13.914  1.00  0.00    +0.210 HD
ENDBRANCH   2   3
ENDBRANCH   1   2
END_RES SER A 29
BEGIN_RES LYS A 33
REMARK INDEX MAP 3 1 15 2 18 3 21 4 24 5 27 6 28 7 29 8 30 9
ROOT
ATOM      5  CA  LYS A  33       4.948 -12.969  -9.324  1.00  0.00    +0.171 C 
ENDROOT
BRANCH   5   6
ATOM      6  CB  LYS A  33       3.624 -13.219 -10.050  1.00  0.00    +0.035 C 
BRANCH   6   7
ATOM      7  CG  LYS A  33       2.965 -11.892 -10.432  1.00  0.00    +0.008 C 
BRANCH   7   8
ATOM      8  CD  LYS A  33       1.628 -12.155 -11.121  1.00  0.00    +0.061 C 
BRANCH   8   9
ATOM      9  CE  LYS A  33       0.986 -10.804 -11.424  1.00  0.00    +0.258 C 
BRANCH   9  10
ATOM     10  NZ  LYS A  33      -0.395 -10.975 -11.929  1.00  0.00    -0.357 N 
ATOM     11  HZ1 LYS A  33      -1.044 -11.055 -11.133  1.00  0.00    +0.345 HD
ATOM     12  HZ2 LYS A  33      -0.654 -10.160 -12.503  1.00  0.00    +0.345 HD
ATOM     13  HZ3 LYS A  33      -0.448 -11.829 -12.503  1.00  0.00    +0.345 HD
ENDBRANCH   9  10
ENDBRANCH   8   9
ENDBRANCH   7   8
ENDBRANCH   6   7
ENDBRANCH   5   6
END_RES LYS A 33
BEGIN_RES SER A 149
REMARK INDEX MAP 3 1 15 2 18 3 19 4
ROOT
ATOM     14  CA  SER A 149       1.336  -0.609  -7.911  1.00  0.00    +0.197 C 
ENDROOT
BRANCH  14  15
ATOM     15  CB  SER A 149       1.855  -1.867  -7.199  1.00  0.00    +0.191 C 
BRANCH  15  16
ATOM     16  OG  SER A 149       3.002  -1.582  -6.421  1.00  0.00    -0.392 OA
ATOM     17  HG  SER A 149       2.771  -1.639  -5.460  1.00  0.00    +0.210 HD
ENDBRANCH  15  16
ENDBRANCH  14  15
END_RES SER A 149
BEGIN_RES VAL A 150
REMARK INDEX MAP 3 1 15 2 17 3 18 4
ROOT
ATOM     18  CA  VAL A 150      -2.392  -0.627  -8.917  1.00  0.00    +0.173 C 
ENDROOT
BRANCH  18  19
ATOM     19  CB  VAL A 150      -3.617  -0.174  -8.103  1.00  0.00    +0.015 C 
ATOM     20  CG1 VAL A 150      -3.775  -1.007  -6.832  1.00  0.00    +0.010 C 
ATOM     21  CG2 VAL A 150      -3.593   1.314  -7.755  1.00  0.00    +0.010 C 
ENDBRANCH  18  19
END_RES VAL A 150
BEGIN_RES LYS A 151
REMARK INDEX MAP 3 1 15 2 18 3 21 4 24 5 27 6 28 7 29 8 30 9
ROOT
ATOM     22  CA  LYS A 151      -3.311   0.059 -12.575  1.00  0.00    +0.171 C 
ENDROOT
BRANCH  22  23
ATOM     23  CB  LYS A 151      -3.945  -0.970 -13.516  1.00  0.00    +0.035 C 
BRANCH  23  24
ATOM     24  CG  LYS A 151      -3.006  -2.157 -13.761  1.00  0.00    +0.008 C 
BRANCH  24  25
ATOM     25  CD  LYS A 151      -3.650  -3.158 -14.723  1.00  0.00    +0.061 C 
BRANCH  25  26
ATOM     26  CE  LYS A 151      -2.633  -4.255 -15.047  1.00  0.00    +0.258 C 
BRANCH  26  27
ATOM     27  NZ  LYS A 151      -3.198  -5.267 -15.972  1.00  0.00    -0.357 N 
ATOM     28  HZ1 LYS A 151      -3.624  -6.030 -15.427  1.00  0.00    +0.345 HD
ATOM     29  HZ2 LYS A 151      -3.915  -4.827 -16.566  1.00  0.00    +0.345 HD
ATOM     30  HZ3 LYS A 151      -2.447  -5.647 -16.566  1.00  0.00    +0.345 HD
ENDBRANCH  26  27
ENDBRANCH  25  26
ENDBRANCH  24  25
ENDBRANCH  23  24
ENDBRANCH  22  23
END_RES LYS A 151
BEGIN_RES ASP A 192
REMARK INDEX MAP 3 1 15 2 18 3 19 4 20 5
ROOT
ATOM     31  CA  ASP A 192      10.903   4.326 -12.109  1.00  0.00    +0.176 C 
ENDROOT
BRANCH  31  32
ATOM     32  CB  ASP A 192       9.944   5.512 -12.333  1.00  0.00    +0.087 C 
BRANCH  32  33
ATOM     33  CG  ASP A 192       8.465   5.177 -12.158  1.00  0.00    +0.044 C 
ATOM     34  OD1 ASP A 192       7.993   5.258 -10.999  1.00  0.00    -0.548 OA
ATOM     35  OD2 ASP A 192       7.783   5.000 -13.185  1.00  0.00    -0.549 OA
ENDBRANCH  32  33
ENDBRANCH  31  32
END_RES ASP A 192
BEGIN_RES HIS A 196
REMARK INDEX MAP 3 1 15 2 18 3 19 4 20 5 21 6 22 7 25 8
ROOT
ATOM     36  CA  HIS A 196       8.166  -0.861 -12.004  1.00  0.00    +0.177 C 
ENDROOT
BRANCH  36  37
ATOM     37  CB  HIS A 196       7.611   0.004 -13.145  1.00  0.00    +0.093 C 
BRANCH  37  38
ATOM     38  CG  HIS A 196       6.250  -0.441 -13.608  1.00  0.00    +0.061 A 
ATOM     39  ND1 HIS A 196       5.064  -0.113 -13.010  1.00  0.00    -0.242 NA
ATOM     40  CD2 HIS A 196       5.945  -1.260 -14.661  1.00  0.00    +0.107 A 
ATOM     41  CE1 HIS A 196       4.068  -0.708 -13.673  1.00  0.00    +0.196 A 
ATOM     42  NE2 HIS A 196       4.552  -1.426 -14.701  1.00  0.00    -0.350 N 
ATOM     43  HE2 HIS A 196       4.012  -1.983 -15.378  1.00  0.00    +0.167 HD
ENDBRANCH  37  38
ENDBRANCH  36  37
END_RES HIS A 196
BEGIN_RES LEU A 197
REMARK INDEX MAP 3 1 15 2 18 3 20 4 21 5
ROOT
ATOM     44  CA  LEU A 197       9.520  -4.001 -13.690  1.00  0.00    +0.172 C 
ENDROOT
BRANCH  44  45
ATOM     45  CB  LEU A 197      10.529  -3.881 -14.840  1.00  0.00    +0.038 C 
BRANCH  45  46
ATOM     46  CG  LEU A 197      10.661  -5.146 -15.687  1.00  0.00    -0.015 C 
ATOM     47  CD1 LEU A 197       9.362  -5.489 -16.415  1.00  0.00    +0.007 C 
ATOM     48  CD2 LEU A 197      11.724  -4.904 -16.747  1.00  0.00    +0.007 C 
ENDBRANCH  45  46
ENDBRANCH  44  45
END_RES LEU A 197
BEGIN_RES LEU A 198
REMARK INDEX MAP 3 1 15 2 18 3 20 4 21 5
ROOT
ATOM     49  CA  LEU A 198      11.452  -5.354 -10.643  1.00  0.00    +0.172 C 
ENDROOT
BRANCH  49  50
ATOM     50  CB  LEU A 198      12.799  -4.722 -10.252  1.00  0.00    +0.038 C 
BRANCH  50  51
ATOM     51  CG  LEU A 198      13.875  -4.778 -11.354  1.00  0.00    -0.015 C 
ATOM     52  CD1 LEU A 198      15.088  -3.953 -10.925  1.00  0.00    +0.007 C 
ATOM     53  CD2 LEU A 198      14.345  -6.206 -11.632  1.00  0.00    +0.007 C 
ENDBRANCH  50  51
ENDBRANCH  49  50
END_RES LEU A 198
BEGIN_RES ASP A 200
REMARK INDEX MAP 3 1 15 2 18 3 19 4 20 5
ROOT
ATOM     54  CA  ASP A 200       5.649  -6.036  -9.219  1.00  0.00    +0.176 C 
ENDROOT
BRANCH  54  55
ATOM     55  CB  ASP A 200       5.124  -6.978  -8.114  1.00  0.00    +0.087 C 
BRANCH  55  56
ATOM     56  CG  ASP A 200       3.944  -7.872  -8.549  1.00  0.00    +0.044 C 
ATOM     57  OD1 ASP A 200       3.820  -8.181  -9.763  1.00  0.00    -0.548 OA
ATOM     58  OD2 ASP A 200       3.227  -8.382  -7.657  1.00  0.00    -0.549 OA
ENDBRANCH  55  56
ENDBRANCH  54  55
END_RES ASP A 200
BEGIN_RES CYS A 202
REMARK INDEX MAP 3 1 15 2 18 3 19 4
ROOT
ATOM     59  CA  CYS A 202       5.388  -0.342  -8.181  1.00  0.00    +0.181 C 
ENDROOT
BRANCH  59  60
ATOM     60  CB  CYS A 202       6.325  -0.781  -7.055  1.00  0.00    +0.101 C 
BRANCH  60  61
ATOM     61  SG  CYS A 202       6.715   0.589  -5.954  1.00  0.00    -0.177 SA
ATOM     62  HG  CYS A 202       6.598   0.177  -4.653  1.00  0.00    +0.102 HD
ENDBRANCH  60  61
ENDBRANCH  59  60
END_RES CYS A 202
BEGIN_RES ASN A 203
REMARK INDEX MAP 3 1 15 2 18 3 19 4 20 5 21 6 22 7
ROOT
ATOM     63  CA  ASN A 203       5.685   3.325  -9.344  1.00  0.00    +0.180 C 
ENDROOT
BRANCH  63  64
ATOM     64  CB  ASN A 203       4.492   3.963 -10.072  1.00  0.00    +0.134 C 
BRANCH  64  65
ATOM     65  CG  ASN A 203       4.008   3.191 -11.281  1.00  0.00    +0.220 C 
ATOM     66  OD1 ASN A 203       4.385   2.080 -11.572  1.00  0.00    -0.275 OA
ATOM     67  ND2 ASN A 203       3.147   3.780 -12.077  1.00  0.00    -0.368 N 
ATOM     68 HD22 ASN A 203       2.795   3.287 -12.910  1.00  0.00    +0.159 HD
ATOM     69 HD21 ASN A 203       2.824   4.736 -11.869  1.00  0.00    +0.159 HD
ENDBRANCH  64  65
ENDBRANCH  63  64
END_RES ASN A 203
BEGIN_RES LEU A 204
REMARK INDEX MAP 3 1 15 2 18 3 20 4 21 5
ROOT
ATOM     70  CA  LEU A 204       8.257   5.530  -7.491  1.00  0.00    +0.172 C 
ENDROOT
BRANCH  70  71
ATOM     71  CB  LEU A 204       9.742   5.577  -7.891  1.00  0.00    +0.038 C 
BRANCH  71  72
ATOM     72  CG  LEU A 204      10.553   4.331  -7.518  1.00  0.00    -0.015 C 
ATOM     73  CD1 LEU A 204      11.981   4.495  -8.040  1.00  0.00    +0.007 C 
ATOM     74  CD2 LEU A 204      10.605   4.136  -6.000  1.00  0.00    +0.007 C 
ENDBRANCH  71  72
ENDBRANCH  70  71
END_RES LEU A 204
BEGIN_RES THR A 205
REMARK INDEX MAP 3 1 15 2 17 3 18 4 22 5
ROOT
ATOM     75  CA  THR A 205       6.717   8.700  -9.018  1.00  0.00    +0.199 C 
ENDROOT
BRANCH  75  76
ATOM     76  CB  THR A 205       7.097   9.171 -10.425  1.00  0.00    +0.143 C 
ATOM     77  CG2 THR A 205       8.612   9.290 -10.591  1.00  0.00    +0.041 C 
BRANCH  76  78
ATOM     78  OG1 THR A 205       6.614   8.274 -11.404  1.00  0.00    -0.389 OA
ATOM     79  HG1 THR A 205       6.195   7.495 -10.960  1.00  0.00    +0.211 HD
ENDBRANCH  76  78
ENDBRANCH  75  76
END_RES THR A 205
BEGIN_RES ARG A 206
REMARK INDEX MAP 3 1 15 2 18 3 21 4 24 5 25 6 26 7 27 8 28 9 29 10 30 11 31 12
REMARK INDEX MAP 32 13
ROOT
ATOM     80  CA  ARG A 206       3.145   7.848  -7.883  1.00  0.00    +0.171 C 
ENDROOT
BRANCH  80  81
ATOM     81  CB  ARG A 206       2.696   6.441  -7.482  1.00  0.00    +0.038 C 
BRANCH  81  82
ATOM     82  CG  ARG A 206       1.211   6.212  -7.759  1.00  0.00    +0.040 C 
BRANCH  82  83
ATOM     83  CD  ARG A 206       0.906   5.981  -9.246  1.00  0.00    +0.197 C 
BRANCH  83  84
ATOM     84  NE  ARG A 206      -0.404   5.333  -9.387  1.00  0.00    -0.278 N 
ATOM     85  HE  ARG A 206      -1.078   5.494  -8.625  1.00  0.00    +0.260 HD
ATOM     86  CZ  ARG A 206      -0.814   4.570 -10.378  1.00  0.00    +0.339 C 
ATOM     87  NH1 ARG A 206      -0.225   4.535 -11.537  1.00  0.00    -0.290 N 
ATOM     88  NH2 ARG A 206      -1.828   3.786 -10.201  1.00  0.00    -0.290 N 
ATOM     89 HH12 ARG A 206      -0.586   3.920 -12.280  1.00  0.00    +0.256 HD
ATOM     90 HH11 ARG A 206       0.603   5.123 -11.712  1.00  0.00    +0.256 HD
ATOM     91 HH22 ARG A 206      -2.155   3.186 -10.971  1.00  0.00    +0.256 HD
ATOM     92 HH21 ARG A 206      -2.308   3.762  -9.290  1.00  0.00    +0.256 HD
ENDBRANCH  83  84
ENDBRANCH  82  83
ENDBRANCH  81  82
ENDBRANCH  80  81
END_RES ARG A 206
BEGIN_RES GLU A 207
REMARK INDEX MAP 3 1 15 2 18 3 21 4 22 5 23 6
ROOT
ATOM     93  CA  GLU A 207       1.252  10.799  -6.333  1.00  0.00    +0.171 C 
ENDROOT
BRANCH  93  94
ATOM     94  CB  GLU A 207       1.086  12.112  -7.105  1.00  0.00    +0.041 C 
BRANCH  94  95
ATOM     95  CG  GLU A 207       2.390  12.624  -7.730  1.00  0.00    +0.055 C 
BRANCH  95  96
ATOM     96  CD  GLU A 207       2.135  13.981  -8.380  1.00  0.00    +0.041 C 
ATOM     97  OE1 GLU A 207       2.559  15.023  -7.834  1.00  0.00    -0.548 OA
ATOM     98  OE2 GLU A 207       1.342  14.045  -9.350  1.00  0.00    -0.549 OA
ENDBRANCH  95  96
ENDBRANCH  94  95
ENDBRANCH  93  94
END_RES GLU A 207
