ROOT
ATOM      1  N6  665 L   1       7.501  -8.239 -10.424  1.00  0.00    -0.2626 NA
ATOM      2 C16  665 L   1      10.388  -8.366  -6.270  1.00  0.00    +0.0423  A
ATOM      3 C18  665 L   1       9.155  -8.929  -6.604  1.00  0.00    -0.0305  A
ATOM      4 C19  665 L   1       8.590  -8.711  -7.871  1.00  0.00    -0.0131  A
ATOM      5 C20  665 L   1      11.071  -7.579  -7.193  1.00  0.00    -0.0377  A
ATOM      6 C21  665 L   1       9.284  -7.912  -8.803  1.00  0.00    +0.0004  A
ATOM      7 C22  665 L   1      10.525  -7.350  -8.455  1.00  0.00    -0.0506  A
ATOM      8 C26  665 L   1       7.355  -9.261  -8.237  1.00  0.00    -0.0358  A
ATOM      9 C30  665 L   1       8.691  -7.716 -10.052  1.00  0.00    +0.0353  A
ATOM     10 C33  665 L   1       6.864  -8.997  -9.507  1.00  0.00    +0.0281  A
ATOM     11 H48  665 L   1       8.621  -9.549  -5.868  1.00  0.00    +0.0644  H
ATOM     12 H49  665 L   1      12.043  -7.137  -6.926  1.00  0.00    +0.0638  H
ATOM     13 H50  665 L   1      11.067  -6.727  -9.182  1.00  0.00    +0.0625  H
ATOM     14 H51  665 L   1       6.788  -9.888  -7.533  1.00  0.00    +0.0639  H
ATOM     15 H54  665 L   1       9.229  -7.094 -10.783  1.00  0.00    +0.0836  H
ATOM     16 H59  665 L   1       5.893  -9.433  -9.785  1.00  0.00    +0.0830  H
ENDROOT
BRANCH 2 18
ATOM     17  O2  665 L   1      13.022  -7.512  -5.117  1.00  0.00    -0.2720 OA
ATOM     18  N4  665 L   1      10.937  -8.595  -5.006  1.00  0.00    -0.3255  N
ATOM     19 C10  665 L   1      12.184  -8.177  -4.513  1.00  0.00    +0.2381  C
ATOM     20 H35  665 L   1      10.354  -9.139  -4.354  1.00  0.00    +0.1686 HD
BRANCH 19 21
ATOM     21  C7  665 L   1      12.414  -8.636  -3.065  1.00  0.00    +0.1122  C
ATOM     22 H39  665 L   1      13.092  -9.502  -3.055  1.00  0.00    +0.0502  H
BRANCH 21 23
ATOM     23  C8  665 L   1      13.093  -7.535  -2.266  1.00  0.00    -0.0300  A
ATOM     24 C11  665 L   1      14.435  -7.659  -1.906  1.00  0.00    -0.0573  A
ATOM     25 C12  665 L   1      12.374  -6.398  -1.893  1.00  0.00    -0.0573  A
ATOM     26 C13  665 L   1      14.338  -5.514  -0.800  1.00  0.00    -0.0103  A
ATOM     27 C14  665 L   1      15.057  -6.649  -1.172  1.00  0.00    -0.0551  A
ATOM     28 C15  665 L   1      12.996  -5.389  -1.159  1.00  0.00    -0.0551  A
ATOM     29 H42  665 L   1      15.003  -8.554  -2.201  1.00  0.00    +0.0621  H
ATOM     30 H43  665 L   1      11.316  -6.298  -2.178  1.00  0.00    +0.0621  H
ATOM     31 H44  665 L   1      16.115  -6.748  -0.887  1.00  0.00    +0.0621  H
ATOM     32 H45  665 L   1      12.429  -4.494  -0.863  1.00  0.00    +0.0621  H
BRANCH 26 33
ATOM     33 C17  665 L   1      15.004  -4.434  -0.015  1.00  0.00    +0.1179  C
ATOM     34 H46  665 L   1      15.389  -3.665  -0.701  1.00  0.00    +0.0749  H
ATOM     35 H47  665 L   1      15.838  -4.860   0.562  1.00  0.00    +0.0749  H
BRANCH 33 36
ATOM     36  O1  665 L   1      14.060  -3.847   0.875  1.00  0.00    -0.4564 OA
BRANCH 36 38
ATOM     37  O3  665 L   1      14.832  -5.148   2.610  1.00  0.00    -0.2449 OA
ATOM     38 C25  665 L   1      14.024  -4.366   2.132  1.00  0.00    +0.3398  C
BRANCH 38 39
ATOM     39 C23  665 L   1      12.847  -3.853   2.878  1.00  0.00    +0.0619  A
ATOM     40 C24  665 L   1      11.622  -4.520   2.840  1.00  0.00    -0.0362  A
ATOM     41 C27  665 L   1      10.666  -2.846   4.297  1.00  0.00    -0.0502  A
ATOM     42 C28  665 L   1      10.532  -4.017   3.549  1.00  0.00    -0.0551  A
ATOM     43 C29  665 L   1      12.981  -2.682   3.625  1.00  0.00    -0.0473  A
ATOM     44 C31  665 L   1      11.891  -2.178   4.334  1.00  0.00    -0.0580  A
ATOM     45 C32  665 L   1      11.452  -5.776   2.049  1.00  0.00    -0.0389  C
ATOM     46 C34  665 L   1       9.501  -2.306   5.054  1.00  0.00    -0.0397  C
ATOM     47 H52  665 L   1       9.566  -4.543   3.519  1.00  0.00    +0.0623  H
ATOM     48 H53  665 L   1      13.947  -2.156   3.655  1.00  0.00    +0.0626  H
ATOM     49 H55  665 L   1      11.997  -1.254   4.922  1.00  0.00    +0.0620  H
ATOM     50 H56  665 L   1      11.337  -6.628   2.735  1.00  0.00    +0.0278  H
ATOM     51 H57  665 L   1      10.557  -5.692   1.415  1.00  0.00    +0.0278  H
ATOM     52 H58  665 L   1      12.337  -5.933   1.415  1.00  0.00    +0.0278  H
ATOM     53 H60  665 L   1       9.692  -2.395   6.134  1.00  0.00    +0.0278  H
ATOM     54 H61  665 L   1       9.353  -1.248   4.794  1.00  0.00    +0.0278  H
ATOM     55 H62  665 L   1       8.598  -2.877   4.794  1.00  0.00    +0.0278  H
ENDBRANCH 38 39
ENDBRANCH 36 38
ENDBRANCH 33 36
ENDBRANCH 26 33
ENDBRANCH 21 23
BRANCH 21 57
ATOM     56  N5  665 L   1      10.803 -10.503  -2.736  1.00  0.00    -0.3600  N
ATOM     57  C9  665 L   1      11.086  -9.102  -2.435  1.00  0.00    +0.0921  C
ATOM     58 H36  665 L   1      10.697 -11.029  -1.857  1.00  0.00    +0.3450 HD
ATOM     59 H37  665 L   1       9.932 -10.568  -3.282  1.00  0.00    +0.3450 HD
ATOM     60 H38  665 L   1      11.581 -10.901  -3.282  1.00  0.00    +0.3450 HD
ATOM     61 H40  665 L   1      10.268  -8.481  -2.829  1.00  0.00    +0.0926  H
ATOM     62 H41  665 L   1      11.171  -8.998  -1.343  1.00  0.00    +0.0926  H
ENDBRANCH 21 57
ENDBRANCH 19 21
ENDBRANCH 2 18
TORSDOF 8
