MODEL 1
REMARK VINA RESULT:    -8.074      0.000      0.000
REMARK INTER + INTRA:         -13.215
REMARK INTER:                 -11.851
REMARK INTRA:                  -1.364
REMARK UNBOUND:                -1.364
ROOT
ATOM      1 C20  BRA L   1       1.957  -6.498 -12.589  1.00  0.00    +0.0423  A
ATOM      2 C21  BRA L   1       2.404  -7.815 -12.655  1.00  0.00    -0.0377  A
ATOM      3 C22  BRA L   1       3.672  -8.106 -13.171  1.00  0.00    -0.0506  A
ATOM      4 C23  BRA L   1       4.511  -7.078 -13.630  1.00  0.00    +0.0004  A
ATOM      5 C24  BRA L   1       5.779  -7.311 -14.167  1.00  0.00    +0.0353  A
ATOM      6 N25  BRA L   1       6.610  -6.344 -14.624  1.00  0.00    -0.2626 NA
ATOM      7 C26  BRA L   1       6.162  -5.076 -14.534  1.00  0.00    +0.0281  A
ATOM      8 C27  BRA L   1       4.923  -4.728 -14.019  1.00  0.00    -0.0358  A
ATOM      9 C28  BRA L   1       4.075  -5.743 -13.557  1.00  0.00    -0.0131  A
ATOM     10 C29  BRA L   1       2.800  -5.468 -13.034  1.00  0.00    -0.0305  A
ATOM     11 H50  BRA L   1       1.788  -8.646 -12.322  1.00  0.00    +0.0638  H
ATOM     12 H51  BRA L   1       3.995  -9.144 -13.216  1.00  0.00    +0.0625  H
ATOM     13 H52  BRA L   1       6.177  -8.320 -14.251  1.00  0.00    +0.0836  H
ATOM     14 H53  BRA L   1       6.846  -4.316 -14.902  1.00  0.00    +0.0830  H
ATOM     15 H54  BRA L   1       4.630  -3.683 -13.982  1.00  0.00    +0.0639  H
ATOM     16 H55  BRA L   1       2.463  -4.435 -12.985  1.00  0.00    +0.0644  H
ENDROOT
BRANCH 1 19
ATOM     17 C17  BRA L   1      -0.017  -6.610 -11.032  1.00  0.00    +0.2339  C
ATOM     18 O18  BRA L   1       0.414  -7.409 -10.203  1.00  0.00    -0.2722 OA
ATOM     19 N19  BRA L   1       0.683  -6.118 -12.124  1.00  0.00    -0.3256  N
ATOM     20 H49  BRA L   1       0.192  -5.448 -12.707  1.00  0.00    +0.1686 HD
BRANCH 17 21
ATOM     21 C14  BRA L   1      -1.435  -6.023 -10.878  1.00  0.00    +0.0752  C
ATOM     22 H44  BRA L   1      -1.649  -5.995  -9.799  1.00  0.00    +0.0458  H
BRANCH 21 26
ATOM     23 C10  BRA L   1      -4.555  -8.330 -12.831  1.00  0.00    -0.0103  A
ATOM     24 C11  BRA L   1      -3.447  -7.860 -13.544  1.00  0.00    -0.0551  A
ATOM     25 C12  BRA L   1      -2.423  -7.175 -12.889  1.00  0.00    -0.0574  A
ATOM     26 C13  BRA L   1      -2.483  -6.945 -11.503  1.00  0.00    -0.0341  A
ATOM     27 C30  BRA L   1      -3.562  -7.477 -10.785  1.00  0.00    -0.0574  A
ATOM     28 C31  BRA L   1      -4.589  -8.158 -11.444  1.00  0.00    -0.0551  A
ATOM     29 H42  BRA L   1      -3.396  -7.987 -14.624  1.00  0.00    +0.0621  H
ATOM     30 H43  BRA L   1      -1.597  -6.780 -13.477  1.00  0.00    +0.0621  H
ATOM     31 H56  BRA L   1      -3.643  -7.346  -9.709  1.00  0.00    +0.0621  H
ATOM     32 H57  BRA L   1      -5.438  -8.519 -10.866  1.00  0.00    +0.0621  H
BRANCH 23 33
ATOM     33  C9  BRA L   1      -5.717  -8.963 -13.556  1.00  0.00    +0.1179  C
ATOM     34 H40  BRA L   1      -6.272  -9.669 -12.926  1.00  0.00    +0.0749  H
ATOM     35 H41  BRA L   1      -5.339  -9.532 -14.413  1.00  0.00    +0.0749  H
BRANCH 33 36
ATOM     36  O8  BRA L   1      -6.590  -7.943 -14.063  1.00  0.00    -0.4564 OA
BRANCH 36 37
ATOM     37  C6  BRA L   1      -7.532  -7.508 -13.192  1.00  0.00    +0.3398  C
ATOM     38  O7  BRA L   1      -8.154  -8.175 -12.382  1.00  0.00    -0.2449 OA
BRANCH 37 43
ATOM     39  C1  BRA L   1      -7.595  -1.730 -13.426  1.00  0.00    -0.0397  C
ATOM     40  C2  BRA L   1      -7.594  -3.231 -13.388  1.00  0.00    -0.0502  A
ATOM     41  C3  BRA L   1      -6.536  -3.920 -12.787  1.00  0.00    -0.0580  A
ATOM     42  C4  BRA L   1      -6.549  -5.312 -12.733  1.00  0.00    -0.0473  A
ATOM     43  C5  BRA L   1      -7.623  -6.033 -13.276  1.00  0.00    +0.0619  A
ATOM     44 C32  BRA L   1      -8.717  -5.358 -13.846  1.00  0.00    -0.0362  A
ATOM     45 C33  BRA L   1      -9.905  -6.082 -14.414  1.00  0.00    -0.0389  C
ATOM     46 C34  BRA L   1      -8.681  -3.955 -13.902  1.00  0.00    -0.0551  A
ATOM     47 H35  BRA L   1      -8.124  -1.363 -14.311  1.00  0.00    +0.0278  H
ATOM     48 H36  BRA L   1      -6.573  -1.340 -13.473  1.00  0.00    +0.0278  H
ATOM     49 H37  BRA L   1      -8.085  -1.334 -12.531  1.00  0.00    +0.0278  H
ATOM     50 H38  BRA L   1      -5.692  -3.377 -12.367  1.00  0.00    +0.0620  H
ATOM     51 H39  BRA L   1      -5.715  -5.840 -12.279  1.00  0.00    +0.0626  H
ATOM     52 H58  BRA L   1     -10.775  -5.419 -14.480  1.00  0.00    +0.0278  H
ATOM     53 H59  BRA L   1     -10.197  -6.920 -13.773  1.00  0.00    +0.0278  H
ATOM     54 H60  BRA L   1      -9.680  -6.451 -15.420  1.00  0.00    +0.0278  H
ATOM     55 H61  BRA L   1      -9.513  -3.412 -14.350  1.00  0.00    +0.0623  H
ENDBRANCH 37 43
ENDBRANCH 36 37
ENDBRANCH 33 36
ENDBRANCH 23 33
ENDBRANCH 21 26
BRANCH 21 56
ATOM     56 C15  BRA L   1      -1.366  -4.560 -11.374  1.00  0.00    +0.0085  C
ATOM     57 N16  BRA L   1      -2.051  -3.602 -10.501  1.00  0.00    -0.3289 NA
ATOM     58 H45  BRA L   1      -0.315  -4.255 -11.452  1.00  0.00    +0.0432  H
ATOM     59 H46  BRA L   1      -1.785  -4.474 -12.384  1.00  0.00    +0.0432  H
ATOM     60 H47  BRA L   1      -1.847  -2.652 -10.813  1.00  0.00    +0.1182 HD
ATOM     61 H48  BRA L   1      -1.679  -3.673  -9.552  1.00  0.00    +0.1182 HD
ENDBRANCH 21 56
ENDBRANCH 17 21
ENDBRANCH 1 19
TORSDOF 8
ENDMDL
MODEL 2
REMARK VINA RESULT:    -7.898      1.357      1.884
REMARK INTER + INTRA:         -12.957
REMARK INTER:                 -11.254
REMARK INTRA:                  -1.703
REMARK UNBOUND:                -1.364
ROOT
ATOM      1 C20  BRA L   1       1.778  -5.466 -12.716  1.00  0.00    +0.0423  A
ATOM      2 C21  BRA L   1       2.075  -4.414 -13.578  1.00  0.00    -0.0377  A
ATOM      3 C22  BRA L   1       3.336  -4.328 -14.180  1.00  0.00    -0.0506  A
ATOM      4 C23  BRA L   1       4.318  -5.298 -13.925  1.00  0.00    +0.0004  A
ATOM      5 C24  BRA L   1       5.597  -5.255 -14.486  1.00  0.00    +0.0353  A
ATOM      6 N25  BRA L   1       6.569  -6.171 -14.256  1.00  0.00    -0.2626 NA
ATOM      7 C26  BRA L   1       6.251  -7.189 -13.432  1.00  0.00    +0.0281  A
ATOM      8 C27  BRA L   1       5.016  -7.333 -12.821  1.00  0.00    -0.0358  A
ATOM      9 C28  BRA L   1       4.026  -6.372 -13.066  1.00  0.00    -0.0131  A
ATOM     10 C29  BRA L   1       2.754  -6.445 -12.472  1.00  0.00    -0.0305  A
ATOM     11 H50  BRA L   1       1.353  -3.633 -13.798  1.00  0.00    +0.0638  H
ATOM     12 H51  BRA L   1       3.544  -3.493 -14.845  1.00  0.00    +0.0625  H
ATOM     13 H52  BRA L   1       5.888  -4.453 -15.160  1.00  0.00    +0.0836  H
ATOM     14 H53  BRA L   1       7.044  -7.914 -13.265  1.00  0.00    +0.0830  H
ATOM     15 H54  BRA L   1       4.835  -8.179 -12.166  1.00  0.00    +0.0639  H
ATOM     16 H55  BRA L   1       2.532  -7.273 -11.802  1.00  0.00    +0.0644  H
ENDROOT
BRANCH 1 19
ATOM     17 C17  BRA L   1      -0.579  -6.304 -12.438  1.00  0.00    +0.2339  C
ATOM     18 O18  BRA L   1      -0.667  -7.018 -13.435  1.00  0.00    -0.2722 OA
ATOM     19 N19  BRA L   1       0.554  -5.609 -12.036  1.00  0.00    -0.3256  N
ATOM     20 H49  BRA L   1       0.471  -5.077 -11.176  1.00  0.00    +0.1686 HD
BRANCH 17 21
ATOM     21 C14  BRA L   1      -1.777  -6.163 -11.476  1.00  0.00    +0.0752  C
ATOM     22 H44  BRA L   1      -1.438  -6.527 -10.496  1.00  0.00    +0.0458  H
BRANCH 21 26
ATOM     23 C10  BRA L   1      -5.277  -8.554 -12.430  1.00  0.00    -0.0103  A
ATOM     24 C11  BRA L   1      -5.152  -7.237 -12.887  1.00  0.00    -0.0551  A
ATOM     25 C12  BRA L   1      -3.993  -6.506 -12.625  1.00  0.00    -0.0574  A
ATOM     26 C13  BRA L   1      -2.930  -7.074 -11.901  1.00  0.00    -0.0341  A
ATOM     27 C30  BRA L   1      -3.035  -8.414 -11.505  1.00  0.00    -0.0574  A
ATOM     28 C31  BRA L   1      -4.198  -9.144 -11.763  1.00  0.00    -0.0551  A
ATOM     29 H42  BRA L   1      -5.976  -6.759 -13.413  1.00  0.00    +0.0621  H
ATOM     30 H43  BRA L   1      -3.944  -5.468 -12.952  1.00  0.00    +0.0621  H
ATOM     31 H56  BRA L   1      -2.233  -8.906 -10.961  1.00  0.00    +0.0621  H
ATOM     32 H57  BRA L   1      -4.270 -10.168 -11.402  1.00  0.00    +0.0621  H
BRANCH 23 33
ATOM     33  C9  BRA L   1      -6.574  -9.303 -12.608  1.00  0.00    +0.1179  C
ATOM     34 H40  BRA L   1      -6.547 -10.303 -12.156  1.00  0.00    +0.0749  H
ATOM     35 H41  BRA L   1      -6.764  -9.445 -13.678  1.00  0.00    +0.0749  H
BRANCH 33 36
ATOM     36  O8  BRA L   1      -7.660  -8.534 -12.072  1.00  0.00    -0.4564 OA
BRANCH 36 37
ATOM     37  C6  BRA L   1      -8.637  -8.224 -12.958  1.00  0.00    +0.3398  C
ATOM     38  O7  BRA L   1      -9.508  -8.964 -13.387  1.00  0.00    -0.2449 OA
BRANCH 37 43
ATOM     39  C1  BRA L   1      -8.469  -2.511 -13.831  1.00  0.00    -0.0397  C
ATOM     40  C2  BRA L   1      -8.491  -3.997 -13.621  1.00  0.00    -0.0502  A
ATOM     41  C3  BRA L   1      -8.989  -4.533 -12.431  1.00  0.00    -0.0580  A
ATOM     42  C4  BRA L   1      -9.029  -5.914 -12.248  1.00  0.00    -0.0473  A
ATOM     43  C5  BRA L   1      -8.577  -6.777 -13.257  1.00  0.00    +0.0619  A
ATOM     44 C32  BRA L   1      -8.113  -6.259 -14.480  1.00  0.00    -0.0362  A
ATOM     45 C33  BRA L   1      -7.644  -7.140 -15.604  1.00  0.00    -0.0389  C
ATOM     46 C34  BRA L   1      -8.068  -4.864 -14.641  1.00  0.00    -0.0551  A
ATOM     47 H35  BRA L   1      -7.638  -2.222 -14.483  1.00  0.00    +0.0278  H
ATOM     48 H36  BRA L   1      -8.336  -1.984 -12.881  1.00  0.00    +0.0278  H
ATOM     49 H37  BRA L   1      -9.408  -2.184 -14.289  1.00  0.00    +0.0278  H
ATOM     50 H38  BRA L   1      -9.339  -3.878 -11.635  1.00  0.00    +0.0620  H
ATOM     51 H39  BRA L   1      -9.403  -6.321 -11.312  1.00  0.00    +0.0626  H
ATOM     52 H58  BRA L   1      -7.662  -6.604 -16.558  1.00  0.00    +0.0278  H
ATOM     53 H59  BRA L   1      -8.300  -8.010 -15.720  1.00  0.00    +0.0278  H
ATOM     54 H60  BRA L   1      -6.619  -7.476 -15.420  1.00  0.00    +0.0278  H
ATOM     55 H61  BRA L   1      -7.701  -4.442 -15.576  1.00  0.00    +0.0623  H
ENDBRANCH 37 43
ENDBRANCH 36 37
ENDBRANCH 33 36
ENDBRANCH 23 33
ENDBRANCH 21 26
BRANCH 21 56
ATOM     56 C15  BRA L   1      -2.059  -4.650 -11.337  1.00  0.00    +0.0085  C
ATOM     57 N16  BRA L   1      -1.373  -4.018 -10.205  1.00  0.00    -0.3289 NA
ATOM     58 H45  BRA L   1      -1.741  -4.138 -12.254  1.00  0.00    +0.0432  H
ATOM     59 H46  BRA L   1      -3.136  -4.464 -11.240  1.00  0.00    +0.0432  H
ATOM     60 H47  BRA L   1      -1.492  -3.006 -10.258  1.00  0.00    +0.1182 HD
ATOM     61 H48  BRA L   1      -0.368  -4.187 -10.274  1.00  0.00    +0.1182 HD
ENDBRANCH 21 56
ENDBRANCH 17 21
ENDBRANCH 1 19
TORSDOF 8
ENDMDL
MODEL 3
REMARK VINA RESULT:    -7.740      3.151      4.405
REMARK INTER + INTRA:         -12.724
REMARK INTER:                 -10.930
REMARK INTRA:                  -1.795
REMARK UNBOUND:                -1.364
ROOT
ATOM      1 C20  BRA L   1       0.541  -3.424 -13.536  1.00  0.00    +0.0423  A
ATOM      2 C21  BRA L   1       0.659  -3.420 -14.924  1.00  0.00    -0.0377  A
ATOM      3 C22  BRA L   1       0.696  -2.210 -15.627  1.00  0.00    -0.0506  A
ATOM      4 C23  BRA L   1       0.615  -0.984 -14.946  1.00  0.00    +0.0004  A
ATOM      5 C24  BRA L   1       0.633   0.252 -15.596  1.00  0.00    +0.0353  A
ATOM      6 N25  BRA L   1       0.550   1.451 -14.971  1.00  0.00    -0.2626 NA
ATOM      7 C26  BRA L   1       0.454   1.421 -13.626  1.00  0.00    +0.0281  A
ATOM      8 C27  BRA L   1       0.429   0.255 -12.878  1.00  0.00    -0.0358  A
ATOM      9 C28  BRA L   1       0.508  -0.976 -13.544  1.00  0.00    -0.0131  A
ATOM     10 C29  BRA L   1       0.475  -2.200 -12.854  1.00  0.00    -0.0305  A
ATOM     11 H50  BRA L   1       0.714  -4.341 -15.496  1.00  0.00    +0.0638  H
ATOM     12 H51  BRA L   1       0.783  -2.235 -16.711  1.00  0.00    +0.0625  H
ATOM     13 H52  BRA L   1       0.714   0.316 -16.679  1.00  0.00    +0.0836  H
ATOM     14 H53  BRA L   1       0.394   2.393 -13.145  1.00  0.00    +0.0830  H
ATOM     15 H54  BRA L   1       0.346   0.311 -11.797  1.00  0.00    +0.0639  H
ATOM     16 H55  BRA L   1       0.386  -2.190 -11.769  1.00  0.00    +0.0644  H
ENDROOT
BRANCH 1 19
ATOM     17 C17  BRA L   1       1.474  -5.460 -12.388  1.00  0.00    +0.2339  C
ATOM     18 O18  BRA L   1       2.673  -5.293 -12.605  1.00  0.00    -0.2722 OA
ATOM     19 N19  BRA L   1       0.455  -4.591 -12.754  1.00  0.00    -0.3256  N
ATOM     20 H49  BRA L   1      -0.484  -4.864 -12.485  1.00  0.00    +0.1686 HD
BRANCH 17 21
ATOM     21 C14  BRA L   1       0.994  -6.696 -11.600  1.00  0.00    +0.0752  C
ATOM     22 H44  BRA L   1       1.795  -7.446 -11.672  1.00  0.00    +0.0458  H
BRANCH 21 26
ATOM     23 C10  BRA L   1      -2.552  -8.132 -13.659  1.00  0.00    -0.0103  A
ATOM     24 C11  BRA L   1      -1.317  -8.051 -14.312  1.00  0.00    -0.0551  A
ATOM     25 C12  BRA L   1      -0.176  -7.648 -13.619  1.00  0.00    -0.0574  A
ATOM     26 C13  BRA L   1      -0.241  -7.317 -12.253  1.00  0.00    -0.0341  A
ATOM     27 C30  BRA L   1      -1.467  -7.465 -11.590  1.00  0.00    -0.0574  A
ATOM     28 C31  BRA L   1      -2.610  -7.864 -12.288  1.00  0.00    -0.0551  A
ATOM     29 H42  BRA L   1      -1.247  -8.259 -15.378  1.00  0.00    +0.0621  H
ATOM     30 H43  BRA L   1       0.761  -7.548 -14.164  1.00  0.00    +0.0621  H
ATOM     31 H56  BRA L   1      -1.565  -7.244 -10.530  1.00  0.00    +0.0621  H
ATOM     32 H57  BRA L   1      -3.558  -7.925 -11.756  1.00  0.00    +0.0621  H
BRANCH 23 33
ATOM     33  C9  BRA L   1      -3.806  -8.450 -14.434  1.00  0.00    +0.1179  C
ATOM     34 H40  BRA L   1      -4.362  -9.294 -14.007  1.00  0.00    +0.0749  H
ATOM     35 H41  BRA L   1      -3.534  -8.735 -15.457  1.00  0.00    +0.0749  H
BRANCH 33 36
ATOM     36  O8  BRA L   1      -4.639  -7.284 -14.515  1.00  0.00    -0.4564 OA
BRANCH 36 37
ATOM     37  C6  BRA L   1      -5.751  -7.318 -13.741  1.00  0.00    +0.3398  C
ATOM     38  O7  BRA L   1      -6.160  -8.254 -13.075  1.00  0.00    -0.2449 OA
BRANCH 37 43
ATOM     39  C1  BRA L   1      -8.353  -2.155 -13.847  1.00  0.00    -0.0397  C
ATOM     40  C2  BRA L   1      -7.673  -3.493 -13.793  1.00  0.00    -0.0502  A
ATOM     41  C3  BRA L   1      -8.013  -4.493 -14.708  1.00  0.00    -0.0580  A
ATOM     42  C4  BRA L   1      -7.364  -5.726 -14.669  1.00  0.00    -0.0473  A
ATOM     43  C5  BRA L   1      -6.363  -5.971 -13.717  1.00  0.00    +0.0619  A
ATOM     44 C32  BRA L   1      -5.976  -4.963 -12.816  1.00  0.00    -0.0362  A
ATOM     45 C33  BRA L   1      -4.890  -5.164 -11.797  1.00  0.00    -0.0389  C
ATOM     46 C34  BRA L   1      -6.650  -3.731 -12.862  1.00  0.00    -0.0551  A
ATOM     47 H35  BRA L   1      -8.407  -1.704 -12.851  1.00  0.00    +0.0278  H
ATOM     48 H36  BRA L   1      -9.380  -2.253 -14.215  1.00  0.00    +0.0278  H
ATOM     49 H37  BRA L   1      -7.802  -1.482 -14.512  1.00  0.00    +0.0278  H
ATOM     50 H38  BRA L   1      -8.792  -4.322 -15.449  1.00  0.00    +0.0620  H
ATOM     51 H39  BRA L   1      -7.646  -6.504 -15.374  1.00  0.00    +0.0626  H
ATOM     52 H58  BRA L   1      -4.497  -4.204 -11.446  1.00  0.00    +0.0278  H
ATOM     53 H59  BRA L   1      -4.045  -5.711 -12.228  1.00  0.00    +0.0278  H
ATOM     54 H60  BRA L   1      -5.278  -5.712 -10.933  1.00  0.00    +0.0278  H
ATOM     55 H61  BRA L   1      -6.374  -2.940 -12.165  1.00  0.00    +0.0623  H
ENDBRANCH 37 43
ENDBRANCH 36 37
ENDBRANCH 33 36
ENDBRANCH 23 33
ENDBRANCH 21 26
BRANCH 21 56
ATOM     56 C15  BRA L   1       0.894  -6.267 -10.118  1.00  0.00    +0.0085  C
ATOM     57 N16  BRA L   1       0.888  -4.814  -9.918  1.00  0.00    -0.3289 NA
ATOM     58 H45  BRA L   1      -0.029  -6.672  -9.686  1.00  0.00    +0.0432  H
ATOM     59 H46  BRA L   1       1.718  -6.696  -9.535  1.00  0.00    +0.0432  H
ATOM     60 H47  BRA L   1       0.682  -4.607  -8.941  1.00  0.00    +0.1182 HD
ATOM     61 H48  BRA L   1       0.131  -4.395 -10.460  1.00  0.00    +0.1182 HD
ENDBRANCH 21 56
ENDBRANCH 17 21
ENDBRANCH 1 19
TORSDOF 8
ENDMDL
MODEL 4
REMARK VINA RESULT:    -7.582      3.165      4.280
REMARK INTER + INTRA:         -12.493
REMARK INTER:                 -10.648
REMARK INTRA:                  -1.845
REMARK UNBOUND:                -1.364
ROOT
ATOM      1 C20  BRA L   1       0.580  -3.302 -13.523  1.00  0.00    +0.0423  A
ATOM      2 C21  BRA L   1       0.739  -3.300 -14.907  1.00  0.00    -0.0377  A
ATOM      3 C22  BRA L   1       0.819  -2.091 -15.607  1.00  0.00    -0.0506  A
ATOM      4 C23  BRA L   1       0.740  -0.864 -14.929  1.00  0.00    +0.0004  A
ATOM      5 C24  BRA L   1       0.800   0.372 -15.577  1.00  0.00    +0.0353  A
ATOM      6 N25  BRA L   1       0.721   1.572 -14.954  1.00  0.00    -0.2626 NA
ATOM      7 C26  BRA L   1       0.584   1.544 -13.613  1.00  0.00    +0.0281  A
ATOM      8 C27  BRA L   1       0.514   0.378 -12.867  1.00  0.00    -0.0358  A
ATOM      9 C28  BRA L   1       0.591  -0.853 -13.531  1.00  0.00    -0.0131  A
ATOM     10 C29  BRA L   1       0.516  -2.076 -12.842  1.00  0.00    -0.0305  A
ATOM     11 H50  BRA L   1       0.795  -4.222 -15.477  1.00  0.00    +0.0638  H
ATOM     12 H51  BRA L   1       0.938  -2.117 -16.689  1.00  0.00    +0.0625  H
ATOM     13 H52  BRA L   1       0.915   0.435 -16.657  1.00  0.00    +0.0836  H
ATOM     14 H53  BRA L   1       0.526   2.517 -13.133  1.00  0.00    +0.0830  H
ATOM     15 H54  BRA L   1       0.401   0.436 -11.789  1.00  0.00    +0.0639  H
ATOM     16 H55  BRA L   1       0.394  -2.066 -11.761  1.00  0.00    +0.0644  H
ENDROOT
BRANCH 1 19
ATOM     17 C17  BRA L   1       1.428  -5.391 -12.406  1.00  0.00    +0.2339  C
ATOM     18 O18  BRA L   1       2.628  -5.287 -12.649  1.00  0.00    -0.2722 OA
ATOM     19 N19  BRA L   1       0.449  -4.467 -12.744  1.00  0.00    -0.3256  N
ATOM     20 H49  BRA L   1      -0.498  -4.691 -12.456  1.00  0.00    +0.1686 HD
BRANCH 17 21
ATOM     21 C14  BRA L   1       0.899  -6.605 -11.613  1.00  0.00    +0.0752  C
ATOM     22 H44  BRA L   1       1.635  -7.411 -11.746  1.00  0.00    +0.0458  H
BRANCH 21 26
ATOM     23 C10  BRA L   1      -2.787  -8.378 -13.076  1.00  0.00    -0.0103  A
ATOM     24 C11  BRA L   1      -2.695  -7.862 -11.778  1.00  0.00    -0.0551  A
ATOM     25 C12  BRA L   1      -1.524  -7.239 -11.346  1.00  0.00    -0.0574  A
ATOM     26 C13  BRA L   1      -0.416  -7.116 -12.203  1.00  0.00    -0.0341  A
ATOM     27 C30  BRA L   1      -0.538  -7.574 -13.521  1.00  0.00    -0.0574  A
ATOM     28 C31  BRA L   1      -1.710  -8.202 -13.951  1.00  0.00    -0.0551  A
ATOM     29 H42  BRA L   1      -3.523  -7.983 -11.081  1.00  0.00    +0.0621  H
ATOM     30 H43  BRA L   1      -1.465  -6.891 -10.316  1.00  0.00    +0.0621  H
ATOM     31 H56  BRA L   1       0.282  -7.482 -14.229  1.00  0.00    +0.0621  H
ATOM     32 H57  BRA L   1      -1.759  -8.590 -14.966  1.00  0.00    +0.0621  H
BRANCH 23 33
ATOM     33  C9  BRA L   1      -4.005  -9.157 -13.504  1.00  0.00    +0.1179  C
ATOM     34 H40  BRA L   1      -4.382  -9.817 -12.712  1.00  0.00    +0.0749  H
ATOM     35 H41  BRA L   1      -3.742  -9.798 -14.353  1.00  0.00    +0.0749  H
BRANCH 33 36
ATOM     36  O8  BRA L   1      -5.032  -8.255 -13.942  1.00  0.00    -0.4564 OA
BRANCH 36 37
ATOM     37  C6  BRA L   1      -6.039  -8.057 -13.056  1.00  0.00    +0.3398  C
ATOM     38  O7  BRA L   1      -6.461  -8.847 -12.228  1.00  0.00    -0.2449 OA
BRANCH 37 43
ATOM     39  C1  BRA L   1      -7.549  -2.482 -13.329  1.00  0.00    -0.0397  C
ATOM     40  C2  BRA L   1      -7.171  -3.934 -13.281  1.00  0.00    -0.0502  A
ATOM     41  C3  BRA L   1      -5.990  -4.334 -12.650  1.00  0.00    -0.0580  A
ATOM     42  C4  BRA L   1      -5.653  -5.685 -12.587  1.00  0.00    -0.0473  A
ATOM     43  C5  BRA L   1      -6.496  -6.653 -13.152  1.00  0.00    +0.0619  A
ATOM     44 C32  BRA L   1      -7.710  -6.276 -13.753  1.00  0.00    -0.0362  A
ATOM     45 C33  BRA L   1      -8.662  -7.275 -14.347  1.00  0.00    -0.0389  C
ATOM     46 C34  BRA L   1      -8.027  -4.908 -13.818  1.00  0.00    -0.0551  A
ATOM     47 H35  BRA L   1      -8.131  -2.260 -14.229  1.00  0.00    +0.0278  H
ATOM     48 H36  BRA L   1      -6.658  -1.846 -13.352  1.00  0.00    +0.0278  H
ATOM     49 H37  BRA L   1      -8.146  -2.222 -12.449  1.00  0.00    +0.0278  H
ATOM     50 H38  BRA L   1      -5.321  -3.595 -12.212  1.00  0.00    +0.0620  H
ATOM     51 H39  BRA L   1      -4.725  -5.985 -12.109  1.00  0.00    +0.0626  H
ATOM     52 H58  BRA L   1      -9.669  -6.853 -14.439  1.00  0.00    +0.0278  H
ATOM     53 H59  BRA L   1      -8.750  -8.160 -13.708  1.00  0.00    +0.0278  H
ATOM     54 H60  BRA L   1      -8.325  -7.575 -15.344  1.00  0.00    +0.0278  H
ATOM     55 H61  BRA L   1      -8.957  -4.593 -14.290  1.00  0.00    +0.0623  H
ENDBRANCH 37 43
ENDBRANCH 36 37
ENDBRANCH 33 36
ENDBRANCH 23 33
ENDBRANCH 21 26
BRANCH 21 56
ATOM     56 C15  BRA L   1       0.919  -6.202 -10.121  1.00  0.00    +0.0085  C
ATOM     57 N16  BRA L   1       0.895  -4.753  -9.894  1.00  0.00    -0.3289 NA
ATOM     58 H45  BRA L   1       0.047  -6.638  -9.618  1.00  0.00    +0.0432  H
ATOM     59 H46  BRA L   1       1.802  -6.619  -9.619  1.00  0.00    +0.0432  H
ATOM     60 H47  BRA L   1       0.770  -4.568  -8.898  1.00  0.00    +0.1182 HD
ATOM     61 H48  BRA L   1       0.083  -4.346 -10.360  1.00  0.00    +0.1182 HD
ENDBRANCH 21 56
ENDBRANCH 17 21
ENDBRANCH 1 19
TORSDOF 8
ENDMDL
MODEL 5
REMARK VINA RESULT:    -7.379      3.522      5.452
REMARK INTER + INTRA:         -12.195
REMARK INTER:                 -11.218
REMARK INTRA:                  -0.976
REMARK UNBOUND:                -1.364
ROOT
ATOM      1 C20  BRA L   1       0.916  -3.067 -14.556  1.00  0.00    +0.0423  A
ATOM      2 C21  BRA L   1       0.598  -2.738 -15.871  1.00  0.00    -0.0377  A
ATOM      3 C22  BRA L   1       0.211  -1.434 -16.200  1.00  0.00    -0.0506  A
ATOM      4 C23  BRA L   1       0.137  -0.439 -15.211  1.00  0.00    +0.0004  A
ATOM      5 C24  BRA L   1      -0.257   0.875 -15.479  1.00  0.00    +0.0353  A
ATOM      6 N25  BRA L   1      -0.344   1.855 -14.549  1.00  0.00    -0.2626 NA
ATOM      7 C26  BRA L   1      -0.015   1.517 -13.286  1.00  0.00    +0.0281  A
ATOM      8 C27  BRA L   1       0.389   0.246 -12.906  1.00  0.00    -0.0358  A
ATOM      9 C28  BRA L   1       0.467  -0.756 -13.882  1.00  0.00    -0.0131  A
ATOM     10 C29  BRA L   1       0.857  -2.070 -13.570  1.00  0.00    -0.0305  A
ATOM     11 H50  BRA L   1       0.630  -3.474 -16.669  1.00  0.00    +0.0638  H
ATOM     12 H51  BRA L   1      -0.038  -1.204 -17.234  1.00  0.00    +0.0625  H
ATOM     13 H52  BRA L   1      -0.525   1.187 -16.485  1.00  0.00    +0.0836  H
ATOM     14 H53  BRA L   1      -0.089   2.319 -12.557  1.00  0.00    +0.0830  H
ATOM     15 H54  BRA L   1       0.636   0.049 -11.868  1.00  0.00    +0.0639  H
ATOM     16 H55  BRA L   1       1.106  -2.315 -12.539  1.00  0.00    +0.0644  H
ENDROOT
BRANCH 1 19
ATOM     17 C17  BRA L   1       2.545  -4.908 -14.017  1.00  0.00    +0.2339  C
ATOM     18 O18  BRA L   1       3.604  -4.305 -14.176  1.00  0.00    -0.2722 OA
ATOM     19 N19  BRA L   1       1.275  -4.360 -14.129  1.00  0.00    -0.3256  N
ATOM     20 H49  BRA L   1       0.498  -4.987 -13.949  1.00  0.00    +0.1686 HD
BRANCH 17 21
ATOM     21 C14  BRA L   1       2.553  -6.396 -13.605  1.00  0.00    +0.0752  C
ATOM     22 H44  BRA L   1       2.415  -6.978 -14.528  1.00  0.00    +0.0458  H
BRANCH 21 26
ATOM     23 C10  BRA L   1      -1.025  -7.042 -11.229  1.00  0.00    -0.0103  A
ATOM     24 C11  BRA L   1      -0.955  -7.461 -12.562  1.00  0.00    -0.0551  A
ATOM     25 C12  BRA L   1       0.224  -7.303 -13.291  1.00  0.00    -0.0574  A
ATOM     26 C13  BRA L   1       1.362  -6.722 -12.704  1.00  0.00    -0.0341  A
ATOM     27 C30  BRA L   1       1.305  -6.366 -11.350  1.00  0.00    -0.0574  A
ATOM     28 C31  BRA L   1       0.122  -6.521 -10.622  1.00  0.00    -0.0551  A
ATOM     29 H42  BRA L   1      -1.834  -7.874 -13.053  1.00  0.00    +0.0621  H
ATOM     30 H43  BRA L   1       0.234  -7.595 -14.340  1.00  0.00    +0.0621  H
ATOM     31 H56  BRA L   1       2.164  -5.934 -10.843  1.00  0.00    +0.0621  H
ATOM     32 H57  BRA L   1       0.094  -6.192  -9.585  1.00  0.00    +0.0621  H
BRANCH 23 33
ATOM     33  C9  BRA L   1      -2.332  -7.101 -10.478  1.00  0.00    +0.1179  C
ATOM     34 H40  BRA L   1      -2.246  -6.721  -9.452  1.00  0.00    +0.0749  H
ATOM     35 H41  BRA L   1      -2.656  -8.146 -10.401  1.00  0.00    +0.0749  H
BRANCH 33 36
ATOM     36  O8  BRA L   1      -3.344  -6.385 -11.200  1.00  0.00    -0.4564 OA
BRANCH 36 37
ATOM     37  C6  BRA L   1      -4.377  -7.142 -11.646  1.00  0.00    +0.3398  C
ATOM     38  O7  BRA L   1      -4.643  -8.288 -11.327  1.00  0.00    -0.2449 OA
BRANCH 37 43
ATOM     39  C1  BRA L   1      -7.729  -3.680 -14.841  1.00  0.00    -0.0397  C
ATOM     40  C2  BRA L   1      -6.847  -4.588 -14.034  1.00  0.00    -0.0502  A
ATOM     41  C3  BRA L   1      -6.483  -4.241 -12.730  1.00  0.00    -0.0580  A
ATOM     42  C4  BRA L   1      -5.683  -5.097 -11.976  1.00  0.00    -0.0473  A
ATOM     43  C5  BRA L   1      -5.241  -6.314 -12.516  1.00  0.00    +0.0619  A
ATOM     44 C32  BRA L   1      -5.633  -6.703 -13.809  1.00  0.00    -0.0362  A
ATOM     45 C33  BRA L   1      -5.212  -8.009 -14.422  1.00  0.00    -0.0389  C
ATOM     46 C34  BRA L   1      -6.429  -5.821 -14.559  1.00  0.00    -0.0551  A
ATOM     47 H35  BRA L   1      -7.509  -3.771 -15.909  1.00  0.00    +0.0278  H
ATOM     48 H36  BRA L   1      -7.570  -2.633 -14.564  1.00  0.00    +0.0278  H
ATOM     49 H37  BRA L   1      -8.781  -3.934 -14.673  1.00  0.00    +0.0278  H
ATOM     50 H38  BRA L   1      -6.811  -3.298 -12.299  1.00  0.00    +0.0620  H
ATOM     51 H39  BRA L   1      -5.391  -4.811 -10.969  1.00  0.00    +0.0626  H
ATOM     52 H58  BRA L   1      -5.875  -8.288 -15.249  1.00  0.00    +0.0278  H
ATOM     53 H59  BRA L   1      -5.264  -8.821 -13.690  1.00  0.00    +0.0278  H
ATOM     54 H60  BRA L   1      -4.192  -7.933 -14.813  1.00  0.00    +0.0278  H
ATOM     55 H61  BRA L   1      -6.735  -6.097 -15.568  1.00  0.00    +0.0623  H
ENDBRANCH 37 43
ENDBRANCH 36 37
ENDBRANCH 33 36
ENDBRANCH 23 33
ENDBRANCH 21 26
BRANCH 21 56
ATOM     56 C15  BRA L   1       3.973  -6.700 -13.074  1.00  0.00    +0.0085  C
ATOM     57 N16  BRA L   1       4.241  -8.129 -12.878  1.00  0.00    -0.3289 NA
ATOM     58 H45  BRA L   1       4.714  -6.311 -13.782  1.00  0.00    +0.0432  H
ATOM     59 H46  BRA L   1       4.151  -6.178 -12.126  1.00  0.00    +0.0432  H
ATOM     60 H47  BRA L   1       5.230  -8.261 -12.662  1.00  0.00    +0.1182 HD
ATOM     61 H48  BRA L   1       4.073  -8.633 -13.749  1.00  0.00    +0.1182 HD
ENDBRANCH 21 56
ENDBRANCH 17 21
ENDBRANCH 1 19
TORSDOF 8
ENDMDL
MODEL 6
REMARK VINA RESULT:    -7.319      3.124      9.279
REMARK INTER + INTRA:         -12.107
REMARK INTER:                 -10.874
REMARK INTRA:                  -1.232
REMARK UNBOUND:                -1.364
ROOT
ATOM      1 C20  BRA L   1      -6.156  -5.260 -13.480  1.00  0.00    +0.0423  A
ATOM      2 C21  BRA L   1      -6.577  -5.610 -14.760  1.00  0.00    -0.0377  A
ATOM      3 C22  BRA L   1      -7.343  -4.718 -15.520  1.00  0.00    -0.0506  A
ATOM      4 C23  BRA L   1      -7.699  -3.461 -15.005  1.00  0.00    +0.0004  A
ATOM      5 C24  BRA L   1      -8.473  -2.538 -15.712  1.00  0.00    +0.0353  A
ATOM      6 N25  BRA L   1      -8.838  -1.321 -15.242  1.00  0.00    -0.2626 NA
ATOM      7 C26  BRA L   1      -8.404  -0.999 -14.007  1.00  0.00    +0.0281  A
ATOM      8 C27  BRA L   1      -7.630  -1.835 -13.216  1.00  0.00    -0.0358  A
ATOM      9 C28  BRA L   1      -7.269  -3.092 -13.718  1.00  0.00    -0.0131  A
ATOM     10 C29  BRA L   1      -6.497  -3.998 -12.969  1.00  0.00    -0.0305  A
ATOM     11 H50  BRA L   1      -6.337  -6.574 -15.198  1.00  0.00    +0.0638  H
ATOM     12 H51  BRA L   1      -7.665  -5.018 -16.515  1.00  0.00    +0.0625  H
ATOM     13 H52  BRA L   1      -8.838  -2.759 -16.712  1.00  0.00    +0.0836  H
ATOM     14 H53  BRA L   1      -8.704  -0.017 -13.652  1.00  0.00    +0.0830  H
ATOM     15 H54  BRA L   1      -7.321  -1.506 -12.229  1.00  0.00    +0.0639  H
ATOM     16 H55  BRA L   1      -6.171  -3.713 -11.971  1.00  0.00    +0.0644  H
ENDROOT
BRANCH 1 19
ATOM     17 C17  BRA L   1      -5.515  -7.486 -12.496  1.00  0.00    +0.2339  C
ATOM     18 O18  BRA L   1      -6.206  -8.229 -13.190  1.00  0.00    -0.2722 OA
ATOM     19 N19  BRA L   1      -5.419  -6.108 -12.631  1.00  0.00    -0.3256  N
ATOM     20 H49  BRA L   1      -4.788  -5.638 -11.991  1.00  0.00    +0.1686 HD
BRANCH 17 21
ATOM     21 C14  BRA L   1      -4.610  -8.074 -11.393  1.00  0.00    +0.0752  C
ATOM     22 H44  BRA L   1      -4.953  -7.643 -10.441  1.00  0.00    +0.0458  H
BRANCH 21 26
ATOM     23 C10  BRA L   1      -0.390  -7.172 -11.893  1.00  0.00    -0.0103  A
ATOM     24 C11  BRA L   1      -1.142  -7.725 -12.935  1.00  0.00    -0.0551  A
ATOM     25 C12  BRA L   1      -2.510  -7.949 -12.779  1.00  0.00    -0.0574  A
ATOM     26 C13  BRA L   1      -3.160  -7.625 -11.575  1.00  0.00    -0.0341  A
ATOM     27 C30  BRA L   1      -2.415  -7.009 -10.560  1.00  0.00    -0.0574  A
ATOM     28 C31  BRA L   1      -1.044  -6.789 -10.717  1.00  0.00    -0.0551  A
ATOM     29 H42  BRA L   1      -0.655  -8.025 -13.862  1.00  0.00    +0.0621  H
ATOM     30 H43  BRA L   1      -3.059  -8.425 -13.590  1.00  0.00    +0.0621  H
ATOM     31 H56  BRA L   1      -2.876  -6.718  -9.619  1.00  0.00    +0.0621  H
ATOM     32 H57  BRA L   1      -0.482  -6.353  -9.893  1.00  0.00    +0.0621  H
BRANCH 23 33
ATOM     33  C9  BRA L   1       1.107  -7.041 -12.017  1.00  0.00    +0.1179  C
ATOM     34 H40  BRA L   1       1.623  -8.005 -11.923  1.00  0.00    +0.0749  H
ATOM     35 H41  BRA L   1       1.480  -6.402 -11.208  1.00  0.00    +0.0749  H
BRANCH 33 36
ATOM     36  O8  BRA L   1       1.441  -6.407 -13.260  1.00  0.00    -0.4564 OA
BRANCH 36 37
ATOM     37  C6  BRA L   1       2.356  -5.411 -13.170  1.00  0.00    +0.3398  C
ATOM     38  O7  BRA L   1       3.523  -5.509 -12.829  1.00  0.00    -0.2449 OA
BRANCH 37 43
ATOM     39  C1  BRA L   1      -0.026  -0.422 -14.863  1.00  0.00    -0.0397  C
ATOM     40  C2  BRA L   1       0.610  -1.715 -14.444  1.00  0.00    -0.0502  A
ATOM     41  C3  BRA L   1       0.576  -2.116 -13.106  1.00  0.00    -0.0580  A
ATOM     42  C4  BRA L   1       1.148  -3.328 -12.724  1.00  0.00    -0.0473  A
ATOM     43  C5  BRA L   1       1.756  -4.157 -13.678  1.00  0.00    +0.0619  A
ATOM     44 C32  BRA L   1       1.763  -3.793 -15.036  1.00  0.00    -0.0362  A
ATOM     45 C33  BRA L   1       2.374  -4.659 -16.101  1.00  0.00    -0.0389  C
ATOM     46 C34  BRA L   1       1.192  -2.562 -15.400  1.00  0.00    -0.0551  A
ATOM     47 H35  BRA L   1       0.493   0.007 -15.726  1.00  0.00    +0.0278  H
ATOM     48 H36  BRA L   1       0.021   0.316 -14.056  1.00  0.00    +0.0278  H
ATOM     49 H37  BRA L   1      -1.075  -0.590 -15.129  1.00  0.00    +0.0278  H
ATOM     50 H38  BRA L   1       0.114  -1.482 -12.352  1.00  0.00    +0.0620  H
ATOM     51 H39  BRA L   1       1.132  -3.624 -11.678  1.00  0.00    +0.0626  H
ATOM     52 H58  BRA L   1       1.984  -4.400 -17.092  1.00  0.00    +0.0278  H
ATOM     53 H59  BRA L   1       2.135  -5.714 -15.935  1.00  0.00    +0.0278  H
ATOM     54 H60  BRA L   1       3.461  -4.528 -16.118  1.00  0.00    +0.0278  H
ATOM     55 H61  BRA L   1       1.197  -2.255 -16.446  1.00  0.00    +0.0623  H
ENDBRANCH 37 43
ENDBRANCH 36 37
ENDBRANCH 33 36
ENDBRANCH 23 33
ENDBRANCH 21 26
BRANCH 21 56
ATOM     56 C15  BRA L   1      -4.900  -9.592 -11.344  1.00  0.00    +0.0085  C
ATOM     57 N16  BRA L   1      -6.113  -9.943 -10.599  1.00  0.00    -0.3289 NA
ATOM     58 H45  BRA L   1      -5.010  -9.971 -12.368  1.00  0.00    +0.0432  H
ATOM     59 H46  BRA L   1      -4.052 -10.134 -10.907  1.00  0.00    +0.0432  H
ATOM     60 H47  BRA L   1      -6.314 -10.936 -10.726  1.00  0.00    +0.1182 HD
ATOM     61 H48  BRA L   1      -6.913  -9.442 -10.987  1.00  0.00    +0.1182 HD
ENDBRANCH 21 56
ENDBRANCH 17 21
ENDBRANCH 1 19
TORSDOF 8
ENDMDL
MODEL 7
REMARK VINA RESULT:    -7.247      1.696      2.464
REMARK INTER + INTRA:         -12.001
REMARK INTER:                 -10.254
REMARK INTRA:                  -1.747
REMARK UNBOUND:                -1.364
ROOT
ATOM      1 C20  BRA L   1       1.581  -5.421 -12.866  1.00  0.00    +0.0423  A
ATOM      2 C21  BRA L   1       1.725  -4.545 -13.939  1.00  0.00    -0.0377  A
ATOM      3 C22  BRA L   1       2.955  -4.428 -14.596  1.00  0.00    -0.0506  A
ATOM      4 C23  BRA L   1       4.061  -5.190 -14.185  1.00  0.00    +0.0004  A
ATOM      5 C24  BRA L   1       5.316  -5.103 -14.795  1.00  0.00    +0.0353  A
ATOM      6 N25  BRA L   1       6.403  -5.818 -14.419  1.00  0.00    -0.2626 NA
ATOM      7 C26  BRA L   1       6.235  -6.671 -13.389  1.00  0.00    +0.0281  A
ATOM      8 C27  BRA L   1       5.037  -6.839 -12.712  1.00  0.00    -0.0358  A
ATOM      9 C28  BRA L   1       3.925  -6.086 -13.111  1.00  0.00    -0.0131  A
ATOM     10 C29  BRA L   1       2.682  -6.194 -12.464  1.00  0.00    -0.0305  A
ATOM     11 H50  BRA L   1       0.902  -3.928 -14.287  1.00  0.00    +0.0638  H
ATOM     12 H51  BRA L   1       3.042  -3.733 -15.428  1.00  0.00    +0.0625  H
ATOM     13 H52  BRA L   1       5.489  -4.430 -15.631  1.00  0.00    +0.0836  H
ATOM     14 H53  BRA L   1       7.119  -7.237 -13.107  1.00  0.00    +0.0830  H
ATOM     15 H54  BRA L   1       4.980  -7.544 -11.889  1.00  0.00    +0.0639  H
ATOM     16 H55  BRA L   1       2.581  -6.883 -11.628  1.00  0.00    +0.0644  H
ENDROOT
BRANCH 1 19
ATOM     17 C17  BRA L   1      -0.762  -6.252 -12.476  1.00  0.00    +0.2339  C
ATOM     18 O18  BRA L   1      -0.910  -6.944 -13.481  1.00  0.00    -0.2722 OA
ATOM     19 N19  BRA L   1       0.396  -5.573 -12.122  1.00  0.00    -0.3256  N
ATOM     20 H49  BRA L   1       0.365  -5.059 -11.248  1.00  0.00    +0.1686 HD
BRANCH 17 21
ATOM     21 C14  BRA L   1      -1.904  -6.127 -11.446  1.00  0.00    +0.0752  C
ATOM     22 H44  BRA L   1      -1.483  -6.416 -10.472  1.00  0.00    +0.0458  H
BRANCH 21 26
ATOM     23 C10  BRA L   1      -4.844  -9.130 -12.545  1.00  0.00    -0.0103  A
ATOM     24 C11  BRA L   1      -3.763  -9.444 -11.714  1.00  0.00    -0.0551  A
ATOM     25 C12  BRA L   1      -2.864  -8.453 -11.320  1.00  0.00    -0.0574  A
ATOM     26 C13  BRA L   1      -3.025  -7.122 -11.746  1.00  0.00    -0.0341  A
ATOM     27 C30  BRA L   1      -4.147  -6.803 -12.523  1.00  0.00    -0.0574  A
ATOM     28 C31  BRA L   1      -5.044  -7.798 -12.921  1.00  0.00    -0.0551  A
ATOM     29 H42  BRA L   1      -3.591 -10.473 -11.405  1.00  0.00    +0.0621  H
ATOM     30 H43  BRA L   1      -2.006  -8.736 -10.712  1.00  0.00    +0.0621  H
ATOM     31 H56  BRA L   1      -4.328  -5.785 -12.860  1.00  0.00    +0.0621  H
ATOM     32 H57  BRA L   1      -5.880  -7.528 -13.563  1.00  0.00    +0.0621  H
BRANCH 23 33
ATOM     33  C9  BRA L   1      -5.745 -10.220 -13.070  1.00  0.00    +0.1179  C
ATOM     34 H40  BRA L   1      -5.250 -11.198 -13.098  1.00  0.00    +0.0749  H
ATOM     35 H41  BRA L   1      -6.035  -9.982 -14.100  1.00  0.00    +0.0749  H
BRANCH 33 36
ATOM     36  O8  BRA L   1      -6.945 -10.282 -12.284  1.00  0.00    -0.4564 OA
BRANCH 36 37
ATOM     37  C6  BRA L   1      -8.099 -10.229 -12.993  1.00  0.00    +0.3398  C
ATOM     38  O7  BRA L   1      -8.835 -11.159 -13.276  1.00  0.00    -0.2449 OA
BRANCH 37 43
ATOM     39  C1  BRA L   1      -9.376  -4.653 -13.835  1.00  0.00    -0.0397  C
ATOM     40  C2  BRA L   1      -9.027  -6.100 -13.638  1.00  0.00    -0.0502  A
ATOM     41  C3  BRA L   1      -9.139  -6.685 -12.374  1.00  0.00    -0.0580  A
ATOM     42  C4  BRA L   1      -8.836  -8.034 -12.198  1.00  0.00    -0.0473  A
ATOM     43  C5  BRA L   1      -8.421  -8.815 -13.286  1.00  0.00    +0.0619  A
ATOM     44 C32  BRA L   1      -8.343  -8.256 -14.574  1.00  0.00    -0.0362  A
ATOM     45 C33  BRA L   1      -7.933  -9.056 -15.778  1.00  0.00    -0.0389  C
ATOM     46 C34  BRA L   1      -8.641  -6.892 -14.730  1.00  0.00    -0.0551  A
ATOM     47 H35  BRA L   1      -8.781  -4.215 -14.643  1.00  0.00    +0.0278  H
ATOM     48 H36  BRA L   1      -9.171  -4.074 -12.929  1.00  0.00    +0.0278  H
ATOM     49 H37  BRA L   1     -10.437  -4.555 -14.085  1.00  0.00    +0.0278  H
ATOM     50 H38  BRA L   1      -9.454  -6.092 -11.517  1.00  0.00    +0.0620  H
ATOM     51 H39  BRA L   1      -8.911  -8.477 -11.208  1.00  0.00    +0.0626  H
ATOM     52 H58  BRA L   1      -8.264  -8.573 -16.704  1.00  0.00    +0.0278  H
ATOM     53 H59  BRA L   1      -8.390 -10.051 -15.763  1.00  0.00    +0.0278  H
ATOM     54 H60  BRA L   1      -6.844  -9.155 -15.815  1.00  0.00    +0.0278  H
ATOM     55 H61  BRA L   1      -8.576  -6.436 -15.718  1.00  0.00    +0.0623  H
ENDBRANCH 37 43
ENDBRANCH 36 37
ENDBRANCH 33 36
ENDBRANCH 23 33
ENDBRANCH 21 26
BRANCH 21 56
ATOM     56 C15  BRA L   1      -2.266  -4.626 -11.366  1.00  0.00    +0.0085  C
ATOM     57 N16  BRA L   1      -1.604  -3.911 -10.270  1.00  0.00    -0.3289 NA
ATOM     58 H45  BRA L   1      -1.986  -4.137 -12.308  1.00  0.00    +0.0432  H
ATOM     59 H46  BRA L   1      -3.351  -4.495 -11.264  1.00  0.00    +0.0432  H
ATOM     60 H47  BRA L   1      -1.780  -2.910 -10.364  1.00  0.00    +0.1182 HD
ATOM     61 H48  BRA L   1      -0.593  -4.028 -10.344  1.00  0.00    +0.1182 HD
ENDBRANCH 21 56
ENDBRANCH 17 21
ENDBRANCH 1 19
TORSDOF 8
ENDMDL
MODEL 8
REMARK VINA RESULT:    -7.221      1.355      2.181
REMARK INTER + INTRA:         -11.962
REMARK INTER:                 -10.369
REMARK INTRA:                  -1.593
REMARK UNBOUND:                -1.364
ROOT
ATOM      1 C20  BRA L   1       1.763  -5.623 -12.917  1.00  0.00    +0.0423  A
ATOM      2 C21  BRA L   1       2.301  -4.481 -13.507  1.00  0.00    -0.0377  A
ATOM      3 C22  BRA L   1       3.632  -4.469 -13.938  1.00  0.00    -0.0506  A
ATOM      4 C23  BRA L   1       4.446  -5.603 -13.783  1.00  0.00    +0.0004  A
ATOM      5 C24  BRA L   1       5.784  -5.642 -14.181  1.00  0.00    +0.0353  A
ATOM      6 N25  BRA L   1       6.597  -6.717 -14.040  1.00  0.00    -0.2626 NA
ATOM      7 C26  BRA L   1       6.049  -7.815 -13.482  1.00  0.00    +0.0281  A
ATOM      8 C27  BRA L   1       4.734  -7.890 -13.052  1.00  0.00    -0.0358  A
ATOM      9 C28  BRA L   1       3.911  -6.765 -13.200  1.00  0.00    -0.0131  A
ATOM     10 C29  BRA L   1       2.571  -6.762 -12.776  1.00  0.00    -0.0305  A
ATOM     11 H50  BRA L   1       1.716  -3.576 -13.639  1.00  0.00    +0.0638  H
ATOM     12 H51  BRA L   1       4.029  -3.562 -14.390  1.00  0.00    +0.0625  H
ATOM     13 H52  BRA L   1       6.260  -4.778 -14.639  1.00  0.00    +0.0836  H
ATOM     14 H53  BRA L   1       6.717  -8.666 -13.383  1.00  0.00    +0.0830  H
ATOM     15 H54  BRA L   1       4.364  -8.809 -12.609  1.00  0.00    +0.0639  H
ATOM     16 H55  BRA L   1       2.161  -7.661 -12.319  1.00  0.00    +0.0644  H
ENDROOT
BRANCH 1 19
ATOM     17 C17  BRA L   1       0.007  -6.344 -11.266  1.00  0.00    +0.2339  C
ATOM     18 O18  BRA L   1       0.723  -6.857 -10.408  1.00  0.00    -0.2722 OA
ATOM     19 N19  BRA L   1       0.450  -5.711 -12.419  1.00  0.00    -0.3256  N
ATOM     20 H49  BRA L   1      -0.268  -5.321 -13.020  1.00  0.00    +0.1686 HD
BRANCH 17 21
ATOM     21 C14  BRA L   1      -1.525  -6.319 -11.083  1.00  0.00    +0.0752  C
ATOM     22 H44  BRA L   1      -1.718  -6.506 -10.017  1.00  0.00    +0.0458  H
BRANCH 21 26
ATOM     23 C10  BRA L   1      -3.664  -9.307 -13.400  1.00  0.00    -0.0103  A
ATOM     24 C11  BRA L   1      -2.829  -8.370 -14.019  1.00  0.00    -0.0551  A
ATOM     25 C12  BRA L   1      -2.101  -7.459 -13.255  1.00  0.00    -0.0574  A
ATOM     26 C13  BRA L   1      -2.188  -7.462 -11.852  1.00  0.00    -0.0341  A
ATOM     27 C30  BRA L   1      -2.973  -8.446 -11.236  1.00  0.00    -0.0574  A
ATOM     28 C31  BRA L   1      -3.706  -9.355 -12.003  1.00  0.00    -0.0551  A
ATOM     29 H42  BRA L   1      -2.776  -8.318 -15.105  1.00  0.00    +0.0621  H
ATOM     30 H43  BRA L   1      -1.496  -6.711 -13.767  1.00  0.00    +0.0621  H
ATOM     31 H56  BRA L   1      -3.057  -8.505 -10.154  1.00  0.00    +0.0621  H
ATOM     32 H57  BRA L   1      -4.345 -10.078 -11.498  1.00  0.00    +0.0621  H
BRANCH 23 33
ATOM     33  C9  BRA L   1      -4.543 -10.211 -14.227  1.00  0.00    +0.1179  C
ATOM     34 H40  BRA L   1      -5.312 -10.714 -13.627  1.00  0.00    +0.0749  H
ATOM     35 H41  BRA L   1      -3.926 -10.999 -14.676  1.00  0.00    +0.0749  H
BRANCH 33 36
ATOM     36  O8  BRA L   1      -5.142  -9.466 -15.297  1.00  0.00    -0.4564 OA
BRANCH 36 37
ATOM     37  C6  BRA L   1      -6.468  -9.223 -15.156  1.00  0.00    +0.3398  C
ATOM     38  O7  BRA L   1      -7.387  -9.996 -15.367  1.00  0.00    -0.2449 OA
BRANCH 37 43
ATOM     39  C1  BRA L   1      -7.150  -3.840 -13.157  1.00  0.00    -0.0397  C
ATOM     40  C2  BRA L   1      -6.992  -5.247 -13.659  1.00  0.00    -0.0502  A
ATOM     41  C3  BRA L   1      -6.541  -5.484 -14.960  1.00  0.00    -0.0580  A
ATOM     42  C4  BRA L   1      -6.374  -6.790 -15.415  1.00  0.00    -0.0473  A
ATOM     43  C5  BRA L   1      -6.652  -7.876 -14.573  1.00  0.00    +0.0619  A
ATOM     44 C32  BRA L   1      -7.065  -7.659 -13.246  1.00  0.00    -0.0362  A
ATOM     45 C33  BRA L   1      -7.347  -8.787 -12.293  1.00  0.00    -0.0389  C
ATOM     46 C34  BRA L   1      -7.240  -6.335 -12.808  1.00  0.00    -0.0551  A
ATOM     47 H35  BRA L   1      -7.950  -3.780 -12.412  1.00  0.00    +0.0278  H
ATOM     48 H36  BRA L   1      -7.413  -3.161 -13.973  1.00  0.00    +0.0278  H
ATOM     49 H37  BRA L   1      -6.215  -3.500 -12.700  1.00  0.00    +0.0278  H
ATOM     50 H38  BRA L   1      -6.327  -4.653 -15.629  1.00  0.00    +0.0620  H
ATOM     51 H39  BRA L   1      -6.039  -6.965 -16.434  1.00  0.00    +0.0626  H
ATOM     52 H58  BRA L   1      -7.307  -8.444 -11.254  1.00  0.00    +0.0278  H
ATOM     53 H59  BRA L   1      -6.599  -9.580 -12.392  1.00  0.00    +0.0278  H
ATOM     54 H60  BRA L   1      -8.344  -9.199 -12.478  1.00  0.00    +0.0278  H
ATOM     55 H61  BRA L   1      -7.570  -6.145 -11.787  1.00  0.00    +0.0623  H
ENDBRANCH 37 43
ENDBRANCH 36 37
ENDBRANCH 33 36
ENDBRANCH 23 33
ENDBRANCH 21 26
BRANCH 21 56
ATOM     56 C15  BRA L   1      -1.984  -4.875 -11.389  1.00  0.00    +0.0085  C
ATOM     57 N16  BRA L   1      -1.591  -3.896 -10.370  1.00  0.00    -0.3289 NA
ATOM     58 H45  BRA L   1      -1.556  -4.555 -12.348  1.00  0.00    +0.0432  H
ATOM     59 H46  BRA L   1      -3.074  -4.833 -11.512  1.00  0.00    +0.0432  H
ATOM     60 H47  BRA L   1      -1.804  -2.955 -10.703  1.00  0.00    +0.1182 HD
ATOM     61 H48  BRA L   1      -0.580  -3.925 -10.236  1.00  0.00    +0.1182 HD
ENDBRANCH 21 56
ENDBRANCH 17 21
ENDBRANCH 1 19
TORSDOF 8
ENDMDL
MODEL 9
REMARK VINA RESULT:    -7.094      3.930      6.122
REMARK INTER + INTRA:         -11.776
REMARK INTER:                 -10.477
REMARK INTRA:                  -1.299
REMARK UNBOUND:                -1.364
ROOT
ATOM      1 C20  BRA L   1       0.902  -2.449 -14.556  1.00  0.00    +0.0423  A
ATOM      2 C21  BRA L   1       0.719  -2.140 -13.210  1.00  0.00    -0.0377  A
ATOM      3 C22  BRA L   1       0.365  -0.842 -12.824  1.00  0.00    -0.0506  A
ATOM      4 C23  BRA L   1       0.190   0.167 -13.784  1.00  0.00    +0.0004  A
ATOM      5 C24  BRA L   1      -0.148   1.483 -13.456  1.00  0.00    +0.0353  A
ATOM      6 N25  BRA L   1      -0.318   2.480 -14.356  1.00  0.00    -0.2626 NA
ATOM      7 C26  BRA L   1      -0.152   2.153 -15.654  1.00  0.00    +0.0281  A
ATOM      8 C27  BRA L   1       0.182   0.882 -16.094  1.00  0.00    -0.0358  A
ATOM      9 C28  BRA L   1       0.361  -0.135 -15.147  1.00  0.00    -0.0131  A
ATOM     10 C29  BRA L   1       0.713  -1.444 -15.517  1.00  0.00    -0.0305  A
ATOM     11 H50  BRA L   1       0.853  -2.883 -12.429  1.00  0.00    +0.0638  H
ATOM     12 H51  BRA L   1       0.234  -0.626 -11.766  1.00  0.00    +0.0625  H
ATOM     13 H52  BRA L   1      -0.295   1.783 -12.421  1.00  0.00    +0.0836  H
ATOM     14 H53  BRA L   1      -0.298   2.967 -16.359  1.00  0.00    +0.0830  H
ATOM     15 H54  BRA L   1       0.302   0.696 -17.157  1.00  0.00    +0.0639  H
ATOM     16 H55  BRA L   1       0.850  -1.674 -16.572  1.00  0.00    +0.0644  H
ENDROOT
BRANCH 1 19
ATOM     17 C17  BRA L   1       2.515  -4.357 -14.857  1.00  0.00    +0.2339  C
ATOM     18 O18  BRA L   1       3.441  -3.962 -14.152  1.00  0.00    -0.2722 OA
ATOM     19 N19  BRA L   1       1.297  -3.714 -15.030  1.00  0.00    -0.3256  N
ATOM     20 H49  BRA L   1       0.626  -4.179 -15.632  1.00  0.00    +0.1686 HD
BRANCH 17 21
ATOM     21 C14  BRA L   1       2.627  -5.703 -15.603  1.00  0.00    +0.0752  C
ATOM     22 H44  BRA L   1       2.484  -5.483 -16.672  1.00  0.00    +0.0458  H
BRANCH 21 26
ATOM     23 C10  BRA L   1      -0.834  -8.096 -14.522  1.00  0.00    -0.0103  A
ATOM     24 C11  BRA L   1      -0.569  -7.765 -15.855  1.00  0.00    -0.0551  A
ATOM     25 C12  BRA L   1       0.580  -7.050 -16.191  1.00  0.00    -0.0574  A
ATOM     26 C13  BRA L   1       1.495  -6.649 -15.201  1.00  0.00    -0.0341  A
ATOM     27 C30  BRA L   1       1.257  -7.041 -13.877  1.00  0.00    -0.0574  A
ATOM     28 C31  BRA L   1       0.103  -7.753 -13.541  1.00  0.00    -0.0551  A
ATOM     29 H42  BRA L   1      -1.281  -8.026 -16.636  1.00  0.00    +0.0621  H
ATOM     30 H43  BRA L   1       0.736  -6.766 -17.231  1.00  0.00    +0.0621  H
ATOM     31 H56  BRA L   1       1.945  -6.775 -13.078  1.00  0.00    +0.0621  H
ATOM     32 H57  BRA L   1      -0.078  -8.003 -12.497  1.00  0.00    +0.0621  H
BRANCH 23 33
ATOM     33  C9  BRA L   1      -2.133  -8.762 -14.143  1.00  0.00    +0.1179  C
ATOM     34 H40  BRA L   1      -2.180  -9.808 -14.470  1.00  0.00    +0.0749  H
ATOM     35 H41  BRA L   1      -2.962  -8.239 -14.636  1.00  0.00    +0.0749  H
BRANCH 33 36
ATOM     36  O8  BRA L   1      -2.339  -8.663 -12.727  1.00  0.00    -0.4564 OA
BRANCH 36 37
ATOM     37  C6  BRA L   1      -3.614  -8.867 -12.316  1.00  0.00    +0.3398  C
ATOM     38  O7  BRA L   1      -4.085  -9.890 -11.849  1.00  0.00    -0.2449 OA
BRANCH 37 43
ATOM     39  C1  BRA L   1      -6.761  -4.037 -12.766  1.00  0.00    -0.0397  C
ATOM     40  C2  BRA L   1      -5.934  -5.282 -12.626  1.00  0.00    -0.0502  A
ATOM     41  C3  BRA L   1      -6.357  -6.478 -13.211  1.00  0.00    -0.0580  A
ATOM     42  C4  BRA L   1      -5.575  -7.627 -13.098  1.00  0.00    -0.0473  A
ATOM     43  C5  BRA L   1      -4.359  -7.591 -12.401  1.00  0.00    +0.0619  A
ATOM     44 C32  BRA L   1      -3.894  -6.387 -11.842  1.00  0.00    -0.0362  A
ATOM     45 C33  BRA L   1      -2.585  -6.288 -11.112  1.00  0.00    -0.0389  C
ATOM     46 C34  BRA L   1      -4.701  -5.243 -11.956  1.00  0.00    -0.0551  A
ATOM     47 H35  BRA L   1      -6.634  -3.384 -11.897  1.00  0.00    +0.0278  H
ATOM     48 H36  BRA L   1      -7.826  -4.281 -12.837  1.00  0.00    +0.0278  H
ATOM     49 H37  BRA L   1      -6.463  -3.490 -13.667  1.00  0.00    +0.0278  H
ATOM     50 H38  BRA L   1      -7.301  -6.525 -13.750  1.00  0.00    +0.0620  H
ATOM     51 H39  BRA L   1      -5.920  -8.557 -13.543  1.00  0.00    +0.0626  H
ATOM     52 H58  BRA L   1      -2.237  -5.251 -11.065  1.00  0.00    +0.0278  H
ATOM     53 H59  BRA L   1      -1.804  -6.858 -11.627  1.00  0.00    +0.0278  H
ATOM     54 H60  BRA L   1      -2.693  -6.658 -10.087  1.00  0.00    +0.0278  H
ATOM     55 H61  BRA L   1      -4.366  -4.302 -11.520  1.00  0.00    +0.0623  H
ENDBRANCH 37 43
ENDBRANCH 36 37
ENDBRANCH 33 36
ENDBRANCH 23 33
ENDBRANCH 21 26
BRANCH 21 56
ATOM     56 C15  BRA L   1       4.082  -6.191 -15.422  1.00  0.00    +0.0085  C
ATOM     57 N16  BRA L   1       5.067  -5.432 -16.199  1.00  0.00    -0.3289 NA
ATOM     58 H45  BRA L   1       4.358  -6.116 -14.362  1.00  0.00    +0.0432  H
ATOM     59 H46  BRA L   1       4.170  -7.252 -15.687  1.00  0.00    +0.0432  H
ATOM     60 H47  BRA L   1       6.008  -5.716 -15.925  1.00  0.00    +0.1182 HD
ATOM     61 H48  BRA L   1       4.995  -4.439 -15.971  1.00  0.00    +0.1182 HD
ENDBRANCH 21 56
ENDBRANCH 17 21
ENDBRANCH 1 19
TORSDOF 8
ENDMDL
MODEL 10
REMARK VINA RESULT:    -6.903      1.427      2.297
REMARK INTER + INTRA:         -11.497
REMARK INTER:                  -9.969
REMARK INTRA:                  -1.527
REMARK UNBOUND:                -1.364
ROOT
ATOM      1 C20  BRA L   1       1.867  -5.857 -13.601  1.00  0.00    +0.0423  A
ATOM      2 C21  BRA L   1       1.515  -5.239 -14.799  1.00  0.00    -0.0377  A
ATOM      3 C22  BRA L   1       2.506  -4.795 -15.681  1.00  0.00    -0.0506  A
ATOM      4 C23  BRA L   1       3.866  -4.963 -15.375  1.00  0.00    +0.0004  A
ATOM      5 C24  BRA L   1       4.897  -4.526 -16.211  1.00  0.00    +0.0353  A
ATOM      6 N25  BRA L   1       6.216  -4.667 -15.942  1.00  0.00    -0.2626 NA
ATOM      7 C26  BRA L   1       6.531  -5.282 -14.784  1.00  0.00    +0.0281  A
ATOM      8 C27  BRA L   1       5.593  -5.756 -13.880  1.00  0.00    -0.0358  A
ATOM      9 C28  BRA L   1       4.233  -5.595 -14.173  1.00  0.00    -0.0131  A
ATOM     10 C29  BRA L   1       3.225  -6.038 -13.300  1.00  0.00    -0.0305  A
ATOM     11 H50  BRA L   1       0.478  -5.077 -15.076  1.00  0.00    +0.0638  H
ATOM     12 H51  BRA L   1       2.205  -4.310 -16.608  1.00  0.00    +0.0625  H
ATOM     13 H52  BRA L   1       4.682  -4.030 -17.154  1.00  0.00    +0.0836  H
ATOM     14 H53  BRA L   1       7.595  -5.388 -14.591  1.00  0.00    +0.0830  H
ATOM     15 H54  BRA L   1       5.924  -6.239 -12.966  1.00  0.00    +0.0639  H
ATOM     16 H55  BRA L   1       3.511  -6.521 -12.367  1.00  0.00    +0.0644  H
ENDROOT
BRANCH 1 19
ATOM     17 C17  BRA L   1       0.203  -7.473 -12.625  1.00  0.00    +0.2339  C
ATOM     18 O18  BRA L   1       0.320  -8.402 -13.422  1.00  0.00    -0.2722 OA
ATOM     19 N19  BRA L   1       0.939  -6.297 -12.637  1.00  0.00    -0.3256  N
ATOM     20 H49  BRA L   1       0.737  -5.633 -11.896  1.00  0.00    +0.1686 HD
BRANCH 17 21
ATOM     21 C14  BRA L   1      -0.793  -7.580 -11.451  1.00  0.00    +0.0752  C
ATOM     22 H44  BRA L   1      -0.571  -8.526 -10.936  1.00  0.00    +0.0458  H
BRANCH 21 26
ATOM     23 C10  BRA L   1      -4.833  -8.276 -12.887  1.00  0.00    -0.0103  A
ATOM     24 C11  BRA L   1      -4.490  -8.501 -11.549  1.00  0.00    -0.0551  A
ATOM     25 C12  BRA L   1      -3.205  -8.211 -11.091  1.00  0.00    -0.0574  A
ATOM     26 C13  BRA L   1      -2.231  -7.689 -11.960  1.00  0.00    -0.0341  A
ATOM     27 C30  BRA L   1      -2.600  -7.404 -13.281  1.00  0.00    -0.0574  A
ATOM     28 C31  BRA L   1      -3.887  -7.699 -13.740  1.00  0.00    -0.0551  A
ATOM     29 H42  BRA L   1      -5.212  -8.944 -10.866  1.00  0.00    +0.0621  H
ATOM     30 H43  BRA L   1      -2.953  -8.441 -10.056  1.00  0.00    +0.0621  H
ATOM     31 H56  BRA L   1      -1.890  -6.979 -13.986  1.00  0.00    +0.0621  H
ATOM     32 H57  BRA L   1      -4.131  -7.511 -14.784  1.00  0.00    +0.0621  H
BRANCH 23 33
ATOM     33  C9  BRA L   1      -6.182  -8.701 -13.411  1.00  0.00    +0.1179  C
ATOM     34 H40  BRA L   1      -6.802  -9.176 -12.640  1.00  0.00    +0.0749  H
ATOM     35 H41  BRA L   1      -6.042  -9.442 -14.206  1.00  0.00    +0.0749  H
BRANCH 33 36
ATOM     36  O8  BRA L   1      -6.861  -7.573 -13.983  1.00  0.00    -0.4564 OA
BRANCH 36 37
ATOM     37  C6  BRA L   1      -7.756  -6.966 -13.165  1.00  0.00    +0.3398  C
ATOM     38  O7  BRA L   1      -8.409  -7.481 -12.273  1.00  0.00    -0.2449 OA
BRANCH 37 43
ATOM     39  C1  BRA L   1      -7.986  -1.313 -14.357  1.00  0.00    -0.0397  C
ATOM     40  C2  BRA L   1      -7.915  -2.775 -14.023  1.00  0.00    -0.0502  A
ATOM     41  C3  BRA L   1      -8.822  -3.673 -14.595  1.00  0.00    -0.0580  A
ATOM     42  C4  BRA L   1      -8.739  -5.032 -14.300  1.00  0.00    -0.0473  A
ATOM     43  C5  BRA L   1      -7.746  -5.511 -13.434  1.00  0.00    +0.0619  A
ATOM     44 C32  BRA L   1      -6.797  -4.631 -12.884  1.00  0.00    -0.0362  A
ATOM     45 C33  BRA L   1      -5.695  -5.097 -11.974  1.00  0.00    -0.0389  C
ATOM     46 C34  BRA L   1      -6.904  -3.262 -13.182  1.00  0.00    -0.0551  A
ATOM     47 H35  BRA L   1      -7.634  -0.704 -13.518  1.00  0.00    +0.0278  H
ATOM     48 H36  BRA L   1      -9.016  -1.010 -14.570  1.00  0.00    +0.0278  H
ATOM     49 H37  BRA L   1      -7.366  -1.099 -15.234  1.00  0.00    +0.0278  H
ATOM     50 H38  BRA L   1      -9.603  -3.317 -15.263  1.00  0.00    +0.0620  H
ATOM     51 H39  BRA L   1      -9.459  -5.720 -14.736  1.00  0.00    +0.0626  H
ATOM     52 H58  BRA L   1      -4.879  -4.367 -11.937  1.00  0.00    +0.0278  H
ATOM     53 H59  BRA L   1      -5.260  -6.036 -12.334  1.00  0.00    +0.0278  H
ATOM     54 H60  BRA L   1      -6.075  -5.236 -10.957  1.00  0.00    +0.0278  H
ATOM     55 H61  BRA L   1      -6.186  -2.561 -12.756  1.00  0.00    +0.0623  H
ENDBRANCH 37 43
ENDBRANCH 36 37
ENDBRANCH 33 36
ENDBRANCH 23 33
ENDBRANCH 21 26
BRANCH 21 56
ATOM     56 C15  BRA L   1      -0.452  -6.431 -10.475  1.00  0.00    +0.0085  C
ATOM     57 N16  BRA L   1       0.813  -6.614  -9.756  1.00  0.00    -0.3289 NA
ATOM     58 H45  BRA L   1      -0.390  -5.489 -11.034  1.00  0.00    +0.0432  H
ATOM     59 H46  BRA L   1      -1.255  -6.297  -9.739  1.00  0.00    +0.0432  H
ATOM     60 H47  BRA L   1       1.037  -5.763  -9.241  1.00  0.00    +0.1182 HD
ATOM     61 H48  BRA L   1       1.573  -6.748 -10.425  1.00  0.00    +0.1182 HD
ENDBRANCH 21 56
ENDBRANCH 17 21
ENDBRANCH 1 19
TORSDOF 8
ENDMDL
MODEL 11
REMARK VINA RESULT:    -6.743      3.801      6.130
REMARK INTER + INTRA:         -11.262
REMARK INTER:                 -10.278
REMARK INTRA:                  -0.983
REMARK UNBOUND:                -1.364
ROOT
ATOM      1 C20  BRA L   1       0.800  -2.880 -14.378  1.00  0.00    +0.0423  A
ATOM      2 C21  BRA L   1       0.550  -2.435 -15.674  1.00  0.00    -0.0377  A
ATOM      3 C22  BRA L   1       0.320  -1.077 -15.922  1.00  0.00    -0.0506  A
ATOM      4 C23  BRA L   1       0.339  -0.144 -14.872  1.00  0.00    +0.0004  A
ATOM      5 C24  BRA L   1       0.103   1.220 -15.060  1.00  0.00    +0.0353  A
ATOM      6 N25  BRA L   1       0.107   2.144 -14.069  1.00  0.00    -0.2626 NA
ATOM      7 C26  BRA L   1       0.368   1.691 -12.826  1.00  0.00    +0.0281  A
ATOM      8 C27  BRA L   1       0.618   0.362 -12.525  1.00  0.00    -0.0358  A
ATOM      9 C28  BRA L   1       0.602  -0.580 -13.562  1.00  0.00    -0.0131  A
ATOM     10 C29  BRA L   1       0.834  -1.947 -13.331  1.00  0.00    -0.0305  A
ATOM     11 H50  BRA L   1       0.515  -3.118 -16.517  1.00  0.00    +0.0638  H
ATOM     12 H51  BRA L   1       0.121  -0.756 -16.943  1.00  0.00    +0.0625  H
ATOM     13 H52  BRA L   1      -0.107   1.624 -16.047  1.00  0.00    +0.0836  H
ATOM     14 H53  BRA L   1       0.371   2.450 -12.048  1.00  0.00    +0.0830  H
ATOM     15 H54  BRA L   1       0.818   0.072 -11.498  1.00  0.00    +0.0639  H
ATOM     16 H55  BRA L   1       1.031  -2.283 -12.314  1.00  0.00    +0.0644  H
ENDROOT
BRANCH 1 19
ATOM     17 C17  BRA L   1       2.200  -4.917 -13.902  1.00  0.00    +0.2339  C
ATOM     18 O18  BRA L   1       3.322  -4.420 -13.967  1.00  0.00    -0.2722 OA
ATOM     19 N19  BRA L   1       1.001  -4.230 -14.031  1.00  0.00    -0.3256  N
ATOM     20 H49  BRA L   1       0.155  -4.782 -13.934  1.00  0.00    +0.1686 HD
BRANCH 17 21
ATOM     21 C14  BRA L   1       2.033  -6.421 -13.600  1.00  0.00    +0.0752  C
ATOM     22 H44  BRA L   1       2.080  -6.943 -14.566  1.00  0.00    +0.0458  H
BRANCH 21 26
ATOM     23 C10  BRA L   1      -1.754  -7.596 -11.826  1.00  0.00    -0.0103  A
ATOM     24 C11  BRA L   1      -0.668  -7.214 -11.030  1.00  0.00    -0.0551  A
ATOM     25 C12  BRA L   1       0.520  -6.779 -11.617  1.00  0.00    -0.0574  A
ATOM     26 C13  BRA L   1       0.650  -6.713 -13.016  1.00  0.00    -0.0341  A
ATOM     27 C30  BRA L   1      -0.463  -7.033 -13.805  1.00  0.00    -0.0574  A
ATOM     28 C31  BRA L   1      -1.651  -7.473 -13.215  1.00  0.00    -0.0551  A
ATOM     29 H42  BRA L   1      -0.728  -7.296  -9.946  1.00  0.00    +0.0621  H
ATOM     30 H43  BRA L   1       1.364  -6.535 -10.974  1.00  0.00    +0.0621  H
ATOM     31 H56  BRA L   1      -0.420  -6.977 -14.890  1.00  0.00    +0.0621  H
ATOM     32 H57  BRA L   1      -2.483  -7.759 -13.855  1.00  0.00    +0.0621  H
BRANCH 23 33
ATOM     33  C9  BRA L   1      -2.994  -8.180 -11.196  1.00  0.00    +0.1179  C
ATOM     34 H40  BRA L   1      -3.916  -7.816 -11.668  1.00  0.00    +0.0749  H
ATOM     35 H41  BRA L   1      -3.038  -7.879 -10.143  1.00  0.00    +0.0749  H
BRANCH 33 36
ATOM     36  O8  BRA L   1      -2.935  -9.613 -11.237  1.00  0.00    -0.4564 OA
BRANCH 36 37
ATOM     37  C6  BRA L   1      -3.673 -10.191 -12.216  1.00  0.00    +0.3398  C
ATOM     38  O7  BRA L   1      -3.262 -10.730 -13.230  1.00  0.00    -0.2449 OA
BRANCH 37 43
ATOM     39  C1  BRA L   1      -9.160 -10.339 -10.399  1.00  0.00    -0.0397  C
ATOM     40  C2  BRA L   1      -7.739 -10.274 -10.879  1.00  0.00    -0.0502  A
ATOM     41  C3  BRA L   1      -6.761 -11.086 -10.296  1.00  0.00    -0.0580  A
ATOM     42  C4  BRA L   1      -5.448 -11.040 -10.759  1.00  0.00    -0.0473  A
ATOM     43  C5  BRA L   1      -5.096 -10.185 -11.814  1.00  0.00    +0.0619  A
ATOM     44 C32  BRA L   1      -6.073  -9.393 -12.443  1.00  0.00    -0.0362  A
ATOM     45 C33  BRA L   1      -5.756  -8.483 -13.596  1.00  0.00    -0.0389  C
ATOM     46 C34  BRA L   1      -7.390  -9.443 -11.955  1.00  0.00    -0.0551  A
ATOM     47 H35  BRA L   1      -9.658  -9.372 -10.525  1.00  0.00    +0.0278  H
ATOM     48 H36  BRA L   1      -9.203 -10.590  -9.335  1.00  0.00    +0.0278  H
ATOM     49 H37  BRA L   1      -9.711 -11.097 -10.964  1.00  0.00    +0.0278  H
ATOM     50 H38  BRA L   1      -7.015 -11.750  -9.472  1.00  0.00    +0.0620  H
ATOM     51 H39  BRA L   1      -4.691 -11.662 -10.288  1.00  0.00    +0.0626  H
ATOM     52 H58  BRA L   1      -6.660  -8.234 -14.162  1.00  0.00    +0.0278  H
ATOM     53 H59  BRA L   1      -5.068  -8.966 -14.299  1.00  0.00    +0.0278  H
ATOM     54 H60  BRA L   1      -5.313  -7.551 -13.233  1.00  0.00    +0.0278  H
ATOM     55 H61  BRA L   1      -8.161  -8.829 -12.420  1.00  0.00    +0.0623  H
ENDBRANCH 37 43
ENDBRANCH 36 37
ENDBRANCH 33 36
ENDBRANCH 23 33
ENDBRANCH 21 26
BRANCH 21 56
ATOM     56 C15  BRA L   1       3.273  -6.849 -12.782  1.00  0.00    +0.0085  C
ATOM     57 N16  BRA L   1       3.548  -8.289 -12.826  1.00  0.00    -0.3289 NA
ATOM     58 H45  BRA L   1       4.157  -6.324 -13.166  1.00  0.00    +0.0432  H
ATOM     59 H46  BRA L   1       3.169  -6.545 -11.733  1.00  0.00    +0.0432  H
ATOM     60 H47  BRA L   1       4.449  -8.476 -12.384  1.00  0.00    +0.1182 HD
ATOM     61 H48  BRA L   1       3.641  -8.592 -13.796  1.00  0.00    +0.1182 HD
ENDBRANCH 21 56
ENDBRANCH 17 21
ENDBRANCH 1 19
TORSDOF 8
ENDMDL
MODEL 12
REMARK VINA RESULT:    -6.564      2.981      9.893
REMARK INTER + INTRA:         -10.999
REMARK INTER:                  -9.959
REMARK INTRA:                  -1.040
REMARK UNBOUND:                -1.364
ROOT
ATOM      1 C20  BRA L   1      -6.175  -5.666 -13.799  1.00  0.00    +0.0423  A
ATOM      2 C21  BRA L   1      -6.691  -5.910 -15.069  1.00  0.00    -0.0377  A
ATOM      3 C22  BRA L   1      -7.484  -4.950 -15.706  1.00  0.00    -0.0506  A
ATOM      4 C23  BRA L   1      -7.772  -3.727 -15.078  1.00  0.00    +0.0004  A
ATOM      5 C24  BRA L   1      -8.569  -2.738 -15.660  1.00  0.00    +0.0353  A
ATOM      6 N25  BRA L   1      -8.870  -1.553 -15.079  1.00  0.00    -0.2626 NA
ATOM      7 C26  BRA L   1      -8.346  -1.333 -13.856  1.00  0.00    +0.0281  A
ATOM      8 C27  BRA L   1      -7.542  -2.240 -13.185  1.00  0.00    -0.0358  A
ATOM      9 C28  BRA L   1      -7.247  -3.464 -13.800  1.00  0.00    -0.0131  A
ATOM     10 C29  BRA L   1      -6.450  -4.439 -13.175  1.00  0.00    -0.0305  A
ATOM     11 H50  BRA L   1      -6.506  -6.844 -15.592  1.00  0.00    +0.0638  H
ATOM     12 H51  BRA L   1      -7.879  -5.167 -16.697  1.00  0.00    +0.0625  H
ATOM     13 H52  BRA L   1      -9.006  -2.877 -16.646  1.00  0.00    +0.0836  H
ATOM     14 H53  BRA L   1      -8.597  -0.374 -13.411  1.00  0.00    +0.0830  H
ATOM     15 H54  BRA L   1      -7.158  -1.993 -12.200  1.00  0.00    +0.0639  H
ATOM     16 H55  BRA L   1      -6.050  -4.236 -12.184  1.00  0.00    +0.0644  H
ENDROOT
BRANCH 1 19
ATOM     17 C17  BRA L   1      -5.782  -7.834 -12.584  1.00  0.00    +0.2339  C
ATOM     18 O18  BRA L   1      -6.850  -8.399 -12.810  1.00  0.00    -0.2722 OA
ATOM     19 N19  BRA L   1      -5.404  -6.590 -13.068  1.00  0.00    -0.3256  N
ATOM     20 H49  BRA L   1      -4.479  -6.268 -12.805  1.00  0.00    +0.1686 HD
BRANCH 17 21
ATOM     21 C14  BRA L   1      -4.698  -8.535 -11.738  1.00  0.00    +0.0752  C
ATOM     22 H44  BRA L   1      -4.651  -7.998 -10.780  1.00  0.00    +0.0458  H
BRANCH 21 26
ATOM     23 C10  BRA L   1      -0.862  -7.751 -13.619  1.00  0.00    -0.0103  A
ATOM     24 C11  BRA L   1      -1.122  -7.346 -12.306  1.00  0.00    -0.0551  A
ATOM     25 C12  BRA L   1      -2.335  -7.662 -11.695  1.00  0.00    -0.0574  A
ATOM     26 C13  BRA L   1      -3.320  -8.392 -12.384  1.00  0.00    -0.0341  A
ATOM     27 C30  BRA L   1      -3.027  -8.852 -13.675  1.00  0.00    -0.0574  A
ATOM     28 C31  BRA L   1      -1.813  -8.531 -14.287  1.00  0.00    -0.0551  A
ATOM     29 H42  BRA L   1      -0.394  -6.743 -11.765  1.00  0.00    +0.0621  H
ATOM     30 H43  BRA L   1      -2.528  -7.292 -10.689  1.00  0.00    +0.0621  H
ATOM     31 H56  BRA L   1      -3.746  -9.439 -14.241  1.00  0.00    +0.0621  H
ATOM     32 H57  BRA L   1      -1.632  -8.862 -15.308  1.00  0.00    +0.0621  H
BRANCH 23 33
ATOM     33  C9  BRA L   1       0.397  -7.308 -14.321  1.00  0.00    +0.1179  C
ATOM     34 H40  BRA L   1       0.680  -7.979 -15.142  1.00  0.00    +0.0749  H
ATOM     35 H41  BRA L   1       1.228  -7.315 -13.606  1.00  0.00    +0.0749  H
BRANCH 33 36
ATOM     36  O8  BRA L   1       0.245  -5.963 -14.796  1.00  0.00    -0.4564 OA
BRANCH 36 37
ATOM     37  C6  BRA L   1       0.917  -5.023 -14.087  1.00  0.00    +0.3398  C
ATOM     38  O7  BRA L   1       0.442  -4.098 -13.450  1.00  0.00    -0.2449 OA
BRANCH 37 43
ATOM     39  C1  BRA L   1       6.576  -6.176 -14.376  1.00  0.00    -0.0397  C
ATOM     40  C2  BRA L   1       5.109  -5.872 -14.274  1.00  0.00    -0.0502  A
ATOM     41  C3  BRA L   1       4.420  -5.348 -15.372  1.00  0.00    -0.0580  A
ATOM     42  C4  BRA L   1       3.054  -5.089 -15.281  1.00  0.00    -0.0473  A
ATOM     43  C5  BRA L   1       2.359  -5.355 -14.092  1.00  0.00    +0.0619  A
ATOM     44 C32  BRA L   1       3.024  -5.923 -12.991  1.00  0.00    -0.0362  A
ATOM     45 C33  BRA L   1       2.320  -6.255 -11.706  1.00  0.00    -0.0389  C
ATOM     46 C34  BRA L   1       4.404  -6.166 -13.097  1.00  0.00    -0.0551  A
ATOM     47 H35  BRA L   1       7.066  -6.061 -13.404  1.00  0.00    +0.0278  H
ATOM     48 H36  BRA L   1       7.069  -5.490 -15.072  1.00  0.00    +0.0278  H
ATOM     49 H37  BRA L   1       6.721  -7.202 -14.728  1.00  0.00    +0.0278  H
ATOM     50 H38  BRA L   1       4.945  -5.129 -16.299  1.00  0.00    +0.0620  H
ATOM     51 H39  BRA L   1       2.530  -4.666 -16.134  1.00  0.00    +0.0626  H
ATOM     52 H58  BRA L   1       2.890  -6.987 -11.122  1.00  0.00    +0.0278  H
ATOM     53 H59  BRA L   1       1.340  -6.703 -11.899  1.00  0.00    +0.0278  H
ATOM     54 H60  BRA L   1       2.198  -5.354 -11.096  1.00  0.00    +0.0278  H
ATOM     55 H61  BRA L   1       4.941  -6.596 -12.252  1.00  0.00    +0.0623  H
ENDBRANCH 37 43
ENDBRANCH 36 37
ENDBRANCH 33 36
ENDBRANCH 23 33
ENDBRANCH 21 26
BRANCH 21 56
ATOM     56 C15  BRA L   1      -5.219  -9.961 -11.443  1.00  0.00    +0.0085  C
ATOM     57 N16  BRA L   1      -6.177 -10.028 -10.334  1.00  0.00    -0.3289 NA
ATOM     58 H45  BRA L   1      -5.711 -10.358 -12.340  1.00  0.00    +0.0432  H
ATOM     59 H46  BRA L   1      -4.385 -10.640 -11.226  1.00  0.00    +0.0432  H
ATOM     60 H47  BRA L   1      -6.578 -10.965 -10.289  1.00  0.00    +0.1182 HD
ATOM     61 H48  BRA L   1      -6.958  -9.395 -10.516  1.00  0.00    +0.1182 HD
ENDBRANCH 21 56
ENDBRANCH 17 21
ENDBRANCH 1 19
TORSDOF 8
ENDMDL
MODEL 13
REMARK VINA RESULT:    -6.458      3.749      5.372
REMARK INTER + INTRA:         -10.843
REMARK INTER:                  -9.695
REMARK INTRA:                  -1.148
REMARK UNBOUND:                -1.364
ROOT
ATOM      1 C20  BRA L   1       0.351  -2.750 -13.687  1.00  0.00    +0.0423  A
ATOM      2 C21  BRA L   1       0.687  -2.826 -15.037  1.00  0.00    -0.0377  A
ATOM      3 C22  BRA L   1       0.908  -1.659 -15.777  1.00  0.00    -0.0506  A
ATOM      4 C23  BRA L   1       0.794  -0.396 -15.173  1.00  0.00    +0.0004  A
ATOM      5 C24  BRA L   1       0.989   0.801 -15.866  1.00  0.00    +0.0353  A
ATOM      6 N25  BRA L   1       0.880   2.034 -15.316  1.00  0.00    -0.2626 NA
ATOM      7 C26  BRA L   1       0.571   2.081 -14.004  1.00  0.00    +0.0281  A
ATOM      8 C27  BRA L   1       0.357   0.959 -13.219  1.00  0.00    -0.0358  A
ATOM      9 C28  BRA L   1       0.467  -0.307 -13.809  1.00  0.00    -0.0131  A
ATOM     10 C29  BRA L   1       0.252  -1.489 -13.079  1.00  0.00    -0.0305  A
ATOM     11 H50  BRA L   1       0.777  -3.778 -15.551  1.00  0.00    +0.0638  H
ATOM     12 H51  BRA L   1       1.164  -1.746 -16.831  1.00  0.00    +0.0625  H
ATOM     13 H52  BRA L   1       1.244   0.803 -16.923  1.00  0.00    +0.0836  H
ATOM     14 H53  BRA L   1       0.493   3.080 -13.583  1.00  0.00    +0.0830  H
ATOM     15 H54  BRA L   1       0.108   1.078 -12.170  1.00  0.00    +0.0639  H
ATOM     16 H55  BRA L   1      -0.008  -1.417 -12.025  1.00  0.00    +0.0644  H
ENDROOT
BRANCH 1 19
ATOM     17 C17  BRA L   1       0.841  -5.007 -12.689  1.00  0.00    +0.2339  C
ATOM     18 O18  BRA L   1       1.975  -5.189 -13.127  1.00  0.00    -0.2722 OA
ATOM     19 N19  BRA L   1       0.072  -3.868 -12.878  1.00  0.00    -0.3256  N
ATOM     20 H49  BRA L   1      -0.840  -3.864 -12.434  1.00  0.00    +0.1686 HD
BRANCH 17 21
ATOM     21 C14  BRA L   1       0.173  -6.077 -11.800  1.00  0.00    +0.0752  C
ATOM     22 H44  BRA L   1       0.669  -7.031 -12.028  1.00  0.00    +0.0458  H
BRANCH 21 26
ATOM     23 C10  BRA L   1      -4.068  -6.720 -12.489  1.00  0.00    -0.0103  A
ATOM     24 C11  BRA L   1      -3.615  -5.660 -11.696  1.00  0.00    -0.0551  A
ATOM     25 C12  BRA L   1      -2.249  -5.430 -11.537  1.00  0.00    -0.0574  A
ATOM     26 C13  BRA L   1      -1.301  -6.255 -12.169  1.00  0.00    -0.0341  A
ATOM     27 C30  BRA L   1      -1.762  -7.272 -13.015  1.00  0.00    -0.0574  A
ATOM     28 C31  BRA L   1      -3.131  -7.504 -13.169  1.00  0.00    -0.0551  A
ATOM     29 H42  BRA L   1      -4.327  -5.033 -11.161  1.00  0.00    +0.0621  H
ATOM     30 H43  BRA L   1      -1.925  -4.628 -10.875  1.00  0.00    +0.0621  H
ATOM     31 H56  BRA L   1      -1.070  -7.923 -13.544  1.00  0.00    +0.0621  H
ATOM     32 H57  BRA L   1      -3.459  -8.332 -13.796  1.00  0.00    +0.0621  H
BRANCH 23 33
ATOM     33  C9  BRA L   1      -5.539  -7.043 -12.564  1.00  0.00    +0.1179  C
ATOM     34 H40  BRA L   1      -6.136  -6.203 -12.943  1.00  0.00    +0.0749  H
ATOM     35 H41  BRA L   1      -5.911  -7.265 -11.557  1.00  0.00    +0.0749  H
BRANCH 33 36
ATOM     36  O8  BRA L   1      -5.743  -8.212 -13.370  1.00  0.00    -0.4564 OA
BRANCH 36 37
ATOM     37  C6  BRA L   1      -7.007  -8.382 -13.828  1.00  0.00    +0.3398  C
ATOM     38  O7  BRA L   1      -7.435  -8.104 -14.936  1.00  0.00    -0.2449 OA
BRANCH 37 43
ATOM     39  C1  BRA L   1      -9.905 -11.377  -9.820  1.00  0.00    -0.0397  C
ATOM     40  C2  BRA L   1      -9.159 -10.576 -10.847  1.00  0.00    -0.0502  A
ATOM     41  C3  BRA L   1      -8.108 -11.155 -11.564  1.00  0.00    -0.0580  A
ATOM     42  C4  BRA L   1      -7.431 -10.416 -12.533  1.00  0.00    -0.0473  A
ATOM     43  C5  BRA L   1      -7.801  -9.090 -12.800  1.00  0.00    +0.0619  A
ATOM     44 C32  BRA L   1      -8.884  -8.503 -12.121  1.00  0.00    -0.0362  A
ATOM     45 C33  BRA L   1      -9.340  -7.097 -12.390  1.00  0.00    -0.0389  C
ATOM     46 C34  BRA L   1      -9.546  -9.259 -11.139  1.00  0.00    -0.0551  A
ATOM     47 H35  BRA L   1     -10.284 -10.731  -9.022  1.00  0.00    +0.0278  H
ATOM     48 H36  BRA L   1      -9.252 -12.121  -9.353  1.00  0.00    +0.0278  H
ATOM     49 H37  BRA L   1     -10.749 -11.892 -10.289  1.00  0.00    +0.0278  H
ATOM     50 H38  BRA L   1      -7.803 -12.181 -11.365  1.00  0.00    +0.0620  H
ATOM     51 H39  BRA L   1      -6.605 -10.869 -13.074  1.00  0.00    +0.0626  H
ATOM     52 H58  BRA L   1     -10.369  -6.943 -12.048  1.00  0.00    +0.0278  H
ATOM     53 H59  BRA L   1      -9.331  -6.880 -13.464  1.00  0.00    +0.0278  H
ATOM     54 H60  BRA L   1      -8.696  -6.382 -11.868  1.00  0.00    +0.0278  H
ATOM     55 H61  BRA L   1     -10.380  -8.820 -10.593  1.00  0.00    +0.0623  H
ENDBRANCH 37 43
ENDBRANCH 36 37
ENDBRANCH 33 36
ENDBRANCH 23 33
ENDBRANCH 21 26
BRANCH 21 56
ATOM     56 C15  BRA L   1       0.517  -5.715 -10.337  1.00  0.00    +0.0085  C
ATOM     57 N16  BRA L   1       1.029  -4.352 -10.164  1.00  0.00    -0.3289 NA
ATOM     58 H45  BRA L   1      -0.383  -5.819  -9.718  1.00  0.00    +0.0432  H
ATOM     59 H46  BRA L   1       1.253  -6.419  -9.927  1.00  0.00    +0.0432  H
ATOM     60 H47  BRA L   1       1.102  -4.140  -9.169  1.00  0.00    +0.1182 HD
ATOM     61 H48  BRA L   1       0.360  -3.682 -10.547  1.00  0.00    +0.1182 HD
ENDBRANCH 21 56
ENDBRANCH 17 21
ENDBRANCH 1 19
TORSDOF 8
ENDMDL
MODEL 14
REMARK VINA RESULT:    -6.317      2.157      3.007
REMARK INTER + INTRA:         -10.636
REMARK INTER:                  -8.685
REMARK INTRA:                  -1.951
REMARK UNBOUND:                -1.364
ROOT
ATOM      1 C20  BRA L   1       1.294  -6.400 -14.711  1.00  0.00    +0.0423  A
ATOM      2 C21  BRA L   1       1.404  -5.080 -14.282  1.00  0.00    -0.0377  A
ATOM      3 C22  BRA L   1       2.660  -4.532 -13.998  1.00  0.00    -0.0506  A
ATOM      4 C23  BRA L   1       3.826  -5.302 -14.140  1.00  0.00    +0.0004  A
ATOM      5 C24  BRA L   1       5.104  -4.812 -13.857  1.00  0.00    +0.0353  A
ATOM      6 N25  BRA L   1       6.246  -5.529 -13.978  1.00  0.00    -0.2626 NA
ATOM      7 C26  BRA L   1       6.115  -6.800 -14.411  1.00  0.00    +0.0281  A
ATOM      8 C27  BRA L   1       4.900  -7.389 -14.722  1.00  0.00    -0.0358  A
ATOM      9 C28  BRA L   1       3.728  -6.632 -14.584  1.00  0.00    -0.0131  A
ATOM     10 C29  BRA L   1       2.459  -7.166 -14.868  1.00  0.00    -0.0305  A
ATOM     11 H50  BRA L   1       0.532  -4.448 -14.146  1.00  0.00    +0.0638  H
ATOM     12 H51  BRA L   1       2.719  -3.500 -13.659  1.00  0.00    +0.0625  H
ATOM     13 H52  BRA L   1       5.250  -3.792 -13.510  1.00  0.00    +0.0836  H
ATOM     14 H53  BRA L   1       7.044  -7.355 -14.504  1.00  0.00    +0.0830  H
ATOM     15 H54  BRA L   1       4.873  -8.419 -15.062  1.00  0.00    +0.0639  H
ATOM     16 H55  BRA L   1       2.385  -8.198 -15.205  1.00  0.00    +0.0644  H
ENDROOT
BRANCH 1 19
ATOM     17 C17  BRA L   1      -0.678  -7.854 -14.138  1.00  0.00    +0.2339  C
ATOM     18 O18  BRA L   1      -0.446  -8.064 -12.949  1.00  0.00    -0.2722 OA
ATOM     19 N19  BRA L   1       0.071  -7.044 -14.979  1.00  0.00    -0.3256  N
ATOM     20 H49  BRA L   1      -0.263  -6.958 -15.934  1.00  0.00    +0.1686 HD
BRANCH 17 21
ATOM     21 C14  BRA L   1      -1.926  -8.471 -14.805  1.00  0.00    +0.0752  C
ATOM     22 H44  BRA L   1      -2.256  -7.758 -15.575  1.00  0.00    +0.0458  H
BRANCH 21 26
ATOM     23 C10  BRA L   1      -5.427  -8.905 -12.271  1.00  0.00    -0.0103  A
ATOM     24 C11  BRA L   1      -4.795 -10.020 -12.831  1.00  0.00    -0.0551  A
ATOM     25 C12  BRA L   1      -3.635  -9.868 -13.590  1.00  0.00    -0.0574  A
ATOM     26 C13  BRA L   1      -3.077  -8.595 -13.807  1.00  0.00    -0.0341  A
ATOM     27 C30  BRA L   1      -3.677  -7.491 -13.187  1.00  0.00    -0.0574  A
ATOM     28 C31  BRA L   1      -4.843  -7.645 -12.431  1.00  0.00    -0.0551  A
ATOM     29 H42  BRA L   1      -5.229 -11.012 -12.715  1.00  0.00    +0.0621  H
ATOM     30 H43  BRA L   1      -3.192 -10.748 -14.054  1.00  0.00    +0.0621  H
ATOM     31 H56  BRA L   1      -3.273  -6.489 -13.305  1.00  0.00    +0.0621  H
ATOM     32 H57  BRA L   1      -5.313  -6.762 -12.001  1.00  0.00    +0.0621  H
BRANCH 23 33
ATOM     33  C9  BRA L   1      -6.745  -9.055 -11.554  1.00  0.00    +0.1179  C
ATOM     34 H40  BRA L   1      -6.960  -8.210 -10.887  1.00  0.00    +0.0749  H
ATOM     35 H41  BRA L   1      -6.713  -9.953 -10.926  1.00  0.00    +0.0749  H
BRANCH 33 36
ATOM     36  O8  BRA L   1      -7.804  -9.229 -12.507  1.00  0.00    -0.4564 OA
BRANCH 36 37
ATOM     37  C6  BRA L   1      -8.831  -8.353 -12.391  1.00  0.00    +0.3398  C
ATOM     38  O7  BRA L   1      -9.905  -8.541 -11.845  1.00  0.00    -0.2449 OA
BRANCH 37 43
ATOM     39  C1  BRA L   1      -7.230  -3.113 -14.238  1.00  0.00    -0.0397  C
ATOM     40  C2  BRA L   1      -7.626  -4.485 -13.774  1.00  0.00    -0.0502  A
ATOM     41  C3  BRA L   1      -8.195  -4.664 -12.510  1.00  0.00    -0.0580  A
ATOM     42  C4  BRA L   1      -8.583  -5.936 -12.092  1.00  0.00    -0.0473  A
ATOM     43  C5  BRA L   1      -8.411  -7.043 -12.936  1.00  0.00    +0.0619  A
ATOM     44 C32  BRA L   1      -7.882  -6.877 -14.228  1.00  0.00    -0.0362  A
ATOM     45 C33  BRA L   1      -7.705  -8.025 -15.181  1.00  0.00    -0.0389  C
ATOM     46 C34  BRA L   1      -7.485  -5.590 -14.627  1.00  0.00    -0.0551  A
ATOM     47 H35  BRA L   1      -6.381  -3.164 -14.927  1.00  0.00    +0.0278  H
ATOM     48 H36  BRA L   1      -6.925  -2.487 -13.393  1.00  0.00    +0.0278  H
ATOM     49 H37  BRA L   1      -8.071  -2.633 -14.748  1.00  0.00    +0.0278  H
ATOM     50 H38  BRA L   1      -8.329  -3.817 -11.841  1.00  0.00    +0.0620  H
ATOM     51 H39  BRA L   1      -9.009  -6.068 -11.101  1.00  0.00    +0.0626  H
ATOM     52 H58  BRA L   1      -7.624  -7.671 -16.214  1.00  0.00    +0.0278  H
ATOM     53 H59  BRA L   1      -8.567  -8.700 -15.147  1.00  0.00    +0.0278  H
ATOM     54 H60  BRA L   1      -6.795  -8.583 -14.939  1.00  0.00    +0.0278  H
ATOM     55 H61  BRA L   1      -7.061  -5.441 -15.621  1.00  0.00    +0.0623  H
ENDBRANCH 37 43
ENDBRANCH 36 37
ENDBRANCH 33 36
ENDBRANCH 23 33
ENDBRANCH 21 26
BRANCH 21 56
ATOM     56 C15  BRA L   1      -1.453  -9.750 -15.533  1.00  0.00    +0.0085  C
ATOM     57 N16  BRA L   1      -0.127 -10.218 -15.114  1.00  0.00    -0.3289 NA
ATOM     58 H45  BRA L   1      -2.172 -10.558 -15.346  1.00  0.00    +0.0432  H
ATOM     59 H46  BRA L   1      -1.442  -9.596 -16.619  1.00  0.00    +0.0432  H
ATOM     60 H47  BRA L   1       0.056 -11.132 -15.529  1.00  0.00    +0.1182 HD
ATOM     61 H48  BRA L   1      -0.116 -10.361 -14.103  1.00  0.00    +0.1182 HD
ENDBRANCH 21 56
ENDBRANCH 17 21
ENDBRANCH 1 19
TORSDOF 8
ENDMDL
MODEL 15
REMARK VINA RESULT:    -6.241      5.667      9.733
REMARK INTER + INTRA:         -10.525
REMARK INTER:                  -8.977
REMARK INTRA:                  -1.548
REMARK UNBOUND:                -1.364
ROOT
ATOM      1 C20  BRA L   1      -1.018  -6.489 -12.521  1.00  0.00    +0.0423  A
ATOM      2 C21  BRA L   1      -1.701  -6.030 -11.397  1.00  0.00    -0.0377  A
ATOM      3 C22  BRA L   1      -2.881  -6.658 -10.982  1.00  0.00    -0.0506  A
ATOM      4 C23  BRA L   1      -3.394  -7.757 -11.690  1.00  0.00    +0.0004  A
ATOM      5 C24  BRA L   1      -4.574  -8.413 -11.329  1.00  0.00    +0.0353  A
ATOM      6 N25  BRA L   1      -5.099  -9.470 -11.993  1.00  0.00    -0.2626 NA
ATOM      7 C26  BRA L   1      -4.412  -9.906 -13.068  1.00  0.00    +0.0281  A
ATOM      8 C27  BRA L   1      -3.232  -9.334 -13.515  1.00  0.00    -0.0358  A
ATOM      9 C28  BRA L   1      -2.708  -8.236 -12.819  1.00  0.00    -0.0131  A
ATOM     10 C29  BRA L   1      -1.523  -7.596 -13.221  1.00  0.00    -0.0305  A
ATOM     11 H50  BRA L   1      -1.350  -5.178 -10.823  1.00  0.00    +0.0638  H
ATOM     12 H51  BRA L   1      -3.398  -6.277 -10.104  1.00  0.00    +0.0625  H
ATOM     13 H52  BRA L   1      -5.154  -8.093 -10.467  1.00  0.00    +0.0836  H
ATOM     14 H53  BRA L   1      -4.849 -10.758 -13.583  1.00  0.00    +0.0830  H
ATOM     15 H54  BRA L   1      -2.736  -9.739 -14.392  1.00  0.00    +0.0639  H
ATOM     16 H55  BRA L   1      -0.997  -7.965 -14.099  1.00  0.00    +0.0644  H
ENDROOT
BRANCH 1 19
ATOM     17 C17  BRA L   1       1.385  -5.749 -12.416  1.00  0.00    +0.2339  C
ATOM     18 O18  BRA L   1       1.703  -6.224 -11.327  1.00  0.00    -0.2722 OA
ATOM     19 N19  BRA L   1       0.150  -5.895 -13.034  1.00  0.00    -0.3256  N
ATOM     20 H49  BRA L   1       0.050  -5.457 -13.943  1.00  0.00    +0.1686 HD
BRANCH 17 21
ATOM     21 C14  BRA L   1       2.415  -4.957 -13.247  1.00  0.00    +0.0752  C
ATOM     22 H44  BRA L   1       3.219  -4.665 -12.556  1.00  0.00    +0.0458  H
BRANCH 21 26
ATOM     23 C10  BRA L   1       0.346  -1.395 -14.629  1.00  0.00    -0.0103  A
ATOM     24 C11  BRA L   1       0.599  -1.605 -13.269  1.00  0.00    -0.0551  A
ATOM     25 C12  BRA L   1       1.320  -2.722 -12.849  1.00  0.00    -0.0574  A
ATOM     26 C13  BRA L   1       1.808  -3.658 -13.779  1.00  0.00    -0.0341  A
ATOM     27 C30  BRA L   1       1.609  -3.406 -15.143  1.00  0.00    -0.0574  A
ATOM     28 C31  BRA L   1       0.882  -2.289 -15.562  1.00  0.00    -0.0551  A
ATOM     29 H42  BRA L   1       0.196  -0.920 -12.525  1.00  0.00    +0.0621  H
ATOM     30 H43  BRA L   1       1.460  -2.884 -11.781  1.00  0.00    +0.0621  H
ATOM     31 H56  BRA L   1       1.985  -4.086 -15.903  1.00  0.00    +0.0621  H
ATOM     32 H57  BRA L   1       0.703  -2.144 -16.626  1.00  0.00    +0.0621  H
BRANCH 23 33
ATOM     33  C9  BRA L   1      -0.534  -0.255 -15.075  1.00  0.00    +0.1179  C
ATOM     34 H40  BRA L   1      -1.234   0.067 -14.293  1.00  0.00    +0.0749  H
ATOM     35 H41  BRA L   1      -1.141  -0.581 -15.928  1.00  0.00    +0.0749  H
BRANCH 33 36
ATOM     36  O8  BRA L   1       0.276   0.846 -15.514  1.00  0.00    -0.4564 OA
BRANCH 36 37
ATOM     37  C6  BRA L   1       0.408   1.855 -14.618  1.00  0.00    +0.3398  C
ATOM     38  O7  BRA L   1      -0.237   2.025 -13.597  1.00  0.00    -0.2449 OA
BRANCH 37 43
ATOM     39  C1  BRA L   1       5.111   4.856 -16.137  1.00  0.00    -0.0397  C
ATOM     40  C2  BRA L   1       3.875   4.094 -15.757  1.00  0.00    -0.0502  A
ATOM     41  C3  BRA L   1       3.950   2.729 -15.464  1.00  0.00    -0.0580  A
ATOM     42  C4  BRA L   1       2.804   2.030 -15.090  1.00  0.00    -0.0473  A
ATOM     43  C5  BRA L   1       1.569   2.689 -14.999  1.00  0.00    +0.0619  A
ATOM     44 C32  BRA L   1       1.480   4.070 -15.247  1.00  0.00    -0.0362  A
ATOM     45 C33  BRA L   1       0.187   4.828 -15.135  1.00  0.00    -0.0389  C
ATOM     46 C34  BRA L   1       2.643   4.756 -15.635  1.00  0.00    -0.0551  A
ATOM     47 H35  BRA L   1       4.868   5.683 -16.811  1.00  0.00    +0.0278  H
ATOM     48 H36  BRA L   1       5.824   4.209 -16.659  1.00  0.00    +0.0278  H
ATOM     49 H37  BRA L   1       5.591   5.260 -15.240  1.00  0.00    +0.0278  H
ATOM     50 H38  BRA L   1       4.899   2.201 -15.536  1.00  0.00    +0.0620  H
ATOM     51 H39  BRA L   1       2.869   0.965 -14.880  1.00  0.00    +0.0626  H
ATOM     52 H58  BRA L   1       0.369   5.902 -15.014  1.00  0.00    +0.0278  H
ATOM     53 H59  BRA L   1      -0.382   4.506 -14.256  1.00  0.00    +0.0278  H
ATOM     54 H60  BRA L   1      -0.417   4.683 -16.035  1.00  0.00    +0.0278  H
ATOM     55 H61  BRA L   1       2.594   5.824 -15.843  1.00  0.00    +0.0623  H
ENDBRANCH 37 43
ENDBRANCH 36 37
ENDBRANCH 33 36
ENDBRANCH 23 33
ENDBRANCH 21 26
BRANCH 21 56
ATOM     56 C15  BRA L   1       3.019  -5.948 -14.268  1.00  0.00    +0.0085  C
ATOM     57 N16  BRA L   1       2.523  -7.321 -14.130  1.00  0.00    -0.3289 NA
ATOM     58 H45  BRA L   1       2.787  -5.605 -15.284  1.00  0.00    +0.0432  H
ATOM     59 H46  BRA L   1       4.113  -5.962 -14.192  1.00  0.00    +0.0432  H
ATOM     60 H47  BRA L   1       2.855  -7.882 -14.915  1.00  0.00    +0.1182 HD
ATOM     61 H48  BRA L   1       1.504  -7.327 -14.191  1.00  0.00    +0.1182 HD
ENDBRANCH 21 56
ENDBRANCH 17 21
ENDBRANCH 1 19
TORSDOF 8
ENDMDL
MODEL 16
REMARK VINA RESULT:    -6.216      3.768      9.197
REMARK INTER + INTRA:         -10.487
REMARK INTER:                  -9.386
REMARK INTRA:                  -1.101
REMARK UNBOUND:                -1.364
ROOT
ATOM      1 C20  BRA L   1      -5.712  -5.868 -13.225  1.00  0.00    +0.0423  A
ATOM      2 C21  BRA L   1      -5.822  -4.724 -12.438  1.00  0.00    -0.0377  A
ATOM      3 C22  BRA L   1      -6.709  -3.703 -12.796  1.00  0.00    -0.0506  A
ATOM      4 C23  BRA L   1      -7.500  -3.814 -13.951  1.00  0.00    +0.0004  A
ATOM      5 C24  BRA L   1      -8.391  -2.820 -14.363  1.00  0.00    +0.0353  A
ATOM      6 N25  BRA L   1      -9.163  -2.893 -15.474  1.00  0.00    -0.2626 NA
ATOM      7 C26  BRA L   1      -9.051  -4.016 -16.211  1.00  0.00    +0.0281  A
ATOM      8 C27  BRA L   1      -8.202  -5.066 -15.897  1.00  0.00    -0.0358  A
ATOM      9 C28  BRA L   1      -7.406  -4.969 -14.747  1.00  0.00    -0.0131  A
ATOM     10 C29  BRA L   1      -6.513  -5.986 -14.372  1.00  0.00    -0.0305  A
ATOM     11 H50  BRA L   1      -5.225  -4.587 -11.542  1.00  0.00    +0.0638  H
ATOM     12 H51  BRA L   1      -6.772  -2.818 -12.166  1.00  0.00    +0.0625  H
ATOM     13 H52  BRA L   1      -8.513  -1.902 -13.793  1.00  0.00    +0.0836  H
ATOM     14 H53  BRA L   1      -9.682  -4.055 -17.095  1.00  0.00    +0.0830  H
ATOM     15 H54  BRA L   1      -8.164  -5.938 -16.541  1.00  0.00    +0.0639  H
ATOM     16 H55  BRA L   1      -6.437  -6.876 -14.994  1.00  0.00    +0.0644  H
ENDROOT
BRANCH 1 19
ATOM     17 C17  BRA L   1      -4.004  -7.109 -11.856  1.00  0.00    +0.2339  C
ATOM     18 O18  BRA L   1      -4.005  -6.416 -10.841  1.00  0.00    -0.2722 OA
ATOM     19 N19  BRA L   1      -4.818  -6.924 -12.965  1.00  0.00    -0.3256  N
ATOM     20 H49  BRA L   1      -4.710  -7.595 -13.718  1.00  0.00    +0.1686 HD
BRANCH 17 21
ATOM     21 C14  BRA L   1      -3.078  -8.340 -11.955  1.00  0.00    +0.0752  C
ATOM     22 H44  BRA L   1      -2.718  -8.545 -10.936  1.00  0.00    +0.0458  H
BRANCH 21 26
ATOM     23 C10  BRA L   1       0.331  -7.086 -14.337  1.00  0.00    -0.0103  A
ATOM     24 C11  BRA L   1       0.280  -6.844 -12.960  1.00  0.00    -0.0551  A
ATOM     25 C12  BRA L   1      -0.792  -7.309 -12.199  1.00  0.00    -0.0574  A
ATOM     26 C13  BRA L   1      -1.841  -8.030 -12.798  1.00  0.00    -0.0341  A
ATOM     27 C30  BRA L   1      -1.751  -8.326 -14.165  1.00  0.00    -0.0574  A
ATOM     28 C31  BRA L   1      -0.678  -7.855 -14.926  1.00  0.00    -0.0551  A
ATOM     29 H42  BRA L   1       1.057  -6.252 -12.479  1.00  0.00    +0.0621  H
ATOM     30 H43  BRA L   1      -0.828  -7.065 -11.139  1.00  0.00    +0.0621  H
ATOM     31 H56  BRA L   1      -2.524  -8.899 -14.670  1.00  0.00    +0.0621  H
ATOM     32 H57  BRA L   1      -0.658  -8.061 -15.994  1.00  0.00    +0.0621  H
BRANCH 23 33
ATOM     33  C9  BRA L   1       1.426  -6.481 -15.179  1.00  0.00    +0.1179  C
ATOM     34 H40  BRA L   1       1.624  -7.058 -16.091  1.00  0.00    +0.0749  H
ATOM     35 H41  BRA L   1       2.359  -6.471 -14.603  1.00  0.00    +0.0749  H
BRANCH 33 36
ATOM     36  O8  BRA L   1       1.101  -5.121 -15.500  1.00  0.00    -0.4564 OA
BRANCH 36 37
ATOM     37  C6  BRA L   1       2.030  -4.205 -15.131  1.00  0.00    +0.3398  C
ATOM     38  O7  BRA L   1       3.235  -4.369 -15.045  1.00  0.00    -0.2449 OA
BRANCH 37 43
ATOM     39  C1  BRA L   1      -0.546   0.958 -14.752  1.00  0.00    -0.0397  C
ATOM     40  C2  BRA L   1       0.107  -0.392 -14.830  1.00  0.00    -0.0502  A
ATOM     41  C3  BRA L   1       0.648  -0.844 -16.037  1.00  0.00    -0.0580  A
ATOM     42  C4  BRA L   1       1.273  -2.087 -16.100  1.00  0.00    -0.0473  A
ATOM     43  C5  BRA L   1       1.370  -2.892 -14.956  1.00  0.00    +0.0619  A
ATOM     44 C32  BRA L   1       0.871  -2.437 -13.723  1.00  0.00    -0.0362  A
ATOM     45 C33  BRA L   1       0.975  -3.247 -12.461  1.00  0.00    -0.0389  C
ATOM     46 C34  BRA L   1       0.233  -1.186 -13.680  1.00  0.00    -0.0551  A
ATOM     47 H35  BRA L   1      -1.337   0.965 -13.995  1.00  0.00    +0.0278  H
ATOM     48 H36  BRA L   1      -1.008   1.225 -15.708  1.00  0.00    +0.0278  H
ATOM     49 H37  BRA L   1       0.197   1.719 -14.494  1.00  0.00    +0.0278  H
ATOM     50 H38  BRA L   1       0.576  -0.235 -16.936  1.00  0.00    +0.0620  H
ATOM     51 H39  BRA L   1       1.677  -2.438 -17.047  1.00  0.00    +0.0626  H
ATOM     52 H58  BRA L   1       0.865  -2.613 -11.575  1.00  0.00    +0.0278  H
ATOM     53 H59  BRA L   1       1.956  -3.728 -12.383  1.00  0.00    +0.0278  H
ATOM     54 H60  BRA L   1       0.191  -4.010 -12.434  1.00  0.00    +0.0278  H
ATOM     55 H61  BRA L   1      -0.171  -0.820 -12.737  1.00  0.00    +0.0623  H
ENDBRANCH 37 43
ENDBRANCH 36 37
ENDBRANCH 33 36
ENDBRANCH 23 33
ENDBRANCH 21 26
BRANCH 21 56
ATOM     56 C15  BRA L   1      -3.968  -9.531 -12.379  1.00  0.00    +0.0085  C
ATOM     57 N16  BRA L   1      -3.518 -10.826 -11.857  1.00  0.00    -0.3289 NA
ATOM     58 H45  BRA L   1      -4.992  -9.361 -12.024  1.00  0.00    +0.0432  H
ATOM     59 H46  BRA L   1      -4.030  -9.597 -13.472  1.00  0.00    +0.0432  H
ATOM     60 H47  BRA L   1      -4.223 -11.536 -12.059  1.00  0.00    +0.1182 HD
ATOM     61 H48  BRA L   1      -3.447 -10.781 -10.840  1.00  0.00    +0.1182 HD
ENDBRANCH 21 56
ENDBRANCH 17 21
ENDBRANCH 1 19
TORSDOF 8
ENDMDL
MODEL 17
REMARK VINA RESULT:    -6.200      2.601      4.373
REMARK INTER + INTRA:         -10.465
REMARK INTER:                  -8.476
REMARK INTRA:                  -1.988
REMARK UNBOUND:                -1.364
ROOT
ATOM      1 C20  BRA L   1       1.333  -5.622 -13.254  1.00  0.00    +0.0423  A
ATOM      2 C21  BRA L   1       1.248  -5.146 -14.560  1.00  0.00    -0.0377  A
ATOM      3 C22  BRA L   1       2.401  -5.021 -15.343  1.00  0.00    -0.0506  A
ATOM      4 C23  BRA L   1       3.659  -5.373 -14.827  1.00  0.00    +0.0004  A
ATOM      5 C24  BRA L   1       4.844  -5.256 -15.557  1.00  0.00    +0.0353  A
ATOM      6 N25  BRA L   1       6.072  -5.580 -15.087  1.00  0.00    -0.2626 NA
ATOM      7 C26  BRA L   1       6.127  -6.054 -13.826  1.00  0.00    +0.0281  A
ATOM      8 C27  BRA L   1       5.017  -6.213 -13.011  1.00  0.00    -0.0358  A
ATOM      9 C28  BRA L   1       3.756  -5.866 -13.513  1.00  0.00    -0.0131  A
ATOM     10 C29  BRA L   1       2.588  -5.987 -12.741  1.00  0.00    -0.0305  A
ATOM     11 H50  BRA L   1       0.301  -4.852 -15.001  1.00  0.00    +0.0638  H
ATOM     12 H51  BRA L   1       2.308  -4.642 -16.359  1.00  0.00    +0.0625  H
ATOM     13 H52  BRA L   1       4.840  -4.882 -16.578  1.00  0.00    +0.0836  H
ATOM     14 H53  BRA L   1       7.121  -6.311 -13.471  1.00  0.00    +0.0830  H
ATOM     15 H54  BRA L   1       5.141  -6.598 -12.004  1.00  0.00    +0.0639  H
ATOM     16 H55  BRA L   1       2.666  -6.363 -11.723  1.00  0.00    +0.0644  H
ENDROOT
BRANCH 1 19
ATOM     17 C17  BRA L   1      -1.003  -6.320 -12.631  1.00  0.00    +0.2339  C
ATOM     18 O18  BRA L   1      -1.315  -6.938 -13.647  1.00  0.00    -0.2722 OA
ATOM     19 N19  BRA L   1       0.234  -5.741 -12.383  1.00  0.00    -0.3256  N
ATOM     20 H49  BRA L   1       0.341  -5.280 -11.485  1.00  0.00    +0.1686 HD
BRANCH 17 21
ATOM     21 C14  BRA L   1      -2.006  -6.183 -11.467  1.00  0.00    +0.0752  C
ATOM     22 H44  BRA L   1      -1.477  -6.500 -10.556  1.00  0.00    +0.0458  H
BRANCH 21 26
ATOM     23 C10  BRA L   1      -5.153  -9.072 -12.259  1.00  0.00    -0.0103  A
ATOM     24 C11  BRA L   1      -3.950  -9.457 -11.658  1.00  0.00    -0.0551  A
ATOM     25 C12  BRA L   1      -2.976  -8.506 -11.353  1.00  0.00    -0.0574  A
ATOM     26 C13  BRA L   1      -3.182  -7.145 -11.641  1.00  0.00    -0.0341  A
ATOM     27 C30  BRA L   1      -4.416  -6.758 -12.181  1.00  0.00    -0.0574  A
ATOM     28 C31  BRA L   1      -5.389  -7.712 -12.490  1.00  0.00    -0.0551  A
ATOM     29 H42  BRA L   1      -3.747 -10.509 -11.464  1.00  0.00    +0.0621  H
ATOM     30 H43  BRA L   1      -2.030  -8.842 -10.929  1.00  0.00    +0.0621  H
ATOM     31 H56  BRA L   1      -4.633  -5.716 -12.401  1.00  0.00    +0.0621  H
ATOM     32 H57  BRA L   1      -6.319  -7.387 -12.952  1.00  0.00    +0.0621  H
BRANCH 23 33
ATOM     33  C9  BRA L   1      -6.154 -10.111 -12.698  1.00  0.00    +0.1179  C
ATOM     34 H40  BRA L   1      -7.013 -10.182 -12.018  1.00  0.00    +0.0749  H
ATOM     35 H41  BRA L   1      -5.672 -11.095 -12.704  1.00  0.00    +0.0749  H
BRANCH 33 36
ATOM     36  O8  BRA L   1      -6.590  -9.833 -14.037  1.00  0.00    -0.4564 OA
BRANCH 36 37
ATOM     37  C6  BRA L   1      -6.149 -10.704 -14.977  1.00  0.00    +0.3398  C
ATOM     38  O7  BRA L   1      -6.822 -11.458 -15.660  1.00  0.00    -0.2449 OA
BRANCH 37 43
ATOM     39  C1  BRA L   1      -0.414 -10.289 -15.590  1.00  0.00    -0.0397  C
ATOM     40  C2  BRA L   1      -1.906 -10.381 -15.453  1.00  0.00    -0.0502  A
ATOM     41  C3  BRA L   1      -2.491 -11.496 -14.845  1.00  0.00    -0.0580  A
ATOM     42  C4  BRA L   1      -3.875 -11.568 -14.699  1.00  0.00    -0.0473  A
ATOM     43  C5  BRA L   1      -4.691 -10.523 -15.156  1.00  0.00    +0.0619  A
ATOM     44 C32  BRA L   1      -4.121  -9.374 -15.731  1.00  0.00    -0.0362  A
ATOM     45 C33  BRA L   1      -4.948  -8.214 -16.209  1.00  0.00    -0.0389  C
ATOM     46 C34  BRA L   1      -2.725  -9.324 -15.881  1.00  0.00    -0.0551  A
ATOM     47 H35  BRA L   1      -0.139  -9.712 -16.479  1.00  0.00    +0.0278  H
ATOM     48 H36  BRA L   1       0.031 -11.283 -15.698  1.00  0.00    +0.0278  H
ATOM     49 H37  BRA L   1       0.013  -9.804 -14.707  1.00  0.00    +0.0278  H
ATOM     50 H38  BRA L   1      -1.872 -12.318 -14.491  1.00  0.00    +0.0620  H
ATOM     51 H39  BRA L   1      -4.321 -12.446 -14.240  1.00  0.00    +0.0626  H
ATOM     52 H58  BRA L   1      -4.344  -7.304 -16.289  1.00  0.00    +0.0278  H
ATOM     53 H59  BRA L   1      -5.757  -7.992 -15.505  1.00  0.00    +0.0278  H
ATOM     54 H60  BRA L   1      -5.371  -8.431 -17.195  1.00  0.00    +0.0278  H
ATOM     55 H61  BRA L   1      -2.263  -8.447 -16.335  1.00  0.00    +0.0623  H
ENDBRANCH 37 43
ENDBRANCH 36 37
ENDBRANCH 33 36
ENDBRANCH 23 33
ENDBRANCH 21 26
BRANCH 21 56
ATOM     56 C15  BRA L   1      -2.315  -4.676 -11.322  1.00  0.00    +0.0085  C
ATOM     57 N16  BRA L   1      -1.483  -3.990 -10.328  1.00  0.00    -0.3289 NA
ATOM     58 H45  BRA L   1      -2.162  -4.182 -12.290  1.00  0.00    +0.0432  H
ATOM     59 H46  BRA L   1      -3.370  -4.520 -11.063  1.00  0.00    +0.0432  H
ATOM     60 H47  BRA L   1      -1.645  -2.984 -10.386  1.00  0.00    +0.1182 HD
ATOM     61 H48  BRA L   1      -0.496  -4.130 -10.549  1.00  0.00    +0.1182 HD
ENDBRANCH 21 56
ENDBRANCH 17 21
ENDBRANCH 1 19
TORSDOF 8
ENDMDL
MODEL 18
REMARK VINA RESULT:    -6.170      3.665      9.272
REMARK INTER + INTRA:         -10.419
REMARK INTER:                  -8.583
REMARK INTRA:                  -1.836
REMARK UNBOUND:                -1.364
ROOT
ATOM      1 C20  BRA L   1      -6.596  -7.441 -13.078  1.00  0.00    +0.0423  A
ATOM      2 C21  BRA L   1      -7.934  -7.756 -12.848  1.00  0.00    -0.0377  A
ATOM      3 C22  BRA L   1      -8.897  -6.744 -12.787  1.00  0.00    -0.0506  A
ATOM      4 C23  BRA L   1      -8.534  -5.398 -12.955  1.00  0.00    +0.0004  A
ATOM      5 C24  BRA L   1      -9.450  -4.345 -12.889  1.00  0.00    +0.0353  A
ATOM      6 N25  BRA L   1      -9.131  -3.038 -13.040  1.00  0.00    -0.2626 NA
ATOM      7 C26  BRA L   1      -7.833  -2.759 -13.278  1.00  0.00    +0.0281  A
ATOM      8 C27  BRA L   1      -6.839  -3.722 -13.364  1.00  0.00    -0.0358  A
ATOM      9 C28  BRA L   1      -7.188  -5.069 -13.198  1.00  0.00    -0.0131  A
ATOM     10 C29  BRA L   1      -6.234  -6.098 -13.260  1.00  0.00    -0.0305  A
ATOM     11 H50  BRA L   1      -8.263  -8.781 -12.702  1.00  0.00    +0.0638  H
ATOM     12 H51  BRA L   1      -9.935  -7.016 -12.602  1.00  0.00    +0.0625  H
ATOM     13 H52  BRA L   1     -10.506  -4.530 -12.705  1.00  0.00    +0.0836  H
ATOM     14 H53  BRA L   1      -7.601  -1.705 -13.400  1.00  0.00    +0.0830  H
ATOM     15 H54  BRA L   1      -5.815  -3.420 -13.555  1.00  0.00    +0.0639  H
ATOM     16 H55  BRA L   1      -5.192  -5.840 -13.442  1.00  0.00    +0.0644  H
ENDROOT
BRANCH 1 19
ATOM     17 C17  BRA L   1      -5.047  -9.150 -12.071  1.00  0.00    +0.2339  C
ATOM     18 O18  BRA L   1      -5.503  -9.201 -10.930  1.00  0.00    -0.2722 OA
ATOM     19 N19  BRA L   1      -5.556  -8.390 -13.114  1.00  0.00    -0.3256  N
ATOM     20 H49  BRA L   1      -5.076  -8.471 -14.004  1.00  0.00    +0.1686 HD
BRANCH 17 21
ATOM     21 C14  BRA L   1      -3.835 -10.022 -12.461  1.00  0.00    +0.0752  C
ATOM     22 H44  BRA L   1      -3.327 -10.290 -11.523  1.00  0.00    +0.0458  H
BRANCH 21 26
ATOM     23 C10  BRA L   1      -0.724  -8.044 -14.758  1.00  0.00    -0.0103  A
ATOM     24 C11  BRA L   1      -1.436  -9.127 -15.284  1.00  0.00    -0.0551  A
ATOM     25 C12  BRA L   1      -2.475  -9.709 -14.558  1.00  0.00    -0.0574  A
ATOM     26 C13  BRA L   1      -2.828  -9.222 -13.287  1.00  0.00    -0.0341  A
ATOM     27 C30  BRA L   1      -2.154  -8.096 -12.795  1.00  0.00    -0.0574  A
ATOM     28 C31  BRA L   1      -1.111  -7.516 -13.522  1.00  0.00    -0.0551  A
ATOM     29 H42  BRA L   1      -1.156  -9.551 -16.247  1.00  0.00    +0.0621  H
ATOM     30 H43  BRA L   1      -2.980 -10.581 -14.973  1.00  0.00    +0.0621  H
ATOM     31 H56  BRA L   1      -2.404  -7.667 -11.828  1.00  0.00    +0.0621  H
ATOM     32 H57  BRA L   1      -0.575  -6.672 -13.093  1.00  0.00    +0.0621  H
BRANCH 23 33
ATOM     33  C9  BRA L   1       0.476  -7.492 -15.487  1.00  0.00    +0.1179  C
ATOM     34 H40  BRA L   1       0.575  -7.900 -16.501  1.00  0.00    +0.0749  H
ATOM     35 H41  BRA L   1       1.386  -7.769 -14.944  1.00  0.00    +0.0749  H
BRANCH 33 36
ATOM     36  O8  BRA L   1       0.410  -6.059 -15.522  1.00  0.00    -0.4564 OA
BRANCH 36 37
ATOM     37  C6  BRA L   1       1.568  -5.423 -15.221  1.00  0.00    +0.3398  C
ATOM     38  O7  BRA L   1       2.701  -5.782 -15.497  1.00  0.00    -0.2449 OA
BRANCH 37 43
ATOM     39  C1  BRA L   1       0.271  -0.227 -13.041  1.00  0.00    -0.0397  C
ATOM     40  C2  BRA L   1       0.597  -1.588 -13.585  1.00  0.00    -0.0502  A
ATOM     41  C3  BRA L   1       0.696  -1.790 -14.964  1.00  0.00    -0.0580  A
ATOM     42  C4  BRA L   1       1.021  -3.049 -15.465  1.00  0.00    -0.0473  A
ATOM     43  C5  BRA L   1       1.255  -4.121 -14.592  1.00  0.00    +0.0619  A
ATOM     44 C32  BRA L   1       1.203  -3.929 -13.200  1.00  0.00    -0.0362  A
ATOM     45 C33  BRA L   1       1.474  -5.036 -12.221  1.00  0.00    -0.0389  C
ATOM     46 C34  BRA L   1       0.862  -2.655 -12.713  1.00  0.00    -0.0551  A
ATOM     47 H35  BRA L   1      -0.273  -0.305 -12.094  1.00  0.00    +0.0278  H
ATOM     48 H36  BRA L   1      -0.365   0.330 -13.736  1.00  0.00    +0.0278  H
ATOM     49 H37  BRA L   1       1.193   0.339 -12.874  1.00  0.00    +0.0278  H
ATOM     50 H38  BRA L   1       0.511  -0.971 -15.656  1.00  0.00    +0.0620  H
ATOM     51 H39  BRA L   1       1.079  -3.201 -16.540  1.00  0.00    +0.0626  H
ATOM     52 H58  BRA L   1       1.732  -4.636 -11.234  1.00  0.00    +0.0278  H
ATOM     53 H59  BRA L   1       2.324  -5.646 -12.544  1.00  0.00    +0.0278  H
ATOM     54 H60  BRA L   1       0.589  -5.671 -12.111  1.00  0.00    +0.0278  H
ATOM     55 H61  BRA L   1       0.805  -2.487 -11.638  1.00  0.00    +0.0623  H
ENDBRANCH 37 43
ENDBRANCH 36 37
ENDBRANCH 33 36
ENDBRANCH 23 33
ENDBRANCH 21 26
BRANCH 21 56
ATOM     56 C15  BRA L   1      -4.403 -11.325 -13.068  1.00  0.00    +0.0085  C
ATOM     57 N16  BRA L   1      -5.865 -11.428 -12.997  1.00  0.00    -0.3289 NA
ATOM     58 H45  BRA L   1      -4.111 -11.387 -14.124  1.00  0.00    +0.0432  H
ATOM     59 H46  BRA L   1      -3.966 -12.203 -12.577  1.00  0.00    +0.0432  H
ATOM     60 H47  BRA L   1      -6.174 -12.238 -13.535  1.00  0.00    +0.1182 HD
ATOM     61 H48  BRA L   1      -6.290 -10.614 -13.443  1.00  0.00    +0.1182 HD
ENDBRANCH 21 56
ENDBRANCH 17 21
ENDBRANCH 1 19
TORSDOF 8
ENDMDL
MODEL 19
REMARK VINA RESULT:    -6.051      3.904      6.134
REMARK INTER + INTRA:         -10.246
REMARK INTER:                  -9.052
REMARK INTRA:                  -1.193
REMARK UNBOUND:                -1.364
ROOT
ATOM      1 C20  BRA L   1       0.843  -2.769 -13.931  1.00  0.00    +0.0423  A
ATOM      2 C21  BRA L   1       0.904  -2.077 -12.724  1.00  0.00    -0.0377  A
ATOM      3 C22  BRA L   1       0.594  -0.714 -12.673  1.00  0.00    -0.0506  A
ATOM      4 C23  BRA L   1       0.217  -0.022 -13.836  1.00  0.00    +0.0004  A
ATOM      5 C24  BRA L   1      -0.090   1.341 -13.848  1.00  0.00    +0.0353  A
ATOM      6 N25  BRA L   1      -0.451   2.038 -14.952  1.00  0.00    -0.2626 NA
ATOM      7 C26  BRA L   1      -0.519   1.343 -16.105  1.00  0.00    +0.0281  A
ATOM      8 C27  BRA L   1      -0.238  -0.010 -16.211  1.00  0.00    -0.0358  A
ATOM      9 C28  BRA L   1       0.140  -0.712 -15.059  1.00  0.00    -0.0131  A
ATOM     10 C29  BRA L   1       0.452  -2.082 -15.091  1.00  0.00    -0.0305  A
ATOM     11 H50  BRA L   1       1.200  -2.565 -11.800  1.00  0.00    +0.0638  H
ATOM     12 H51  BRA L   1       0.655  -0.196 -11.718  1.00  0.00    +0.0625  H
ATOM     13 H52  BRA L   1      -0.051   1.933 -12.937  1.00  0.00    +0.0836  H
ATOM     14 H53  BRA L   1      -0.814   1.921 -16.977  1.00  0.00    +0.0830  H
ATOM     15 H54  BRA L   1      -0.312  -0.500 -17.176  1.00  0.00    +0.0639  H
ATOM     16 H55  BRA L   1       0.398  -2.613 -16.040  1.00  0.00    +0.0644  H
ENDROOT
BRANCH 1 19
ATOM     17 C17  BRA L   1       2.281  -4.678 -14.717  1.00  0.00    +0.2339  C
ATOM     18 O18  BRA L   1       3.233  -4.050 -15.176  1.00  0.00    -0.2722 OA
ATOM     19 N19  BRA L   1       1.177  -4.128 -14.081  1.00  0.00    -0.3256  N
ATOM     20 H49  BRA L   1       0.483  -4.785 -13.740  1.00  0.00    +0.1686 HD
BRANCH 17 21
ATOM     21 C14  BRA L   1       2.272  -6.220 -14.771  1.00  0.00    +0.0752  C
ATOM     22 H44  BRA L   1       2.526  -6.500 -15.804  1.00  0.00    +0.0458  H
BRANCH 21 26
ATOM     23 C10  BRA L   1      -1.541  -8.119 -13.918  1.00  0.00    -0.0103  A
ATOM     24 C11  BRA L   1      -0.682  -7.721 -12.887  1.00  0.00    -0.0551  A
ATOM     25 C12  BRA L   1       0.509  -7.056 -13.177  1.00  0.00    -0.0574  A
ATOM     26 C13  BRA L   1       0.870  -6.770 -14.506  1.00  0.00    -0.0341  A
ATOM     27 C30  BRA L   1      -0.026  -7.111 -15.527  1.00  0.00    -0.0574  A
ATOM     28 C31  BRA L   1      -1.217  -7.782 -15.236  1.00  0.00    -0.0551  A
ATOM     29 H42  BRA L   1      -0.917  -7.968 -11.853  1.00  0.00    +0.0621  H
ATOM     30 H43  BRA L   1       1.180  -6.802 -12.357  1.00  0.00    +0.0621  H
ATOM     31 H56  BRA L   1       0.196  -6.893 -16.569  1.00  0.00    +0.0621  H
ATOM     32 H57  BRA L   1      -1.871  -8.076 -16.054  1.00  0.00    +0.0621  H
BRANCH 23 33
ATOM     33  C9  BRA L   1      -2.768  -8.943 -13.615  1.00  0.00    +0.1179  C
ATOM     34 H40  BRA L   1      -2.730  -9.938 -14.075  1.00  0.00    +0.0749  H
ATOM     35 H41  BRA L   1      -3.650  -8.438 -14.025  1.00  0.00    +0.0749  H
BRANCH 33 36
ATOM     36  O8  BRA L   1      -2.947  -9.047 -12.195  1.00  0.00    -0.4564 OA
BRANCH 36 37
ATOM     37  C6  BRA L   1      -3.874  -8.208 -11.670  1.00  0.00    +0.3398  C
ATOM     38  O7  BRA L   1      -3.713  -7.047 -11.335  1.00  0.00    -0.2449 OA
BRANCH 37 43
ATOM     39  C1  BRA L   1      -8.926 -11.009 -11.424  1.00  0.00    -0.0397  C
ATOM     40  C2  BRA L   1      -7.628 -10.259 -11.494  1.00  0.00    -0.0502  A
ATOM     41  C3  BRA L   1      -6.534 -10.670 -10.727  1.00  0.00    -0.0580  A
ATOM     42  C4  BRA L   1      -5.324  -9.985 -10.812  1.00  0.00    -0.0473  A
ATOM     43  C5  BRA L   1      -5.190  -8.883 -11.669  1.00  0.00    +0.0619  A
ATOM     44 C32  BRA L   1      -6.265  -8.480 -12.482  1.00  0.00    -0.0362  A
ATOM     45 C33  BRA L   1      -6.166  -7.326 -13.438  1.00  0.00    -0.0389  C
ATOM     46 C34  BRA L   1      -7.482  -9.175 -12.374  1.00  0.00    -0.0551  A
ATOM     47 H35  BRA L   1      -9.773 -10.341 -11.611  1.00  0.00    +0.0278  H
ATOM     48 H36  BRA L   1      -9.071 -11.448 -10.431  1.00  0.00    +0.0278  H
ATOM     49 H37  BRA L   1      -8.936 -11.811 -12.169  1.00  0.00    +0.0278  H
ATOM     50 H38  BRA L   1      -6.622 -11.519 -10.052  1.00  0.00    +0.0620  H
ATOM     51 H39  BRA L   1      -4.483 -10.302 -10.199  1.00  0.00    +0.0626  H
ATOM     52 H58  BRA L   1      -6.942  -7.384 -14.209  1.00  0.00    +0.0278  H
ATOM     53 H59  BRA L   1      -5.203  -7.331 -13.961  1.00  0.00    +0.0278  H
ATOM     54 H60  BRA L   1      -6.287  -6.378 -12.903  1.00  0.00    +0.0278  H
ATOM     55 H61  BRA L   1      -8.331  -8.872 -12.986  1.00  0.00    +0.0623  H
ENDBRANCH 37 43
ENDBRANCH 36 37
ENDBRANCH 33 36
ENDBRANCH 23 33
ENDBRANCH 21 26
BRANCH 21 56
ATOM     56 C15  BRA L   1       3.427  -6.703 -13.863  1.00  0.00    +0.0085  C
ATOM     57 N16  BRA L   1       3.827  -5.730 -12.841  1.00  0.00    -0.3289 NA
ATOM     58 H45  BRA L   1       3.122  -7.625 -13.352  1.00  0.00    +0.0432  H
ATOM     59 H46  BRA L   1       4.308  -6.963 -14.463  1.00  0.00    +0.0432  H
ATOM     60 H47  BRA L   1       4.490  -6.167 -12.199  1.00  0.00    +0.1182 HD
ATOM     61 H48  BRA L   1       3.017  -5.471 -12.277  1.00  0.00    +0.1182 HD
ENDBRANCH 21 56
ENDBRANCH 17 21
ENDBRANCH 1 19
TORSDOF 8
ENDMDL
MODEL 20
REMARK VINA RESULT:    -5.945      1.942      3.736
REMARK INTER + INTRA:         -10.090
REMARK INTER:                  -9.543
REMARK INTRA:                  -0.547
REMARK UNBOUND:                -1.364
ROOT
ATOM      1 C20  BRA L   1       1.143  -6.351 -12.416  1.00  0.00    +0.0423  A
ATOM      2 C21  BRA L   1       1.693  -7.623 -12.276  1.00  0.00    -0.0377  A
ATOM      3 C22  BRA L   1       2.921  -7.931 -12.870  1.00  0.00    -0.0506  A
ATOM      4 C23  BRA L   1       3.618  -6.967 -13.616  1.00  0.00    +0.0004  A
ATOM      5 C24  BRA L   1       4.840  -7.223 -14.244  1.00  0.00    +0.0353  A
ATOM      6 N25  BRA L   1       5.533  -6.318 -14.975  1.00  0.00    -0.2626 NA
ATOM      7 C26  BRA L   1       4.989  -5.089 -15.082  1.00  0.00    +0.0281  A
ATOM      8 C27  BRA L   1       3.784  -4.723 -14.502  1.00  0.00    -0.0358  A
ATOM      9 C28  BRA L   1       3.078  -5.676 -13.755  1.00  0.00    -0.0131  A
ATOM     10 C29  BRA L   1       1.845  -5.382 -13.149  1.00  0.00    -0.0305  A
ATOM     11 H50  BRA L   1       1.188  -8.406 -11.718  1.00  0.00    +0.0638  H
ATOM     12 H51  BRA L   1       3.326  -8.934 -12.750  1.00  0.00    +0.0625  H
ATOM     13 H52  BRA L   1       5.312  -8.200 -14.176  1.00  0.00    +0.0836  H
ATOM     14 H53  BRA L   1       5.564  -4.378 -15.669  1.00  0.00    +0.0830  H
ATOM     15 H54  BRA L   1       3.408  -3.714 -14.635  1.00  0.00    +0.0639  H
ATOM     16 H55  BRA L   1       1.426  -4.384 -13.263  1.00  0.00    +0.0644  H
ENDROOT
BRANCH 1 19
ATOM     17 C17  BRA L   1      -1.328  -6.609 -12.013  1.00  0.00    +0.2339  C
ATOM     18 O18  BRA L   1      -1.512  -7.708 -12.532  1.00  0.00    -0.2722 OA
ATOM     19 N19  BRA L   1      -0.104  -5.966 -11.888  1.00  0.00    -0.3256  N
ATOM     20 H49  BRA L   1      -0.115  -5.068 -11.416  1.00  0.00    +0.1686 HD
BRANCH 17 21
ATOM     21 C14  BRA L   1      -2.508  -5.844 -11.378  1.00  0.00    +0.0752  C
ATOM     22 H44  BRA L   1      -2.583  -6.189 -10.337  1.00  0.00    +0.0458  H
BRANCH 21 26
ATOM     23 C10  BRA L   1      -6.068  -6.889 -13.637  1.00  0.00    -0.0103  A
ATOM     24 C11  BRA L   1      -5.053  -7.824 -13.410  1.00  0.00    -0.0551  A
ATOM     25 C12  BRA L   1      -3.946  -7.491 -12.630  1.00  0.00    -0.0574  A
ATOM     26 C13  BRA L   1      -3.828  -6.213 -12.054  1.00  0.00    -0.0341  A
ATOM     27 C30  BRA L   1      -4.880  -5.304 -12.230  1.00  0.00    -0.0574  A
ATOM     28 C31  BRA L   1      -5.986  -5.638 -13.017  1.00  0.00    -0.0551  A
ATOM     29 H42  BRA L   1      -5.098  -8.806 -13.879  1.00  0.00    +0.0621  H
ATOM     30 H43  BRA L   1      -3.149  -8.223 -12.510  1.00  0.00    +0.0621  H
ATOM     31 H56  BRA L   1      -4.848  -4.312 -11.788  1.00  0.00    +0.0621  H
ATOM     32 H57  BRA L   1      -6.766  -4.895 -13.174  1.00  0.00    +0.0621  H
BRANCH 23 33
ATOM     33  C9  BRA L   1      -7.203  -7.207 -14.578  1.00  0.00    +0.1179  C
ATOM     34 H40  BRA L   1      -6.946  -7.996 -15.296  1.00  0.00    +0.0749  H
ATOM     35 H41  BRA L   1      -7.446  -6.313 -15.164  1.00  0.00    +0.0749  H
BRANCH 33 36
ATOM     36  O8  BRA L   1      -8.373  -7.565 -13.829  1.00  0.00    -0.4564 OA
BRANCH 36 37
ATOM     37  C6  BRA L   1      -8.749  -8.863 -13.937  1.00  0.00    +0.3398  C
ATOM     38  O7  BRA L   1      -9.470  -9.355 -14.789  1.00  0.00    -0.2449 OA
BRANCH 37 43
ATOM     39  C1  BRA L   1      -6.173 -11.850  -9.709  1.00  0.00    -0.0397  C
ATOM     40  C2  BRA L   1      -6.839 -11.096 -10.823  1.00  0.00    -0.0502  A
ATOM     41  C3  BRA L   1      -7.765 -10.089 -10.538  1.00  0.00    -0.0580  A
ATOM     42  C4  BRA L   1      -8.365  -9.376 -11.574  1.00  0.00    -0.0473  A
ATOM     43  C5  BRA L   1      -8.041  -9.658 -12.909  1.00  0.00    +0.0619  A
ATOM     44 C32  BRA L   1      -7.080 -10.637 -13.216  1.00  0.00    -0.0362  A
ATOM     45 C33  BRA L   1      -6.676 -10.957 -14.628  1.00  0.00    -0.0389  C
ATOM     46 C34  BRA L   1      -6.495 -11.354 -12.159  1.00  0.00    -0.0551  A
ATOM     47 H35  BRA L   1      -5.927 -12.870 -10.021  1.00  0.00    +0.0278  H
ATOM     48 H36  BRA L   1      -6.833 -11.927  -8.839  1.00  0.00    +0.0278  H
ATOM     49 H37  BRA L   1      -5.252 -11.339  -9.410  1.00  0.00    +0.0278  H
ATOM     50 H38  BRA L   1      -8.033  -9.862  -9.507  1.00  0.00    +0.0620  H
ATOM     51 H39  BRA L   1      -9.096  -8.606 -11.342  1.00  0.00    +0.0626  H
ATOM     52 H58  BRA L   1      -5.704 -11.461 -14.655  1.00  0.00    +0.0278  H
ATOM     53 H59  BRA L   1      -6.572 -10.043 -15.223  1.00  0.00    +0.0278  H
ATOM     54 H60  BRA L   1      -7.415 -11.615 -15.094  1.00  0.00    +0.0278  H
ATOM     55 H61  BRA L   1      -5.756 -12.125 -12.376  1.00  0.00    +0.0623  H
ENDBRANCH 37 43
ENDBRANCH 36 37
ENDBRANCH 33 36
ENDBRANCH 23 33
ENDBRANCH 21 26
BRANCH 21 56
ATOM     56 C15  BRA L   1      -2.101  -4.352 -11.342  1.00  0.00    +0.0085  C
ATOM     57 N16  BRA L   1      -1.305  -3.980 -10.168  1.00  0.00    -0.3289 NA
ATOM     58 H45  BRA L   1      -1.513  -4.117 -12.238  1.00  0.00    +0.0432  H
ATOM     59 H46  BRA L   1      -2.989  -3.709 -11.380  1.00  0.00    +0.0432  H
ATOM     60 H47  BRA L   1      -0.960  -3.027 -10.280  1.00  0.00    +0.1182 HD
ATOM     61 H48  BRA L   1      -0.477  -4.575 -10.111  1.00  0.00    +0.1182 HD
ENDBRANCH 21 56
ENDBRANCH 17 21
ENDBRANCH 1 19
TORSDOF 8
ENDMDL
