MODEL 1
REMARK VINA RESULT:    -7.939      0.000      0.000
REMARK INTER + INTRA:         -13.057
REMARK INTER:                 -11.653
REMARK INTRA:                  -1.404
REMARK UNBOUND:                -1.404
ROOT
ATOM      1 C19  DES L   1       1.849  -5.560 -12.534  1.00  0.00    +0.0423  A
ATOM      2 C20  DES L   1       1.983  -4.515 -13.447  1.00  0.00    -0.0377  A
ATOM      3 C21  DES L   1       3.179  -4.337 -14.151  1.00  0.00    -0.0506  A
ATOM      4 C22  DES L   1       4.263  -5.208 -13.949  1.00  0.00    +0.0004  A
ATOM      5 C23  DES L   1       5.479  -5.077 -14.623  1.00  0.00    +0.0353  A
ATOM      6 N24  DES L   1       6.543  -5.897 -14.453  1.00  0.00    -0.2626 NA
ATOM      7 C25  DES L   1       6.392  -6.901 -13.567  1.00  0.00    +0.0281  A
ATOM      8 C26  DES L   1       5.231  -7.125 -12.843  1.00  0.00    -0.0358  A
ATOM      9 C27  DES L   1       4.141  -6.266 -13.031  1.00  0.00    -0.0131  A
ATOM     10 C28  DES L   1       2.931  -6.431 -12.333  1.00  0.00    -0.0305  A
ATOM     11 H47  DES L   1       1.173  -3.818 -13.640  1.00  0.00    +0.0638  H
ATOM     12 H48  DES L   1       3.255  -3.515 -14.857  1.00  0.00    +0.0625  H
ATOM     13 H49  DES L   1       5.639  -4.280 -15.346  1.00  0.00    +0.0836  H
ATOM     14 H50  DES L   1       7.258  -7.546 -13.447  1.00  0.00    +0.0830  H
ATOM     15 H51  DES L   1       5.184  -7.956 -12.146  1.00  0.00    +0.0639  H
ATOM     16 H52  DES L   1       2.836  -7.250 -11.622  1.00  0.00    +0.0644  H
ENDROOT
BRANCH 1 19
ATOM     17 C16  DES L   1      -0.520  -6.339 -12.225  1.00  0.00    +0.2339  C
ATOM     18 O17  DES L   1      -0.775  -6.688 -13.377  1.00  0.00    -0.2722 OA
ATOM     19 N18  DES L   1       0.682  -5.810 -11.789  1.00  0.00    -0.3256  N
ATOM     20 H46  DES L   1       0.711  -5.567 -10.795  1.00  0.00    +0.1686 HD
BRANCH 17 21
ATOM     21 C13  DES L   1      -1.568  -6.516 -11.112  1.00  0.00    +0.0752  C
ATOM     22 H41  DES L   1      -1.408  -5.638 -10.467  1.00  0.00    +0.0458  H
BRANCH 21 26
ATOM     23  C9  DES L   1      -5.669  -6.397 -12.570  1.00  0.00    -0.0103  A
ATOM     24 C10  DES L   1      -5.026  -5.213 -12.188  1.00  0.00    -0.0551  A
ATOM     25 C11  DES L   1      -3.712  -5.236 -11.711  1.00  0.00    -0.0574  A
ATOM     26 C12  DES L   1      -3.013  -6.446 -11.595  1.00  0.00    -0.0341  A
ATOM     27 C29  DES L   1      -3.666  -7.631 -11.974  1.00  0.00    -0.0574  A
ATOM     28 C30  DES L   1      -4.980  -7.607 -12.448  1.00  0.00    -0.0551  A
ATOM     29 H39  DES L   1      -5.554  -4.262 -12.247  1.00  0.00    +0.0621  H
ATOM     30 H40  DES L   1      -3.257  -4.291 -11.424  1.00  0.00    +0.0621  H
ATOM     31 H53  DES L   1      -3.158  -8.590 -11.890  1.00  0.00    +0.0621  H
ATOM     32 H54  DES L   1      -5.467  -8.544 -12.713  1.00  0.00    +0.0621  H
BRANCH 23 33
ATOM     33  C8  DES L   1      -7.098  -6.369 -13.050  1.00  0.00    +0.1179  C
ATOM     34 H37  DES L   1      -7.159  -6.476 -14.139  1.00  0.00    +0.0749  H
ATOM     35 H38  DES L   1      -7.644  -7.223 -12.634  1.00  0.00    +0.0749  H
BRANCH 33 36
ATOM     36  O7  DES L   1      -7.737  -5.179 -12.574  1.00  0.00    -0.4564 OA
BRANCH 36 37
ATOM     37  C5  DES L   1      -8.658  -4.638 -13.409  1.00  0.00    +0.3398  C
ATOM     38  O6  DES L   1      -9.756  -5.101 -13.673  1.00  0.00    -0.2449 OA
BRANCH 37 42
ATOM     39  C1  DES L   1      -7.149  -0.985 -15.067  1.00  0.00    -0.0615  A
ATOM     40  C2  DES L   1      -7.710  -0.998 -13.794  1.00  0.00    -0.0610  A
ATOM     41  C3  DES L   1      -8.190  -2.193 -13.260  1.00  0.00    -0.0475  A
ATOM     42  C4  DES L   1      -8.109  -3.387 -13.997  1.00  0.00    +0.0619  A
ATOM     43 C31  DES L   1      -7.534  -3.382 -15.284  1.00  0.00    -0.0365  A
ATOM     44 C32  DES L   1      -7.415  -4.626 -16.119  1.00  0.00    -0.0389  C
ATOM     45 C33  DES L   1      -7.064  -2.165 -15.807  1.00  0.00    -0.0581  A
ATOM     46 H34  DES L   1      -6.777  -0.053 -15.488  1.00  0.00    +0.0618  H
ATOM     47 H35  DES L   1      -7.777  -0.078 -13.219  1.00  0.00    +0.0618  H
ATOM     48 H36  DES L   1      -8.638  -2.185 -12.268  1.00  0.00    +0.0626  H
ATOM     49 H55  DES L   1      -6.979  -5.444 -15.536  1.00  0.00    +0.0278  H
ATOM     50 H56  DES L   1      -8.398  -4.924 -16.498  1.00  0.00    +0.0278  H
ATOM     51 H57  DES L   1      -6.759  -4.467 -16.981  1.00  0.00    +0.0278  H
ATOM     52 H58  DES L   1      -6.621  -2.130 -16.802  1.00  0.00    +0.0620  H
ENDBRANCH 37 42
ENDBRANCH 36 37
ENDBRANCH 33 36
ENDBRANCH 23 33
ENDBRANCH 21 26
BRANCH 21 53
ATOM     53 C14  DES L   1      -1.306  -7.747 -10.212  1.00  0.00    +0.0085  C
ATOM     54 N15  DES L   1       0.001  -7.730  -9.526  1.00  0.00    -0.3289 NA
ATOM     55 H42  DES L   1      -1.368  -8.665 -10.808  1.00  0.00    +0.0432  H
ATOM     56 H43  DES L   1      -2.087  -7.806  -9.445  1.00  0.00    +0.0432  H
ATOM     57 H44  DES L   1       0.734  -7.788 -10.241  1.00  0.00    +0.1182 HD
ATOM     58 H45  DES L   1       0.094  -8.600  -8.995  1.00  0.00    +0.1182 HD
ENDBRANCH 21 53
ENDBRANCH 17 21
ENDBRANCH 1 19
TORSDOF 8
ENDMDL
MODEL 2
REMARK VINA RESULT:    -7.893      1.180      1.801
REMARK INTER + INTRA:         -12.990
REMARK INTER:                 -11.445
REMARK INTRA:                  -1.544
REMARK UNBOUND:                -1.404
ROOT
ATOM      1 C19  DES L   1       1.861  -6.050 -12.824  1.00  0.00    +0.0423  A
ATOM      2 C20  DES L   1       1.807  -5.082 -13.825  1.00  0.00    -0.0377  A
ATOM      3 C21  DES L   1       2.967  -4.706 -14.512  1.00  0.00    -0.0506  A
ATOM      4 C22  DES L   1       4.203  -5.298 -14.204  1.00  0.00    +0.0004  A
ATOM      5 C23  DES L   1       5.391  -4.961 -14.857  1.00  0.00    +0.0353  A
ATOM      6 N24  DES L   1       6.598  -5.511 -14.585  1.00  0.00    -0.2626 NA
ATOM      7 C25  DES L   1       6.628  -6.446 -13.616  1.00  0.00    +0.0281  A
ATOM      8 C26  DES L   1       5.511  -6.858 -12.904  1.00  0.00    -0.0358  A
ATOM      9 C27  DES L   1       4.271  -6.277 -13.197  1.00  0.00    -0.0131  A
ATOM     10 C28  DES L   1       3.095  -6.643 -12.517  1.00  0.00    -0.0305  A
ATOM     11 H47  DES L   1       0.875  -4.597 -14.101  1.00  0.00    +0.0638  H
ATOM     12 H48  DES L   1       2.895  -3.949 -15.289  1.00  0.00    +0.0625  H
ATOM     13 H49  DES L   1       5.407  -4.212 -15.645  1.00  0.00    +0.0836  H
ATOM     14 H50  DES L   1       7.606  -6.874 -13.415  1.00  0.00    +0.0830  H
ATOM     15 H51  DES L   1       5.614  -7.617 -12.135  1.00  0.00    +0.0639  H
ATOM     16 H52  DES L   1       3.148  -7.401 -11.737  1.00  0.00    +0.0644  H
ENDROOT
BRANCH 1 19
ATOM     17 C16  DES L   1      -0.091  -5.744 -11.271  1.00  0.00    +0.2339  C
ATOM     18 O17  DES L   1       0.012  -4.539 -11.045  1.00  0.00    -0.2722 OA
ATOM     19 N18  DES L   1       0.744  -6.487 -12.089  1.00  0.00    -0.3256  N
ATOM     20 H46  DES L   1       0.512  -7.481 -12.152  1.00  0.00    +0.1686 HD
BRANCH 17 21
ATOM     21 C13  DES L   1      -1.249  -6.551 -10.659  1.00  0.00    +0.0752  C
ATOM     22 H41  DES L   1      -1.581  -5.923  -9.817  1.00  0.00    +0.0458  H
BRANCH 21 26
ATOM     23  C9  DES L   1      -4.754  -6.976 -13.208  1.00  0.00    -0.0103  A
ATOM     24 C10  DES L   1      -3.764  -7.967 -13.206  1.00  0.00    -0.0551  A
ATOM     25 C11  DES L   1      -2.630  -7.841 -12.399  1.00  0.00    -0.0574  A
ATOM     26 C12  DES L   1      -2.453  -6.716 -11.581  1.00  0.00    -0.0341  A
ATOM     27 C29  DES L   1      -3.447  -5.723 -11.592  1.00  0.00    -0.0574  A
ATOM     28 C30  DES L   1      -4.579  -5.848 -12.400  1.00  0.00    -0.0551  A
ATOM     29 H39  DES L   1      -3.865  -8.840 -13.849  1.00  0.00    +0.0621  H
ATOM     30 H40  DES L   1      -1.887  -8.635 -12.436  1.00  0.00    +0.0621  H
ATOM     31 H53  DES L   1      -3.341  -4.832 -10.976  1.00  0.00    +0.0621  H
ATOM     32 H54  DES L   1      -5.321  -5.052 -12.404  1.00  0.00    +0.0621  H
BRANCH 23 33
ATOM     33  C8  DES L   1      -5.958  -7.102 -14.106  1.00  0.00    +0.1179  C
ATOM     34 H37  DES L   1      -5.939  -8.038 -14.676  1.00  0.00    +0.0749  H
ATOM     35 H38  DES L   1      -6.869  -7.140 -13.499  1.00  0.00    +0.0749  H
BRANCH 33 36
ATOM     36  O7  DES L   1      -6.049  -5.945 -14.944  1.00  0.00    -0.4564 OA
BRANCH 36 37
ATOM     37  C5  DES L   1      -7.306  -5.489 -15.174  1.00  0.00    +0.3398  C
ATOM     38  O6  DES L   1      -8.251  -6.146 -15.577  1.00  0.00    -0.2449 OA
BRANCH 37 42
ATOM     39  C1  DES L   1      -7.371  -1.272 -14.409  1.00  0.00    -0.0615  A
ATOM     40  C2  DES L   1      -7.115  -1.748 -15.691  1.00  0.00    -0.0610  A
ATOM     41  C3  DES L   1      -7.105  -3.122 -15.932  1.00  0.00    -0.0475  A
ATOM     42  C4  DES L   1      -7.354  -4.030 -14.889  1.00  0.00    +0.0619  A
ATOM     43 C31  DES L   1      -7.622  -3.553 -13.589  1.00  0.00    -0.0365  A
ATOM     44 C32  DES L   1      -7.899  -4.475 -12.434  1.00  0.00    -0.0389  C
ATOM     45 C33  DES L   1      -7.619  -2.166 -13.366  1.00  0.00    -0.0581  A
ATOM     46 H34  DES L   1      -7.376  -0.201 -14.217  1.00  0.00    +0.0618  H
ATOM     47 H35  DES L   1      -6.921  -1.051 -16.502  1.00  0.00    +0.0618  H
ATOM     48 H36  DES L   1      -6.891  -3.479 -16.936  1.00  0.00    +0.0626  H
ATOM     49 H55  DES L   1      -8.656  -5.219 -12.705  1.00  0.00    +0.0278  H
ATOM     50 H56  DES L   1      -6.979  -4.978 -12.120  1.00  0.00    +0.0278  H
ATOM     51 H57  DES L   1      -8.291  -3.925 -11.571  1.00  0.00    +0.0278  H
ATOM     52 H58  DES L   1      -7.816  -1.770 -12.371  1.00  0.00    +0.0620  H
ENDBRANCH 37 42
ENDBRANCH 36 37
ENDBRANCH 33 36
ENDBRANCH 23 33
ENDBRANCH 21 26
BRANCH 21 53
ATOM     53 C14  DES L   1      -0.800  -7.890 -10.028  1.00  0.00    +0.0085  C
ATOM     54 N15  DES L   1       0.551  -7.859  -9.435  1.00  0.00    -0.3289 NA
ATOM     55 H42  DES L   1      -0.824  -8.684 -10.784  1.00  0.00    +0.0432  H
ATOM     56 H43  DES L   1      -1.506  -8.173  -9.239  1.00  0.00    +0.0432  H
ATOM     57 H44  DES L   1       1.225  -7.706 -10.193  1.00  0.00    +0.1182 HD
ATOM     58 H45  DES L   1       0.768  -8.797  -9.086  1.00  0.00    +0.1182 HD
ENDBRANCH 21 53
ENDBRANCH 17 21
ENDBRANCH 1 19
TORSDOF 8
ENDMDL
MODEL 3
REMARK VINA RESULT:    -7.673      2.669     10.329
REMARK INTER + INTRA:         -12.667
REMARK INTER:                 -11.378
REMARK INTRA:                  -1.288
REMARK UNBOUND:                -1.404
ROOT
ATOM      1 C19  DES L   1      -5.052  -6.830 -12.653  1.00  0.00    +0.0423  A
ATOM      2 C20  DES L   1      -6.069  -7.774 -12.782  1.00  0.00    -0.0377  A
ATOM      3 C21  DES L   1      -7.391  -7.368 -12.997  1.00  0.00    -0.0506  A
ATOM      4 C22  DES L   1      -7.713  -6.003 -13.087  1.00  0.00    +0.0004  A
ATOM      5 C23  DES L   1      -9.015  -5.542 -13.300  1.00  0.00    +0.0353  A
ATOM      6 N24  DES L   1      -9.360  -4.236 -13.391  1.00  0.00    -0.2626 NA
ATOM      7 C25  DES L   1      -8.362  -3.340 -13.266  1.00  0.00    +0.0281  A
ATOM      8 C26  DES L   1      -7.035  -3.685 -13.053  1.00  0.00    -0.0358  A
ATOM      9 C27  DES L   1      -6.697  -5.041 -12.959  1.00  0.00    -0.0131  A
ATOM     10 C28  DES L   1      -5.373  -5.467 -12.744  1.00  0.00    -0.0305  A
ATOM     11 H47  DES L   1      -5.870  -8.839 -12.722  1.00  0.00    +0.0638  H
ATOM     12 H48  DES L   1      -8.164  -8.126 -13.094  1.00  0.00    +0.0625  H
ATOM     13 H49  DES L   1      -9.846  -6.234 -13.407  1.00  0.00    +0.0836  H
ATOM     14 H50  DES L   1      -8.661  -2.299 -13.344  1.00  0.00    +0.0830  H
ATOM     15 H51  DES L   1      -6.285  -2.906 -12.962  1.00  0.00    +0.0639  H
ATOM     16 H52  DES L   1      -4.586  -4.722 -12.646  1.00  0.00    +0.0644  H
ENDROOT
BRANCH 1 19
ATOM     17 C16  DES L   1      -2.995  -7.157 -11.247  1.00  0.00    +0.2339  C
ATOM     18 O17  DES L   1      -3.452  -6.867 -10.142  1.00  0.00    -0.2722 OA
ATOM     19 N18  DES L   1      -3.700  -7.153 -12.438  1.00  0.00    -0.3256  N
ATOM     20 H46  DES L   1      -3.153  -7.414 -13.263  1.00  0.00    +0.1686 HD
BRANCH 17 21
ATOM     21 C13  DES L   1      -1.533  -7.614 -11.385  1.00  0.00    +0.0752  C
ATOM     22 H41  DES L   1      -1.621  -8.678 -11.655  1.00  0.00    +0.0458  H
BRANCH 21 26
ATOM     23  C9  DES L   1       0.579  -5.589 -14.609  1.00  0.00    -0.0103  A
ATOM     24 C10  DES L   1       0.341  -6.966 -14.684  1.00  0.00    -0.0551  A
ATOM     25 C11  DES L   1      -0.329  -7.632 -13.653  1.00  0.00    -0.0574  A
ATOM     26 C12  DES L   1      -0.769  -6.937 -12.518  1.00  0.00    -0.0341  A
ATOM     27 C29  DES L   1      -0.521  -5.556 -12.446  1.00  0.00    -0.0574  A
ATOM     28 C30  DES L   1       0.151  -4.892 -13.475  1.00  0.00    -0.0551  A
ATOM     29 H39  DES L   1       0.691  -7.536 -15.544  1.00  0.00    +0.0621  H
ATOM     30 H40  DES L   1      -0.487  -8.704 -13.756  1.00  0.00    +0.0621  H
ATOM     31 H53  DES L   1      -0.840  -4.984 -11.576  1.00  0.00    +0.0621  H
ATOM     32 H54  DES L   1       0.347  -3.826 -13.382  1.00  0.00    +0.0621  H
BRANCH 23 33
ATOM     33  C8  DES L   1       1.332  -4.884 -15.708  1.00  0.00    +0.1179  C
ATOM     34 H37  DES L   1       0.860  -5.041 -16.685  1.00  0.00    +0.0749  H
ATOM     35 H38  DES L   1       1.310  -3.802 -15.536  1.00  0.00    +0.0749  H
BRANCH 33 36
ATOM     36  O7  DES L   1       2.704  -5.293 -15.684  1.00  0.00    -0.4564 OA
BRANCH 36 37
ATOM     37  C5  DES L   1       3.410  -4.900 -14.595  1.00  0.00    +0.3398  C
ATOM     38  O6  DES L   1       3.301  -3.837 -14.007  1.00  0.00    -0.2449 OA
BRANCH 37 42
ATOM     39  C1  DES L   1       6.180  -7.972 -13.469  1.00  0.00    -0.0615  A
ATOM     40  C2  DES L   1       4.856  -8.033 -13.047  1.00  0.00    -0.0610  A
ATOM     41  C3  DES L   1       3.960  -7.033 -13.426  1.00  0.00    -0.0475  A
ATOM     42  C4  DES L   1       4.384  -5.965 -14.235  1.00  0.00    +0.0619  A
ATOM     43 C31  DES L   1       5.723  -5.902 -14.672  1.00  0.00    -0.0365  A
ATOM     44 C32  DES L   1       6.235  -4.787 -15.541  1.00  0.00    -0.0389  C
ATOM     45 C33  DES L   1       6.612  -6.915 -14.272  1.00  0.00    -0.0581  A
ATOM     46 H34  DES L   1       6.882  -8.748 -13.172  1.00  0.00    +0.0618  H
ATOM     47 H35  DES L   1       4.521  -8.856 -12.420  1.00  0.00    +0.0618  H
ATOM     48 H36  DES L   1       2.931  -7.088 -13.077  1.00  0.00    +0.0626  H
ATOM     49 H55  DES L   1       5.571  -4.627 -16.397  1.00  0.00    +0.0278  H
ATOM     50 H56  DES L   1       6.323  -3.863 -14.961  1.00  0.00    +0.0278  H
ATOM     51 H57  DES L   1       7.224  -5.022 -15.948  1.00  0.00    +0.0278  H
ATOM     52 H58  DES L   1       7.653  -6.888 -14.589  1.00  0.00    +0.0620  H
ENDBRANCH 37 42
ENDBRANCH 36 37
ENDBRANCH 33 36
ENDBRANCH 23 33
ENDBRANCH 21 26
BRANCH 21 53
ATOM     53 C14  DES L   1      -0.753  -7.588 -10.049  1.00  0.00    +0.0085  C
ATOM     54 N15  DES L   1       0.715  -7.627 -10.201  1.00  0.00    -0.3289 NA
ATOM     55 H42  DES L   1      -1.054  -8.438  -9.425  1.00  0.00    +0.0432  H
ATOM     56 H43  DES L   1      -1.009  -6.676  -9.498  1.00  0.00    +0.0432  H
ATOM     57 H44  DES L   1       0.966  -8.531 -10.616  1.00  0.00    +0.1182 HD
ATOM     58 H45  DES L   1       1.132  -7.650  -9.267  1.00  0.00    +0.1182 HD
ENDBRANCH 21 53
ENDBRANCH 17 21
ENDBRANCH 1 19
TORSDOF 8
ENDMDL
MODEL 4
REMARK VINA RESULT:    -7.388      4.065     10.432
REMARK INTER + INTRA:         -12.247
REMARK INTER:                 -10.691
REMARK INTRA:                  -1.556
REMARK UNBOUND:                -1.404
ROOT
ATOM      1 C19  DES L   1      -4.549  -8.719 -11.866  1.00  0.00    +0.0423  A
ATOM      2 C20  DES L   1      -5.321  -7.988 -12.767  1.00  0.00    -0.0377  A
ATOM      3 C21  DES L   1      -6.693  -8.234 -12.887  1.00  0.00    -0.0506  A
ATOM      4 C22  DES L   1      -7.314  -9.220 -12.103  1.00  0.00    +0.0004  A
ATOM      5 C23  DES L   1      -8.679  -9.507 -12.182  1.00  0.00    +0.0353  A
ATOM      6 N24  DES L   1      -9.310 -10.449 -11.442  1.00  0.00    -0.2626 NA
ATOM      7 C25  DES L   1      -8.545 -11.143 -10.577  1.00  0.00    +0.0281  A
ATOM      8 C26  DES L   1      -7.183 -10.942 -10.415  1.00  0.00    -0.0358  A
ATOM      9 C27  DES L   1      -6.547  -9.964 -11.190  1.00  0.00    -0.0131  A
ATOM     10 C28  DES L   1      -5.169  -9.704 -11.081  1.00  0.00    -0.0305  A
ATOM     11 H47  DES L   1      -4.888  -7.214 -13.393  1.00  0.00    +0.0638  H
ATOM     12 H48  DES L   1      -7.271  -7.647 -13.598  1.00  0.00    +0.0625  H
ATOM     13 H49  DES L   1      -9.328  -8.967 -12.868  1.00  0.00    +0.0836  H
ATOM     14 H50  DES L   1      -9.071 -11.893  -9.993  1.00  0.00    +0.0830  H
ATOM     15 H51  DES L   1      -6.632 -11.542  -9.696  1.00  0.00    +0.0639  H
ATOM     16 H52  DES L   1      -4.574 -10.280 -10.374  1.00  0.00    +0.0644  H
ENDROOT
BRANCH 1 19
ATOM     17 C16  DES L   1      -2.522  -7.604 -10.885  1.00  0.00    +0.2339  C
ATOM     18 O17  DES L   1      -3.072  -6.756 -10.184  1.00  0.00    -0.2722 OA
ATOM     19 N18  DES L   1      -3.166  -8.534 -11.681  1.00  0.00    -0.3256  N
ATOM     20 H46  DES L   1      -2.546  -9.158 -12.205  1.00  0.00    +0.1686 HD
BRANCH 17 21
ATOM     21 C13  DES L   1      -0.989  -7.726 -10.893  1.00  0.00    +0.0752  C
ATOM     22 H41  DES L   1      -0.810  -8.668 -11.437  1.00  0.00    +0.0458  H
BRANCH 21 26
ATOM     23  C9  DES L   1       1.062  -4.666 -13.214  1.00  0.00    -0.0103  A
ATOM     24 C10  DES L   1       1.244  -4.733 -11.828  1.00  0.00    -0.0551  A
ATOM     25 C11  DES L   1       0.587  -5.706 -11.068  1.00  0.00    -0.0574  A
ATOM     26 C12  DES L   1      -0.277  -6.628 -11.675  1.00  0.00    -0.0341  A
ATOM     27 C29  DES L   1      -0.460  -6.551 -13.066  1.00  0.00    -0.0574  A
ATOM     28 C30  DES L   1       0.195  -5.578 -13.825  1.00  0.00    -0.0551  A
ATOM     29 H39  DES L   1       1.892  -4.015 -11.326  1.00  0.00    +0.0621  H
ATOM     30 H40  DES L   1       0.758  -5.715  -9.993  1.00  0.00    +0.0621  H
ATOM     31 H53  DES L   1      -1.129  -7.245 -13.572  1.00  0.00    +0.0621  H
ATOM     32 H54  DES L   1       0.017  -5.529 -14.897  1.00  0.00    +0.0621  H
BRANCH 23 33
ATOM     33  C8  DES L   1       1.747  -3.594 -14.022  1.00  0.00    +0.1179  C
ATOM     34 H37  DES L   1       1.217  -3.398 -14.962  1.00  0.00    +0.0749  H
ATOM     35 H38  DES L   1       1.732  -2.648 -13.469  1.00  0.00    +0.0749  H
BRANCH 33 36
ATOM     36  O7  DES L   1       3.118  -3.951 -14.223  1.00  0.00    -0.4564 OA
BRANCH 36 37
ATOM     37  C5  DES L   1       3.337  -4.944 -15.121  1.00  0.00    +0.3398  C
ATOM     38  O6  DES L   1       2.801  -5.065 -16.210  1.00  0.00    -0.2449 OA
BRANCH 37 42
ATOM     39  C1  DES L   1       6.126  -7.712 -13.409  1.00  0.00    -0.0615  A
ATOM     40  C2  DES L   1       4.764  -7.849 -13.164  1.00  0.00    -0.0610  A
ATOM     41  C3  DES L   1       3.863  -6.948 -13.733  1.00  0.00    -0.0475  A
ATOM     42  C4  DES L   1       4.322  -5.905 -14.556  1.00  0.00    +0.0619  A
ATOM     43 C31  DES L   1       5.700  -5.767 -14.814  1.00  0.00    -0.0365  A
ATOM     44 C32  DES L   1       6.251  -4.674 -15.688  1.00  0.00    -0.0389  C
ATOM     45 C33  DES L   1       6.592  -6.680 -14.224  1.00  0.00    -0.0581  A
ATOM     46 H34  DES L   1       6.831  -8.411 -12.964  1.00  0.00    +0.0618  H
ATOM     47 H35  DES L   1       4.402  -8.653 -12.528  1.00  0.00    +0.0618  H
ATOM     48 H36  DES L   1       2.802  -7.060 -13.522  1.00  0.00    +0.0626  H
ATOM     49 H55  DES L   1       5.702  -4.622 -16.634  1.00  0.00    +0.0278  H
ATOM     50 H56  DES L   1       6.194  -3.711 -15.172  1.00  0.00    +0.0278  H
ATOM     51 H57  DES L   1       7.301  -4.857 -15.940  1.00  0.00    +0.0278  H
ATOM     52 H58  DES L   1       7.663  -6.593 -14.401  1.00  0.00    +0.0620  H
ENDBRANCH 37 42
ENDBRANCH 36 37
ENDBRANCH 33 36
ENDBRANCH 23 33
ENDBRANCH 21 26
BRANCH 21 53
ATOM     53 C14  DES L   1      -0.382  -7.938  -9.485  1.00  0.00    +0.0085  C
ATOM     54 N15  DES L   1      -0.065  -9.344  -9.165  1.00  0.00    -0.3289 NA
ATOM     55 H42  DES L   1      -1.071  -7.560  -8.722  1.00  0.00    +0.0432  H
ATOM     56 H43  DES L   1       0.545  -7.358  -9.400  1.00  0.00    +0.0432  H
ATOM     57 H44  DES L   1      -0.947  -9.867  -9.134  1.00  0.00    +0.1182 HD
ATOM     58 H45  DES L   1       0.288  -9.380  -8.205  1.00  0.00    +0.1182 HD
ENDBRANCH 21 53
ENDBRANCH 17 21
ENDBRANCH 1 19
TORSDOF 8
ENDMDL
MODEL 5
REMARK VINA RESULT:    -7.131      3.392      5.450
REMARK INTER + INTRA:         -11.870
REMARK INTER:                 -10.763
REMARK INTRA:                  -1.106
REMARK UNBOUND:                -1.404
ROOT
ATOM      1 C19  DES L   1       0.697  -2.713 -14.144  1.00  0.00    +0.0423  A
ATOM      2 C20  DES L   1       0.593  -2.634 -15.532  1.00  0.00    -0.0377  A
ATOM      3 C21  DES L   1       0.350  -1.406 -16.156  1.00  0.00    -0.0506  A
ATOM      4 C22  DES L   1       0.208  -0.234 -15.395  1.00  0.00    +0.0004  A
ATOM      5 C23  DES L   1      -0.036   1.018 -15.966  1.00  0.00    +0.0353  A
ATOM      6 N24  DES L   1      -0.178   2.167 -15.263  1.00  0.00    -0.2626 NA
ATOM      7 C25  DES L   1      -0.073   2.068 -13.924  1.00  0.00    +0.0281  A
ATOM      8 C26  DES L   1       0.168   0.879 -13.252  1.00  0.00    -0.0358  A
ATOM      9 C27  DES L   1       0.311  -0.299 -13.995  1.00  0.00    -0.0131  A
ATOM     10 C28  DES L   1       0.556  -1.542 -13.383  1.00  0.00    -0.0305  A
ATOM     11 H47  DES L   1       0.698  -3.511 -16.163  1.00  0.00    +0.0638  H
ATOM     12 H48  DES L   1       0.275  -1.374 -17.241  1.00  0.00    +0.0625  H
ATOM     13 H49  DES L   1      -0.126   1.137 -17.043  1.00  0.00    +0.0836  H
ATOM     14 H50  DES L   1      -0.190   3.002 -13.380  1.00  0.00    +0.0830  H
ATOM     15 H51  DES L   1       0.239   0.879 -12.169  1.00  0.00    +0.0639  H
ATOM     16 H52  DES L   1       0.636  -1.594 -12.299  1.00  0.00    +0.0644  H
ENDROOT
BRANCH 1 19
ATOM     17 C16  DES L   1       2.134  -4.596 -13.305  1.00  0.00    +0.2339  C
ATOM     18 O17  DES L   1       3.212  -4.269 -13.798  1.00  0.00    -0.2722 OA
ATOM     19 N18  DES L   1       0.942  -3.906 -13.439  1.00  0.00    -0.3256  N
ATOM     20 H46  DES L   1       0.141  -4.332 -12.966  1.00  0.00    +0.1686 HD
BRANCH 17 21
ATOM     21 C13  DES L   1       2.037  -5.847 -12.414  1.00  0.00    +0.0752  C
ATOM     22 H41  DES L   1       2.379  -5.487 -11.430  1.00  0.00    +0.0458  H
BRANCH 21 26
ATOM     23  C9  DES L   1      -1.992  -7.355 -11.743  1.00  0.00    -0.0103  A
ATOM     24 C10  DES L   1      -1.314  -7.671 -12.926  1.00  0.00    -0.0551  A
ATOM     25 C11  DES L   1      -0.022  -7.188 -13.159  1.00  0.00    -0.0574  A
ATOM     26 C12  DES L   1       0.618  -6.369 -12.219  1.00  0.00    -0.0341  A
ATOM     27 C29  DES L   1      -0.071  -6.051 -11.036  1.00  0.00    -0.0574  A
ATOM     28 C30  DES L   1      -1.362  -6.531 -10.805  1.00  0.00    -0.0551  A
ATOM     29 H39  DES L   1      -1.796  -8.286 -13.685  1.00  0.00    +0.0621  H
ATOM     30 H40  DES L   1       0.462  -7.458 -14.096  1.00  0.00    +0.0621  H
ATOM     31 H53  DES L   1       0.390  -5.411 -10.285  1.00  0.00    +0.0621  H
ATOM     32 H54  DES L   1      -1.879  -6.250  -9.889  1.00  0.00    +0.0621  H
BRANCH 23 33
ATOM     33  C8  DES L   1      -3.397  -7.850 -11.514  1.00  0.00    +0.1179  C
ATOM     34 H37  DES L   1      -3.610  -8.747 -12.108  1.00  0.00    +0.0749  H
ATOM     35 H38  DES L   1      -3.517  -8.150 -10.467  1.00  0.00    +0.0749  H
BRANCH 33 36
ATOM     36  O7  DES L   1      -4.323  -6.787 -11.764  1.00  0.00    -0.4564 OA
BRANCH 36 37
ATOM     37  C5  DES L   1      -4.906  -6.798 -12.989  1.00  0.00    +0.3398  C
ATOM     38  O6  DES L   1      -4.438  -7.276 -14.009  1.00  0.00    -0.2449 OA
BRANCH 37 42
ATOM     39  C1  DES L   1      -8.639  -4.710 -12.706  1.00  0.00    -0.0615  A
ATOM     40  C2  DES L   1      -7.442  -4.002 -12.762  1.00  0.00    -0.0610  A
ATOM     41  C3  DES L   1      -6.233  -4.691 -12.863  1.00  0.00    -0.0475  A
ATOM     42  C4  DES L   1      -6.215  -6.095 -12.912  1.00  0.00    +0.0619  A
ATOM     43 C31  DES L   1      -7.424  -6.817 -12.864  1.00  0.00    -0.0365  A
ATOM     44 C32  DES L   1      -7.469  -8.319 -12.915  1.00  0.00    -0.0389  C
ATOM     45 C33  DES L   1      -8.631  -6.105 -12.753  1.00  0.00    -0.0581  A
ATOM     46 H34  DES L   1      -9.583  -4.176 -12.624  1.00  0.00    +0.0618  H
ATOM     47 H35  DES L   1      -7.449  -2.916 -12.724  1.00  0.00    +0.0618  H
ATOM     48 H36  DES L   1      -5.305  -4.124 -12.893  1.00  0.00    +0.0626  H
ATOM     49 H55  DES L   1      -6.860  -8.696 -13.743  1.00  0.00    +0.0278  H
ATOM     50 H56  DES L   1      -7.114  -8.742 -11.970  1.00  0.00    +0.0278  H
ATOM     51 H57  DES L   1      -8.489  -8.682 -13.082  1.00  0.00    +0.0278  H
ATOM     52 H58  DES L   1      -9.580  -6.637 -12.707  1.00  0.00    +0.0620  H
ENDBRANCH 37 42
ENDBRANCH 36 37
ENDBRANCH 33 36
ENDBRANCH 23 33
ENDBRANCH 21 26
BRANCH 21 53
ATOM     53 C14  DES L   1       3.028  -6.965 -12.814  1.00  0.00    +0.0085  C
ATOM     54 N15  DES L   1       4.431  -6.697 -12.439  1.00  0.00    -0.3289 NA
ATOM     55 H42  DES L   1       2.989  -7.127 -13.898  1.00  0.00    +0.0432  H
ATOM     56 H43  DES L   1       2.727  -7.904 -12.336  1.00  0.00    +0.0432  H
ATOM     57 H44  DES L   1       4.750  -5.882 -12.973  1.00  0.00    +0.1182 HD
ATOM     58 H45  DES L   1       5.006  -7.470 -12.784  1.00  0.00    +0.1182 HD
ENDBRANCH 21 53
ENDBRANCH 17 21
ENDBRANCH 1 19
TORSDOF 8
ENDMDL
MODEL 6
REMARK VINA RESULT:    -7.067      2.387      3.233
REMARK INTER + INTRA:         -11.776
REMARK INTER:                 -10.282
REMARK INTRA:                  -1.494
REMARK UNBOUND:                -1.404
ROOT
ATOM      1 C19  DES L   1       2.136  -5.469 -13.531  1.00  0.00    +0.0423  A
ATOM      2 C20  DES L   1       2.850  -4.501 -14.235  1.00  0.00    -0.0377  A
ATOM      3 C21  DES L   1       4.203  -4.693 -14.532  1.00  0.00    -0.0506  A
ATOM      4 C22  DES L   1       4.863  -5.865 -14.127  1.00  0.00    +0.0004  A
ATOM      5 C23  DES L   1       6.213  -6.109 -14.396  1.00  0.00    +0.0353  A
ATOM      6 N24  DES L   1       6.880  -7.226 -14.021  1.00  0.00    -0.2626 NA
ATOM      7 C25  DES L   1       6.171  -8.150 -13.343  1.00  0.00    +0.0281  A
ATOM      8 C26  DES L   1       4.829  -8.013 -13.022  1.00  0.00    -0.0358  A
ATOM      9 C27  DES L   1       4.155  -6.850 -13.416  1.00  0.00    -0.0131  A
ATOM     10 C28  DES L   1       2.794  -6.640 -13.126  1.00  0.00    -0.0305  A
ATOM     11 H47  DES L   1       2.383  -3.580 -14.571  1.00  0.00    +0.0638  H
ATOM     12 H48  DES L   1       4.735  -3.921 -15.083  1.00  0.00    +0.0625  H
ATOM     13 H49  DES L   1       6.817  -5.388 -14.941  1.00  0.00    +0.0836  H
ATOM     14 H50  DES L   1       6.726  -9.038 -13.053  1.00  0.00    +0.0830  H
ATOM     15 H51  DES L   1       4.324  -8.801 -12.472  1.00  0.00    +0.0639  H
ATOM     16 H52  DES L   1       2.246  -7.402 -12.577  1.00  0.00    +0.0644  H
ENDROOT
BRANCH 1 19
ATOM     17 C16  DES L   1       0.038  -6.132 -12.317  1.00  0.00    +0.2339  C
ATOM     18 O17  DES L   1       0.467  -7.084 -11.667  1.00  0.00    -0.2722 OA
ATOM     19 N18  DES L   1       0.774  -5.354 -13.193  1.00  0.00    -0.3256  N
ATOM     20 H46  DES L   1       0.248  -4.608 -13.656  1.00  0.00    +0.1686 HD
BRANCH 17 21
ATOM     21 C13  DES L   1      -1.426  -5.683 -12.159  1.00  0.00    +0.0752  C
ATOM     22 H41  DES L   1      -1.609  -5.085 -13.066  1.00  0.00    +0.0458  H
BRANCH 21 26
ATOM     23  C9  DES L   1      -4.288  -8.963 -12.096  1.00  0.00    -0.0103  A
ATOM     24 C10  DES L   1      -3.486  -8.755 -13.224  1.00  0.00    -0.0551  A
ATOM     25 C11  DES L   1      -2.567  -7.702 -13.262  1.00  0.00    -0.0574  A
ATOM     26 C12  DES L   1      -2.436  -6.825 -12.176  1.00  0.00    -0.0341  A
ATOM     27 C29  DES L   1      -3.249  -7.035 -11.050  1.00  0.00    -0.0574  A
ATOM     28 C30  DES L   1      -4.168  -8.086 -11.013  1.00  0.00    -0.0551  A
ATOM     29 H39  DES L   1      -3.582  -9.407 -14.092  1.00  0.00    +0.0621  H
ATOM     30 H40  DES L   1      -1.969  -7.579 -14.163  1.00  0.00    +0.0621  H
ATOM     31 H53  DES L   1      -3.182  -6.370 -10.190  1.00  0.00    +0.0621  H
ATOM     32 H54  DES L   1      -4.800  -8.212 -10.136  1.00  0.00    +0.0621  H
BRANCH 23 33
ATOM     33  C8  DES L   1      -5.301 -10.080 -12.076  1.00  0.00    +0.1179  C
ATOM     34 H37  DES L   1      -5.172 -10.756 -12.929  1.00  0.00    +0.0749  H
ATOM     35 H38  DES L   1      -5.153 -10.695 -11.182  1.00  0.00    +0.0749  H
BRANCH 33 36
ATOM     36  O7  DES L   1      -6.619  -9.526 -12.002  1.00  0.00    -0.4564 OA
BRANCH 36 37
ATOM     37  C5  DES L   1      -7.112  -9.035 -13.166  1.00  0.00    +0.3398  C
ATOM     38  O6  DES L   1      -7.188  -9.632 -14.228  1.00  0.00    -0.2449 OA
BRANCH 37 42
ATOM     39  C1  DES L   1      -8.209  -4.938 -12.547  1.00  0.00    -0.0615  A
ATOM     40  C2  DES L   1      -6.940  -5.261 -13.017  1.00  0.00    -0.0610  A
ATOM     41  C3  DES L   1      -6.596  -6.596 -13.224  1.00  0.00    -0.0475  A
ATOM     42  C4  DES L   1      -7.522  -7.620 -12.964  1.00  0.00    +0.0619  A
ATOM     43 C31  DES L   1      -8.812  -7.299 -12.496  1.00  0.00    -0.0365  A
ATOM     44 C32  DES L   1      -9.848  -8.349 -12.204  1.00  0.00    -0.0389  C
ATOM     45 C33  DES L   1      -9.137  -5.947 -12.286  1.00  0.00    -0.0581  A
ATOM     46 H34  DES L   1      -8.480  -3.897 -12.382  1.00  0.00    +0.0618  H
ATOM     47 H35  DES L   1      -6.218  -4.474 -13.220  1.00  0.00    +0.0618  H
ATOM     48 H36  DES L   1      -5.595  -6.834 -13.579  1.00  0.00    +0.0626  H
ATOM     49 H55  DES L   1      -9.935  -9.051 -13.040  1.00  0.00    +0.0278  H
ATOM     50 H56  DES L   1      -9.591  -8.892 -11.289  1.00  0.00    +0.0278  H
ATOM     51 H57  DES L   1     -10.838  -7.903 -12.060  1.00  0.00    +0.0278  H
ATOM     52 H58  DES L   1     -10.124  -5.671 -11.918  1.00  0.00    +0.0620  H
ENDBRANCH 37 42
ENDBRANCH 36 37
ENDBRANCH 33 36
ENDBRANCH 23 33
ENDBRANCH 21 26
BRANCH 21 53
ATOM     53 C14  DES L   1      -1.647  -4.716 -10.972  1.00  0.00    +0.0085  C
ATOM     54 N15  DES L   1      -0.417  -4.365 -10.236  1.00  0.00    -0.3289 NA
ATOM     55 H42  DES L   1      -2.358  -5.155 -10.262  1.00  0.00    +0.0432  H
ATOM     56 H43  DES L   1      -2.093  -3.785 -11.342  1.00  0.00    +0.0432  H
ATOM     57 H44  DES L   1      -0.059  -5.219  -9.794  1.00  0.00    +0.1182 HD
ATOM     58 H45  DES L   1      -0.676  -3.761  -9.451  1.00  0.00    +0.1182 HD
ENDBRANCH 21 53
ENDBRANCH 17 21
ENDBRANCH 1 19
TORSDOF 8
ENDMDL
MODEL 7
REMARK VINA RESULT:    -6.941      3.258      4.706
REMARK INTER + INTRA:         -11.592
REMARK INTER:                 -10.115
REMARK INTRA:                  -1.477
REMARK UNBOUND:                -1.404
ROOT
ATOM      1 C19  DES L   1       0.385  -3.072 -13.384  1.00  0.00    +0.0423  A
ATOM      2 C20  DES L   1       0.663  -3.143 -14.748  1.00  0.00    -0.0377  A
ATOM      3 C21  DES L   1       0.884  -1.976 -15.488  1.00  0.00    -0.0506  A
ATOM      4 C22  DES L   1       0.830  -0.716 -14.869  1.00  0.00    +0.0004  A
ATOM      5 C23  DES L   1       1.041   0.480 -15.560  1.00  0.00    +0.0353  A
ATOM      6 N24  DES L   1       0.996   1.710 -14.995  1.00  0.00    -0.2626 NA
ATOM      7 C25  DES L   1       0.728   1.755 -13.675  1.00  0.00    +0.0281  A
ATOM      8 C26  DES L   1       0.502   0.633 -12.893  1.00  0.00    -0.0358  A
ATOM      9 C27  DES L   1       0.551  -0.631 -13.494  1.00  0.00    -0.0131  A
ATOM     10 C28  DES L   1       0.332  -1.814 -12.765  1.00  0.00    -0.0305  A
ATOM     11 H47  DES L   1       0.718  -4.092 -15.271  1.00  0.00    +0.0638  H
ATOM     12 H48  DES L   1       1.100  -2.061 -16.551  1.00  0.00    +0.0625  H
ATOM     13 H49  DES L   1       1.261   0.483 -16.624  1.00  0.00    +0.0836  H
ATOM     14 H50  DES L   1       0.698   2.752 -13.243  1.00  0.00    +0.0830  H
ATOM     15 H51  DES L   1       0.291   0.749 -11.834  1.00  0.00    +0.0639  H
ATOM     16 H52  DES L   1       0.116  -1.749 -11.700  1.00  0.00    +0.0644  H
ENDROOT
BRANCH 1 19
ATOM     17 C16  DES L   1      -0.870  -4.401 -11.660  1.00  0.00    +0.2339  C
ATOM     18 O17  DES L   1      -1.776  -3.608 -11.408  1.00  0.00    -0.2722 OA
ATOM     19 N18  DES L   1       0.154  -4.195 -12.568  1.00  0.00    -0.3256  N
ATOM     20 H46  DES L   1       0.827  -4.962 -12.641  1.00  0.00    +0.1686 HD
BRANCH 17 21
ATOM     21 C13  DES L   1      -0.833  -5.778 -10.974  1.00  0.00    +0.0752  C
ATOM     22 H41  DES L   1      -1.055  -5.545  -9.920  1.00  0.00    +0.0458  H
BRANCH 21 26
ATOM     23  C9  DES L   1      -3.936  -8.570 -12.212  1.00  0.00    -0.0103  A
ATOM     24 C10  DES L   1      -2.835  -8.333 -13.044  1.00  0.00    -0.0551  A
ATOM     25 C11  DES L   1      -1.834  -7.433 -12.663  1.00  0.00    -0.0574  A
ATOM     26 C12  DES L   1      -1.915  -6.742 -11.446  1.00  0.00    -0.0341  A
ATOM     27 C29  DES L   1      -3.026  -6.980 -10.620  1.00  0.00    -0.0574  A
ATOM     28 C30  DES L   1      -4.028  -7.876 -11.001  1.00  0.00    -0.0551  A
ATOM     29 H39  DES L   1      -2.757  -8.839 -14.005  1.00  0.00    +0.0621  H
ATOM     30 H40  DES L   1      -1.000  -7.280 -13.345  1.00  0.00    +0.0621  H
ATOM     31 H53  DES L   1      -3.129  -6.456  -9.671  1.00  0.00    +0.0621  H
ATOM     32 H54  DES L   1      -4.887  -8.024 -10.350  1.00  0.00    +0.0621  H
BRANCH 23 33
ATOM     33  C8  DES L   1      -5.029  -9.514 -12.644  1.00  0.00    +0.1179  C
ATOM     34 H37  DES L   1      -4.863  -9.882 -13.664  1.00  0.00    +0.0749  H
ATOM     35 H38  DES L   1      -5.025 -10.402 -12.002  1.00  0.00    +0.0749  H
BRANCH 33 36
ATOM     36  O7  DES L   1      -6.300  -8.876 -12.485  1.00  0.00    -0.4564 OA
BRANCH 36 37
ATOM     37  C5  DES L   1      -6.772  -8.234 -13.582  1.00  0.00    +0.3398  C
ATOM     38  O6  DES L   1      -6.870  -8.699 -14.706  1.00  0.00    -0.2449 OA
BRANCH 37 42
ATOM     39  C1  DES L   1      -7.715  -4.201 -12.478  1.00  0.00    -0.0615  A
ATOM     40  C2  DES L   1      -6.430  -4.530 -12.898  1.00  0.00    -0.0610  A
ATOM     41  C3  DES L   1      -6.136  -5.844 -13.264  1.00  0.00    -0.0475  A
ATOM     42  C4  DES L   1      -7.128  -6.837 -13.214  1.00  0.00    +0.0619  A
ATOM     43 C31  DES L   1      -8.434  -6.507 -12.797  1.00  0.00    -0.0365  A
ATOM     44 C32  DES L   1      -9.539  -7.525 -12.727  1.00  0.00    -0.0389  C
ATOM     45 C33  DES L   1      -8.708  -5.180 -12.425  1.00  0.00    -0.0581  A
ATOM     46 H34  DES L   1      -7.947  -3.178 -12.189  1.00  0.00    +0.0618  H
ATOM     47 H35  DES L   1      -5.657  -3.767 -12.938  1.00  0.00    +0.0618  H
ATOM     48 H36  DES L   1      -5.124  -6.089 -13.578  1.00  0.00    +0.0626  H
ATOM     49 H55  DES L   1      -9.595  -8.101 -13.657  1.00  0.00    +0.0278  H
ATOM     50 H56  DES L   1      -9.379  -8.201 -11.881  1.00  0.00    +0.0278  H
ATOM     51 H57  DES L   1     -10.514  -7.045 -12.592  1.00  0.00    +0.0278  H
ATOM     52 H58  DES L   1      -9.706  -4.899 -12.092  1.00  0.00    +0.0620  H
ENDBRANCH 37 42
ENDBRANCH 36 37
ENDBRANCH 33 36
ENDBRANCH 23 33
ENDBRANCH 21 26
BRANCH 21 53
ATOM     53 C14  DES L   1       0.573  -6.424 -10.969  1.00  0.00    +0.0085  C
ATOM     54 N15  DES L   1       1.204  -6.496  -9.637  1.00  0.00    -0.3289 NA
ATOM     55 H42  DES L   1       1.242  -5.866 -11.635  1.00  0.00    +0.0432  H
ATOM     56 H43  DES L   1       0.503  -7.445 -11.363  1.00  0.00    +0.0432  H
ATOM     57 H44  DES L   1       1.373  -5.537  -9.315  1.00  0.00    +0.1182 HD
ATOM     58 H45  DES L   1       2.139  -6.897  -9.748  1.00  0.00    +0.1182 HD
ENDBRANCH 21 53
ENDBRANCH 17 21
ENDBRANCH 1 19
TORSDOF 8
ENDMDL
MODEL 8
REMARK VINA RESULT:    -6.925      4.199      6.870
REMARK INTER + INTRA:         -11.568
REMARK INTER:                 -10.480
REMARK INTRA:                  -1.088
REMARK UNBOUND:                -1.404
ROOT
ATOM      1 C19  DES L   1       0.690  -2.735 -14.059  1.00  0.00    +0.0423  A
ATOM      2 C20  DES L   1       0.453  -2.668 -15.430  1.00  0.00    -0.0377  A
ATOM      3 C21  DES L   1       0.131  -1.448 -16.035  1.00  0.00    -0.0506  A
ATOM      4 C22  DES L   1       0.042  -0.273 -15.270  1.00  0.00    +0.0004  A
ATOM      5 C23  DES L   1      -0.276   0.971 -15.821  1.00  0.00    +0.0353  A
ATOM      6 N24  DES L   1      -0.371   2.122 -15.114  1.00  0.00    -0.2626 NA
ATOM      7 C25  DES L   1      -0.136   2.034 -13.790  1.00  0.00    +0.0281  A
ATOM      8 C26  DES L   1       0.188   0.854 -13.138  1.00  0.00    -0.0358  A
ATOM      9 C27  DES L   1       0.279  -0.328 -13.885  1.00  0.00    -0.0131  A
ATOM     10 C28  DES L   1       0.603  -1.562 -13.294  1.00  0.00    -0.0305  A
ATOM     11 H47  DES L   1       0.512  -3.547 -16.064  1.00  0.00    +0.0638  H
ATOM     12 H48  DES L   1      -0.048  -1.424 -17.107  1.00  0.00    +0.0625  H
ATOM     13 H49  DES L   1      -0.471   1.081 -16.885  1.00  0.00    +0.0836  H
ATOM     14 H50  DES L   1      -0.216   2.969 -13.243  1.00  0.00    +0.0830  H
ATOM     15 H51  DES L   1       0.363   0.862 -12.067  1.00  0.00    +0.0639  H
ATOM     16 H52  DES L   1       0.787  -1.605 -12.222  1.00  0.00    +0.0644  H
ENDROOT
BRANCH 1 19
ATOM     17 C16  DES L   1       2.230  -4.594 -13.357  1.00  0.00    +0.2339  C
ATOM     18 O17  DES L   1       3.248  -4.257 -13.961  1.00  0.00    -0.2722 OA
ATOM     19 N18  DES L   1       1.022  -3.920 -13.374  1.00  0.00    -0.3256  N
ATOM     20 H46  DES L   1       0.279  -4.352 -12.819  1.00  0.00    +0.1686 HD
BRANCH 17 21
ATOM     21 C13  DES L   1       2.241  -5.838 -12.453  1.00  0.00    +0.0752  C
ATOM     22 H41  DES L   1       2.614  -5.452 -11.490  1.00  0.00    +0.0458  H
BRANCH 21 26
ATOM     23  C9  DES L   1      -1.658  -7.564 -11.575  1.00  0.00    -0.0103  A
ATOM     24 C10  DES L   1      -1.163  -7.582 -12.884  1.00  0.00    -0.0551  A
ATOM     25 C11  DES L   1       0.084  -7.025 -13.183  1.00  0.00    -0.0574  A
ATOM     26 C12  DES L   1       0.862  -6.428 -12.181  1.00  0.00    -0.0341  A
ATOM     27 C29  DES L   1       0.356  -6.408 -10.870  1.00  0.00    -0.0574  A
ATOM     28 C30  DES L   1      -0.891  -6.962 -10.572  1.00  0.00    -0.0551  A
ATOM     29 H39  DES L   1      -1.756  -8.018 -13.687  1.00  0.00    +0.0621  H
ATOM     30 H40  DES L   1       0.424  -7.059 -14.216  1.00  0.00    +0.0621  H
ATOM     31 H53  DES L   1       0.928  -5.946 -10.067  1.00  0.00    +0.0621  H
ATOM     32 H54  DES L   1      -1.266  -6.913  -9.552  1.00  0.00    +0.0621  H
BRANCH 23 33
ATOM     33  C8  DES L   1      -3.019  -8.135 -11.266  1.00  0.00    +0.1179  C
ATOM     34 H37  DES L   1      -3.426  -7.725 -10.334  1.00  0.00    +0.0749  H
ATOM     35 H38  DES L   1      -3.726  -7.849 -12.053  1.00  0.00    +0.0749  H
BRANCH 33 36
ATOM     36  O7  DES L   1      -2.944  -9.565 -11.256  1.00  0.00    -0.4564 OA
BRANCH 36 37
ATOM     37  C5  DES L   1      -3.724 -10.195 -12.169  1.00  0.00    +0.3398  C
ATOM     38  O6  DES L   1      -3.396 -10.522 -13.298  1.00  0.00    -0.2449 OA
BRANCH 37 42
ATOM     39  C1  DES L   1      -7.611 -10.894 -10.501  1.00  0.00    -0.0615  A
ATOM     40  C2  DES L   1      -6.506 -11.590 -10.021  1.00  0.00    -0.0610  A
ATOM     41  C3  DES L   1      -5.244 -11.349 -10.564  1.00  0.00    -0.0475  A
ATOM     42  C4  DES L   1      -5.078 -10.405 -11.592  1.00  0.00    +0.0619  A
ATOM     43 C31  DES L   1      -6.193  -9.691 -12.077  1.00  0.00    -0.0365  A
ATOM     44 C32  DES L   1      -6.079  -8.667 -13.171  1.00  0.00    -0.0389  C
ATOM     45 C33  DES L   1      -7.457  -9.955 -11.522  1.00  0.00    -0.0581  A
ATOM     46 H34  DES L   1      -8.596 -11.083 -10.082  1.00  0.00    +0.0618  H
ATOM     47 H35  DES L   1      -6.626 -12.323  -9.226  1.00  0.00    +0.0618  H
ATOM     48 H36  DES L   1      -4.392 -11.911 -10.186  1.00  0.00    +0.0626  H
ATOM     49 H55  DES L   1      -5.267  -7.963 -12.961  1.00  0.00    +0.0278  H
ATOM     50 H56  DES L   1      -5.904  -9.158 -14.134  1.00  0.00    +0.0278  H
ATOM     51 H57  DES L   1      -6.996  -8.075 -13.260  1.00  0.00    +0.0278  H
ATOM     52 H58  DES L   1      -8.336  -9.423 -11.882  1.00  0.00    +0.0620  H
ENDBRANCH 37 42
ENDBRANCH 36 37
ENDBRANCH 33 36
ENDBRANCH 23 33
ENDBRANCH 21 26
BRANCH 21 53
ATOM     53 C14  DES L   1       3.266  -6.910 -12.895  1.00  0.00    +0.0085  C
ATOM     54 N15  DES L   1       4.661  -6.610 -12.516  1.00  0.00    -0.3289 NA
ATOM     55 H42  DES L   1       3.226  -7.037 -13.983  1.00  0.00    +0.0432  H
ATOM     56 H43  DES L   1       2.997  -7.874 -12.447  1.00  0.00    +0.0432  H
ATOM     57 H44  DES L   1       4.951  -5.768 -13.024  1.00  0.00    +0.1182 HD
ATOM     58 H45  DES L   1       5.259  -7.352 -12.889  1.00  0.00    +0.1182 HD
ENDBRANCH 21 53
ENDBRANCH 17 21
ENDBRANCH 1 19
TORSDOF 8
ENDMDL
MODEL 9
REMARK VINA RESULT:    -6.923      2.613      4.441
REMARK INTER + INTRA:         -11.564
REMARK INTER:                  -9.779
REMARK INTRA:                  -1.785
REMARK UNBOUND:                -1.404
ROOT
ATOM      1 C19  DES L   1       1.486  -5.898 -13.317  1.00  0.00    +0.0423  A
ATOM      2 C20  DES L   1       1.317  -5.343 -14.583  1.00  0.00    -0.0377  A
ATOM      3 C21  DES L   1       2.428  -5.032 -15.375  1.00  0.00    -0.0506  A
ATOM      4 C22  DES L   1       3.730  -5.275 -14.907  1.00  0.00    +0.0004  A
ATOM      5 C23  DES L   1       4.873  -4.984 -15.655  1.00  0.00    +0.0353  A
ATOM      6 N24  DES L   1       6.142  -5.206 -15.234  1.00  0.00    -0.2626 NA
ATOM      7 C25  DES L   1       6.282  -5.745 -14.007  1.00  0.00    +0.0281  A
ATOM      8 C26  DES L   1       5.219  -6.073 -13.180  1.00  0.00    -0.0358  A
ATOM      9 C27  DES L   1       3.914  -5.836 -13.631  1.00  0.00    -0.0131  A
ATOM     10 C28  DES L   1       2.786  -6.143 -12.848  1.00  0.00    -0.0305  A
ATOM     11 H47  DES L   1       0.331  -5.138 -14.990  1.00  0.00    +0.0638  H
ATOM     12 H48  DES L   1       2.266  -4.600 -16.360  1.00  0.00    +0.0625  H
ATOM     13 H49  DES L   1       4.800  -4.550 -16.649  1.00  0.00    +0.0836  H
ATOM     14 H50  DES L   1       7.308  -5.914 -13.691  1.00  0.00    +0.0830  H
ATOM     15 H51  DES L   1       5.411  -6.505 -12.203  1.00  0.00    +0.0639  H
ATOM     16 H52  DES L   1       2.928  -6.577 -11.860  1.00  0.00    +0.0644  H
ENDROOT
BRANCH 1 19
ATOM     17 C16  DES L   1      -0.423  -5.400 -11.760  1.00  0.00    +0.2339  C
ATOM     18 O17  DES L   1      -0.386  -4.170 -11.775  1.00  0.00    -0.2722 OA
ATOM     19 N18  DES L   1       0.424  -6.242 -12.459  1.00  0.00    -0.3256  N
ATOM     20 H46  DES L   1       0.252  -7.241 -12.319  1.00  0.00    +0.1686 HD
BRANCH 17 21
ATOM     21 C13  DES L   1      -1.508  -6.132 -10.951  1.00  0.00    +0.0752  C
ATOM     22 H41  DES L   1      -1.719  -5.439 -10.120  1.00  0.00    +0.0458  H
BRANCH 21 26
ATOM     23  C9  DES L   1      -5.200  -6.738 -13.177  1.00  0.00    -0.0103  A
ATOM     24 C10  DES L   1      -5.043  -5.600 -12.377  1.00  0.00    -0.0551  A
ATOM     25 C11  DES L   1      -3.866  -5.395 -11.651  1.00  0.00    -0.0574  A
ATOM     26 C12  DES L   1      -2.822  -6.329 -11.699  1.00  0.00    -0.0341  A
ATOM     27 C29  DES L   1      -2.988  -7.472 -12.499  1.00  0.00    -0.0574  A
ATOM     28 C30  DES L   1      -4.165  -7.678 -13.223  1.00  0.00    -0.0551  A
ATOM     29 H39  DES L   1      -5.848  -4.869 -12.303  1.00  0.00    +0.0621  H
ATOM     30 H40  DES L   1      -3.794  -4.497 -11.040  1.00  0.00    +0.0621  H
ATOM     31 H53  DES L   1      -2.203  -8.223 -12.556  1.00  0.00    +0.0621  H
ATOM     32 H54  DES L   1      -4.274  -8.583 -13.817  1.00  0.00    +0.0621  H
BRANCH 23 33
ATOM     33  C8  DES L   1      -6.485  -6.970 -13.931  1.00  0.00    +0.1179  C
ATOM     34 H37  DES L   1      -7.359  -6.680 -13.335  1.00  0.00    +0.0749  H
ATOM     35 H38  DES L   1      -6.509  -6.336 -14.824  1.00  0.00    +0.0749  H
BRANCH 33 36
ATOM     36  O7  DES L   1      -6.541  -8.331 -14.370  1.00  0.00    -0.4564 OA
BRANCH 36 37
ATOM     37  C5  DES L   1      -7.437  -9.117 -13.723  1.00  0.00    +0.3398  C
ATOM     38  O6  DES L   1      -8.644  -9.131 -13.895  1.00  0.00    -0.2449 OA
BRANCH 37 42
ATOM     39  C1  DES L   1      -5.343 -11.449 -10.798  1.00  0.00    -0.0615  A
ATOM     40  C2  DES L   1      -6.095 -10.346 -10.407  1.00  0.00    -0.0610  A
ATOM     41  C3  DES L   1      -6.780  -9.598 -11.365  1.00  0.00    -0.0475  A
ATOM     42  C4  DES L   1      -6.719  -9.954 -12.724  1.00  0.00    +0.0619  A
ATOM     43 C31  DES L   1      -5.966 -11.075 -13.124  1.00  0.00    -0.0365  A
ATOM     44 C32  DES L   1      -5.865 -11.507 -14.561  1.00  0.00    -0.0389  C
ATOM     45 C33  DES L   1      -5.276 -11.810 -12.144  1.00  0.00    -0.0581  A
ATOM     46 H34  DES L   1      -4.805 -12.031 -10.053  1.00  0.00    +0.0618  H
ATOM     47 H35  DES L   1      -6.145 -10.064  -9.359  1.00  0.00    +0.0618  H
ATOM     48 H36  DES L   1      -7.353  -8.731 -11.046  1.00  0.00    +0.0626  H
ATOM     49 H55  DES L   1      -6.858 -11.561 -15.020  1.00  0.00    +0.0278  H
ATOM     50 H56  DES L   1      -5.233 -10.812 -15.123  1.00  0.00    +0.0278  H
ATOM     51 H57  DES L   1      -5.423 -12.505 -14.647  1.00  0.00    +0.0278  H
ATOM     52 H58  DES L   1      -4.680 -12.677 -12.427  1.00  0.00    +0.0620  H
ENDBRANCH 37 42
ENDBRANCH 36 37
ENDBRANCH 33 36
ENDBRANCH 23 33
ENDBRANCH 21 26
BRANCH 21 53
ATOM     53 C14  DES L   1      -1.005  -7.436 -10.288  1.00  0.00    +0.0085  C
ATOM     54 N15  DES L   1       0.345  -7.336  -9.698  1.00  0.00    -0.3289 NA
ATOM     55 H42  DES L   1      -0.998  -8.249 -11.023  1.00  0.00    +0.0432  H
ATOM     56 H43  DES L   1      -1.698  -7.727  -9.490  1.00  0.00    +0.0432  H
ATOM     57 H44  DES L   1       1.012  -7.175 -10.461  1.00  0.00    +0.1182 HD
ATOM     58 H45  DES L   1       0.600  -8.255  -9.327  1.00  0.00    +0.1182 HD
ENDBRANCH 21 53
ENDBRANCH 17 21
ENDBRANCH 1 19
TORSDOF 8
ENDMDL
MODEL 10
REMARK VINA RESULT:    -6.829      2.985      9.903
REMARK INTER + INTRA:         -11.428
REMARK INTER:                 -10.183
REMARK INTRA:                  -1.245
REMARK UNBOUND:                -1.404
ROOT
ATOM      1 C19  DES L   1      -6.158  -6.037 -14.126  1.00  0.00    +0.0423  A
ATOM      2 C20  DES L   1      -6.880  -6.218 -15.304  1.00  0.00    -0.0377  A
ATOM      3 C21  DES L   1      -7.731  -5.213 -15.776  1.00  0.00    -0.0506  A
ATOM      4 C22  DES L   1      -7.872  -4.007 -15.070  1.00  0.00    +0.0004  A
ATOM      5 C23  DES L   1      -8.707  -2.970 -15.495  1.00  0.00    +0.0353  A
ATOM      6 N24  DES L   1      -8.866  -1.796 -14.840  1.00  0.00    -0.2626 NA
ATOM      7 C25  DES L   1      -8.158  -1.641 -13.704  1.00  0.00    +0.0281  A
ATOM      8 C26  DES L   1      -7.300  -2.602 -13.190  1.00  0.00    -0.0358  A
ATOM      9 C27  DES L   1      -7.149  -3.811 -13.880  1.00  0.00    -0.0131  A
ATOM     10 C28  DES L   1      -6.297  -4.832 -13.421  1.00  0.00    -0.0305  A
ATOM     11 H47  DES L   1      -6.804  -7.132 -15.886  1.00  0.00    +0.0638  H
ATOM     12 H48  DES L   1      -8.281  -5.381 -16.699  1.00  0.00    +0.0625  H
ATOM     13 H49  DES L   1      -9.293  -3.058 -16.407  1.00  0.00    +0.0836  H
ATOM     14 H50  DES L   1      -8.300  -0.691 -13.196  1.00  0.00    +0.0830  H
ATOM     15 H51  DES L   1      -6.762  -2.404 -12.268  1.00  0.00    +0.0639  H
ATOM     16 H52  DES L   1      -5.737  -4.681 -12.500  1.00  0.00    +0.0644  H
ENDROOT
BRANCH 1 19
ATOM     17 C16  DES L   1      -5.587  -8.104 -12.815  1.00  0.00    +0.2339  C
ATOM     18 O17  DES L   1      -6.716  -8.446 -12.466  1.00  0.00    -0.2722 OA
ATOM     19 N18  DES L   1      -5.281  -6.995 -13.584  1.00  0.00    -0.3256  N
ATOM     20 H46  DES L   1      -4.283  -6.860 -13.770  1.00  0.00    +0.1686 HD
BRANCH 17 21
ATOM     21 C13  DES L   1      -4.366  -8.961 -12.436  1.00  0.00    +0.0752  C
ATOM     22 H41  DES L   1      -4.140  -9.510 -13.365  1.00  0.00    +0.0458  H
BRANCH 21 26
ATOM     23  C9  DES L   1      -0.872  -6.575 -11.408  1.00  0.00    -0.0103  A
ATOM     24 C10  DES L   1      -0.882  -7.331 -12.586  1.00  0.00    -0.0551  A
ATOM     25 C11  DES L   1      -1.994  -8.108 -12.926  1.00  0.00    -0.0574  A
ATOM     26 C12  DES L   1      -3.119  -8.155 -12.091  1.00  0.00    -0.0341  A
ATOM     27 C29  DES L   1      -3.099  -7.399 -10.907  1.00  0.00    -0.0574  A
ATOM     28 C30  DES L   1      -1.987  -6.625 -10.566  1.00  0.00    -0.0551  A
ATOM     29 H39  DES L   1      -0.013  -7.332 -13.243  1.00  0.00    +0.0621  H
ATOM     30 H40  DES L   1      -1.952  -8.681 -13.851  1.00  0.00    +0.0621  H
ATOM     31 H53  DES L   1      -3.951  -7.417 -10.228  1.00  0.00    +0.0621  H
ATOM     32 H54  DES L   1      -1.992  -6.067  -9.632  1.00  0.00    +0.0621  H
BRANCH 23 33
ATOM     33  C8  DES L   1       0.344  -5.768 -11.030  1.00  0.00    +0.1179  C
ATOM     34 H37  DES L   1       0.184  -4.697 -11.200  1.00  0.00    +0.0749  H
ATOM     35 H38  DES L   1       0.539  -5.875  -9.958  1.00  0.00    +0.0749  H
BRANCH 33 36
ATOM     36  O7  DES L   1       1.487  -6.274 -11.727  1.00  0.00    -0.4564 OA
BRANCH 36 37
ATOM     37  C5  DES L   1       2.109  -5.391 -12.547  1.00  0.00    +0.3398  C
ATOM     38  O6  DES L   1       1.840  -4.208 -12.673  1.00  0.00    -0.2449 OA
BRANCH 37 42
ATOM     39  C1  DES L   1       5.225  -7.373 -14.724  1.00  0.00    -0.0615  A
ATOM     40  C2  DES L   1       5.453  -6.921 -13.428  1.00  0.00    -0.0610  A
ATOM     41  C3  DES L   1       4.430  -6.285 -12.725  1.00  0.00    -0.0475  A
ATOM     42  C4  DES L   1       3.168  -6.100 -13.314  1.00  0.00    +0.0619  A
ATOM     43 C31  DES L   1       2.928  -6.564 -14.623  1.00  0.00    -0.0365  A
ATOM     44 C32  DES L   1       1.599  -6.399 -15.306  1.00  0.00    -0.0389  C
ATOM     45 C33  DES L   1       3.975  -7.194 -15.318  1.00  0.00    -0.0581  A
ATOM     46 H34  DES L   1       6.022  -7.866 -15.276  1.00  0.00    +0.0618  H
ATOM     47 H35  DES L   1       6.427  -7.059 -12.966  1.00  0.00    +0.0618  H
ATOM     48 H36  DES L   1       4.628  -5.926 -11.717  1.00  0.00    +0.0626  H
ATOM     49 H55  DES L   1       0.785  -6.732 -14.654  1.00  0.00    +0.0278  H
ATOM     50 H56  DES L   1       1.444  -5.353 -15.588  1.00  0.00    +0.0278  H
ATOM     51 H57  DES L   1       1.541  -7.003 -16.218  1.00  0.00    +0.0278  H
ATOM     52 H58  DES L   1       3.820  -7.556 -16.334  1.00  0.00    +0.0620  H
ENDBRANCH 37 42
ENDBRANCH 36 37
ENDBRANCH 33 36
ENDBRANCH 23 33
ENDBRANCH 21 26
BRANCH 21 53
ATOM     53 C14  DES L   1      -4.681 -10.045 -11.379  1.00  0.00    +0.0085  C
ATOM     54 N15  DES L   1      -3.544 -10.932 -11.061  1.00  0.00    -0.3289 NA
ATOM     55 H42  DES L   1      -5.516 -10.668 -11.721  1.00  0.00    +0.0432  H
ATOM     56 H43  DES L   1      -4.998  -9.561 -10.448  1.00  0.00    +0.0432  H
ATOM     57 H44  DES L   1      -3.318 -11.470 -11.905  1.00  0.00    +0.1182 HD
ATOM     58 H45  DES L   1      -3.866 -11.635 -10.390  1.00  0.00    +0.1182 HD
ENDBRANCH 21 53
ENDBRANCH 17 21
ENDBRANCH 1 19
TORSDOF 8
ENDMDL
MODEL 11
REMARK VINA RESULT:    -6.760      1.641      2.130
REMARK INTER + INTRA:         -11.326
REMARK INTER:                  -9.670
REMARK INTRA:                  -1.656
REMARK UNBOUND:                -1.404
ROOT
ATOM      1 C19  DES L   1       1.519  -5.733 -13.662  1.00  0.00    +0.0423  A
ATOM      2 C20  DES L   1       1.286  -5.217 -14.935  1.00  0.00    -0.0377  A
ATOM      3 C21  DES L   1       2.357  -4.855 -15.760  1.00  0.00    -0.0506  A
ATOM      4 C22  DES L   1       3.682  -5.007 -15.319  1.00  0.00    +0.0004  A
ATOM      5 C23  DES L   1       4.788  -4.662 -16.100  1.00  0.00    +0.0353  A
ATOM      6 N24  DES L   1       6.077  -4.794 -15.706  1.00  0.00    -0.2626 NA
ATOM      7 C25  DES L   1       6.278  -5.297 -14.472  1.00  0.00    +0.0281  A
ATOM      8 C26  DES L   1       5.257  -5.672 -13.613  1.00  0.00    -0.0358  A
ATOM      9 C27  DES L   1       3.930  -5.526 -14.036  1.00  0.00    -0.0131  A
ATOM     10 C28  DES L   1       2.842  -5.885 -13.220  1.00  0.00    -0.0305  A
ATOM     11 H47  DES L   1       0.281  -5.083 -15.322  1.00  0.00    +0.0638  H
ATOM     12 H48  DES L   1       2.146  -4.456 -16.750  1.00  0.00    +0.0625  H
ATOM     13 H49  DES L   1       4.664  -4.255 -17.100  1.00  0.00    +0.0836  H
ATOM     14 H50  DES L   1       7.320  -5.395 -14.177  1.00  0.00    +0.0830  H
ATOM     15 H51  DES L   1       5.499  -6.069 -12.632  1.00  0.00    +0.0639  H
ATOM     16 H52  DES L   1       3.033  -6.288 -12.227  1.00  0.00    +0.0644  H
ENDROOT
BRANCH 1 19
ATOM     17 C16  DES L   1      -0.338  -5.318 -12.020  1.00  0.00    +0.2339  C
ATOM     18 O17  DES L   1      -0.330  -4.088 -12.005  1.00  0.00    -0.2722 OA
ATOM     19 N18  DES L   1       0.501  -6.122 -12.771  1.00  0.00    -0.3256  N
ATOM     20 H46  DES L   1       0.358  -7.128 -12.650  1.00  0.00    +0.1686 HD
BRANCH 17 21
ATOM     21 C13  DES L   1      -1.372  -6.096 -11.187  1.00  0.00    +0.0752  C
ATOM     22 H41  DES L   1      -1.790  -5.328 -10.516  1.00  0.00    +0.0458  H
BRANCH 21 26
ATOM     23  C9  DES L   1      -4.629  -7.705 -13.586  1.00  0.00    -0.0103  A
ATOM     24 C10  DES L   1      -4.846  -6.590 -12.768  1.00  0.00    -0.0551  A
ATOM     25 C11  DES L   1      -3.812  -6.066 -11.986  1.00  0.00    -0.0574  A
ATOM     26 C12  DES L   1      -2.538  -6.651 -11.996  1.00  0.00    -0.0341  A
ATOM     27 C29  DES L   1      -2.329  -7.775 -12.814  1.00  0.00    -0.0574  A
ATOM     28 C30  DES L   1      -3.363  -8.299 -13.593  1.00  0.00    -0.0551  A
ATOM     29 H39  DES L   1      -5.832  -6.128 -12.724  1.00  0.00    +0.0621  H
ATOM     30 H40  DES L   1      -4.031  -5.200 -11.365  1.00  0.00    +0.0621  H
ATOM     31 H53  DES L   1      -1.356  -8.262 -12.841  1.00  0.00    +0.0621  H
ATOM     32 H54  DES L   1      -3.178  -9.183 -14.199  1.00  0.00    +0.0621  H
BRANCH 23 33
ATOM     33  C8  DES L   1      -5.758  -8.286 -14.399  1.00  0.00    +0.1179  C
ATOM     34 H37  DES L   1      -5.733  -7.928 -15.435  1.00  0.00    +0.0749  H
ATOM     35 H38  DES L   1      -5.650  -9.375 -14.456  1.00  0.00    +0.0749  H
BRANCH 33 36
ATOM     36  O7  DES L   1      -7.003  -8.013 -13.748  1.00  0.00    -0.4564 OA
BRANCH 36 37
ATOM     37  C5  DES L   1      -7.954  -7.437 -14.526  1.00  0.00    +0.3398  C
ATOM     38  O6  DES L   1      -8.527  -7.956 -15.470  1.00  0.00    -0.2449 OA
BRANCH 37 42
ATOM     39  C1  DES L   1      -8.681  -3.426 -13.202  1.00  0.00    -0.0615  A
ATOM     40  C2  DES L   1      -9.267  -4.500 -12.540  1.00  0.00    -0.0610  A
ATOM     41  C3  DES L   1      -9.017  -5.802 -12.973  1.00  0.00    -0.0475  A
ATOM     42  C4  DES L   1      -8.174  -6.038 -14.072  1.00  0.00    +0.0619  A
ATOM     43 C31  DES L   1      -7.571  -4.954 -14.742  1.00  0.00    -0.0365  A
ATOM     44 C32  DES L   1      -6.657  -5.143 -15.921  1.00  0.00    -0.0389  C
ATOM     45 C33  DES L   1      -7.843  -3.650 -14.295  1.00  0.00    -0.0581  A
ATOM     46 H34  DES L   1      -8.877  -2.409 -12.868  1.00  0.00    +0.0618  H
ATOM     47 H35  DES L   1      -9.921  -4.325 -11.689  1.00  0.00    +0.0618  H
ATOM     48 H36  DES L   1      -9.493  -6.631 -12.453  1.00  0.00    +0.0626  H
ATOM     49 H55  DES L   1      -5.895  -5.898 -15.703  1.00  0.00    +0.0278  H
ATOM     50 H56  DES L   1      -7.233  -5.440 -16.803  1.00  0.00    +0.0278  H
ATOM     51 H57  DES L   1      -6.126  -4.218 -16.165  1.00  0.00    +0.0278  H
ATOM     52 H58  DES L   1      -7.396  -2.793 -14.798  1.00  0.00    +0.0620  H
ENDBRANCH 37 42
ENDBRANCH 36 37
ENDBRANCH 33 36
ENDBRANCH 23 33
ENDBRANCH 21 26
BRANCH 21 53
ATOM     53 C14  DES L   1      -0.738  -7.158 -10.257  1.00  0.00    +0.0085  C
ATOM     54 N15  DES L   1       0.660  -6.876  -9.876  1.00  0.00    -0.3289 NA
ATOM     55 H42  DES L   1      -0.770  -8.142 -10.740  1.00  0.00    +0.0432  H
ATOM     56 H43  DES L   1      -1.329  -7.230  -9.336  1.00  0.00    +0.0432  H
ATOM     57 H44  DES L   1       1.233  -6.919 -10.726  1.00  0.00    +0.1182 HD
ATOM     58 H45  DES L   1       0.996  -7.653  -9.301  1.00  0.00    +0.1182 HD
ENDBRANCH 21 53
ENDBRANCH 17 21
ENDBRANCH 1 19
TORSDOF 8
ENDMDL
MODEL 12
REMARK VINA RESULT:    -6.732      3.708      5.660
REMARK INTER + INTRA:         -11.285
REMARK INTER:                 -10.306
REMARK INTRA:                  -0.979
REMARK UNBOUND:                -1.404
ROOT
ATOM      1 C19  DES L   1       0.595  -1.466 -12.884  1.00  0.00    +0.0423  A
ATOM      2 C20  DES L   1       1.039  -0.407 -12.094  1.00  0.00    -0.0377  A
ATOM      3 C21  DES L   1       0.900   0.914 -12.535  1.00  0.00    -0.0506  A
ATOM      4 C22  DES L   1       0.312   1.193 -13.780  1.00  0.00    +0.0004  A
ATOM      5 C23  DES L   1       0.150   2.492 -14.270  1.00  0.00    +0.0353  A
ATOM      6 N24  DES L   1      -0.412   2.796 -15.464  1.00  0.00    -0.2626 NA
ATOM      7 C25  DES L   1      -0.835   1.758 -16.211  1.00  0.00    +0.0281  A
ATOM      8 C26  DES L   1      -0.724   0.431 -15.824  1.00  0.00    -0.0358  A
ATOM      9 C27  DES L   1      -0.139   0.134 -14.587  1.00  0.00    -0.0131  A
ATOM     10 C28  DES L   1       0.007  -1.188 -14.128  1.00  0.00    -0.0305  A
ATOM     11 H47  DES L   1       1.497  -0.571 -11.124  1.00  0.00    +0.0638  H
ATOM     12 H48  DES L   1       1.254   1.720 -11.897  1.00  0.00    +0.0625  H
ATOM     13 H49  DES L   1       0.477   3.354 -13.695  1.00  0.00    +0.0836  H
ATOM     14 H50  DES L   1      -1.283   2.025 -17.164  1.00  0.00    +0.0830  H
ATOM     15 H51  DES L   1      -1.088  -0.353 -16.482  1.00  0.00    +0.0639  H
ATOM     16 H52  DES L   1      -0.342  -2.008 -14.751  1.00  0.00    +0.0644  H
ENDROOT
BRANCH 1 19
ATOM     17 C16  DES L   1       1.534  -3.792 -13.030  1.00  0.00    +0.2339  C
ATOM     18 O17  DES L   1       2.359  -3.626 -13.927  1.00  0.00    -0.2722 OA
ATOM     19 N18  DES L   1       0.695  -2.820 -12.515  1.00  0.00    -0.3256  N
ATOM     20 H46  DES L   1       0.064  -3.141 -11.775  1.00  0.00    +0.1686 HD
BRANCH 17 21
ATOM     21 C13  DES L   1       1.399  -5.164 -12.345  1.00  0.00    +0.0752  C
ATOM     22 H41  DES L   1       1.764  -4.976 -11.323  1.00  0.00    +0.0458  H
BRANCH 21 26
ATOM     23  C9  DES L   1      -2.688  -6.581 -11.849  1.00  0.00    -0.0103  A
ATOM     24 C10  DES L   1      -1.911  -7.043 -12.918  1.00  0.00    -0.0551  A
ATOM     25 C11  DES L   1      -0.600  -6.591 -13.095  1.00  0.00    -0.0574  A
ATOM     26 C12  DES L   1      -0.036  -5.659 -12.212  1.00  0.00    -0.0341  A
ATOM     27 C29  DES L   1      -0.823  -5.194 -11.145  1.00  0.00    -0.0574  A
ATOM     28 C30  DES L   1      -2.135  -5.644 -10.970  1.00  0.00    -0.0551  A
ATOM     29 H39  DES L   1      -2.330  -7.750 -13.632  1.00  0.00    +0.0621  H
ATOM     30 H40  DES L   1      -0.037  -6.977 -13.943  1.00  0.00    +0.0621  H
ATOM     31 H53  DES L   1      -0.424  -4.464 -10.443  1.00  0.00    +0.0621  H
ATOM     32 H54  DES L   1      -2.727  -5.250 -10.147  1.00  0.00    +0.0621  H
BRANCH 23 33
ATOM     33  C8  DES L   1      -4.112  -7.045 -11.684  1.00  0.00    +0.1179  C
ATOM     34 H37  DES L   1      -4.289  -7.994 -12.203  1.00  0.00    +0.0749  H
ATOM     35 H38  DES L   1      -4.317  -7.241 -10.625  1.00  0.00    +0.0749  H
BRANCH 33 36
ATOM     36  O7  DES L   1      -5.003  -6.007 -12.107  1.00  0.00    -0.4564 OA
BRANCH 36 37
ATOM     37  C5  DES L   1      -5.671  -6.247 -13.262  1.00  0.00    +0.3398  C
ATOM     38  O6  DES L   1      -5.175  -6.543 -14.337  1.00  0.00    -0.2449 OA
BRANCH 37 42
ATOM     39  C1  DES L   1      -9.889  -5.783 -12.652  1.00  0.00    -0.0615  A
ATOM     40  C2  DES L   1      -9.316  -7.051 -12.657  1.00  0.00    -0.0610  A
ATOM     41  C3  DES L   1      -7.942  -7.191 -12.848  1.00  0.00    -0.0475  A
ATOM     42  C4  DES L   1      -7.129  -6.060 -13.031  1.00  0.00    +0.0619  A
ATOM     43 C31  DES L   1      -7.701  -4.772 -13.018  1.00  0.00    -0.0365  A
ATOM     44 C32  DES L   1      -6.883  -3.524 -13.205  1.00  0.00    -0.0389  C
ATOM     45 C33  DES L   1      -9.090  -4.653 -12.833  1.00  0.00    -0.0581  A
ATOM     46 H34  DES L   1     -10.961  -5.671 -12.507  1.00  0.00    +0.0618  H
ATOM     47 H35  DES L   1      -9.939  -7.931 -12.517  1.00  0.00    +0.0618  H
ATOM     48 H36  DES L   1      -7.511  -8.190 -12.863  1.00  0.00    +0.0626  H
ATOM     49 H55  DES L   1      -6.008  -3.533 -12.548  1.00  0.00    +0.0278  H
ATOM     50 H56  DES L   1      -6.564  -3.433 -14.248  1.00  0.00    +0.0278  H
ATOM     51 H57  DES L   1      -7.460  -2.629 -12.952  1.00  0.00    +0.0278  H
ATOM     52 H58  DES L   1      -9.560  -3.671 -12.825  1.00  0.00    +0.0620  H
ENDBRANCH 37 42
ENDBRANCH 36 37
ENDBRANCH 33 36
ENDBRANCH 23 33
ENDBRANCH 21 26
BRANCH 21 53
ATOM     53 C14  DES L   1       2.343  -6.239 -12.933  1.00  0.00    +0.0085  C
ATOM     54 N15  DES L   1       3.776  -6.001 -12.668  1.00  0.00    -0.3289 NA
ATOM     55 H42  DES L   1       2.202  -6.306 -14.018  1.00  0.00    +0.0432  H
ATOM     56 H43  DES L   1       2.083  -7.218 -12.513  1.00  0.00    +0.0432  H
ATOM     57 H44  DES L   1       4.048  -5.141 -13.157  1.00  0.00    +0.1182 HD
ATOM     58 H45  DES L   1       4.313  -6.738 -13.132  1.00  0.00    +0.1182 HD
ENDBRANCH 21 53
ENDBRANCH 17 21
ENDBRANCH 1 19
TORSDOF 8
ENDMDL
MODEL 13
REMARK VINA RESULT:    -6.671      2.433      4.189
REMARK INTER + INTRA:         -11.195
REMARK INTER:                  -9.636
REMARK INTRA:                  -1.559
REMARK UNBOUND:                -1.404
ROOT
ATOM      1 C19  DES L   1      -2.064  -7.699 -11.486  1.00  0.00    +0.0423  A
ATOM      2 C20  DES L   1      -1.258  -7.684 -10.350  1.00  0.00    -0.0377  A
ATOM      3 C21  DES L   1       0.050  -7.191 -10.414  1.00  0.00    -0.0506  A
ATOM      4 C22  DES L   1       0.570  -6.703 -11.625  1.00  0.00    +0.0004  A
ATOM      5 C23  DES L   1       1.868  -6.200 -11.746  1.00  0.00    +0.0353  A
ATOM      6 N24  DES L   1       2.401  -5.723 -12.896  1.00  0.00    -0.2626 NA
ATOM      7 C25  DES L   1       1.604  -5.745 -13.982  1.00  0.00    +0.0281  A
ATOM      8 C26  DES L   1       0.301  -6.221 -13.976  1.00  0.00    -0.0358  A
ATOM      9 C27  DES L   1      -0.233  -6.712 -12.778  1.00  0.00    -0.0131  A
ATOM     10 C28  DES L   1      -1.546  -7.211 -12.695  1.00  0.00    -0.0305  A
ATOM     11 H47  DES L   1      -1.615  -8.047  -9.391  1.00  0.00    +0.0638  H
ATOM     12 H48  DES L   1       0.656  -7.190  -9.512  1.00  0.00    +0.0625  H
ATOM     13 H49  DES L   1       2.540  -6.165 -10.892  1.00  0.00    +0.0836  H
ATOM     14 H50  DES L   1       2.052  -5.357 -14.893  1.00  0.00    +0.0830  H
ATOM     15 H51  DES L   1      -0.280  -6.207 -14.893  1.00  0.00    +0.0639  H
ATOM     16 H52  DES L   1      -2.168  -7.218 -13.588  1.00  0.00    +0.0644  H
ENDROOT
BRANCH 1 19
ATOM     17 C16  DES L   1      -3.833  -9.484 -11.455  1.00  0.00    +0.2339  C
ATOM     18 O17  DES L   1      -3.117 -10.482 -11.382  1.00  0.00    -0.2722 OA
ATOM     19 N18  DES L   1      -3.389  -8.174 -11.506  1.00  0.00    -0.3256  N
ATOM     20 H46  DES L   1      -4.128  -7.470 -11.575  1.00  0.00    +0.1686 HD
BRANCH 17 21
ATOM     21 C13  DES L   1      -5.365  -9.627 -11.450  1.00  0.00    +0.0752  C
ATOM     22 H41  DES L   1      -5.669  -9.091 -10.537  1.00  0.00    +0.0458  H
BRANCH 21 26
ATOM     23  C9  DES L   1      -7.459  -7.688 -14.738  1.00  0.00    -0.0103  A
ATOM     24 C10  DES L   1      -6.212  -8.284 -14.957  1.00  0.00    -0.0551  A
ATOM     25 C11  DES L   1      -5.523  -8.904 -13.910  1.00  0.00    -0.0574  A
ATOM     26 C12  DES L   1      -6.062  -8.934 -12.616  1.00  0.00    -0.0341  A
ATOM     27 C29  DES L   1      -7.312  -8.329 -12.402  1.00  0.00    -0.0574  A
ATOM     28 C30  DES L   1      -7.998  -7.707 -13.448  1.00  0.00    -0.0551  A
ATOM     29 H39  DES L   1      -5.759  -8.256 -15.947  1.00  0.00    +0.0621  H
ATOM     30 H40  DES L   1      -4.555  -9.350 -14.129  1.00  0.00    +0.0621  H
ATOM     31 H53  DES L   1      -7.759  -8.324 -11.409  1.00  0.00    +0.0621  H
ATOM     32 H54  DES L   1      -8.954  -7.227 -13.247  1.00  0.00    +0.0621  H
BRANCH 23 33
ATOM     33  C8  DES L   1      -8.180  -6.991 -15.864  1.00  0.00    +0.1179  C
ATOM     34 H37  DES L   1      -7.651  -7.113 -16.817  1.00  0.00    +0.0749  H
ATOM     35 H38  DES L   1      -9.166  -7.446 -16.009  1.00  0.00    +0.0749  H
BRANCH 33 36
ATOM     36  O7  DES L   1      -8.388  -5.618 -15.518  1.00  0.00    -0.4564 OA
BRANCH 36 37
ATOM     37  C5  DES L   1      -7.313  -4.807 -15.676  1.00  0.00    +0.3398  C
ATOM     38  O6  DES L   1      -6.256  -5.102 -16.210  1.00  0.00    -0.2449 OA
BRANCH 37 42
ATOM     39  C1  DES L   1      -8.123  -0.955 -13.976  1.00  0.00    -0.0615  A
ATOM     40  C2  DES L   1      -8.440  -1.216 -15.306  1.00  0.00    -0.0610  A
ATOM     41  C3  DES L   1      -8.181  -2.475 -15.847  1.00  0.00    -0.0475  A
ATOM     42  C4  DES L   1      -7.604  -3.485 -15.058  1.00  0.00    +0.0619  A
ATOM     43 C31  DES L   1      -7.288  -3.229 -13.709  1.00  0.00    -0.0365  A
ATOM     44 C32  DES L   1      -6.673  -4.270 -12.814  1.00  0.00    -0.0389  C
ATOM     45 C33  DES L   1      -7.549  -1.951 -13.185  1.00  0.00    -0.0581  A
ATOM     46 H34  DES L   1      -8.321   0.027 -13.553  1.00  0.00    +0.0618  H
ATOM     47 H35  DES L   1      -8.886  -0.439 -15.922  1.00  0.00    +0.0618  H
ATOM     48 H36  DES L   1      -8.423  -2.660 -16.891  1.00  0.00    +0.0626  H
ATOM     49 H55  DES L   1      -7.225  -5.213 -12.880  1.00  0.00    +0.0278  H
ATOM     50 H56  DES L   1      -5.625  -4.433 -13.087  1.00  0.00    +0.0278  H
ATOM     51 H57  DES L   1      -6.700  -3.959 -11.765  1.00  0.00    +0.0278  H
ATOM     52 H58  DES L   1      -7.308  -1.724 -12.148  1.00  0.00    +0.0620  H
ENDBRANCH 37 42
ENDBRANCH 36 37
ENDBRANCH 33 36
ENDBRANCH 23 33
ENDBRANCH 21 26
BRANCH 21 53
ATOM     53 C14  DES L   1      -5.845 -11.085 -11.257  1.00  0.00    +0.0085  C
ATOM     54 N15  DES L   1      -5.722 -11.586  -9.874  1.00  0.00    -0.3289 NA
ATOM     55 H42  DES L   1      -5.279 -11.754 -11.915  1.00  0.00    +0.0432  H
ATOM     56 H43  DES L   1      -6.899 -11.160 -11.548  1.00  0.00    +0.0432  H
ATOM     57 H44  DES L   1      -4.724 -11.623  -9.638  1.00  0.00    +0.1182 HD
ATOM     58 H45  DES L   1      -6.023 -12.564  -9.861  1.00  0.00    +0.1182 HD
ENDBRANCH 21 53
ENDBRANCH 17 21
ENDBRANCH 1 19
TORSDOF 8
ENDMDL
MODEL 14
REMARK VINA RESULT:    -6.630      2.024      3.189
REMARK INTER + INTRA:         -11.136
REMARK INTER:                  -9.459
REMARK INTRA:                  -1.676
REMARK UNBOUND:                -1.404
ROOT
ATOM      1 C19  DES L   1       1.114  -6.527 -13.012  1.00  0.00    +0.0423  A
ATOM      2 C20  DES L   1       1.328  -5.208 -13.410  1.00  0.00    -0.0377  A
ATOM      3 C21  DES L   1       2.619  -4.756 -13.701  1.00  0.00    -0.0506  A
ATOM      4 C22  DES L   1       3.720  -5.622 -13.598  1.00  0.00    +0.0004  A
ATOM      5 C23  DES L   1       5.030  -5.223 -13.876  1.00  0.00    +0.0353  A
ATOM      6 N24  DES L   1       6.113  -6.032 -13.787  1.00  0.00    -0.2626 NA
ATOM      7 C25  DES L   1       5.884  -7.302 -13.403  1.00  0.00    +0.0281  A
ATOM      8 C26  DES L   1       4.627  -7.806 -13.103  1.00  0.00    -0.0358  A
ATOM      9 C27  DES L   1       3.518  -6.955 -13.199  1.00  0.00    -0.0131  A
ATOM     10 C28  DES L   1       2.213  -7.394 -12.910  1.00  0.00    -0.0305  A
ATOM     11 H47  DES L   1       0.509  -4.501 -13.506  1.00  0.00    +0.0638  H
ATOM     12 H48  DES L   1       2.756  -3.722 -14.009  1.00  0.00    +0.0625  H
ATOM     13 H49  DES L   1       5.254  -4.207 -14.189  1.00  0.00    +0.0836  H
ATOM     14 H50  DES L   1       6.767  -7.933 -13.339  1.00  0.00    +0.0830  H
ATOM     15 H51  DES L   1       4.521  -8.842 -12.800  1.00  0.00    +0.0639  H
ATOM     16 H52  DES L   1       2.056  -8.425 -12.602  1.00  0.00    +0.0644  H
ENDROOT
BRANCH 1 19
ATOM     17 C16  DES L   1      -1.181  -7.385 -13.569  1.00  0.00    +0.2339  C
ATOM     18 O17  DES L   1      -1.160  -7.252 -14.792  1.00  0.00    -0.2722 OA
ATOM     19 N18  DES L   1      -0.150  -7.062 -12.704  1.00  0.00    -0.3256  N
ATOM     20 H46  DES L   1      -0.348  -7.231 -11.714  1.00  0.00    +0.1686 HD
BRANCH 17 21
ATOM     21 C13  DES L   1      -2.411  -7.998 -12.877  1.00  0.00    +0.0752  C
ATOM     22 H41  DES L   1      -2.052  -8.211 -11.857  1.00  0.00    +0.0458  H
BRANCH 21 26
ATOM     23  C9  DES L   1      -5.794  -5.273 -12.581  1.00  0.00    -0.0103  A
ATOM     24 C10  DES L   1      -4.668  -5.082 -11.772  1.00  0.00    -0.0551  A
ATOM     25 C11  DES L   1      -3.577  -5.953 -11.850  1.00  0.00    -0.0574  A
ATOM     26 C12  DES L   1      -3.590  -7.042 -12.733  1.00  0.00    -0.0341  A
ATOM     27 C29  DES L   1      -4.726  -7.232 -13.538  1.00  0.00    -0.0574  A
ATOM     28 C30  DES L   1      -5.817  -6.362 -13.458  1.00  0.00    -0.0551  A
ATOM     29 H39  DES L   1      -4.639  -4.257 -11.060  1.00  0.00    +0.0621  H
ATOM     30 H40  DES L   1      -2.726  -5.765 -11.197  1.00  0.00    +0.0621  H
ATOM     31 H53  DES L   1      -4.777  -8.070 -14.230  1.00  0.00    +0.0621  H
ATOM     32 H54  DES L   1      -6.692  -6.547 -14.078  1.00  0.00    +0.0621  H
BRANCH 23 33
ATOM     33  C8  DES L   1      -6.981  -4.350 -12.467  1.00  0.00    +0.1179  C
ATOM     34 H37  DES L   1      -7.564  -4.555 -11.561  1.00  0.00    +0.0749  H
ATOM     35 H38  DES L   1      -6.635  -3.315 -12.373  1.00  0.00    +0.0749  H
BRANCH 33 36
ATOM     36  O7  DES L   1      -7.765  -4.434 -13.661  1.00  0.00    -0.4564 OA
BRANCH 36 37
ATOM     37  C5  DES L   1      -9.067  -4.771 -13.482  1.00  0.00    +0.3398  C
ATOM     38  O6  DES L   1      -9.896  -4.142 -12.845  1.00  0.00    -0.2449 OA
BRANCH 37 42
ATOM     39  C1  DES L   1      -9.898  -8.464 -15.493  1.00  0.00    -0.0615  A
ATOM     40  C2  DES L   1      -9.833  -7.274 -16.211  1.00  0.00    -0.0610  A
ATOM     41  C3  DES L   1      -9.553  -6.079 -15.549  1.00  0.00    -0.0475  A
ATOM     42  C4  DES L   1      -9.332  -6.067 -14.161  1.00  0.00    +0.0619  A
ATOM     43 C31  DES L   1      -9.389  -7.271 -13.430  1.00  0.00    -0.0365  A
ATOM     44 C32  DES L   1      -9.159  -7.324 -11.945  1.00  0.00    -0.0389  C
ATOM     45 C33  DES L   1      -9.681  -8.463 -14.115  1.00  0.00    -0.0581  A
ATOM     46 H34  DES L   1     -10.120  -9.397 -16.007  1.00  0.00    +0.0618  H
ATOM     47 H35  DES L   1     -10.003  -7.275 -17.284  1.00  0.00    +0.0618  H
ATOM     48 H36  DES L   1      -9.518  -5.154 -16.121  1.00  0.00    +0.0626  H
ATOM     49 H55  DES L   1      -8.245  -6.784 -11.675  1.00  0.00    +0.0278  H
ATOM     50 H56  DES L   1     -10.014  -6.895 -11.413  1.00  0.00    +0.0278  H
ATOM     51 H57  DES L   1      -9.032  -8.354 -11.598  1.00  0.00    +0.0278  H
ATOM     52 H58  DES L   1      -9.738  -9.407 -13.574  1.00  0.00    +0.0620  H
ENDBRANCH 37 42
ENDBRANCH 36 37
ENDBRANCH 33 36
ENDBRANCH 23 33
ENDBRANCH 21 26
BRANCH 21 53
ATOM     53 C14  DES L   1      -2.829  -9.367 -13.465  1.00  0.00    +0.0085  C
ATOM     54 N15  DES L   1      -1.937  -9.869 -14.528  1.00  0.00    -0.3289 NA
ATOM     55 H42  DES L   1      -3.845  -9.303 -13.872  1.00  0.00    +0.0432  H
ATOM     56 H43  DES L   1      -2.848 -10.114 -12.663  1.00  0.00    +0.0432  H
ATOM     57 H44  DES L   1      -2.004  -9.228 -15.326  1.00  0.00    +0.1182 HD
ATOM     58 H45  DES L   1      -2.322 -10.751 -14.877  1.00  0.00    +0.1182 HD
ENDBRANCH 21 53
ENDBRANCH 17 21
ENDBRANCH 1 19
TORSDOF 8
ENDMDL
MODEL 15
REMARK VINA RESULT:    -6.602      3.059     10.284
REMARK INTER + INTRA:         -11.094
REMARK INTER:                 -10.084
REMARK INTRA:                  -1.010
REMARK UNBOUND:                -1.404
ROOT
ATOM      1 C19  DES L   1      -6.209  -6.331 -14.320  1.00  0.00    +0.0423  A
ATOM      2 C20  DES L   1      -6.952  -6.422 -15.495  1.00  0.00    -0.0377  A
ATOM      3 C21  DES L   1      -7.794  -5.375 -15.884  1.00  0.00    -0.0506  A
ATOM      4 C22  DES L   1      -7.903  -4.216 -15.098  1.00  0.00    +0.0004  A
ATOM      5 C23  DES L   1      -8.728  -3.141 -15.438  1.00  0.00    +0.0353  A
ATOM      6 N24  DES L   1      -8.857  -2.010 -14.704  1.00  0.00    -0.2626 NA
ATOM      7 C25  DES L   1      -8.128  -1.943 -13.573  1.00  0.00    +0.0281  A
ATOM      8 C26  DES L   1      -7.278  -2.949 -13.139  1.00  0.00    -0.0358  A
ATOM      9 C27  DES L   1      -7.158  -4.112 -13.910  1.00  0.00    -0.0131  A
ATOM     10 C28  DES L   1      -6.316  -5.174 -13.534  1.00  0.00    -0.0305  A
ATOM     11 H47  DES L   1      -6.900  -7.296 -16.138  1.00  0.00    +0.0638  H
ATOM     12 H48  DES L   1      -8.362  -5.472 -16.807  1.00  0.00    +0.0625  H
ATOM     13 H49  DES L   1      -9.330  -3.159 -16.343  1.00  0.00    +0.0836  H
ATOM     14 H50  DES L   1      -8.247  -1.027 -13.000  1.00  0.00    +0.0830  H
ATOM     15 H51  DES L   1      -6.723  -2.822 -12.215  1.00  0.00    +0.0639  H
ATOM     16 H52  DES L   1      -5.739  -5.094 -12.615  1.00  0.00    +0.0644  H
ENDROOT
BRANCH 1 19
ATOM     17 C16  DES L   1      -5.598  -8.349 -12.952  1.00  0.00    +0.2339  C
ATOM     18 O17  DES L   1      -6.670  -8.542 -12.380  1.00  0.00    -0.2722 OA
ATOM     19 N18  DES L   1      -5.338  -7.337 -13.859  1.00  0.00    -0.3256  N
ATOM     20 H46  DES L   1      -4.384  -7.323 -14.229  1.00  0.00    +0.1686 HD
BRANCH 17 21
ATOM     21 C13  DES L   1      -4.413  -9.302 -12.719  1.00  0.00    +0.0752  C
ATOM     22 H41  DES L   1      -4.625 -10.145 -13.397  1.00  0.00    +0.0458  H
BRANCH 21 26
ATOM     23  C9  DES L   1      -0.520  -7.789 -13.952  1.00  0.00    -0.0103  A
ATOM     24 C10  DES L   1      -1.130  -7.292 -12.794  1.00  0.00    -0.0551  A
ATOM     25 C11  DES L   1      -2.383  -7.763 -12.389  1.00  0.00    -0.0574  A
ATOM     26 C12  DES L   1      -3.061  -8.735 -13.139  1.00  0.00    -0.0341  A
ATOM     27 C29  DES L   1      -2.446  -9.224 -14.304  1.00  0.00    -0.0574  A
ATOM     28 C30  DES L   1      -1.195  -8.752 -14.709  1.00  0.00    -0.0551  A
ATOM     29 H39  DES L   1      -0.637  -6.520 -12.205  1.00  0.00    +0.0621  H
ATOM     30 H40  DES L   1      -2.818  -7.343 -11.484  1.00  0.00    +0.0621  H
ATOM     31 H53  DES L   1      -2.945  -9.973 -14.916  1.00  0.00    +0.0621  H
ATOM     32 H54  DES L   1      -0.754  -9.134 -15.627  1.00  0.00    +0.0621  H
BRANCH 23 33
ATOM     33  C8  DES L   1       0.815  -7.252 -14.402  1.00  0.00    +0.1179  C
ATOM     34 H37  DES L   1       0.952  -7.368 -15.483  1.00  0.00    +0.0749  H
ATOM     35 H38  DES L   1       0.864  -6.175 -14.208  1.00  0.00    +0.0749  H
BRANCH 33 36
ATOM     36  O7  DES L   1       1.857  -7.872 -13.641  1.00  0.00    -0.4564 OA
BRANCH 36 37
ATOM     37  C5  DES L   1       2.542  -7.047 -12.811  1.00  0.00    +0.3398  C
ATOM     38  O6  DES L   1       2.108  -6.509 -11.806  1.00  0.00    -0.2449 OA
BRANCH 37 42
ATOM     39  C1  DES L   1       6.553  -6.556 -14.242  1.00  0.00    -0.0615  A
ATOM     40  C2  DES L   1       6.185  -7.719 -13.572  1.00  0.00    -0.0610  A
ATOM     41  C3  DES L   1       4.875  -7.873 -13.118  1.00  0.00    -0.0475  A
ATOM     42  C4  DES L   1       3.922  -6.863 -13.335  1.00  0.00    +0.0619  A
ATOM     43 C31  DES L   1       4.287  -5.687 -14.021  1.00  0.00    -0.0365  A
ATOM     44 C32  DES L   1       3.312  -4.574 -14.287  1.00  0.00    -0.0389  C
ATOM     45 C33  DES L   1       5.614  -5.548 -14.463  1.00  0.00    -0.0581  A
ATOM     46 H34  DES L   1       7.575  -6.432 -14.594  1.00  0.00    +0.0618  H
ATOM     47 H35  DES L   1       6.917  -8.503 -13.399  1.00  0.00    +0.0618  H
ATOM     48 H36  DES L   1       4.606  -8.782 -12.584  1.00  0.00    +0.0626  H
ATOM     49 H55  DES L   1       2.384  -4.966 -14.718  1.00  0.00    +0.0278  H
ATOM     50 H56  DES L   1       3.092  -4.033 -13.362  1.00  0.00    +0.0278  H
ATOM     51 H57  DES L   1       3.715  -3.855 -15.007  1.00  0.00    +0.0278  H
ATOM     52 H58  DES L   1       5.925  -4.647 -14.989  1.00  0.00    +0.0620  H
ENDBRANCH 37 42
ENDBRANCH 36 37
ENDBRANCH 33 36
ENDBRANCH 23 33
ENDBRANCH 21 26
BRANCH 21 53
ATOM     53 C14  DES L   1      -4.382  -9.910 -11.297  1.00  0.00    +0.0085  C
ATOM     54 N15  DES L   1      -3.489 -11.076 -11.153  1.00  0.00    -0.3289 NA
ATOM     55 H42  DES L   1      -5.393 -10.214 -11.001  1.00  0.00    +0.0432  H
ATOM     56 H43  DES L   1      -4.053  -9.145 -10.584  1.00  0.00    +0.0432  H
ATOM     57 H44  DES L   1      -3.861 -11.833 -11.737  1.00  0.00    +0.1182 HD
ATOM     58 H45  DES L   1      -3.573 -11.426 -10.196  1.00  0.00    +0.1182 HD
ENDBRANCH 21 53
ENDBRANCH 17 21
ENDBRANCH 1 19
TORSDOF 8
ENDMDL
MODEL 16
REMARK VINA RESULT:    -6.446      3.708      9.072
REMARK INTER + INTRA:         -10.865
REMARK INTER:                  -9.680
REMARK INTRA:                  -1.185
REMARK UNBOUND:                -1.404
ROOT
ATOM      1 C19  DES L   1      -6.564  -5.578 -14.003  1.00  0.00    +0.0423  A
ATOM      2 C20  DES L   1      -7.125  -5.722 -15.270  1.00  0.00    -0.0377  A
ATOM      3 C21  DES L   1      -7.824  -4.664 -15.860  1.00  0.00    -0.0506  A
ATOM      4 C22  DES L   1      -7.971  -3.440 -15.186  1.00  0.00    +0.0004  A
ATOM      5 C23  DES L   1      -8.659  -2.351 -15.728  1.00  0.00    +0.0353  A
ATOM      6 N24  DES L   1      -8.820  -1.159 -15.106  1.00  0.00    -0.2626 NA
ATOM      7 C25  DES L   1      -8.268  -1.041 -13.882  1.00  0.00    +0.0281  A
ATOM      8 C26  DES L   1      -7.565  -2.055 -13.250  1.00  0.00    -0.0358  A
ATOM      9 C27  DES L   1      -7.410  -3.282 -13.907  1.00  0.00    -0.0131  A
ATOM     10 C28  DES L   1      -6.709  -4.356 -13.328  1.00  0.00    -0.0305  A
ATOM     11 H47  DES L   1      -7.036  -6.647 -15.832  1.00  0.00    +0.0638  H
ATOM     12 H48  DES L   1      -8.251  -4.804 -16.851  1.00  0.00    +0.0625  H
ATOM     13 H49  DES L   1      -9.117  -2.409 -16.712  1.00  0.00    +0.0836  H
ATOM     14 H50  DES L   1      -8.409  -0.076 -13.403  1.00  0.00    +0.0830  H
ATOM     15 H51  DES L   1      -7.149  -1.885 -12.261  1.00  0.00    +0.0639  H
ATOM     16 H52  DES L   1      -6.274  -4.233 -12.339  1.00  0.00    +0.0644  H
ENDROOT
BRANCH 1 19
ATOM     17 C16  DES L   1      -5.540  -7.863 -13.788  1.00  0.00    +0.2339  C
ATOM     18 O17  DES L   1      -5.862  -8.336 -14.877  1.00  0.00    -0.2722 OA
ATOM     19 N18  DES L   1      -5.844  -6.590 -13.340  1.00  0.00    -0.3256  N
ATOM     20 H46  DES L   1      -5.503  -6.369 -12.400  1.00  0.00    +0.1686 HD
BRANCH 17 21
ATOM     21 C13  DES L   1      -4.690  -8.687 -12.805  1.00  0.00    +0.0752  C
ATOM     22 H41  DES L   1      -4.330  -9.527 -13.421  1.00  0.00    +0.0458  H
BRANCH 21 26
ATOM     23  C9  DES L   1      -1.087  -6.694 -11.389  1.00  0.00    -0.0103  A
ATOM     24 C10  DES L   1      -2.183  -6.853 -10.532  1.00  0.00    -0.0551  A
ATOM     25 C11  DES L   1      -3.349  -7.484 -10.975  1.00  0.00    -0.0574  A
ATOM     26 C12  DES L   1      -3.452  -7.963 -12.289  1.00  0.00    -0.0341  A
ATOM     27 C29  DES L   1      -2.351  -7.795 -13.145  1.00  0.00    -0.0574  A
ATOM     28 C30  DES L   1      -1.187  -7.161 -12.704  1.00  0.00    -0.0551  A
ATOM     29 H39  DES L   1      -2.139  -6.471  -9.513  1.00  0.00    +0.0621  H
ATOM     30 H40  DES L   1      -4.175  -7.581 -10.273  1.00  0.00    +0.0621  H
ATOM     31 H53  DES L   1      -2.396  -8.146 -14.175  1.00  0.00    +0.0621  H
ATOM     32 H54  DES L   1      -0.358  -7.026 -13.396  1.00  0.00    +0.0621  H
BRANCH 23 33
ATOM     33  C8  DES L   1       0.154  -5.982 -10.916  1.00  0.00    +0.1179  C
ATOM     34 H37  DES L   1       0.210  -5.953  -9.822  1.00  0.00    +0.0749  H
ATOM     35 H38  DES L   1       1.043  -6.530 -11.247  1.00  0.00    +0.0749  H
BRANCH 33 36
ATOM     36  O7  DES L   1       0.210  -4.679 -11.508  1.00  0.00    -0.4564 OA
BRANCH 36 37
ATOM     37  C5  DES L   1       1.305  -4.431 -12.269  1.00  0.00    +0.3398  C
ATOM     38  O6  DES L   1       2.385  -4.992 -12.187  1.00  0.00    -0.2449 OA
BRANCH 37 42
ATOM     39  C1  DES L   1       0.363  -1.211 -14.936  1.00  0.00    -0.0615  A
ATOM     40  C2  DES L   1       0.480  -0.978 -13.570  1.00  0.00    -0.0610  A
ATOM     41  C3  DES L   1       0.795  -2.030 -12.711  1.00  0.00    -0.0475  A
ATOM     42  C4  DES L   1       1.000  -3.326 -13.216  1.00  0.00    +0.0619  A
ATOM     43 C31  DES L   1       0.892  -3.566 -14.601  1.00  0.00    -0.0365  A
ATOM     44 C32  DES L   1       1.104  -4.928 -15.201  1.00  0.00    -0.0389  C
ATOM     45 C33  DES L   1       0.565  -2.493 -15.448  1.00  0.00    -0.0581  A
ATOM     46 H34  DES L   1       0.114  -0.392 -15.608  1.00  0.00    +0.0618  H
ATOM     47 H35  DES L   1       0.321   0.021 -13.172  1.00  0.00    +0.0618  H
ATOM     48 H36  DES L   1       0.870  -1.835 -11.643  1.00  0.00    +0.0626  H
ATOM     49 H55  DES L   1       2.033  -5.374 -14.832  1.00  0.00    +0.0278  H
ATOM     50 H56  DES L   1       0.259  -5.582 -14.965  1.00  0.00    +0.0278  H
ATOM     51 H57  DES L   1       1.190  -4.874 -16.292  1.00  0.00    +0.0278  H
ATOM     52 H58  DES L   1       0.468  -2.652 -16.521  1.00  0.00    +0.0620  H
ENDBRANCH 37 42
ENDBRANCH 36 37
ENDBRANCH 33 36
ENDBRANCH 23 33
ENDBRANCH 21 26
BRANCH 21 53
ATOM     53 C14  DES L   1      -5.516  -9.331 -11.667  1.00  0.00    +0.0085  C
ATOM     54 N15  DES L   1      -6.969  -9.381 -11.924  1.00  0.00    -0.3289 NA
ATOM     55 H42  DES L   1      -5.353  -8.782 -10.732  1.00  0.00    +0.0432  H
ATOM     56 H43  DES L   1      -5.169 -10.358 -11.504  1.00  0.00    +0.0432  H
ATOM     57 H44  DES L   1      -7.316  -8.417 -11.965  1.00  0.00    +0.1182 HD
ATOM     58 H45  DES L   1      -7.425  -9.782 -11.100  1.00  0.00    +0.1182 HD
ENDBRANCH 21 53
ENDBRANCH 17 21
ENDBRANCH 1 19
TORSDOF 8
ENDMDL
MODEL 17
REMARK VINA RESULT:    -6.411      1.886      2.851
REMARK INTER + INTRA:         -10.813
REMARK INTER:                  -9.185
REMARK INTRA:                  -1.629
REMARK UNBOUND:                -1.404
ROOT
ATOM      1 C19  DES L   1      -0.727  -6.812 -12.396  1.00  0.00    +0.0423  A
ATOM      2 C20  DES L   1      -0.695  -5.420 -12.462  1.00  0.00    -0.0377  A
ATOM      3 C21  DES L   1       0.513  -4.749 -12.680  1.00  0.00    -0.0506  A
ATOM      4 C22  DES L   1       1.711  -5.466 -12.837  1.00  0.00    +0.0004  A
ATOM      5 C23  DES L   1       2.945  -4.848 -13.057  1.00  0.00    +0.0353  A
ATOM      6 N24  DES L   1       4.117  -5.508 -13.212  1.00  0.00    -0.2626 NA
ATOM      7 C25  DES L   1       4.062  -6.852 -13.147  1.00  0.00    +0.0281  A
ATOM      8 C26  DES L   1       2.895  -7.570 -12.934  1.00  0.00    -0.0358  A
ATOM      9 C27  DES L   1       1.692  -6.871 -12.773  1.00  0.00    -0.0131  A
ATOM     10 C28  DES L   1       0.468  -7.530 -12.554  1.00  0.00    -0.0305  A
ATOM     11 H47  DES L   1      -1.593  -4.822 -12.349  1.00  0.00    +0.0638  H
ATOM     12 H48  DES L   1       0.509  -3.663 -12.728  1.00  0.00    +0.0625  H
ATOM     13 H49  DES L   1       3.028  -3.765 -13.117  1.00  0.00    +0.0836  H
ATOM     14 H50  DES L   1       5.014  -7.361 -13.275  1.00  0.00    +0.0830  H
ATOM     15 H51  DES L   1       2.930  -8.654 -12.893  1.00  0.00    +0.0639  H
ATOM     16 H52  DES L   1       0.453  -8.616 -12.505  1.00  0.00    +0.0644  H
ENDROOT
BRANCH 1 19
ATOM     17 C16  DES L   1      -2.951  -7.290 -11.328  1.00  0.00    +0.2339  C
ATOM     18 O17  DES L   1      -3.039  -6.311 -10.588  1.00  0.00    -0.2722 OA
ATOM     19 N18  DES L   1      -1.898  -7.564 -12.182  1.00  0.00    -0.3256  N
ATOM     20 H46  DES L   1      -1.990  -8.431 -12.717  1.00  0.00    +0.1686 HD
BRANCH 17 21
ATOM     21 C13  DES L   1      -4.094  -8.318 -11.391  1.00  0.00    +0.0752  C
ATOM     22 H41  DES L   1      -4.607  -8.190 -10.424  1.00  0.00    +0.0458  H
BRANCH 21 26
ATOM     23  C9  DES L   1      -7.014  -7.406 -14.490  1.00  0.00    -0.0103  A
ATOM     24 C10  DES L   1      -7.353  -8.267 -13.439  1.00  0.00    -0.0551  A
ATOM     25 C11  DES L   1      -6.424  -8.575 -12.440  1.00  0.00    -0.0574  A
ATOM     26 C12  DES L   1      -5.129  -8.037 -12.474  1.00  0.00    -0.0341  A
ATOM     27 C29  DES L   1      -4.793  -7.179 -13.535  1.00  0.00    -0.0574  A
ATOM     28 C30  DES L   1      -5.721  -6.874 -14.534  1.00  0.00    -0.0551  A
ATOM     29 H39  DES L   1      -8.344  -8.717 -13.399  1.00  0.00    +0.0621  H
ATOM     30 H40  DES L   1      -6.734  -9.252 -11.647  1.00  0.00    +0.0621  H
ATOM     31 H53  DES L   1      -3.796  -6.749 -13.600  1.00  0.00    +0.0621  H
ATOM     32 H54  DES L   1      -5.425  -6.224 -15.355  1.00  0.00    +0.0621  H
BRANCH 23 33
ATOM     33  C8  DES L   1      -8.009  -7.106 -15.581  1.00  0.00    +0.1179  C
ATOM     34 H37  DES L   1      -7.747  -7.616 -16.516  1.00  0.00    +0.0749  H
ATOM     35 H38  DES L   1      -8.995  -7.489 -15.297  1.00  0.00    +0.0749  H
BRANCH 33 36
ATOM     36  O7  DES L   1      -8.130  -5.688 -15.738  1.00  0.00    -0.4564 OA
BRANCH 36 37
ATOM     37  C5  DES L   1      -8.924  -5.067 -14.831  1.00  0.00    +0.3398  C
ATOM     38  O6  DES L   1      -9.906  -5.541 -14.284  1.00  0.00    -0.2449 OA
BRANCH 37 42
ATOM     39  C1  DES L   1      -7.484  -1.061 -14.323  1.00  0.00    -0.0615  A
ATOM     40  C2  DES L   1      -8.245  -1.396 -15.438  1.00  0.00    -0.0610  A
ATOM     41  C3  DES L   1      -8.716  -2.700 -15.590  1.00  0.00    -0.0475  A
ATOM     42  C4  DES L   1      -8.431  -3.679 -14.623  1.00  0.00    +0.0619  A
ATOM     43 C31  DES L   1      -7.668  -3.343 -13.486  1.00  0.00    -0.0365  A
ATOM     44 C32  DES L   1      -7.334  -4.344 -12.415  1.00  0.00    -0.0389  C
ATOM     45 C33  DES L   1      -7.195  -2.025 -13.356  1.00  0.00    -0.0581  A
ATOM     46 H34  DES L   1      -7.112  -0.046 -14.203  1.00  0.00    +0.0618  H
ATOM     47 H35  DES L   1      -8.469  -0.645 -16.191  1.00  0.00    +0.0618  H
ATOM     48 H36  DES L   1      -9.299  -2.950 -16.474  1.00  0.00    +0.0626  H
ATOM     49 H55  DES L   1      -8.231  -4.885 -12.097  1.00  0.00    +0.0278  H
ATOM     50 H56  DES L   1      -6.583  -5.052 -12.779  1.00  0.00    +0.0278  H
ATOM     51 H57  DES L   1      -6.927  -3.854 -11.525  1.00  0.00    +0.0278  H
ATOM     52 H58  DES L   1      -6.598  -1.740 -12.492  1.00  0.00    +0.0620  H
ENDBRANCH 37 42
ENDBRANCH 36 37
ENDBRANCH 33 36
ENDBRANCH 23 33
ENDBRANCH 21 26
BRANCH 21 53
ATOM     53 C14  DES L   1      -3.601  -9.784 -11.410  1.00  0.00    +0.0085  C
ATOM     54 N15  DES L   1      -3.254 -10.291 -12.752  1.00  0.00    -0.3289 NA
ATOM     55 H42  DES L   1      -4.369 -10.441 -10.984  1.00  0.00    +0.0432  H
ATOM     56 H43  DES L   1      -2.711  -9.875 -10.777  1.00  0.00    +0.0432  H
ATOM     57 H44  DES L   1      -4.113 -10.313 -13.313  1.00  0.00    +0.1182 HD
ATOM     58 H45  DES L   1      -2.984 -11.274 -12.661  1.00  0.00    +0.1182 HD
ENDBRANCH 21 53
ENDBRANCH 17 21
ENDBRANCH 1 19
TORSDOF 8
ENDMDL
MODEL 18
REMARK VINA RESULT:    -6.392      3.512      6.039
REMARK INTER + INTRA:         -10.786
REMARK INTER:                  -9.348
REMARK INTRA:                  -1.438
REMARK UNBOUND:                -1.404
ROOT
ATOM      1 C19  DES L   1       1.036  -2.790 -13.692  1.00  0.00    +0.0423  A
ATOM      2 C20  DES L   1       0.994  -2.015 -12.535  1.00  0.00    -0.0377  A
ATOM      3 C21  DES L   1       0.602  -0.673 -12.594  1.00  0.00    -0.0506  A
ATOM      4 C22  DES L   1       0.245  -0.086 -13.820  1.00  0.00    +0.0004  A
ATOM      5 C23  DES L   1      -0.153   1.248 -13.937  1.00  0.00    +0.0353  A
ATOM      6 N24  DES L   1      -0.504   1.845 -15.101  1.00  0.00    -0.2626 NA
ATOM      7 C25  DES L   1      -0.457   1.077 -16.207  1.00  0.00    +0.0281  A
ATOM      8 C26  DES L   1      -0.078  -0.257 -16.208  1.00  0.00    -0.0358  A
ATOM      9 C27  DES L   1       0.283  -0.857 -14.995  1.00  0.00    -0.0131  A
ATOM     10 C28  DES L   1       0.678  -2.205 -14.917  1.00  0.00    -0.0305  A
ATOM     11 H47  DES L   1       1.258  -2.423 -11.564  1.00  0.00    +0.0638  H
ATOM     12 H48  DES L   1       0.577  -0.092 -11.675  1.00  0.00    +0.0625  H
ATOM     13 H49  DES L   1      -0.204   1.898 -13.067  1.00  0.00    +0.0836  H
ATOM     14 H50  DES L   1      -0.743   1.576 -17.129  1.00  0.00    +0.0830  H
ATOM     15 H51  DES L   1      -0.065  -0.812 -17.140  1.00  0.00    +0.0639  H
ATOM     16 H52  DES L   1       0.707  -2.803 -15.826  1.00  0.00    +0.0644  H
ENDROOT
BRANCH 1 19
ATOM     17 C16  DES L   1       2.608  -4.695 -14.156  1.00  0.00    +0.2339  C
ATOM     18 O17  DES L   1       3.565  -4.067 -14.608  1.00  0.00    -0.2722 OA
ATOM     19 N18  DES L   1       1.415  -4.145 -13.720  1.00  0.00    -0.3256  N
ATOM     20 H46  DES L   1       0.725  -4.821 -13.383  1.00  0.00    +0.1686 HD
BRANCH 17 21
ATOM     21 C13  DES L   1       2.691  -6.222 -13.993  1.00  0.00    +0.0752  C
ATOM     22 H41  DES L   1       3.001  -6.351 -12.943  1.00  0.00    +0.0458  H
BRANCH 21 26
ATOM     23  C9  DES L   1      -1.141  -8.219 -14.527  1.00  0.00    -0.0103  A
ATOM     24 C10  DES L   1      -0.723  -7.837 -13.247  1.00  0.00    -0.0551  A
ATOM     25 C11  DES L   1       0.508  -7.202 -13.058  1.00  0.00    -0.0574  A
ATOM     26 C12  DES L   1       1.355  -6.942 -14.145  1.00  0.00    -0.0341  A
ATOM     27 C29  DES L   1       0.932  -7.334 -15.426  1.00  0.00    -0.0574  A
ATOM     28 C30  DES L   1      -0.297  -7.971 -15.614  1.00  0.00    -0.0551  A
ATOM     29 H39  DES L   1      -1.351  -8.046 -12.382  1.00  0.00    +0.0621  H
ATOM     30 H40  DES L   1       0.791  -6.927 -12.044  1.00  0.00    +0.0621  H
ATOM     31 H53  DES L   1       1.566  -7.157 -16.293  1.00  0.00    +0.0621  H
ATOM     32 H54  DES L   1      -0.588  -8.283 -16.615  1.00  0.00    +0.0621  H
BRANCH 23 33
ATOM     33  C8  DES L   1      -2.454  -8.935 -14.719  1.00  0.00    +0.1179  C
ATOM     34 H37  DES L   1      -2.477  -9.488 -15.665  1.00  0.00    +0.0749  H
ATOM     35 H38  DES L   1      -2.584  -9.686 -13.931  1.00  0.00    +0.0749  H
BRANCH 33 36
ATOM     36  O7  DES L   1      -3.529  -7.998 -14.598  1.00  0.00    -0.4564 OA
BRANCH 36 37
ATOM     37  C5  DES L   1      -4.403  -8.240 -13.590  1.00  0.00    +0.3398  C
ATOM     38  O6  DES L   1      -4.609  -9.316 -13.053  1.00  0.00    -0.2449 OA
BRANCH 37 42
ATOM     39  C1  DES L   1      -6.476  -4.594 -12.699  1.00  0.00    -0.0615  A
ATOM     40  C2  DES L   1      -7.000  -5.491 -13.625  1.00  0.00    -0.0610  A
ATOM     41  C3  DES L   1      -6.323  -6.678 -13.901  1.00  0.00    -0.0475  A
ATOM     42  C4  DES L   1      -5.115  -6.979 -13.249  1.00  0.00    +0.0619  A
ATOM     43 C31  DES L   1      -4.583  -6.078 -12.303  1.00  0.00    -0.0365  A
ATOM     44 C32  DES L   1      -3.298  -6.345 -11.570  1.00  0.00    -0.0389  C
ATOM     45 C33  DES L   1      -5.277  -4.883 -12.046  1.00  0.00    -0.0581  A
ATOM     46 H34  DES L   1      -7.000  -3.666 -12.484  1.00  0.00    +0.0618  H
ATOM     47 H35  DES L   1      -7.933  -5.265 -14.135  1.00  0.00    +0.0618  H
ATOM     48 H36  DES L   1      -6.738  -7.364 -14.637  1.00  0.00    +0.0626  H
ATOM     49 H55  DES L   1      -3.298  -7.353 -11.143  1.00  0.00    +0.0278  H
ATOM     50 H56  DES L   1      -2.444  -6.227 -12.246  1.00  0.00    +0.0278  H
ATOM     51 H57  DES L   1      -3.163  -5.648 -10.736  1.00  0.00    +0.0278  H
ATOM     52 H58  DES L   1      -4.886  -4.166 -11.326  1.00  0.00    +0.0620  H
ENDBRANCH 37 42
ENDBRANCH 36 37
ENDBRANCH 33 36
ENDBRANCH 23 33
ENDBRANCH 21 26
BRANCH 21 53
ATOM     53 C14  DES L   1       3.811  -6.871 -14.839  1.00  0.00    +0.0085  C
ATOM     54 N15  DES L   1       5.157  -6.777 -14.241  1.00  0.00    -0.3289 NA
ATOM     55 H42  DES L   1       3.845  -6.406 -15.832  1.00  0.00    +0.0432  H
ATOM     56 H43  DES L   1       3.584  -7.933 -14.987  1.00  0.00    +0.0432  H
ATOM     57 H44  DES L   1       5.418  -5.785 -14.205  1.00  0.00    +0.1182 HD
ATOM     58 H45  DES L   1       5.827  -7.193 -14.893  1.00  0.00    +0.1182 HD
ENDBRANCH 21 53
ENDBRANCH 17 21
ENDBRANCH 1 19
TORSDOF 8
ENDMDL
MODEL 19
REMARK VINA RESULT:    -6.294      3.586      9.468
REMARK INTER + INTRA:         -10.643
REMARK INTER:                  -8.994
REMARK INTRA:                  -1.649
REMARK UNBOUND:                -1.404
ROOT
ATOM      1 C19  DES L   1      -6.629  -5.879 -14.353  1.00  0.00    +0.0423  A
ATOM      2 C20  DES L   1      -7.198  -5.863 -15.624  1.00  0.00    -0.0377  A
ATOM      3 C21  DES L   1      -7.851  -4.719 -16.095  1.00  0.00    -0.0506  A
ATOM      4 C22  DES L   1      -7.943  -3.569 -15.294  1.00  0.00    +0.0004  A
ATOM      5 C23  DES L   1      -8.583  -2.400 -15.713  1.00  0.00    +0.0353  A
ATOM      6 N24  DES L   1      -8.690  -1.274 -14.968  1.00  0.00    -0.2626 NA
ATOM      7 C25  DES L   1      -8.131  -1.310 -13.742  1.00  0.00    +0.0281  A
ATOM      8 C26  DES L   1      -7.472  -2.415 -13.225  1.00  0.00    -0.0358  A
ATOM      9 C27  DES L   1      -7.373  -3.571 -14.009  1.00  0.00    -0.0131  A
ATOM     10 C28  DES L   1      -6.719  -4.730 -13.552  1.00  0.00    -0.0305  A
ATOM     11 H47  DES L   1      -7.151  -6.726 -16.281  1.00  0.00    +0.0638  H
ATOM     12 H48  DES L   1      -8.286  -4.735 -17.092  1.00  0.00    +0.0625  H
ATOM     13 H49  DES L   1      -9.045  -2.332 -16.695  1.00  0.00    +0.0836  H
ATOM     14 H50  DES L   1      -8.228  -0.397 -13.162  1.00  0.00    +0.0830  H
ATOM     15 H51  DES L   1      -7.047  -2.369 -12.227  1.00  0.00    +0.0639  H
ATOM     16 H52  DES L   1      -6.277  -4.732 -12.558  1.00  0.00    +0.0644  H
ENDROOT
BRANCH 1 19
ATOM     17 C16  DES L   1      -6.473  -8.020 -13.047  1.00  0.00    +0.2339  C
ATOM     18 O17  DES L   1      -7.650  -8.146 -12.715  1.00  0.00    -0.2722 OA
ATOM     19 N18  DES L   1      -5.953  -6.986 -13.805  1.00  0.00    -0.3256  N
ATOM     20 H46  DES L   1      -4.946  -7.039 -13.977  1.00  0.00    +0.1686 HD
BRANCH 17 21
ATOM     21 C13  DES L   1      -5.439  -9.092 -12.656  1.00  0.00    +0.0752  C
ATOM     22 H41  DES L   1      -5.827 -10.007 -13.133  1.00  0.00    +0.0458  H
BRANCH 21 26
ATOM     23  C9  DES L   1      -1.452  -8.536 -14.316  1.00  0.00    -0.0103  A
ATOM     24 C10  DES L   1      -1.859  -7.788 -13.204  1.00  0.00    -0.0551  A
ATOM     25 C11  DES L   1      -3.139  -7.950 -12.665  1.00  0.00    -0.0574  A
ATOM     26 C12  DES L   1      -4.046  -8.857 -13.230  1.00  0.00    -0.0341  A
ATOM     27 C29  DES L   1      -3.634  -9.600 -14.349  1.00  0.00    -0.0574  A
ATOM     28 C30  DES L   1      -2.356  -9.436 -14.890  1.00  0.00    -0.0551  A
ATOM     29 H39  DES L   1      -1.183  -7.060 -12.758  1.00  0.00    +0.0621  H
ATOM     30 H40  DES L   1      -3.409  -7.343 -11.803  1.00  0.00    +0.0621  H
ATOM     31 H53  DES L   1      -4.313 -10.308 -14.821  1.00  0.00    +0.0621  H
ATOM     32 H54  DES L   1      -2.073 -10.009 -15.770  1.00  0.00    +0.0621  H
BRANCH 23 33
ATOM     33  C8  DES L   1      -0.084  -8.331 -14.914  1.00  0.00    +0.1179  C
ATOM     34 H37  DES L   1       0.056  -8.938 -15.816  1.00  0.00    +0.0749  H
ATOM     35 H38  DES L   1       0.027  -7.289 -15.235  1.00  0.00    +0.0749  H
BRANCH 33 36
ATOM     36  O7  DES L   1       0.913  -8.581 -13.917  1.00  0.00    -0.4564 OA
BRANCH 36 37
ATOM     37  C5  DES L   1       1.824  -7.591 -13.744  1.00  0.00    +0.3398  C
ATOM     38  O6  DES L   1       2.913  -7.506 -14.288  1.00  0.00    -0.2449 OA
BRANCH 37 42
ATOM     39  C1  DES L   1       0.280  -4.865 -10.819  1.00  0.00    -0.0615  A
ATOM     40  C2  DES L   1       0.686  -6.141 -10.442  1.00  0.00    -0.0610  A
ATOM     41  C3  DES L   1       1.196  -7.018 -11.400  1.00  0.00    -0.0475  A
ATOM     42  C4  DES L   1       1.305  -6.621 -12.743  1.00  0.00    +0.0619  A
ATOM     43 C31  DES L   1       0.903  -5.326 -13.129  1.00  0.00    -0.0365  A
ATOM     44 C32  DES L   1       0.999  -4.842 -14.550  1.00  0.00    -0.0389  C
ATOM     45 C33  DES L   1       0.384  -4.461 -12.150  1.00  0.00    -0.0581  A
ATOM     46 H34  DES L   1      -0.121  -4.180 -10.074  1.00  0.00    +0.0618  H
ATOM     47 H35  DES L   1       0.604  -6.455  -9.405  1.00  0.00    +0.0618  H
ATOM     48 H36  DES L   1       1.497  -8.017 -11.092  1.00  0.00    +0.0626  H
ATOM     49 H55  DES L   1       1.992  -5.046 -14.962  1.00  0.00    +0.0278  H
ATOM     50 H56  DES L   1       0.234  -5.325 -15.167  1.00  0.00    +0.0278  H
ATOM     51 H57  DES L   1       0.845  -3.760 -14.613  1.00  0.00    +0.0278  H
ATOM     52 H58  DES L   1       0.059  -3.458 -12.422  1.00  0.00    +0.0620  H
ENDBRANCH 37 42
ENDBRANCH 36 37
ENDBRANCH 33 36
ENDBRANCH 23 33
ENDBRANCH 21 26
BRANCH 21 53
ATOM     53 C14  DES L   1      -5.410  -9.394 -11.139  1.00  0.00    +0.0085  C
ATOM     54 N15  DES L   1      -6.648 -10.006 -10.618  1.00  0.00    -0.3289 NA
ATOM     55 H42  DES L   1      -5.223  -8.470 -10.579  1.00  0.00    +0.0432  H
ATOM     56 H43  DES L   1      -4.581 -10.077 -10.922  1.00  0.00    +0.0432  H
ATOM     57 H44  DES L   1      -7.406  -9.321 -10.718  1.00  0.00    +0.1182 HD
ATOM     58 H45  DES L   1      -6.544 -10.125  -9.607  1.00  0.00    +0.1182 HD
ENDBRANCH 21 53
ENDBRANCH 17 21
ENDBRANCH 1 19
TORSDOF 8
ENDMDL
MODEL 20
REMARK VINA RESULT:    -6.291      4.559      8.774
REMARK INTER + INTRA:         -10.637
REMARK INTER:                  -9.363
REMARK INTRA:                  -1.275
REMARK UNBOUND:                -1.404
ROOT
ATOM      1 C19  DES L   1      -3.093  -7.216 -12.014  1.00  0.00    +0.0423  A
ATOM      2 C20  DES L   1      -3.451  -8.531 -11.723  1.00  0.00    -0.0377  A
ATOM      3 C21  DES L   1      -4.771  -8.961 -11.897  1.00  0.00    -0.0506  A
ATOM      4 C22  DES L   1      -5.755  -8.076 -12.369  1.00  0.00    +0.0004  A
ATOM      5 C23  DES L   1      -7.087  -8.452 -12.561  1.00  0.00    +0.0353  A
ATOM      6 N24  DES L   1      -8.059  -7.626 -13.014  1.00  0.00    -0.2626 NA
ATOM      7 C25  DES L   1      -7.690  -6.360 -13.291  1.00  0.00    +0.0281  A
ATOM      8 C26  DES L   1      -6.399  -5.879 -13.138  1.00  0.00    -0.0358  A
ATOM      9 C27  DES L   1      -5.406  -6.747 -12.667  1.00  0.00    -0.0131  A
ATOM     10 C28  DES L   1      -4.074  -6.331 -12.487  1.00  0.00    -0.0305  A
ATOM     11 H47  DES L   1      -2.727  -9.253 -11.358  1.00  0.00    +0.0638  H
ATOM     12 H48  DES L   1      -5.022  -9.993 -11.663  1.00  0.00    +0.0625  H
ATOM     13 H49  DES L   1      -7.421  -9.465 -12.350  1.00  0.00    +0.0836  H
ATOM     14 H50  DES L   1      -8.486  -5.715 -13.653  1.00  0.00    +0.0830  H
ATOM     15 H51  DES L   1      -6.178  -4.844 -13.382  1.00  0.00    +0.0639  H
ATOM     16 H52  DES L   1      -3.804  -5.303 -12.717  1.00  0.00    +0.0644  H
ENDROOT
BRANCH 1 19
ATOM     17 C16  DES L   1      -0.622  -7.145 -12.465  1.00  0.00    +0.2339  C
ATOM     18 O17  DES L   1      -0.527  -8.091 -13.246  1.00  0.00    -0.2722 OA
ATOM     19 N18  DES L   1      -1.790  -6.704 -11.869  1.00  0.00    -0.3256  N
ATOM     20 H46  DES L   1      -1.678  -5.907 -11.237  1.00  0.00    +0.1686 HD
BRANCH 17 21
ATOM     21 C13  DES L   1       0.619  -6.308 -12.108  1.00  0.00    +0.0752  C
ATOM     22 H41  DES L   1       1.454  -6.905 -12.509  1.00  0.00    +0.0458  H
BRANCH 21 26
ATOM     23  C9  DES L   1       0.701  -2.400 -14.027  1.00  0.00    -0.0103  A
ATOM     24 C10  DES L   1       1.005  -3.550 -14.766  1.00  0.00    -0.0551  A
ATOM     25 C11  DES L   1       0.990  -4.811 -14.162  1.00  0.00    -0.0574  A
ATOM     26 C12  DES L   1       0.680  -4.951 -12.802  1.00  0.00    -0.0341  A
ATOM     27 C29  DES L   1       0.382  -3.793 -12.065  1.00  0.00    -0.0574  A
ATOM     28 C30  DES L   1       0.400  -2.533 -12.668  1.00  0.00    -0.0551  A
ATOM     29 H39  DES L   1       1.271  -3.468 -15.819  1.00  0.00    +0.0621  H
ATOM     30 H40  DES L   1       1.237  -5.674 -14.777  1.00  0.00    +0.0621  H
ATOM     31 H53  DES L   1       0.145  -3.861 -11.005  1.00  0.00    +0.0621  H
ATOM     32 H54  DES L   1       0.186  -1.651 -12.067  1.00  0.00    +0.0621  H
BRANCH 23 33
ATOM     33  C8  DES L   1       0.752  -1.041 -14.676  1.00  0.00    +0.1179  C
ATOM     34 H37  DES L   1       1.784  -0.688 -14.791  1.00  0.00    +0.0749  H
ATOM     35 H38  DES L   1       0.342  -1.100 -15.691  1.00  0.00    +0.0749  H
BRANCH 33 36
ATOM     36  O7  DES L   1      -0.066  -0.128 -13.936  1.00  0.00    -0.4564 OA
BRANCH 36 37
ATOM     37  C5  DES L   1       0.564   0.985 -13.486  1.00  0.00    +0.3398  C
ATOM     38  O6  DES L   1       1.223   1.080 -12.464  1.00  0.00    -0.2449 OA
BRANCH 37 42
ATOM     39  C1  DES L   1      -0.288   4.183 -16.210  1.00  0.00    -0.0615  A
ATOM     40  C2  DES L   1      -1.289   3.679 -15.386  1.00  0.00    -0.0610  A
ATOM     41  C3  DES L   1      -1.000   2.645 -14.496  1.00  0.00    -0.0475  A
ATOM     42  C4  DES L   1       0.297   2.109 -14.424  1.00  0.00    +0.0619  A
ATOM     43 C31  DES L   1       1.318   2.621 -15.250  1.00  0.00    -0.0365  A
ATOM     44 C32  DES L   1       2.725   2.092 -15.216  1.00  0.00    -0.0389  C
ATOM     45 C33  DES L   1       1.003   3.658 -16.146  1.00  0.00    -0.0581  A
ATOM     46 H34  DES L   1      -0.511   4.988 -16.907  1.00  0.00    +0.0618  H
ATOM     47 H35  DES L   1      -2.295   4.088 -15.437  1.00  0.00    +0.0618  H
ATOM     48 H36  DES L   1      -1.796   2.252 -13.867  1.00  0.00    +0.0626  H
ATOM     49 H55  DES L   1       3.093   2.037 -14.186  1.00  0.00    +0.0278  H
ATOM     50 H56  DES L   1       2.769   1.101 -15.680  1.00  0.00    +0.0278  H
ATOM     51 H57  DES L   1       3.410   2.748 -15.762  1.00  0.00    +0.0278  H
ATOM     52 H58  DES L   1       1.770   4.068 -16.801  1.00  0.00    +0.0620  H
ENDBRANCH 37 42
ENDBRANCH 36 37
ENDBRANCH 33 36
ENDBRANCH 23 33
ENDBRANCH 21 26
BRANCH 21 53
ATOM     53 C14  DES L   1       0.874  -6.205 -10.586  1.00  0.00    +0.0085  C
ATOM     54 N15  DES L   1       0.262  -7.289  -9.793  1.00  0.00    -0.3289 NA
ATOM     55 H42  DES L   1       0.495  -5.248 -10.209  1.00  0.00    +0.0432  H
ATOM     56 H43  DES L   1       1.954  -6.222 -10.398  1.00  0.00    +0.0432  H
ATOM     57 H44  DES L   1      -0.757  -7.205  -9.878  1.00  0.00    +0.1182 HD
ATOM     58 H45  DES L   1       0.451  -7.106  -8.804  1.00  0.00    +0.1182 HD
ENDBRANCH 21 53
ENDBRANCH 17 21
ENDBRANCH 1 19
TORSDOF 8
ENDMDL
