MODEL 1
REMARK VINA RESULT:    -8.035      0.000      0.000
REMARK INTER + INTRA:         -13.145
REMARK INTER:                 -11.793
REMARK INTRA:                  -1.352
REMARK UNBOUND:                -1.352
ROOT
ATOM      1 C19  DES L   1       1.886  -5.571 -12.570  1.00  0.00    +0.0423  A
ATOM      2 C20  DES L   1       2.041  -4.525 -13.477  1.00  0.00    -0.0377  A
ATOM      3 C21  DES L   1       3.243  -4.362 -14.173  1.00  0.00    -0.0506  A
ATOM      4 C22  DES L   1       4.312  -5.250 -13.970  1.00  0.00    +0.0004  A
ATOM      5 C23  DES L   1       5.534  -5.134 -14.637  1.00  0.00    +0.0353  A
ATOM      6 N24  DES L   1       6.585  -5.972 -14.465  1.00  0.00    -0.2626 NA
ATOM      7 C25  DES L   1       6.413  -6.977 -13.585  1.00  0.00    +0.0281  A
ATOM      8 C26  DES L   1       5.244  -7.187 -12.868  1.00  0.00    -0.0358  A
ATOM      9 C27  DES L   1       4.169  -6.310 -13.058  1.00  0.00    -0.0131  A
ATOM     10 C28  DES L   1       2.953  -6.460 -12.367  1.00  0.00    -0.0305  A
ATOM     11 H47  DES L   1       1.243  -3.814 -13.670  1.00  0.00    +0.0638  H
ATOM     12 H48  DES L   1       3.336  -3.537 -14.876  1.00  0.00    +0.0625  H
ATOM     13 H49  DES L   1       5.710  -4.337 -15.355  1.00  0.00    +0.0836  H
ATOM     14 H50  DES L   1       7.268  -7.637 -13.463  1.00  0.00    +0.0830  H
ATOM     15 H51  DES L   1       5.181  -8.020 -12.175  1.00  0.00    +0.0639  H
ATOM     16 H52  DES L   1       2.841  -7.280 -11.661  1.00  0.00    +0.0644  H
ENDROOT
BRANCH 1 19
ATOM     17 C16  DES L   1      -0.501  -6.302 -12.280  1.00  0.00    +0.2339  C
ATOM     18 O17  DES L   1      -0.759  -6.629 -13.438  1.00  0.00    -0.2722 OA
ATOM     19 N18  DES L   1       0.711  -5.807 -11.832  1.00  0.00    -0.3256  N
ATOM     20 H46  DES L   1       0.742  -5.579 -10.835  1.00  0.00    +0.1686 HD
BRANCH 17 21
ATOM     21 C13  DES L   1      -1.556  -6.474 -11.173  1.00  0.00    +0.0752  C
ATOM     22 H41  DES L   1      -1.386  -5.602 -10.520  1.00  0.00    +0.0458  H
BRANCH 21 26
ATOM     23  C9  DES L   1      -5.693  -6.122 -12.484  1.00  0.00    -0.0103  A
ATOM     24 C10  DES L   1      -5.058  -7.370 -12.498  1.00  0.00    -0.0551  A
ATOM     25 C11  DES L   1      -3.727  -7.497 -12.087  1.00  0.00    -0.0574  A
ATOM     26 C12  DES L   1      -2.997  -6.378 -11.662  1.00  0.00    -0.0341  A
ATOM     27 C29  DES L   1      -3.639  -5.128 -11.657  1.00  0.00    -0.0574  A
ATOM     28 C30  DES L   1      -4.968  -5.001 -12.070  1.00  0.00    -0.0551  A
ATOM     29 H39  DES L   1      -5.594  -8.253 -12.845  1.00  0.00    +0.0621  H
ATOM     30 H40  DES L   1      -3.276  -8.487 -12.119  1.00  0.00    +0.0621  H
ATOM     31 H53  DES L   1      -3.103  -4.235 -11.341  1.00  0.00    +0.0621  H
ATOM     32 H54  DES L   1      -5.432  -4.017 -12.076  1.00  0.00    +0.0621  H
BRANCH 23 33
ATOM     33  C8  DES L   1      -7.117  -5.986 -12.962  1.00  0.00    +0.1179  C
ATOM     34 H37  DES L   1      -7.201  -6.183 -14.037  1.00  0.00    +0.0749  H
ATOM     35 H38  DES L   1      -7.744  -6.738 -12.470  1.00  0.00    +0.0749  H
BRANCH 33 36
ATOM     36  O7  DES L   1      -7.622  -4.699 -12.593  1.00  0.00    -0.4564 OA
BRANCH 36 37
ATOM     37  C5  DES L   1      -8.561  -4.181 -13.422  1.00  0.00    +0.3398  C
ATOM     38  O6  DES L   1      -9.681  -4.627 -13.615  1.00  0.00    -0.2449 OA
BRANCH 37 42
ATOM     39  C1  DES L   1      -7.027  -0.679 -15.361  1.00  0.00    -0.0615  A
ATOM     40  C2  DES L   1      -7.623  -0.583 -14.107  1.00  0.00    -0.0610  A
ATOM     41  C3  DES L   1      -8.111  -1.729 -13.481  1.00  0.00    -0.0475  A
ATOM     42  C4  DES L   1      -8.003  -2.984 -14.105  1.00  0.00    +0.0619  A
ATOM     43 C31  DES L   1      -7.392  -3.089 -15.371  1.00  0.00    -0.0365  A
ATOM     44 C32  DES L   1      -7.243  -4.403 -16.087  1.00  0.00    -0.0389  C
ATOM     45 C33  DES L   1      -6.914  -1.920 -15.989  1.00  0.00    -0.0581  A
ATOM     46 H34  DES L   1      -6.648   0.214 -15.853  1.00  0.00    +0.0618  H
ATOM     47 H35  DES L   1      -7.711   0.384 -13.619  1.00  0.00    +0.0618  H
ATOM     48 H36  DES L   1      -8.586  -1.636 -12.507  1.00  0.00    +0.0626  H
ATOM     49 H55  DES L   1      -6.819  -5.161 -15.421  1.00  0.00    +0.0278  H
ATOM     50 H56  DES L   1      -8.214  -4.741 -16.465  1.00  0.00    +0.0278  H
ATOM     51 H57  DES L   1      -6.564  -4.316 -16.942  1.00  0.00    +0.0278  H
ATOM     52 H58  DES L   1      -6.445  -1.971 -16.970  1.00  0.00    +0.0620  H
ENDBRANCH 37 42
ENDBRANCH 36 37
ENDBRANCH 33 36
ENDBRANCH 23 33
ENDBRANCH 21 26
BRANCH 21 53
ATOM     53 C14  DES L   1      -1.316  -7.715 -10.281  1.00  0.00    +0.0085  C
ATOM     54 N15  DES L   1      -0.042  -7.689  -9.535  1.00  0.00    -0.3289 NA
ATOM     55 H42  DES L   1      -1.335  -8.623 -10.894  1.00  0.00    +0.0432  H
ATOM     56 H43  DES L   1      -2.130  -7.799  -9.552  1.00  0.00    +0.0432  H
ATOM     57 H44  DES L   1       0.724  -7.723 -10.216  1.00  0.00    +0.1182 HD
ATOM     58 H45  DES L   1       0.040  -8.566  -9.014  1.00  0.00    +0.1182 HD
ENDBRANCH 21 53
ENDBRANCH 17 21
ENDBRANCH 1 19
TORSDOF 8
ENDMDL
MODEL 2
REMARK VINA RESULT:    -7.828      1.212      1.845
REMARK INTER + INTRA:         -12.841
REMARK INTER:                 -11.248
REMARK INTRA:                  -1.593
REMARK UNBOUND:                -1.352
ROOT
ATOM      1 C19  DES L   1       1.791  -6.037 -13.017  1.00  0.00    +0.0423  A
ATOM      2 C20  DES L   1       1.675  -5.232 -14.149  1.00  0.00    -0.0377  A
ATOM      3 C21  DES L   1       2.810  -4.884 -14.890  1.00  0.00    -0.0506  A
ATOM      4 C22  DES L   1       4.082  -5.339 -14.506  1.00  0.00    +0.0004  A
ATOM      5 C23  DES L   1       5.247  -5.021 -15.208  1.00  0.00    +0.0353  A
ATOM      6 N24  DES L   1       6.488  -5.443 -14.866  1.00  0.00    -0.2626 NA
ATOM      7 C25  DES L   1       6.577  -6.221 -13.770  1.00  0.00    +0.0281  A
ATOM      8 C26  DES L   1       5.488  -6.599 -12.999  1.00  0.00    -0.0358  A
ATOM      9 C27  DES L   1       4.212  -6.152 -13.366  1.00  0.00    -0.0131  A
ATOM     10 C28  DES L   1       3.061  -6.494 -12.633  1.00  0.00    -0.0305  A
ATOM     11 H47  DES L   1       0.714  -4.858 -14.487  1.00  0.00    +0.0638  H
ATOM     12 H48  DES L   1       2.690  -4.255 -15.769  1.00  0.00    +0.0625  H
ATOM     13 H49  DES L   1       5.215  -4.397 -16.098  1.00  0.00    +0.0836  H
ATOM     14 H50  DES L   1       7.581  -6.548 -13.514  1.00  0.00    +0.0830  H
ATOM     15 H51  DES L   1       5.638  -7.228 -12.127  1.00  0.00    +0.0639  H
ATOM     16 H52  DES L   1       3.161  -7.123 -11.751  1.00  0.00    +0.0644  H
ENDROOT
BRANCH 1 19
ATOM     17 C16  DES L   1      -0.118  -5.648 -11.430  1.00  0.00    +0.2339  C
ATOM     18 O17  DES L   1      -0.026  -4.429 -11.291  1.00  0.00    -0.2722 OA
ATOM     19 N18  DES L   1       0.702  -6.435 -12.219  1.00  0.00    -0.3256  N
ATOM     20 H46  DES L   1       0.484  -7.435 -12.206  1.00  0.00    +0.1686 HD
BRANCH 17 21
ATOM     21 C13  DES L   1      -1.246  -6.425 -10.728  1.00  0.00    +0.0752  C
ATOM     22 H41  DES L   1      -1.489  -5.793  -9.859  1.00  0.00    +0.0458  H
BRANCH 21 26
ATOM     23  C9  DES L   1      -4.836  -6.829 -13.158  1.00  0.00    -0.0103  A
ATOM     24 C10  DES L   1      -4.666  -5.706 -12.340  1.00  0.00    -0.0551  A
ATOM     25 C11  DES L   1      -3.522  -5.565 -11.549  1.00  0.00    -0.0574  A
ATOM     26 C12  DES L   1      -2.525  -6.550 -11.548  1.00  0.00    -0.0341  A
ATOM     27 C29  DES L   1      -2.704  -7.678 -12.367  1.00  0.00    -0.0574  A
ATOM     28 C30  DES L   1      -3.848  -7.820 -13.156  1.00  0.00    -0.0551  A
ATOM     29 H39  DES L   1      -5.436  -4.936 -12.303  1.00  0.00    +0.0621  H
ATOM     30 H40  DES L   1      -3.438  -4.676 -10.927  1.00  0.00    +0.0621  H
ATOM     31 H53  DES L   1      -1.955  -8.468 -12.387  1.00  0.00    +0.0621  H
ATOM     32 H54  DES L   1      -3.969  -8.715 -13.763  1.00  0.00    +0.0621  H
BRANCH 23 33
ATOM     33  C8  DES L   1      -6.087  -6.991 -13.983  1.00  0.00    +0.1179  C
ATOM     34 H37  DES L   1      -6.142  -7.986 -14.440  1.00  0.00    +0.0749  H
ATOM     35 H38  DES L   1      -6.968  -6.910 -13.336  1.00  0.00    +0.0749  H
BRANCH 33 36
ATOM     36  O7  DES L   1      -6.163  -5.934 -14.945  1.00  0.00    -0.4564 OA
BRANCH 36 37
ATOM     37  C5  DES L   1      -7.408  -5.450 -15.182  1.00  0.00    +0.3398  C
ATOM     38  O6  DES L   1      -8.360  -6.081 -15.610  1.00  0.00    -0.2449 OA
BRANCH 37 42
ATOM     39  C1  DES L   1      -7.402  -1.248 -14.334  1.00  0.00    -0.0615  A
ATOM     40  C2  DES L   1      -7.084  -1.706 -15.609  1.00  0.00    -0.0610  A
ATOM     41  C3  DES L   1      -7.098  -3.075 -15.877  1.00  0.00    -0.0475  A
ATOM     42  C4  DES L   1      -7.433  -3.996 -14.870  1.00  0.00    +0.0619  A
ATOM     43 C31  DES L   1      -7.764  -3.537 -13.579  1.00  0.00    -0.0365  A
ATOM     44 C32  DES L   1      -8.135  -4.472 -12.461  1.00  0.00    -0.0389  C
ATOM     45 C33  DES L   1      -7.736  -2.154 -13.327  1.00  0.00    -0.0581  A
ATOM     46 H34  DES L   1      -7.389  -0.181 -14.121  1.00  0.00    +0.0618  H
ATOM     47 H35  DES L   1      -6.823  -1.000 -16.392  1.00  0.00    +0.0618  H
ATOM     48 H36  DES L   1      -6.835  -3.419 -16.875  1.00  0.00    +0.0626  H
ATOM     49 H55  DES L   1      -8.894  -5.189 -12.792  1.00  0.00    +0.0278  H
ATOM     50 H56  DES L   1      -7.249  -5.008 -12.105  1.00  0.00    +0.0278  H
ATOM     51 H57  DES L   1      -8.562  -3.929 -11.612  1.00  0.00    +0.0278  H
ATOM     52 H58  DES L   1      -7.981  -1.772 -12.337  1.00  0.00    +0.0620  H
ENDBRANCH 37 42
ENDBRANCH 36 37
ENDBRANCH 33 36
ENDBRANCH 23 33
ENDBRANCH 21 26
BRANCH 21 53
ATOM     53 C14  DES L   1      -0.786  -7.780 -10.140  1.00  0.00    +0.0085  C
ATOM     54 N15  DES L   1       0.525  -7.735  -9.462  1.00  0.00    -0.3289 NA
ATOM     55 H42  DES L   1      -0.733  -8.532 -10.936  1.00  0.00    +0.0432  H
ATOM     56 H43  DES L   1      -1.528  -8.130  -9.413  1.00  0.00    +0.0432  H
ATOM     57 H44  DES L   1       1.238  -7.517 -10.166  1.00  0.00    +0.1182 HD
ATOM     58 H45  DES L   1       0.755  -8.682  -9.149  1.00  0.00    +0.1182 HD
ENDBRANCH 21 53
ENDBRANCH 17 21
ENDBRANCH 1 19
TORSDOF 8
ENDMDL
MODEL 3
REMARK VINA RESULT:    -7.619      2.730     10.368
REMARK INTER + INTRA:         -12.535
REMARK INTER:                 -11.362
REMARK INTRA:                  -1.173
REMARK UNBOUND:                -1.352
ROOT
ATOM      1 C19  DES L   1      -5.108  -6.864 -12.669  1.00  0.00    +0.0423  A
ATOM      2 C20  DES L   1      -6.096  -7.838 -12.798  1.00  0.00    -0.0377  A
ATOM      3 C21  DES L   1      -7.432  -7.471 -12.996  1.00  0.00    -0.0506  A
ATOM      4 C22  DES L   1      -7.797  -6.116 -13.068  1.00  0.00    +0.0004  A
ATOM      5 C23  DES L   1      -9.115  -5.694 -13.264  1.00  0.00    +0.0353  A
ATOM      6 N24  DES L   1      -9.501  -4.398 -13.339  1.00  0.00    -0.2626 NA
ATOM      7 C25  DES L   1      -8.529  -3.473 -13.214  1.00  0.00    +0.0281  A
ATOM      8 C26  DES L   1      -7.191  -3.779 -13.017  1.00  0.00    -0.0358  A
ATOM      9 C27  DES L   1      -6.810  -5.124 -12.941  1.00  0.00    -0.0131  A
ATOM     10 C28  DES L   1      -5.471  -5.511 -12.743  1.00  0.00    -0.0305  A
ATOM     11 H47  DES L   1      -5.864  -8.897 -12.751  1.00  0.00    +0.0638  H
ATOM     12 H48  DES L   1      -8.182  -8.252 -13.094  1.00  0.00    +0.0625  H
ATOM     13 H49  DES L   1      -9.925  -6.410 -13.370  1.00  0.00    +0.0836  H
ATOM     14 H50  DES L   1      -8.862  -2.441 -13.277  1.00  0.00    +0.0830  H
ATOM     15 H51  DES L   1      -6.465  -2.977 -12.925  1.00  0.00    +0.0639  H
ATOM     16 H52  DES L   1      -4.707  -4.743 -12.644  1.00  0.00    +0.0644  H
ENDROOT
BRANCH 1 19
ATOM     17 C16  DES L   1      -3.031  -7.154 -11.285  1.00  0.00    +0.2339  C
ATOM     18 O17  DES L   1      -3.489  -6.904 -10.171  1.00  0.00    -0.2722 OA
ATOM     19 N18  DES L   1      -3.744  -7.148 -12.471  1.00  0.00    -0.3256  N
ATOM     20 H46  DES L   1      -3.195  -7.372 -13.305  1.00  0.00    +0.1686 HD
BRANCH 17 21
ATOM     21 C13  DES L   1      -1.555  -7.560 -11.442  1.00  0.00    +0.0752  C
ATOM     22 H41  DES L   1      -1.611  -8.617 -11.749  1.00  0.00    +0.0458  H
BRANCH 21 26
ATOM     23  C9  DES L   1       0.618  -5.546 -14.634  1.00  0.00    -0.0103  A
ATOM     24 C10  DES L   1       0.209  -4.829 -13.503  1.00  0.00    -0.0551  A
ATOM     25 C11  DES L   1      -0.495  -5.460 -12.473  1.00  0.00    -0.0574  A
ATOM     26 C12  DES L   1      -0.818  -6.822 -12.554  1.00  0.00    -0.0341  A
ATOM     27 C29  DES L   1      -0.411  -7.535 -13.695  1.00  0.00    -0.0574  A
ATOM     28 C30  DES L   1       0.291  -6.903 -14.725  1.00  0.00    -0.0551  A
ATOM     29 H39  DES L   1       0.426  -3.764 -13.424  1.00  0.00    +0.0621  H
ATOM     30 H40  DES L   1      -0.794  -4.859 -11.617  1.00  0.00    +0.0621  H
ATOM     31 H53  DES L   1      -0.650  -8.592 -13.798  1.00  0.00    +0.0621  H
ATOM     32 H54  DES L   1       0.574  -7.476 -15.606  1.00  0.00    +0.0621  H
BRANCH 23 33
ATOM     33  C8  DES L   1       1.347  -4.852 -15.756  1.00  0.00    +0.1179  C
ATOM     34 H37  DES L   1       0.874  -5.049 -16.725  1.00  0.00    +0.0749  H
ATOM     35 H38  DES L   1       1.296  -3.767 -15.613  1.00  0.00    +0.0749  H
BRANCH 33 36
ATOM     36  O7  DES L   1       2.729  -5.223 -15.727  1.00  0.00    -0.4564 OA
BRANCH 36 37
ATOM     37  C5  DES L   1       3.406  -4.863 -14.609  1.00  0.00    +0.3398  C
ATOM     38  O6  DES L   1       3.280  -3.819 -13.991  1.00  0.00    -0.2449 OA
BRANCH 37 42
ATOM     39  C1  DES L   1       6.152  -7.965 -13.506  1.00  0.00    -0.0615  A
ATOM     40  C2  DES L   1       4.825  -8.024 -13.093  1.00  0.00    -0.0610  A
ATOM     41  C3  DES L   1       3.937  -7.015 -13.465  1.00  0.00    -0.0475  A
ATOM     42  C4  DES L   1       4.372  -5.939 -14.256  1.00  0.00    +0.0619  A
ATOM     43 C31  DES L   1       5.713  -5.878 -14.685  1.00  0.00    -0.0365  A
ATOM     44 C32  DES L   1       6.237  -4.754 -15.536  1.00  0.00    -0.0389  C
ATOM     45 C33  DES L   1       6.594  -6.900 -14.292  1.00  0.00    -0.0581  A
ATOM     46 H34  DES L   1       6.847  -8.749 -13.215  1.00  0.00    +0.0618  H
ATOM     47 H35  DES L   1       4.481  -8.853 -12.480  1.00  0.00    +0.0618  H
ATOM     48 H36  DES L   1       2.905  -7.068 -13.123  1.00  0.00    +0.0626  H
ATOM     49 H55  DES L   1       5.580  -4.579 -16.394  1.00  0.00    +0.0278  H
ATOM     50 H56  DES L   1       6.327  -3.838 -14.943  1.00  0.00    +0.0278  H
ATOM     51 H57  DES L   1       7.228  -4.989 -15.939  1.00  0.00    +0.0278  H
ATOM     52 H58  DES L   1       7.638  -6.875 -14.603  1.00  0.00    +0.0620  H
ENDBRANCH 37 42
ENDBRANCH 36 37
ENDBRANCH 33 36
ENDBRANCH 23 33
ENDBRANCH 21 26
BRANCH 21 53
ATOM     53 C14  DES L   1      -0.770  -7.555 -10.109  1.00  0.00    +0.0085  C
ATOM     54 N15  DES L   1       0.696  -7.623 -10.266  1.00  0.00    -0.3289 NA
ATOM     55 H42  DES L   1      -1.088  -8.400  -9.487  1.00  0.00    +0.0432  H
ATOM     56 H43  DES L   1      -1.006  -6.639  -9.554  1.00  0.00    +0.0432  H
ATOM     57 H44  DES L   1       0.926  -8.531 -10.685  1.00  0.00    +0.1182 HD
ATOM     58 H45  DES L   1       1.115  -7.658  -9.334  1.00  0.00    +0.1182 HD
ENDBRANCH 21 53
ENDBRANCH 17 21
ENDBRANCH 1 19
TORSDOF 8
ENDMDL
MODEL 4
REMARK VINA RESULT:    -7.535      2.327      4.091
REMARK INTER + INTRA:         -12.411
REMARK INTER:                 -10.897
REMARK INTRA:                  -1.515
REMARK UNBOUND:                -1.352
ROOT
ATOM      1 C19  DES L   1       1.500  -5.946 -13.076  1.00  0.00    +0.0423  A
ATOM      2 C20  DES L   1       1.433  -5.195 -14.248  1.00  0.00    -0.0377  A
ATOM      3 C21  DES L   1       2.597  -4.883 -14.958  1.00  0.00    -0.0506  A
ATOM      4 C22  DES L   1       3.851  -5.322 -14.501  1.00  0.00    +0.0004  A
ATOM      5 C23  DES L   1       5.045  -5.040 -15.170  1.00  0.00    +0.0353  A
ATOM      6 N24  DES L   1       6.270  -5.447 -14.758  1.00  0.00    -0.2626 NA
ATOM      7 C25  DES L   1       6.311  -6.173 -13.624  1.00  0.00    +0.0281  A
ATOM      8 C26  DES L   1       5.191  -6.512 -12.881  1.00  0.00    -0.0358  A
ATOM      9 C27  DES L   1       3.933  -6.081 -13.321  1.00  0.00    -0.0131  A
ATOM     10 C28  DES L   1       2.751  -6.386 -12.619  1.00  0.00    -0.0305  A
ATOM     11 H47  DES L   1       0.487  -4.835 -14.642  1.00  0.00    +0.0638  H
ATOM     12 H48  DES L   1       2.515  -4.297 -15.870  1.00  0.00    +0.0625  H
ATOM     13 H49  DES L   1       5.051  -4.458 -16.088  1.00  0.00    +0.0836  H
ATOM     14 H50  DES L   1       7.303  -6.489 -13.313  1.00  0.00    +0.0830  H
ATOM     15 H51  DES L   1       5.304  -7.100 -11.976  1.00  0.00    +0.0639  H
ATOM     16 H52  DES L   1       2.814  -6.973 -11.706  1.00  0.00    +0.0644  H
ENDROOT
BRANCH 1 19
ATOM     17 C16  DES L   1      -0.484  -5.478 -11.605  1.00  0.00    +0.2339  C
ATOM     18 O17  DES L   1      -0.408  -4.252 -11.540  1.00  0.00    -0.2722 OA
ATOM     19 N18  DES L   1       0.378  -6.304 -12.305  1.00  0.00    -0.3256  N
ATOM     20 H46  DES L   1       0.167  -7.304 -12.238  1.00  0.00    +0.1686 HD
BRANCH 17 21
ATOM     21 C13  DES L   1      -1.637  -6.221 -10.908  1.00  0.00    +0.0752  C
ATOM     22 H41  DES L   1      -1.813  -5.624  -9.999  1.00  0.00    +0.0458  H
BRANCH 21 26
ATOM     23  C9  DES L   1      -5.429  -6.175 -13.048  1.00  0.00    -0.0103  A
ATOM     24 C10  DES L   1      -4.534  -7.236 -13.231  1.00  0.00    -0.0551  A
ATOM     25 C11  DES L   1      -3.309  -7.261 -12.556  1.00  0.00    -0.0574  A
ATOM     26 C12  DES L   1      -2.946  -6.220 -11.690  1.00  0.00    -0.0341  A
ATOM     27 C29  DES L   1      -3.846  -5.155 -11.516  1.00  0.00    -0.0574  A
ATOM     28 C30  DES L   1      -5.068  -5.129 -12.192  1.00  0.00    -0.0551  A
ATOM     29 H39  DES L   1      -4.781  -8.047 -13.915  1.00  0.00    +0.0621  H
ATOM     30 H40  DES L   1      -2.646  -8.105 -12.734  1.00  0.00    +0.0621  H
ATOM     31 H53  DES L   1      -3.595  -4.325 -10.858  1.00  0.00    +0.0621  H
ATOM     32 H54  DES L   1      -5.735  -4.280 -12.054  1.00  0.00    +0.0621  H
BRANCH 23 33
ATOM     33  C8  DES L   1      -6.732  -6.137 -13.805  1.00  0.00    +0.1179  C
ATOM     34 H37  DES L   1      -6.930  -5.140 -14.216  1.00  0.00    +0.0749  H
ATOM     35 H38  DES L   1      -6.678  -6.811 -14.667  1.00  0.00    +0.0749  H
BRANCH 33 36
ATOM     36  O7  DES L   1      -7.787  -6.606 -12.959  1.00  0.00    -0.4564 OA
BRANCH 36 37
ATOM     37  C5  DES L   1      -8.542  -7.610 -13.472  1.00  0.00    +0.3398  C
ATOM     38  O6  DES L   1      -9.056  -7.637 -14.578  1.00  0.00    -0.2449 OA
BRANCH 37 42
ATOM     39  C1  DES L   1      -8.970 -10.636 -10.466  1.00  0.00    -0.0615  A
ATOM     40  C2  DES L   1      -9.857  -9.566 -10.514  1.00  0.00    -0.0610  A
ATOM     41  C3  DES L   1      -9.715  -8.591 -11.501  1.00  0.00    -0.0475  A
ATOM     42  C4  DES L   1      -8.683  -8.683 -12.451  1.00  0.00    +0.0619  A
ATOM     43 C31  DES L   1      -7.787  -9.770 -12.412  1.00  0.00    -0.0365  A
ATOM     44 C32  DES L   1      -6.665  -9.926 -13.402  1.00  0.00    -0.0389  C
ATOM     45 C33  DES L   1      -7.942 -10.737 -11.404  1.00  0.00    -0.0581  A
ATOM     46 H34  DES L   1      -9.076 -11.396  -9.695  1.00  0.00    +0.0618  H
ATOM     47 H35  DES L   1     -10.657  -9.487  -9.782  1.00  0.00    +0.0618  H
ATOM     48 H36  DES L   1     -10.409  -7.753 -11.519  1.00  0.00    +0.0626  H
ATOM     49 H55  DES L   1      -7.033  -9.802 -14.426  1.00  0.00    +0.0278  H
ATOM     50 H56  DES L   1      -5.876  -9.195 -13.200  1.00  0.00    +0.0278  H
ATOM     51 H57  DES L   1      -6.219 -10.924 -13.345  1.00  0.00    +0.0278  H
ATOM     52 H58  DES L   1      -7.259 -11.583 -11.346  1.00  0.00    +0.0620  H
ENDBRANCH 37 42
ENDBRANCH 36 37
ENDBRANCH 33 36
ENDBRANCH 23 33
ENDBRANCH 21 26
BRANCH 21 53
ATOM     53 C14  DES L   1      -1.247  -7.632 -10.410  1.00  0.00    +0.0085  C
ATOM     54 N15  DES L   1      -0.030  -7.667  -9.575  1.00  0.00    -0.3289 NA
ATOM     55 H42  DES L   1      -1.094  -8.300 -11.266  1.00  0.00    +0.0432  H
ATOM     56 H43  DES L   1      -2.071  -8.048  -9.819  1.00  0.00    +0.0432  H
ATOM     57 H44  DES L   1       0.763  -7.385 -10.161  1.00  0.00    +0.1182 HD
ATOM     58 H45  DES L   1       0.164  -8.643  -9.335  1.00  0.00    +0.1182 HD
ENDBRANCH 21 53
ENDBRANCH 17 21
ENDBRANCH 1 19
TORSDOF 8
ENDMDL
MODEL 5
REMARK VINA RESULT:    -7.212      3.409      5.580
REMARK INTER + INTRA:         -11.937
REMARK INTER:                 -10.807
REMARK INTRA:                  -1.131
REMARK UNBOUND:                -1.352
ROOT
ATOM      1 C19  DES L   1       0.731  -2.692 -14.112  1.00  0.00    +0.0423  A
ATOM      2 C20  DES L   1       0.617  -2.628 -15.499  1.00  0.00    -0.0377  A
ATOM      3 C21  DES L   1       0.348  -1.410 -16.133  1.00  0.00    -0.0506  A
ATOM      4 C22  DES L   1       0.189  -0.234 -15.382  1.00  0.00    +0.0004  A
ATOM      5 C23  DES L   1      -0.080   1.009 -15.962  1.00  0.00    +0.0353  A
ATOM      6 N24  DES L   1      -0.239   2.161 -15.269  1.00  0.00    -0.2626 NA
ATOM      7 C25  DES L   1      -0.123   2.076 -13.929  1.00  0.00    +0.0281  A
ATOM      8 C26  DES L   1       0.143   0.898 -13.248  1.00  0.00    -0.0358  A
ATOM      9 C27  DES L   1       0.302  -0.285 -13.981  1.00  0.00    -0.0131  A
ATOM     10 C28  DES L   1       0.573  -1.518 -13.361  1.00  0.00    -0.0305  A
ATOM     11 H47  DES L   1       0.733  -3.509 -16.123  1.00  0.00    +0.0638  H
ATOM     12 H48  DES L   1       0.265  -1.389 -17.217  1.00  0.00    +0.0625  H
ATOM     13 H49  DES L   1      -0.180   1.116 -17.039  1.00  0.00    +0.0836  H
ATOM     14 H50  DES L   1      -0.253   3.013 -13.393  1.00  0.00    +0.0830  H
ATOM     15 H51  DES L   1       0.221   0.909 -12.166  1.00  0.00    +0.0639  H
ATOM     16 H52  DES L   1       0.661  -1.558 -12.277  1.00  0.00    +0.0644  H
ENDROOT
BRANCH 1 19
ATOM     17 C16  DES L   1       2.197  -4.564 -13.297  1.00  0.00    +0.2339  C
ATOM     18 O17  DES L   1       3.256  -4.246 -13.836  1.00  0.00    -0.2722 OA
ATOM     19 N18  DES L   1       1.001  -3.874 -13.397  1.00  0.00    -0.3256  N
ATOM     20 H46  DES L   1       0.218  -4.292 -12.888  1.00  0.00    +0.1686 HD
BRANCH 17 21
ATOM     21 C13  DES L   1       2.133  -5.800 -12.383  1.00  0.00    +0.0752  C
ATOM     22 H41  DES L   1       2.505  -5.423 -11.417  1.00  0.00    +0.0458  H
BRANCH 21 26
ATOM     23  C9  DES L   1      -1.920  -7.273 -11.785  1.00  0.00    -0.0103  A
ATOM     24 C10  DES L   1      -1.292  -6.524 -10.783  1.00  0.00    -0.0551  A
ATOM     25 C11  DES L   1       0.012  -6.050 -10.957  1.00  0.00    -0.0574  A
ATOM     26 C12  DES L   1       0.723  -6.323 -12.134  1.00  0.00    -0.0341  A
ATOM     27 C29  DES L   1       0.089  -7.081 -13.133  1.00  0.00    -0.0574  A
ATOM     28 C30  DES L   1      -1.213  -7.556 -12.958  1.00  0.00    -0.0551  A
ATOM     29 H39  DES L   1      -1.812  -6.316  -9.848  1.00  0.00    +0.0621  H
ATOM     30 H40  DES L   1       0.459  -5.476 -10.148  1.00  0.00    +0.0621  H
ATOM     31 H53  DES L   1       0.611  -7.320 -14.058  1.00  0.00    +0.0621  H
ATOM     32 H54  DES L   1      -1.671  -8.159 -13.740  1.00  0.00    +0.0621  H
BRANCH 23 33
ATOM     33  C8  DES L   1      -3.313  -7.810 -11.576  1.00  0.00    +0.1179  C
ATOM     34 H37  DES L   1      -3.498  -8.700 -12.189  1.00  0.00    +0.0749  H
ATOM     35 H38  DES L   1      -3.432  -8.133 -10.535  1.00  0.00    +0.0749  H
BRANCH 33 36
ATOM     36  O7  DES L   1      -4.266  -6.767 -11.811  1.00  0.00    -0.4564 OA
BRANCH 36 37
ATOM     37  C5  DES L   1      -4.880  -6.801 -13.020  1.00  0.00    +0.3398  C
ATOM     38  O6  DES L   1      -4.427  -7.276 -14.048  1.00  0.00    -0.2449 OA
BRANCH 37 42
ATOM     39  C1  DES L   1      -8.653  -4.800 -12.652  1.00  0.00    -0.0615  A
ATOM     40  C2  DES L   1      -7.473  -4.065 -12.722  1.00  0.00    -0.0610  A
ATOM     41  C3  DES L   1      -6.251  -4.725 -12.851  1.00  0.00    -0.0475  A
ATOM     42  C4  DES L   1      -6.202  -6.128 -12.913  1.00  0.00    +0.0619  A
ATOM     43 C31  DES L   1      -7.395  -6.877 -12.851  1.00  0.00    -0.0365  A
ATOM     44 C32  DES L   1      -7.407  -8.379 -12.916  1.00  0.00    -0.0389  C
ATOM     45 C33  DES L   1      -8.615  -6.193 -12.713  1.00  0.00    -0.0581  A
ATOM     46 H34  DES L   1      -9.607  -4.287 -12.548  1.00  0.00    +0.0618  H
ATOM     47 H35  DES L   1      -7.503  -2.979 -12.674  1.00  0.00    +0.0618  H
ATOM     48 H36  DES L   1      -5.337  -4.138 -12.892  1.00  0.00    +0.0626  H
ATOM     49 H55  DES L   1      -6.804  -8.735 -13.758  1.00  0.00    +0.0278  H
ATOM     50 H56  DES L   1      -7.026  -8.803 -11.982  1.00  0.00    +0.0278  H
ATOM     51 H57  DES L   1      -8.421  -8.763 -13.068  1.00  0.00    +0.0278  H
ATOM     52 H58  DES L   1      -9.551  -6.747 -12.655  1.00  0.00    +0.0620  H
ENDBRANCH 37 42
ENDBRANCH 36 37
ENDBRANCH 33 36
ENDBRANCH 23 33
ENDBRANCH 21 26
BRANCH 21 53
ATOM     53 C14  DES L   1       3.115  -6.922 -12.798  1.00  0.00    +0.0085  C
ATOM     54 N15  DES L   1       4.522  -6.663 -12.433  1.00  0.00    -0.3289 NA
ATOM     55 H42  DES L   1       3.065  -7.078 -13.882  1.00  0.00    +0.0432  H
ATOM     56 H43  DES L   1       2.812  -7.861 -12.321  1.00  0.00    +0.0432  H
ATOM     57 H44  DES L   1       4.841  -5.847 -12.966  1.00  0.00    +0.1182 HD
ATOM     58 H45  DES L   1       5.090  -7.438 -12.786  1.00  0.00    +0.1182 HD
ENDBRANCH 21 53
ENDBRANCH 17 21
ENDBRANCH 1 19
TORSDOF 8
ENDMDL
MODEL 6
REMARK VINA RESULT:    -7.083      3.155      4.799
REMARK INTER + INTRA:         -11.748
REMARK INTER:                 -10.218
REMARK INTRA:                  -1.530
REMARK UNBOUND:                -1.352
ROOT
ATOM      1 C19  DES L   1       0.520  -3.219 -13.599  1.00  0.00    +0.0423  A
ATOM      2 C20  DES L   1       0.709  -3.155 -14.978  1.00  0.00    -0.0377  A
ATOM      3 C21  DES L   1       0.849  -1.919 -15.618  1.00  0.00    -0.0506  A
ATOM      4 C22  DES L   1       0.801  -0.723 -14.882  1.00  0.00    +0.0004  A
ATOM      5 C23  DES L   1       0.934   0.537 -15.469  1.00  0.00    +0.0353  A
ATOM      6 N24  DES L   1       0.893   1.708 -14.789  1.00  0.00    -0.2626 NA
ATOM      7 C25  DES L   1       0.710   1.623 -13.457  1.00  0.00    +0.0281  A
ATOM      8 C26  DES L   1       0.567   0.427 -12.771  1.00  0.00    -0.0358  A
ATOM      9 C27  DES L   1       0.610  -0.774 -13.490  1.00  0.00    -0.0131  A
ATOM     10 C28  DES L   1       0.472  -2.026 -12.862  1.00  0.00    -0.0305  A
ATOM     11 H47  DES L   1       0.756  -4.050 -15.590  1.00  0.00    +0.0638  H
ATOM     12 H48  DES L   1       0.997  -1.899 -16.695  1.00  0.00    +0.0625  H
ATOM     13 H49  DES L   1       1.084   0.646 -16.540  1.00  0.00    +0.0836  H
ATOM     14 H50  DES L   1       0.681   2.574 -12.932  1.00  0.00    +0.0830  H
ATOM     15 H51  DES L   1       0.422   0.439 -11.695  1.00  0.00    +0.0639  H
ATOM     16 H52  DES L   1       0.325  -2.066 -11.785  1.00  0.00    +0.0644  H
ENDROOT
BRANCH 1 19
ATOM     17 C16  DES L   1      -0.566  -4.732 -11.912  1.00  0.00    +0.2339  C
ATOM     18 O17  DES L   1      -1.457  -3.985 -11.508  1.00  0.00    -0.2722 OA
ATOM     19 N18  DES L   1       0.373  -4.419 -12.879  1.00  0.00    -0.3256  N
ATOM     20 H46  DES L   1       1.047  -5.162 -13.082  1.00  0.00    +0.1686 HD
BRANCH 17 21
ATOM     21 C13  DES L   1      -0.453  -6.167 -11.369  1.00  0.00    +0.0752  C
ATOM     22 H41  DES L   1      -0.371  -6.023 -10.279  1.00  0.00    +0.0458  H
BRANCH 21 26
ATOM     23  C9  DES L   1      -3.986  -8.589 -12.150  1.00  0.00    -0.0103  A
ATOM     24 C10  DES L   1      -3.900  -7.835 -10.974  1.00  0.00    -0.0551  A
ATOM     25 C11  DES L   1      -2.769  -7.059 -10.705  1.00  0.00    -0.0574  A
ATOM     26 C12  DES L   1      -1.692  -7.024 -11.603  1.00  0.00    -0.0341  A
ATOM     27 C29  DES L   1      -1.783  -7.788 -12.779  1.00  0.00    -0.0574  A
ATOM     28 C30  DES L   1      -2.912  -8.566 -13.045  1.00  0.00    -0.0551  A
ATOM     29 H39  DES L   1      -4.712  -7.861 -10.248  1.00  0.00    +0.0621  H
ATOM     30 H40  DES L   1      -2.747  -6.494  -9.775  1.00  0.00    +0.0621  H
ATOM     31 H53  DES L   1      -0.964  -7.793 -13.496  1.00  0.00    +0.0621  H
ATOM     32 H54  DES L   1      -2.944  -9.164 -13.954  1.00  0.00    +0.0621  H
BRANCH 23 33
ATOM     33  C8  DES L   1      -5.193  -9.451 -12.417  1.00  0.00    +0.1179  C
ATOM     34 H37  DES L   1      -5.118  -9.962 -13.384  1.00  0.00    +0.0749  H
ATOM     35 H38  DES L   1      -5.254 -10.245 -11.664  1.00  0.00    +0.0749  H
BRANCH 33 36
ATOM     36  O7  DES L   1      -6.380  -8.659 -12.300  1.00  0.00    -0.4564 OA
BRANCH 36 37
ATOM     37  C5  DES L   1      -6.806  -8.075 -13.448  1.00  0.00    +0.3398  C
ATOM     38  O6  DES L   1      -6.858  -8.597 -14.549  1.00  0.00    -0.2449 OA
BRANCH 37 42
ATOM     39  C1  DES L   1      -7.799  -3.995 -12.586  1.00  0.00    -0.0615  A
ATOM     40  C2  DES L   1      -6.483  -4.353 -12.860  1.00  0.00    -0.0610  A
ATOM     41  C3  DES L   1      -6.171  -5.682 -13.148  1.00  0.00    -0.0475  A
ATOM     42  C4  DES L   1      -7.178  -6.662 -13.167  1.00  0.00    +0.0619  A
ATOM     43 C31  DES L   1      -8.515  -6.303 -12.899  1.00  0.00    -0.0365  A
ATOM     44 C32  DES L   1      -9.636  -7.305 -12.909  1.00  0.00    -0.0389  C
ATOM     45 C33  DES L   1      -8.806  -4.961 -12.603  1.00  0.00    -0.0581  A
ATOM     46 H34  DES L   1      -8.044  -2.960 -12.358  1.00  0.00    +0.0618  H
ATOM     47 H35  DES L   1      -5.699  -3.601 -12.845  1.00  0.00    +0.0618  H
ATOM     48 H36  DES L   1      -5.136  -5.950 -13.347  1.00  0.00    +0.0626  H
ATOM     49 H55  DES L   1      -9.604  -7.913 -13.819  1.00  0.00    +0.0278  H
ATOM     50 H56  DES L   1      -9.574  -7.952 -12.028  1.00  0.00    +0.0278  H
ATOM     51 H57  DES L   1     -10.612  -6.811 -12.892  1.00  0.00    +0.0278  H
ATOM     52 H58  DES L   1      -9.829  -4.657 -12.385  1.00  0.00    +0.0620  H
ENDBRANCH 37 42
ENDBRANCH 36 37
ENDBRANCH 33 36
ENDBRANCH 23 33
ENDBRANCH 21 26
BRANCH 21 53
ATOM     53 C14  DES L   1       0.850  -6.884 -11.792  1.00  0.00    +0.0085  C
ATOM     54 N15  DES L   1       2.085  -6.237 -11.306  1.00  0.00    -0.3289 NA
ATOM     55 H42  DES L   1       0.903  -6.945 -12.886  1.00  0.00    +0.0432  H
ATOM     56 H43  DES L   1       0.838  -7.912 -11.412  1.00  0.00    +0.0432  H
ATOM     57 H44  DES L   1       2.155  -5.316 -11.751  1.00  0.00    +0.1182 HD
ATOM     58 H45  DES L   1       2.885  -6.760 -11.674  1.00  0.00    +0.1182 HD
ENDBRANCH 21 53
ENDBRANCH 17 21
ENDBRANCH 1 19
TORSDOF 8
ENDMDL
MODEL 7
REMARK VINA RESULT:    -6.985      3.277      4.623
REMARK INTER + INTRA:         -11.604
REMARK INTER:                 -10.264
REMARK INTRA:                  -1.340
REMARK UNBOUND:                -1.352
ROOT
ATOM      1 C19  DES L   1       0.325  -2.502 -13.564  1.00  0.00    +0.0423  A
ATOM      2 C20  DES L   1       0.752  -2.678 -14.879  1.00  0.00    -0.0377  A
ATOM      3 C21  DES L   1       1.056  -1.571 -15.680  1.00  0.00    -0.0506  A
ATOM      4 C22  DES L   1       0.936  -0.267 -15.171  1.00  0.00    +0.0004  A
ATOM      5 C23  DES L   1       1.226   0.873 -15.926  1.00  0.00    +0.0353  A
ATOM      6 N24  DES L   1       1.121   2.143 -15.468  1.00  0.00    -0.2626 NA
ATOM      7 C25  DES L   1       0.708   2.289 -14.194  1.00  0.00    +0.0281  A
ATOM      8 C26  DES L   1       0.394   1.231 -13.355  1.00  0.00    -0.0358  A
ATOM      9 C27  DES L   1       0.507  -0.076 -13.846  1.00  0.00    -0.0131  A
ATOM     10 C28  DES L   1       0.206  -1.200 -13.055  1.00  0.00    -0.0305  A
ATOM     11 H47  DES L   1       0.862  -3.665 -15.316  1.00  0.00    +0.0638  H
ATOM     12 H48  DES L   1       1.388  -1.738 -16.702  1.00  0.00    +0.0625  H
ATOM     13 H49  DES L   1       1.563   0.794 -16.957  1.00  0.00    +0.0836  H
ATOM     14 H50  DES L   1       0.632   3.317 -13.848  1.00  0.00    +0.0830  H
ATOM     15 H51  DES L   1       0.067   1.428 -12.339  1.00  0.00    +0.0639  H
ATOM     16 H52  DES L   1      -0.127  -1.052 -12.030  1.00  0.00    +0.0644  H
ENDROOT
BRANCH 1 19
ATOM     17 C16  DES L   1       0.838  -4.530 -12.172  1.00  0.00    +0.2339  C
ATOM     18 O17  DES L   1       2.044  -4.633 -12.394  1.00  0.00    -0.2722 OA
ATOM     19 N18  DES L   1       0.001  -3.559 -12.693  1.00  0.00    -0.3256  N
ATOM     20 H46  DES L   1      -0.978  -3.634 -12.406  1.00  0.00    +0.1686 HD
BRANCH 17 21
ATOM     21 C13  DES L   1       0.142  -5.506 -11.207  1.00  0.00    +0.0752  C
ATOM     22 H41  DES L   1      -0.039  -4.893 -10.310  1.00  0.00    +0.0458  H
BRANCH 21 26
ATOM     23  C9  DES L   1      -3.707  -6.912 -12.679  1.00  0.00    -0.0103  A
ATOM     24 C10  DES L   1      -3.652  -5.880 -11.735  1.00  0.00    -0.0551  A
ATOM     25 C11  DES L   1      -2.424  -5.423 -11.247  1.00  0.00    -0.0574  A
ATOM     26 C12  DES L   1      -1.221  -5.994 -11.685  1.00  0.00    -0.0341  A
ATOM     27 C29  DES L   1      -1.283  -7.033 -12.628  1.00  0.00    -0.0574  A
ATOM     28 C30  DES L   1      -2.510  -7.492 -13.113  1.00  0.00    -0.0551  A
ATOM     29 H39  DES L   1      -4.573  -5.434 -11.360  1.00  0.00    +0.0621  H
ATOM     30 H40  DES L   1      -2.435  -4.621 -10.511  1.00  0.00    +0.0621  H
ATOM     31 H53  DES L   1      -0.370  -7.507 -12.986  1.00  0.00    +0.0621  H
ATOM     32 H54  DES L   1      -2.528  -8.313 -13.827  1.00  0.00    +0.0621  H
BRANCH 23 33
ATOM     33  C8  DES L   1      -5.035  -7.424 -13.175  1.00  0.00    +0.1179  C
ATOM     34 H37  DES L   1      -5.014  -8.508 -13.338  1.00  0.00    +0.0749  H
ATOM     35 H38  DES L   1      -5.804  -7.251 -12.414  1.00  0.00    +0.0749  H
BRANCH 33 36
ATOM     36  O7  DES L   1      -5.419  -6.696 -14.346  1.00  0.00    -0.4564 OA
BRANCH 36 37
ATOM     37  C5  DES L   1      -6.746  -6.440 -14.464  1.00  0.00    +0.3398  C
ATOM     38  O6  DES L   1      -7.642  -7.267 -14.503  1.00  0.00    -0.2449 OA
BRANCH 37 42
ATOM     39  C1  DES L   1      -7.268  -2.203 -14.852  1.00  0.00    -0.0615  A
ATOM     40  C2  DES L   1      -7.068  -2.991 -15.981  1.00  0.00    -0.0610  A
ATOM     41  C3  DES L   1      -6.908  -4.369 -15.845  1.00  0.00    -0.0475  A
ATOM     42  C4  DES L   1      -6.951  -4.971 -14.575  1.00  0.00    +0.0619  A
ATOM     43 C31  DES L   1      -7.162  -4.178 -13.429  1.00  0.00    -0.0365  A
ATOM     44 C32  DES L   1      -7.222  -4.763 -12.045  1.00  0.00    -0.0389  C
ATOM     45 C33  DES L   1      -7.312  -2.790 -13.587  1.00  0.00    -0.0581  A
ATOM     46 H34  DES L   1      -7.390  -1.126 -14.955  1.00  0.00    +0.0618  H
ATOM     47 H35  DES L   1      -7.032  -2.533 -16.966  1.00  0.00    +0.0618  H
ATOM     48 H36  DES L   1      -6.739  -4.971 -16.736  1.00  0.00    +0.0626  H
ATOM     49 H55  DES L   1      -7.900  -5.622 -12.016  1.00  0.00    +0.0278  H
ATOM     50 H56  DES L   1      -6.222  -5.068 -11.718  1.00  0.00    +0.0278  H
ATOM     51 H57  DES L   1      -7.602  -4.035 -11.321  1.00  0.00    +0.0278  H
ATOM     52 H58  DES L   1      -7.470  -2.153 -12.717  1.00  0.00    +0.0620  H
ENDBRANCH 37 42
ENDBRANCH 36 37
ENDBRANCH 33 36
ENDBRANCH 23 33
ENDBRANCH 21 26
BRANCH 21 53
ATOM     53 C14  DES L   1       1.054  -6.665 -10.741  1.00  0.00    +0.0085  C
ATOM     54 N15  DES L   1       0.601  -7.337  -9.507  1.00  0.00    -0.3289 NA
ATOM     55 H42  DES L   1       2.072  -6.294 -10.575  1.00  0.00    +0.0432  H
ATOM     56 H43  DES L   1       1.111  -7.421 -11.533  1.00  0.00    +0.0432  H
ATOM     57 H44  DES L   1       0.654  -6.658  -8.740  1.00  0.00    +0.1182 HD
ATOM     58 H45  DES L   1       1.290  -8.053  -9.263  1.00  0.00    +0.1182 HD
ENDBRANCH 21 53
ENDBRANCH 17 21
ENDBRANCH 1 19
TORSDOF 8
ENDMDL
MODEL 8
REMARK VINA RESULT:    -6.857      2.097      3.389
REMARK INTER + INTRA:         -11.416
REMARK INTER:                  -9.852
REMARK INTRA:                  -1.563
REMARK UNBOUND:                -1.352
ROOT
ATOM      1 C19  DES L   1       0.874  -6.612 -13.485  1.00  0.00    +0.0423  A
ATOM      2 C20  DES L   1       1.084  -5.272 -13.803  1.00  0.00    -0.0377  A
ATOM      3 C21  DES L   1       2.381  -4.749 -13.849  1.00  0.00    -0.0506  A
ATOM      4 C22  DES L   1       3.491  -5.566 -13.577  1.00  0.00    +0.0004  A
ATOM      5 C23  DES L   1       4.807  -5.097 -13.608  1.00  0.00    +0.0353  A
ATOM      6 N24  DES L   1       5.898  -5.856 -13.351  1.00  0.00    -0.2626 NA
ATOM      7 C25  DES L   1       5.672  -7.149 -13.048  1.00  0.00    +0.0281  A
ATOM      8 C26  DES L   1       4.410  -7.721 -12.988  1.00  0.00    -0.0358  A
ATOM      9 C27  DES L   1       3.293  -6.920 -13.255  1.00  0.00    -0.0131  A
ATOM     10 C28  DES L   1       1.982  -7.429 -13.214  1.00  0.00    -0.0305  A
ATOM     11 H47  DES L   1       0.260  -4.601 -14.024  1.00  0.00    +0.0638  H
ATOM     12 H48  DES L   1       2.516  -3.700 -14.101  1.00  0.00    +0.0625  H
ATOM     13 H49  DES L   1       5.028  -4.060 -13.850  1.00  0.00    +0.0836  H
ATOM     14 H50  DES L   1       6.562  -7.739 -12.846  1.00  0.00    +0.0830  H
ATOM     15 H51  DES L   1       4.308  -8.771 -12.736  1.00  0.00    +0.0639  H
ATOM     16 H52  DES L   1       1.828  -8.477 -12.965  1.00  0.00    +0.0644  H
ENDROOT
BRANCH 1 19
ATOM     17 C16  DES L   1      -1.087  -7.643 -12.299  1.00  0.00    +0.2339  C
ATOM     18 O17  DES L   1      -0.692  -7.561 -11.137  1.00  0.00    -0.2722 OA
ATOM     19 N18  DES L   1      -0.395  -7.217 -13.419  1.00  0.00    -0.3256  N
ATOM     20 H46  DES L   1      -0.875  -7.374 -14.309  1.00  0.00    +0.1686 HD
BRANCH 17 21
ATOM     21 C13  DES L   1      -2.481  -8.219 -12.605  1.00  0.00    +0.0752  C
ATOM     22 H41  DES L   1      -2.672  -8.891 -11.753  1.00  0.00    +0.0458  H
BRANCH 21 26
ATOM     23  C9  DES L   1      -5.685  -5.273 -12.718  1.00  0.00    -0.0103  A
ATOM     24 C10  DES L   1      -4.620  -5.115 -11.824  1.00  0.00    -0.0551  A
ATOM     25 C11  DES L   1      -3.587  -6.057 -11.770  1.00  0.00    -0.0574  A
ATOM     26 C12  DES L   1      -3.600  -7.184 -12.604  1.00  0.00    -0.0341  A
ATOM     27 C29  DES L   1      -4.676  -7.340 -13.494  1.00  0.00    -0.0574  A
ATOM     28 C30  DES L   1      -5.709  -6.400 -13.546  1.00  0.00    -0.0551  A
ATOM     29 H39  DES L   1      -4.595  -4.261 -11.149  1.00  0.00    +0.0621  H
ATOM     30 H40  DES L   1      -2.783  -5.892 -11.056  1.00  0.00    +0.0621  H
ATOM     31 H53  DES L   1      -4.725  -8.206 -14.151  1.00  0.00    +0.0621  H
ATOM     32 H54  DES L   1      -6.540  -6.559 -14.230  1.00  0.00    +0.0621  H
BRANCH 23 33
ATOM     33  C8  DES L   1      -6.812  -4.273 -12.746  1.00  0.00    +0.1179  C
ATOM     34 H37  DES L   1      -6.474  -3.276 -12.440  1.00  0.00    +0.0749  H
ATOM     35 H38  DES L   1      -7.182  -4.161 -13.771  1.00  0.00    +0.0749  H
BRANCH 33 36
ATOM     36  O7  DES L   1      -7.899  -4.758 -11.950  1.00  0.00    -0.4564 OA
BRANCH 36 37
ATOM     37  C5  DES L   1      -9.085  -4.882 -12.595  1.00  0.00    +0.3398  C
ATOM     38  O6  DES L   1      -9.906  -3.998 -12.777  1.00  0.00    -0.2449 OA
BRANCH 37 42
ATOM     39  C1  DES L   1      -9.531  -8.979 -13.773  1.00  0.00    -0.0615  A
ATOM     40  C2  DES L   1      -9.583  -8.627 -12.428  1.00  0.00    -0.0610  A
ATOM     41  C3  DES L   1      -9.446  -7.290 -12.056  1.00  0.00    -0.0475  A
ATOM     42  C4  DES L   1      -9.259  -6.294 -13.030  1.00  0.00    +0.0619  A
ATOM     43 C31  DES L   1      -9.214  -6.644 -14.394  1.00  0.00    -0.0365  A
ATOM     44 C32  DES L   1      -9.020  -5.624 -15.482  1.00  0.00    -0.0389  C
ATOM     45 C33  DES L   1      -9.345  -7.998 -14.748  1.00  0.00    -0.0581  A
ATOM     46 H34  DES L   1      -9.634 -10.022 -14.066  1.00  0.00    +0.0618  H
ATOM     47 H35  DES L   1      -9.726  -9.391 -11.669  1.00  0.00    +0.0618  H
ATOM     48 H36  DES L   1      -9.475  -7.031 -10.999  1.00  0.00    +0.0626  H
ATOM     49 H55  DES L   1      -9.708  -4.783 -15.351  1.00  0.00    +0.0278  H
ATOM     50 H56  DES L   1      -7.987  -5.263 -15.483  1.00  0.00    +0.0278  H
ATOM     51 H57  DES L   1      -9.226  -6.051 -16.469  1.00  0.00    +0.0278  H
ATOM     52 H58  DES L   1      -9.308  -8.298 -15.794  1.00  0.00    +0.0620  H
ENDBRANCH 37 42
ENDBRANCH 36 37
ENDBRANCH 33 36
ENDBRANCH 23 33
ENDBRANCH 21 26
BRANCH 21 53
ATOM     53 C14  DES L   1      -2.511  -9.121 -13.861  1.00  0.00    +0.0085  C
ATOM     54 N15  DES L   1      -2.939 -10.510 -13.601  1.00  0.00    -0.3289 NA
ATOM     55 H42  DES L   1      -1.518  -9.150 -14.323  1.00  0.00    +0.0432  H
ATOM     56 H43  DES L   1      -3.199  -8.691 -14.599  1.00  0.00    +0.0432  H
ATOM     57 H44  DES L   1      -2.235 -10.950 -12.999  1.00  0.00    +0.1182 HD
ATOM     58 H45  DES L   1      -2.884 -11.030 -14.481  1.00  0.00    +0.1182 HD
ENDBRANCH 21 53
ENDBRANCH 17 21
ENDBRANCH 1 19
TORSDOF 8
ENDMDL
MODEL 9
REMARK VINA RESULT:    -6.835      4.226      7.039
REMARK INTER + INTRA:         -11.384
REMARK INTER:                 -10.608
REMARK INTRA:                  -0.777
REMARK UNBOUND:                -1.352
ROOT
ATOM      1 C19  DES L   1       0.769  -2.709 -14.058  1.00  0.00    +0.0423  A
ATOM      2 C20  DES L   1       0.568  -2.658 -15.436  1.00  0.00    -0.0377  A
ATOM      3 C21  DES L   1       0.244  -1.449 -16.061  1.00  0.00    -0.0506  A
ATOM      4 C22  DES L   1       0.116  -0.268 -15.310  1.00  0.00    +0.0004  A
ATOM      5 C23  DES L   1      -0.206   0.966 -15.882  1.00  0.00    +0.0353  A
ATOM      6 N24  DES L   1      -0.337   2.121 -15.188  1.00  0.00    -0.2626 NA
ATOM      7 C25  DES L   1      -0.137   2.049 -13.858  1.00  0.00    +0.0281  A
ATOM      8 C26  DES L   1       0.187   0.881 -13.186  1.00  0.00    -0.0358  A
ATOM      9 C27  DES L   1       0.317  -0.306 -13.919  1.00  0.00    -0.0131  A
ATOM     10 C28  DES L   1       0.643  -1.530 -13.307  1.00  0.00    -0.0305  A
ATOM     11 H47  DES L   1       0.658  -3.542 -16.059  1.00  0.00    +0.0638  H
ATOM     12 H48  DES L   1       0.093  -1.438 -17.138  1.00  0.00    +0.0625  H
ATOM     13 H49  DES L   1      -0.374   1.063 -16.951  1.00  0.00    +0.0836  H
ATOM     14 H50  DES L   1      -0.246   2.989 -13.322  1.00  0.00    +0.0830  H
ATOM     15 H51  DES L   1       0.333   0.901 -12.111  1.00  0.00    +0.0639  H
ATOM     16 H52  DES L   1       0.798  -1.560 -12.230  1.00  0.00    +0.0644  H
ENDROOT
BRANCH 1 19
ATOM     17 C16  DES L   1       2.270  -4.618 -13.410  1.00  0.00    +0.2339  C
ATOM     18 O17  DES L   1       3.246  -4.360 -14.112  1.00  0.00    -0.2722 OA
ATOM     19 N18  DES L   1       1.100  -3.881 -13.353  1.00  0.00    -0.3256  N
ATOM     20 H46  DES L   1       0.387  -4.251 -12.718  1.00  0.00    +0.1686 HD
BRANCH 17 21
ATOM     21 C13  DES L   1       2.298  -5.825 -12.456  1.00  0.00    +0.0752  C
ATOM     22 H41  DES L   1       2.697  -5.402 -11.520  1.00  0.00    +0.0458  H
BRANCH 21 26
ATOM     23  C9  DES L   1      -1.675  -7.382 -11.593  1.00  0.00    -0.0103  A
ATOM     24 C10  DES L   1      -0.746  -7.219 -10.558  1.00  0.00    -0.0551  A
ATOM     25 C11  DES L   1       0.536  -6.728 -10.821  1.00  0.00    -0.0574  A
ATOM     26 C12  DES L   1       0.924  -6.395 -12.127  1.00  0.00    -0.0341  A
ATOM     27 C29  DES L   1      -0.011  -6.567 -13.161  1.00  0.00    -0.0574  A
ATOM     28 C30  DES L   1      -1.292  -7.061 -12.899  1.00  0.00    -0.0551  A
ATOM     29 H39  DES L   1      -1.012  -7.491  -9.537  1.00  0.00    +0.0621  H
ATOM     30 H40  DES L   1       1.224  -6.623  -9.984  1.00  0.00    +0.0621  H
ATOM     31 H53  DES L   1       0.255  -6.327 -14.189  1.00  0.00    +0.0621  H
ATOM     32 H54  DES L   1      -1.987  -7.203 -13.724  1.00  0.00    +0.0621  H
BRANCH 23 33
ATOM     33  C8  DES L   1      -3.044  -7.945 -11.308  1.00  0.00    +0.1179  C
ATOM     34 H37  DES L   1      -3.450  -7.559 -10.365  1.00  0.00    +0.0749  H
ATOM     35 H38  DES L   1      -3.744  -7.626 -12.088  1.00  0.00    +0.0749  H
BRANCH 33 36
ATOM     36  O7  DES L   1      -2.987  -9.375 -11.342  1.00  0.00    -0.4564 OA
BRANCH 36 37
ATOM     37  C5  DES L   1      -3.830  -9.971 -12.222  1.00  0.00    +0.3398  C
ATOM     38  O6  DES L   1      -3.629 -10.147 -13.412  1.00  0.00    -0.2449 OA
BRANCH 37 42
ATOM     39  C1  DES L   1      -7.408 -11.174 -10.190  1.00  0.00    -0.0615  A
ATOM     40  C2  DES L   1      -6.205 -11.825  -9.936  1.00  0.00    -0.0610  A
ATOM     41  C3  DES L   1      -5.045 -11.421 -10.596  1.00  0.00    -0.0475  A
ATOM     42  C4  DES L   1      -5.080 -10.357 -11.513  1.00  0.00    +0.0619  A
ATOM     43 C31  DES L   1      -6.294  -9.687 -11.768  1.00  0.00    -0.0365  A
ATOM     44 C32  DES L   1      -6.395  -8.540 -12.735  1.00  0.00    -0.0389  C
ATOM     45 C33  DES L   1      -7.454 -10.116 -11.099  1.00  0.00    -0.0581  A
ATOM     46 H34  DES L   1      -8.315 -11.490  -9.679  1.00  0.00    +0.0618  H
ATOM     47 H35  DES L   1      -6.170 -12.650  -9.229  1.00  0.00    +0.0618  H
ATOM     48 H36  DES L   1      -4.114 -11.948 -10.397  1.00  0.00    +0.0626  H
ATOM     49 H55  DES L   1      -5.612  -7.800 -12.540  1.00  0.00    +0.0278  H
ATOM     50 H56  DES L   1      -6.315  -8.904 -13.764  1.00  0.00    +0.0278  H
ATOM     51 H57  DES L   1      -7.354  -8.021 -12.638  1.00  0.00    +0.0278  H
ATOM     52 H58  DES L   1      -8.407  -9.622 -11.282  1.00  0.00    +0.0620  H
ENDBRANCH 37 42
ENDBRANCH 36 37
ENDBRANCH 33 36
ENDBRANCH 23 33
ENDBRANCH 21 26
BRANCH 21 53
ATOM     53 C14  DES L   1       3.306  -6.919 -12.880  1.00  0.00    +0.0085  C
ATOM     54 N15  DES L   1       4.708  -6.627 -12.519  1.00  0.00    -0.3289 NA
ATOM     55 H42  DES L   1       3.257  -7.072 -13.964  1.00  0.00    +0.0432  H
ATOM     56 H43  DES L   1       3.030  -7.868 -12.407  1.00  0.00    +0.0432  H
ATOM     57 H44  DES L   1       5.004  -5.800 -13.050  1.00  0.00    +0.1182 HD
ATOM     58 H45  DES L   1       5.294  -7.385 -12.879  1.00  0.00    +0.1182 HD
ENDBRANCH 21 53
ENDBRANCH 17 21
ENDBRANCH 1 19
TORSDOF 8
ENDMDL
MODEL 10
REMARK VINA RESULT:    -6.806      3.065      9.936
REMARK INTER + INTRA:         -11.341
REMARK INTER:                 -10.108
REMARK INTRA:                  -1.233
REMARK UNBOUND:                -1.352
ROOT
ATOM      1 C19  DES L   1      -6.158  -6.093 -14.053  1.00  0.00    +0.0423  A
ATOM      2 C20  DES L   1      -6.878  -6.299 -15.228  1.00  0.00    -0.0377  A
ATOM      3 C21  DES L   1      -7.729  -5.305 -15.721  1.00  0.00    -0.0506  A
ATOM      4 C22  DES L   1      -7.871  -4.083 -15.042  1.00  0.00    +0.0004  A
ATOM      5 C23  DES L   1      -8.707  -3.057 -15.489  1.00  0.00    +0.0353  A
ATOM      6 N24  DES L   1      -8.866  -1.869 -14.858  1.00  0.00    -0.2626 NA
ATOM      7 C25  DES L   1      -8.159  -1.690 -13.725  1.00  0.00    +0.0281  A
ATOM      8 C26  DES L   1      -7.301  -2.639 -13.191  1.00  0.00    -0.0358  A
ATOM      9 C27  DES L   1      -7.149  -3.863 -13.855  1.00  0.00    -0.0131  A
ATOM     10 C28  DES L   1      -6.297  -4.873 -13.373  1.00  0.00    -0.0305  A
ATOM     11 H47  DES L   1      -6.801  -7.224 -15.790  1.00  0.00    +0.0638  H
ATOM     12 H48  DES L   1      -8.279  -5.492 -16.641  1.00  0.00    +0.0625  H
ATOM     13 H49  DES L   1      -9.291  -3.164 -16.399  1.00  0.00    +0.0836  H
ATOM     14 H50  DES L   1      -8.303  -0.730 -13.237  1.00  0.00    +0.0830  H
ATOM     15 H51  DES L   1      -6.765  -2.422 -12.272  1.00  0.00    +0.0639  H
ATOM     16 H52  DES L   1      -5.739  -4.703 -12.456  1.00  0.00    +0.0644  H
ENDROOT
BRANCH 1 19
ATOM     17 C16  DES L   1      -5.590  -8.162 -12.744  1.00  0.00    +0.2339  C
ATOM     18 O17  DES L   1      -6.723  -8.530 -12.439  1.00  0.00    -0.2722 OA
ATOM     19 N18  DES L   1      -5.280  -7.039 -13.491  1.00  0.00    -0.3256  N
ATOM     20 H46  DES L   1      -4.280  -6.882 -13.640  1.00  0.00    +0.1686 HD
BRANCH 17 21
ATOM     21 C13  DES L   1      -4.366  -8.998 -12.331  1.00  0.00    +0.0752  C
ATOM     22 H41  DES L   1      -4.149  -9.596 -13.231  1.00  0.00    +0.0458  H
BRANCH 21 26
ATOM     23  C9  DES L   1      -0.861  -6.567 -11.459  1.00  0.00    -0.0103  A
ATOM     24 C10  DES L   1      -0.914  -7.323 -12.636  1.00  0.00    -0.0551  A
ATOM     25 C11  DES L   1      -2.029  -8.114 -12.927  1.00  0.00    -0.0574  A
ATOM     26 C12  DES L   1      -3.115  -8.176 -12.042  1.00  0.00    -0.0341  A
ATOM     27 C29  DES L   1      -3.052  -7.420 -10.859  1.00  0.00    -0.0574  A
ATOM     28 C30  DES L   1      -1.936  -6.632 -10.568  1.00  0.00    -0.0551  A
ATOM     29 H39  DES L   1      -0.075  -7.311 -13.332  1.00  0.00    +0.0621  H
ATOM     30 H40  DES L   1      -2.022  -8.686 -13.852  1.00  0.00    +0.0621  H
ATOM     31 H53  DES L   1      -3.872  -7.449 -10.143  1.00  0.00    +0.0621  H
ATOM     32 H54  DES L   1      -1.907  -6.074  -9.634  1.00  0.00    +0.0621  H
BRANCH 23 33
ATOM     33  C8  DES L   1       0.360  -5.743 -11.136  1.00  0.00    +0.1179  C
ATOM     34 H37  DES L   1       0.192  -4.679 -11.336  1.00  0.00    +0.0749  H
ATOM     35 H38  DES L   1       0.580  -5.815 -10.065  1.00  0.00    +0.0749  H
BRANCH 33 36
ATOM     36  O7  DES L   1       1.489  -6.268 -11.841  1.00  0.00    -0.4564 OA
BRANCH 36 37
ATOM     37  C5  DES L   1       2.145  -5.384 -12.633  1.00  0.00    +0.3398  C
ATOM     38  O6  DES L   1       1.871  -4.205 -12.782  1.00  0.00    -0.2449 OA
BRANCH 37 42
ATOM     39  C1  DES L   1       5.397  -7.338 -14.627  1.00  0.00    -0.0615  A
ATOM     40  C2  DES L   1       5.586  -6.767 -13.373  1.00  0.00    -0.0610  A
ATOM     41  C3  DES L   1       4.519  -6.141 -12.728  1.00  0.00    -0.0475  A
ATOM     42  C4  DES L   1       3.253  -6.086 -13.335  1.00  0.00    +0.0619  A
ATOM     43 C31  DES L   1       3.054  -6.670 -14.602  1.00  0.00    -0.0365  A
ATOM     44 C32  DES L   1       1.722  -6.646 -15.300  1.00  0.00    -0.0389  C
ATOM     45 C33  DES L   1       4.144  -7.288 -15.239  1.00  0.00    -0.0581  A
ATOM     46 H34  DES L   1       6.229  -7.824 -15.134  1.00  0.00    +0.0618  H
ATOM     47 H35  DES L   1       6.563  -6.805 -12.898  1.00  0.00    +0.0618  H
ATOM     48 H36  DES L   1       4.685  -5.688 -11.753  1.00  0.00    +0.0626  H
ATOM     49 H55  DES L   1       0.925  -6.975 -14.625  1.00  0.00    +0.0278  H
ATOM     50 H56  DES L   1       1.505  -5.638 -15.669  1.00  0.00    +0.0278  H
ATOM     51 H57  DES L   1       1.711  -7.325 -16.159  1.00  0.00    +0.0278  H
ATOM     52 H58  DES L   1       4.020  -7.741 -16.221  1.00  0.00    +0.0620  H
ENDBRANCH 37 42
ENDBRANCH 36 37
ENDBRANCH 33 36
ENDBRANCH 23 33
ENDBRANCH 21 26
BRANCH 21 53
ATOM     53 C14  DES L   1      -4.671 -10.024 -11.214  1.00  0.00    +0.0085  C
ATOM     54 N15  DES L   1      -3.622 -11.045 -11.024  1.00  0.00    -0.3289 NA
ATOM     55 H42  DES L   1      -5.615 -10.539 -11.429  1.00  0.00    +0.0432  H
ATOM     56 H43  DES L   1      -4.800  -9.495 -10.263  1.00  0.00    +0.0432  H
ATOM     57 H44  DES L   1      -3.577 -11.614 -11.876  1.00  0.00    +0.1182 HD
ATOM     58 H45  DES L   1      -3.937 -11.694 -10.298  1.00  0.00    +0.1182 HD
ENDBRANCH 21 53
ENDBRANCH 17 21
ENDBRANCH 1 19
TORSDOF 8
ENDMDL
MODEL 11
REMARK VINA RESULT:    -6.783      3.841      5.834
REMARK INTER + INTRA:         -11.308
REMARK INTER:                 -10.422
REMARK INTRA:                  -0.886
REMARK UNBOUND:                -1.352
ROOT
ATOM      1 C19  DES L   1       0.654  -1.104 -12.877  1.00  0.00    +0.0423  A
ATOM      2 C20  DES L   1       1.127  -0.006 -12.160  1.00  0.00    -0.0377  A
ATOM      3 C21  DES L   1       0.927   1.293 -12.639  1.00  0.00    -0.0506  A
ATOM      4 C22  DES L   1       0.246   1.512 -13.849  1.00  0.00    +0.0004  A
ATOM      5 C23  DES L   1       0.019   2.787 -14.374  1.00  0.00    +0.0353  A
ATOM      6 N24  DES L   1      -0.632   3.033 -15.535  1.00  0.00    -0.2626 NA
ATOM      7 C25  DES L   1      -1.083   1.958 -16.211  1.00  0.00    +0.0281  A
ATOM      8 C26  DES L   1      -0.914   0.649 -15.784  1.00  0.00    -0.0358  A
ATOM      9 C27  DES L   1      -0.236   0.413 -14.581  1.00  0.00    -0.0131  A
ATOM     10 C28  DES L   1      -0.027  -0.886 -14.084  1.00  0.00    -0.0305  A
ATOM     11 H47  DES L   1       1.656  -0.123 -11.220  1.00  0.00    +0.0638  H
ATOM     12 H48  DES L   1       1.306   2.131 -12.059  1.00  0.00    +0.0625  H
ATOM     13 H49  DES L   1       0.366   3.678 -13.857  1.00  0.00    +0.0836  H
ATOM     14 H50  DES L   1      -1.603   2.179 -17.139  1.00  0.00    +0.0830  H
ATOM     15 H51  DES L   1      -1.305  -0.167 -16.384  1.00  0.00    +0.0639  H
ATOM     16 H52  DES L   1      -0.400  -1.737 -14.651  1.00  0.00    +0.0644  H
ENDROOT
BRANCH 1 19
ATOM     17 C16  DES L   1       1.366  -3.496 -13.166  1.00  0.00    +0.2339  C
ATOM     18 O17  DES L   1       1.829  -3.438 -14.305  1.00  0.00    -0.2722 OA
ATOM     19 N18  DES L   1       0.811  -2.440 -12.465  1.00  0.00    -0.3256  N
ATOM     20 H46  DES L   1       0.466  -2.676 -11.531  1.00  0.00    +0.1686 HD
BRANCH 17 21
ATOM     21 C13  DES L   1       1.414  -4.816 -12.377  1.00  0.00    +0.0752  C
ATOM     22 H41  DES L   1       1.722  -4.500 -11.368  1.00  0.00    +0.0458  H
BRANCH 21 26
ATOM     23  C9  DES L   1      -2.430  -6.834 -12.047  1.00  0.00    -0.0103  A
ATOM     24 C10  DES L   1      -2.284  -5.523 -11.578  1.00  0.00    -0.0551  A
ATOM     25 C11  DES L   1      -1.054  -4.864 -11.670  1.00  0.00    -0.0574  A
ATOM     26 C12  DES L   1       0.063  -5.505 -12.225  1.00  0.00    -0.0341  A
ATOM     27 C29  DES L   1      -0.089  -6.823 -12.689  1.00  0.00    -0.0574  A
ATOM     28 C30  DES L   1      -1.317  -7.481 -12.594  1.00  0.00    -0.0551  A
ATOM     29 H39  DES L   1      -3.129  -5.009 -11.122  1.00  0.00    +0.0621  H
ATOM     30 H40  DES L   1      -0.990  -3.848 -11.288  1.00  0.00    +0.0621  H
ATOM     31 H53  DES L   1       0.757  -7.356 -13.118  1.00  0.00    +0.0621  H
ATOM     32 H54  DES L   1      -1.399  -8.510 -12.941  1.00  0.00    +0.0621  H
BRANCH 23 33
ATOM     33  C8  DES L   1      -3.750  -7.550 -11.913  1.00  0.00    +0.1179  C
ATOM     34 H37  DES L   1      -3.837  -8.372 -12.633  1.00  0.00    +0.0749  H
ATOM     35 H38  DES L   1      -3.820  -8.012 -10.922  1.00  0.00    +0.0749  H
BRANCH 33 36
ATOM     36  O7  DES L   1      -4.818  -6.603 -12.021  1.00  0.00    -0.4564 OA
BRANCH 36 37
ATOM     37  C5  DES L   1      -5.426  -6.546 -13.232  1.00  0.00    +0.3398  C
ATOM     38  O6  DES L   1      -5.021  -7.044 -14.269  1.00  0.00    -0.2449 OA
BRANCH 37 42
ATOM     39  C1  DES L   1      -8.964  -4.157 -12.842  1.00  0.00    -0.0615  A
ATOM     40  C2  DES L   1      -7.727  -3.551 -13.041  1.00  0.00    -0.0610  A
ATOM     41  C3  DES L   1      -6.583  -4.337 -13.176  1.00  0.00    -0.0475  A
ATOM     42  C4  DES L   1      -6.670  -5.739 -13.115  1.00  0.00    +0.0619  A
ATOM     43 C31  DES L   1      -7.921  -6.358 -12.922  1.00  0.00    -0.0365  A
ATOM     44 C32  DES L   1      -8.079  -7.852 -12.852  1.00  0.00    -0.0389  C
ATOM     45 C33  DES L   1      -9.061  -5.547 -12.780  1.00  0.00    -0.0581  A
ATOM     46 H34  DES L   1      -9.857  -3.545 -12.733  1.00  0.00    +0.0618  H
ATOM     47 H35  DES L   1      -7.652  -2.468 -13.088  1.00  0.00    +0.0618  H
ATOM     48 H36  DES L   1      -5.621  -3.849 -13.318  1.00  0.00    +0.0626  H
ATOM     49 H55  DES L   1      -7.566  -8.335 -13.690  1.00  0.00    +0.0278  H
ATOM     50 H56  DES L   1      -7.682  -8.232 -11.905  1.00  0.00    +0.0278  H
ATOM     51 H57  DES L   1      -9.132  -8.145 -12.915  1.00  0.00    +0.0278  H
ATOM     52 H58  DES L   1     -10.039  -5.999 -12.623  1.00  0.00    +0.0620  H
ENDBRANCH 37 42
ENDBRANCH 36 37
ENDBRANCH 33 36
ENDBRANCH 23 33
ENDBRANCH 21 26
BRANCH 21 53
ATOM     53 C14  DES L   1       2.519  -5.784 -12.865  1.00  0.00    +0.0085  C
ATOM     54 N15  DES L   1       3.796  -5.126 -13.206  1.00  0.00    -0.3289 NA
ATOM     55 H42  DES L   1       2.170  -6.332 -13.748  1.00  0.00    +0.0432  H
ATOM     56 H43  DES L   1       2.722  -6.525 -12.083  1.00  0.00    +0.0432  H
ATOM     57 H44  DES L   1       3.630  -4.514 -14.013  1.00  0.00    +0.1182 HD
ATOM     58 H45  DES L   1       4.439  -5.841 -13.555  1.00  0.00    +0.1182 HD
ENDBRANCH 21 53
ENDBRANCH 17 21
ENDBRANCH 1 19
TORSDOF 8
ENDMDL
MODEL 12
REMARK VINA RESULT:    -6.756      3.562      6.317
REMARK INTER + INTRA:         -11.267
REMARK INTER:                  -9.737
REMARK INTRA:                  -1.530
REMARK UNBOUND:                -1.352
ROOT
ATOM      1 C19  DES L   1       1.030  -2.972 -14.176  1.00  0.00    +0.0423  A
ATOM      2 C20  DES L   1       0.957  -2.478 -12.875  1.00  0.00    -0.0377  A
ATOM      3 C21  DES L   1       0.552  -1.160 -12.639  1.00  0.00    -0.0506  A
ATOM      4 C22  DES L   1       0.212  -0.314 -13.708  1.00  0.00    +0.0004  A
ATOM      5 C23  DES L   1      -0.198   1.010 -13.530  1.00  0.00    +0.0353  A
ATOM      6 N24  DES L   1      -0.533   1.851 -14.537  1.00  0.00    -0.2626 NA
ATOM      7 C25  DES L   1      -0.457   1.353 -15.786  1.00  0.00    +0.0281  A
ATOM      8 C26  DES L   1      -0.063   0.056 -16.079  1.00  0.00    -0.0358  A
ATOM      9 C27  DES L   1       0.281  -0.800 -15.025  1.00  0.00    -0.0131  A
ATOM     10 C28  DES L   1       0.689  -2.129 -15.245  1.00  0.00    -0.0305  A
ATOM     11 H47  DES L   1       1.207  -3.093 -12.016  1.00  0.00    +0.0638  H
ATOM     12 H48  DES L   1       0.504  -0.801 -11.614  1.00  0.00    +0.0625  H
ATOM     13 H49  DES L   1      -0.272   1.446 -12.537  1.00  0.00    +0.0836  H
ATOM     14 H50  DES L   1      -0.730   2.045 -16.578  1.00  0.00    +0.0830  H
ATOM     15 H51  DES L   1      -0.026  -0.274 -17.113  1.00  0.00    +0.0639  H
ATOM     16 H52  DES L   1       0.742  -2.505 -16.264  1.00  0.00    +0.0644  H
ENDROOT
BRANCH 1 19
ATOM     17 C16  DES L   1       2.679  -4.856 -14.387  1.00  0.00    +0.2339  C
ATOM     18 O17  DES L   1       3.690  -4.293 -13.971  1.00  0.00    -0.2722 OA
ATOM     19 N18  DES L   1       1.424  -4.283 -14.500  1.00  0.00    -0.3256  N
ATOM     20 H46  DES L   1       0.700  -4.901 -14.877  1.00  0.00    +0.1686 HD
BRANCH 17 21
ATOM     21 C13  DES L   1       2.730  -6.339 -14.794  1.00  0.00    +0.0752  C
ATOM     22 H41  DES L   1       3.344  -6.800 -14.003  1.00  0.00    +0.0458  H
BRANCH 21 26
ATOM     23  C9  DES L   1      -1.161  -8.292 -14.804  1.00  0.00    -0.0103  A
ATOM     24 C10  DES L   1      -0.560  -7.935 -13.592  1.00  0.00    -0.0551  A
ATOM     25 C11  DES L   1       0.693  -7.314 -13.572  1.00  0.00    -0.0574  A
ATOM     26 C12  DES L   1       1.379  -7.044 -14.764  1.00  0.00    -0.0341  A
ATOM     27 C29  DES L   1       0.773  -7.411 -15.978  1.00  0.00    -0.0574  A
ATOM     28 C30  DES L   1      -0.478  -8.034 -15.997  1.00  0.00    -0.0551  A
ATOM     29 H39  DES L   1      -1.060  -8.153 -12.649  1.00  0.00    +0.0621  H
ATOM     30 H40  DES L   1       1.120  -7.058 -12.604  1.00  0.00    +0.0621  H
ATOM     31 H53  DES L   1       1.278  -7.226 -16.924  1.00  0.00    +0.0621  H
ATOM     32 H54  DES L   1      -0.912  -8.327 -16.951  1.00  0.00    +0.0621  H
BRANCH 23 33
ATOM     33  C8  DES L   1      -2.495  -8.993 -14.817  1.00  0.00    +0.1179  C
ATOM     34 H37  DES L   1      -2.662  -9.525 -15.761  1.00  0.00    +0.0749  H
ATOM     35 H38  DES L   1      -2.517  -9.760 -14.034  1.00  0.00    +0.0749  H
BRANCH 33 36
ATOM     36  O7  DES L   1      -3.531  -8.050 -14.521  1.00  0.00    -0.4564 OA
BRANCH 36 37
ATOM     37  C5  DES L   1      -4.161  -8.229 -13.334  1.00  0.00    +0.3398  C
ATOM     38  O6  DES L   1      -4.106  -9.222 -12.627  1.00  0.00    -0.2449 OA
BRANCH 37 42
ATOM     39  C1  DES L   1      -6.541  -4.753 -12.540  1.00  0.00    -0.0615  A
ATOM     40  C2  DES L   1      -7.059  -5.800 -13.295  1.00  0.00    -0.0610  A
ATOM     41  C3  DES L   1      -6.280  -6.931 -13.541  1.00  0.00    -0.0475  A
ATOM     42  C4  DES L   1      -4.975  -7.022 -13.027  1.00  0.00    +0.0619  A
ATOM     43 C31  DES L   1      -4.448  -5.968 -12.254  1.00  0.00    -0.0365  A
ATOM     44 C32  DES L   1      -3.061  -6.009 -11.675  1.00  0.00    -0.0389  C
ATOM     45 C33  DES L   1      -5.246  -4.834 -12.026  1.00  0.00    -0.0581  A
ATOM     46 H34  DES L   1      -7.146  -3.869 -12.350  1.00  0.00    +0.0618  H
ATOM     47 H35  DES L   1      -8.068  -5.736 -13.697  1.00  0.00    +0.0618  H
ATOM     48 H36  DES L   1      -6.694  -7.736 -14.144  1.00  0.00    +0.0626  H
ATOM     49 H55  DES L   1      -2.886  -6.957 -11.154  1.00  0.00    +0.0278  H
ATOM     50 H56  DES L   1      -2.315  -5.877 -12.465  1.00  0.00    +0.0278  H
ATOM     51 H57  DES L   1      -2.913  -5.212 -10.939  1.00  0.00    +0.0278  H
ATOM     52 H58  DES L   1      -4.862  -4.002 -11.438  1.00  0.00    +0.0620  H
ENDBRANCH 37 42
ENDBRANCH 36 37
ENDBRANCH 33 36
ENDBRANCH 23 33
ENDBRANCH 21 26
BRANCH 21 53
ATOM     53 C14  DES L   1       3.498  -6.588 -16.114  1.00  0.00    +0.0085  C
ATOM     54 N15  DES L   1       4.787  -5.876 -16.211  1.00  0.00    -0.3289 NA
ATOM     55 H42  DES L   1       2.877  -6.290 -16.967  1.00  0.00    +0.0432  H
ATOM     56 H43  DES L   1       3.698  -7.661 -16.219  1.00  0.00    +0.0432  H
ATOM     57 H44  DES L   1       4.592  -4.869 -16.226  1.00  0.00    +0.1182 HD
ATOM     58 H45  DES L   1       5.191  -6.071 -17.131  1.00  0.00    +0.1182 HD
ENDBRANCH 21 53
ENDBRANCH 17 21
ENDBRANCH 1 19
TORSDOF 8
ENDMDL
MODEL 13
REMARK VINA RESULT:    -6.694      3.475      5.552
REMARK INTER + INTRA:         -11.177
REMARK INTER:                  -9.712
REMARK INTRA:                  -1.466
REMARK UNBOUND:                -1.352
ROOT
ATOM      1 C19  DES L   1       0.747  -2.790 -14.377  1.00  0.00    +0.0423  A
ATOM      2 C20  DES L   1       0.712  -2.526 -15.745  1.00  0.00    -0.0377  A
ATOM      3 C21  DES L   1       0.531  -1.220 -16.211  1.00  0.00    -0.0506  A
ATOM      4 C22  DES L   1       0.383  -0.153 -15.308  1.00  0.00    +0.0004  A
ATOM      5 C23  DES L   1       0.199   1.170 -15.717  1.00  0.00    +0.0353  A
ATOM      6 N24  DES L   1       0.053   2.220 -14.875  1.00  0.00    -0.2626 NA
ATOM      7 C25  DES L   1       0.092   1.943 -13.557  1.00  0.00    +0.0281  A
ATOM      8 C26  DES L   1       0.269   0.669 -13.039  1.00  0.00    -0.0358  A
ATOM      9 C27  DES L   1       0.417  -0.406 -13.925  1.00  0.00    -0.0131  A
ATOM     10 C28  DES L   1       0.600  -1.726 -13.474  1.00  0.00    -0.0305  A
ATOM     11 H47  DES L   1       0.824  -3.316 -16.482  1.00  0.00    +0.0638  H
ATOM     12 H48  DES L   1       0.509  -1.043 -17.283  1.00  0.00    +0.0625  H
ATOM     13 H49  DES L   1       0.164   1.432 -16.772  1.00  0.00    +0.0836  H
ATOM     14 H50  DES L   1      -0.027   2.800 -12.900  1.00  0.00    +0.0830  H
ATOM     15 H51  DES L   1       0.289   0.523 -11.964  1.00  0.00    +0.0639  H
ATOM     16 H52  DES L   1       0.627  -1.922 -12.404  1.00  0.00    +0.0644  H
ENDROOT
BRANCH 1 19
ATOM     17 C16  DES L   1       2.110  -4.753 -13.600  1.00  0.00    +0.2339  C
ATOM     18 O17  DES L   1       3.239  -4.334 -13.853  1.00  0.00    -0.2722 OA
ATOM     19 N18  DES L   1       0.927  -4.073 -13.826  1.00  0.00    -0.3256  N
ATOM     20 H46  DES L   1       0.079  -4.581 -13.562  1.00  0.00    +0.1686 HD
BRANCH 17 21
ATOM     21 C13  DES L   1       1.926  -6.128 -12.934  1.00  0.00    +0.0752  C
ATOM     22 H41  DES L   1       1.934  -5.893 -11.857  1.00  0.00    +0.0458  H
BRANCH 21 26
ATOM     23  C9  DES L   1      -1.911  -8.054 -13.657  1.00  0.00    -0.0103  A
ATOM     24 C10  DES L   1      -0.900  -8.122 -14.623  1.00  0.00    -0.0551  A
ATOM     25 C11  DES L   1       0.335  -7.503 -14.408  1.00  0.00    -0.0574  A
ATOM     26 C12  DES L   1       0.585  -6.791 -13.226  1.00  0.00    -0.0341  A
ATOM     27 C29  DES L   1      -0.437  -6.721 -12.264  1.00  0.00    -0.0574  A
ATOM     28 C30  DES L   1      -1.671  -7.338 -12.480  1.00  0.00    -0.0551  A
ATOM     29 H39  DES L   1      -1.074  -8.650 -15.560  1.00  0.00    +0.0621  H
ATOM     30 H40  DES L   1       1.088  -7.581 -15.190  1.00  0.00    +0.0621  H
ATOM     31 H53  DES L   1      -0.283  -6.171 -11.337  1.00  0.00    +0.0621  H
ATOM     32 H54  DES L   1      -2.451  -7.248 -11.726  1.00  0.00    +0.0621  H
BRANCH 23 33
ATOM     33  C8  DES L   1      -3.252  -8.695 -13.910  1.00  0.00    +0.1179  C
ATOM     34 H37  DES L   1      -3.223  -9.357 -14.783  1.00  0.00    +0.0749  H
ATOM     35 H38  DES L   1      -3.523  -9.332 -13.060  1.00  0.00    +0.0749  H
BRANCH 33 36
ATOM     36  O7  DES L   1      -4.253  -7.678 -14.019  1.00  0.00    -0.4564 OA
BRANCH 36 37
ATOM     37  C5  DES L   1      -5.182  -7.666 -13.031  1.00  0.00    +0.3398  C
ATOM     38  O6  DES L   1      -5.313  -8.500 -12.151  1.00  0.00    -0.2449 OA
BRANCH 37 42
ATOM     39  C1  DES L   1      -7.722  -4.262 -13.614  1.00  0.00    -0.0615  A
ATOM     40  C2  DES L   1      -8.035  -5.480 -14.208  1.00  0.00    -0.0610  A
ATOM     41  C3  DES L   1      -7.207  -6.584 -14.005  1.00  0.00    -0.0475  A
ATOM     42  C4  DES L   1      -6.059  -6.476 -13.201  1.00  0.00    +0.0619  A
ATOM     43 C31  DES L   1      -5.742  -5.247 -12.590  1.00  0.00    -0.0365  A
ATOM     44 C32  DES L   1      -4.530  -5.070 -11.716  1.00  0.00    -0.0389  C
ATOM     45 C33  DES L   1      -6.584  -4.144 -12.814  1.00  0.00    -0.0581  A
ATOM     46 H34  DES L   1      -8.364  -3.398 -13.773  1.00  0.00    +0.0618  H
ATOM     47 H35  DES L   1      -8.920  -5.571 -14.832  1.00  0.00    +0.0618  H
ATOM     48 H36  DES L   1      -7.458  -7.527 -14.487  1.00  0.00    +0.0626  H
ATOM     49 H55  DES L   1      -4.473  -5.868 -10.968  1.00  0.00    +0.0278  H
ATOM     50 H56  DES L   1      -3.621  -5.066 -12.325  1.00  0.00    +0.0278  H
ATOM     51 H57  DES L   1      -4.569  -4.124 -11.168  1.00  0.00    +0.0278  H
ATOM     52 H58  DES L   1      -6.359  -3.181 -12.359  1.00  0.00    +0.0620  H
ENDBRANCH 37 42
ENDBRANCH 36 37
ENDBRANCH 33 36
ENDBRANCH 23 33
ENDBRANCH 21 26
BRANCH 21 53
ATOM     53 C14  DES L   1       3.120  -7.085 -13.159  1.00  0.00    +0.0085  C
ATOM     54 N15  DES L   1       4.356  -6.691 -12.455  1.00  0.00    -0.3289 NA
ATOM     55 H42  DES L   1       3.344  -7.156 -14.230  1.00  0.00    +0.0432  H
ATOM     56 H43  DES L   1       2.847  -8.091 -12.819  1.00  0.00    +0.0432  H
ATOM     57 H44  DES L   1       4.676  -5.801 -12.852  1.00  0.00    +0.1182 HD
ATOM     58 H45  DES L   1       5.091  -7.359 -12.702  1.00  0.00    +0.1182 HD
ENDBRANCH 21 53
ENDBRANCH 17 21
ENDBRANCH 1 19
TORSDOF 8
ENDMDL
MODEL 14
REMARK VINA RESULT:    -6.657      3.653      9.144
REMARK INTER + INTRA:         -11.123
REMARK INTER:                  -9.892
REMARK INTRA:                  -1.231
REMARK UNBOUND:                -1.352
ROOT
ATOM      1 C19  DES L   1      -6.488  -5.708 -13.913  1.00  0.00    +0.0423  A
ATOM      2 C20  DES L   1      -7.163  -5.904 -15.117  1.00  0.00    -0.0377  A
ATOM      3 C21  DES L   1      -7.906  -4.866 -15.690  1.00  0.00    -0.0506  A
ATOM      4 C22  DES L   1      -7.983  -3.612 -15.062  1.00  0.00    +0.0004  A
ATOM      5 C23  DES L   1      -8.711  -2.541 -15.589  1.00  0.00    +0.0353  A
ATOM      6 N24  DES L   1      -8.806  -1.320 -15.010  1.00  0.00    -0.2626 NA
ATOM      7 C25  DES L   1      -8.145  -1.153 -13.849  1.00  0.00    +0.0281  A
ATOM      8 C26  DES L   1      -7.393  -2.144 -13.236  1.00  0.00    -0.0358  A
ATOM      9 C27  DES L   1      -7.307  -3.401 -13.848  1.00  0.00    -0.0131  A
ATOM     10 C28  DES L   1      -6.563  -4.456 -13.286  1.00  0.00    -0.0305  A
ATOM     11 H47  DES L   1      -7.131  -6.854 -15.641  1.00  0.00    +0.0638  H
ATOM     12 H48  DES L   1      -8.422  -5.046 -16.630  1.00  0.00    +0.0625  H
ATOM     13 H49  DES L   1      -9.256  -2.638 -16.524  1.00  0.00    +0.0836  H
ATOM     14 H50  DES L   1      -8.235  -0.166 -13.403  1.00  0.00    +0.0830  H
ATOM     15 H51  DES L   1      -6.888  -1.934 -12.299  1.00  0.00    +0.0639  H
ATOM     16 H52  DES L   1      -6.039  -4.293 -12.346  1.00  0.00    +0.0644  H
ENDROOT
BRANCH 1 19
ATOM     17 C16  DES L   1      -4.926  -7.676 -13.846  1.00  0.00    +0.2339  C
ATOM     18 O17  DES L   1      -4.760  -7.850 -15.052  1.00  0.00    -0.2722 OA
ATOM     19 N18  DES L   1      -5.718  -6.697 -13.272  1.00  0.00    -0.3256  N
ATOM     20 H46  DES L   1      -5.745  -6.708 -12.249  1.00  0.00    +0.1686 HD
BRANCH 17 21
ATOM     21 C13  DES L   1      -4.185  -8.560 -12.827  1.00  0.00    +0.0752  C
ATOM     22 H41  DES L   1      -3.921  -9.457 -13.411  1.00  0.00    +0.0458  H
BRANCH 21 26
ATOM     23  C9  DES L   1      -0.505  -6.796 -11.310  1.00  0.00    -0.0103  A
ATOM     24 C10  DES L   1      -0.597  -7.177 -12.653  1.00  0.00    -0.0551  A
ATOM     25 C11  DES L   1      -1.770  -7.752 -13.154  1.00  0.00    -0.0574  A
ATOM     26 C12  DES L   1      -2.875  -7.968 -12.319  1.00  0.00    -0.0341  A
ATOM     27 C29  DES L   1      -2.774  -7.589 -10.970  1.00  0.00    -0.0574  A
ATOM     28 C30  DES L   1      -1.602  -7.018 -10.470  1.00  0.00    -0.0551  A
ATOM     29 H39  DES L   1       0.254  -7.042 -13.319  1.00  0.00    +0.0621  H
ATOM     30 H40  DES L   1      -1.791  -8.035 -14.204  1.00  0.00    +0.0621  H
ATOM     31 H53  DES L   1      -3.609  -7.749 -10.290  1.00  0.00    +0.0621  H
ATOM     32 H54  DES L   1      -1.545  -6.754  -9.416  1.00  0.00    +0.0621  H
BRANCH 23 33
ATOM     33  C8  DES L   1       0.774  -6.210 -10.769  1.00  0.00    +0.1179  C
ATOM     34 H37  DES L   1       0.793  -6.228  -9.673  1.00  0.00    +0.0749  H
ATOM     35 H38  DES L   1       1.625  -6.818 -11.093  1.00  0.00    +0.0749  H
BRANCH 33 36
ATOM     36  O7  DES L   1       0.958  -4.895 -11.305  1.00  0.00    -0.4564 OA
BRANCH 36 37
ATOM     37  C5  DES L   1       1.852  -4.800 -12.320  1.00  0.00    +0.3398  C
ATOM     38  O6  DES L   1       2.902  -5.412 -12.420  1.00  0.00    -0.2449 OA
BRANCH 37 42
ATOM     39  C1  DES L   1       0.398  -1.861 -15.082  1.00  0.00    -0.0615  A
ATOM     40  C2  DES L   1       0.559  -1.541 -13.737  1.00  0.00    -0.0610  A
ATOM     41  C3  DES L   1       1.041  -2.501 -12.848  1.00  0.00    -0.0475  A
ATOM     42  C4  DES L   1       1.370  -3.791 -13.301  1.00  0.00    +0.0619  A
ATOM     43 C31  DES L   1       1.217  -4.118 -14.663  1.00  0.00    -0.0365  A
ATOM     44 C32  DES L   1       1.555  -5.478 -15.208  1.00  0.00    -0.0389  C
ATOM     45 C33  DES L   1       0.722  -3.138 -15.541  1.00  0.00    -0.0581  A
ATOM     46 H34  DES L   1       0.019  -1.115 -15.777  1.00  0.00    +0.0618  H
ATOM     47 H35  DES L   1       0.305  -0.546 -13.380  1.00  0.00    +0.0618  H
ATOM     48 H36  DES L   1       1.149  -2.240 -11.798  1.00  0.00    +0.0626  H
ATOM     49 H55  DES L   1       2.549  -5.793 -14.873  1.00  0.00    +0.0278  H
ATOM     50 H56  DES L   1       0.807  -6.211 -14.891  1.00  0.00    +0.0278  H
ATOM     51 H57  DES L   1       1.577  -5.474 -16.303  1.00  0.00    +0.0278  H
ATOM     52 H58  DES L   1       0.588  -3.366 -16.598  1.00  0.00    +0.0620  H
ENDBRANCH 37 42
ENDBRANCH 36 37
ENDBRANCH 33 36
ENDBRANCH 23 33
ENDBRANCH 21 26
BRANCH 21 53
ATOM     53 C14  DES L   1      -5.090  -9.064 -11.678  1.00  0.00    +0.0085  C
ATOM     54 N15  DES L   1      -6.507  -9.241 -12.054  1.00  0.00    -0.3289 NA
ATOM     55 H42  DES L   1      -5.044  -8.366 -10.834  1.00  0.00    +0.0432  H
ATOM     56 H43  DES L   1      -4.716 -10.030 -11.320  1.00  0.00    +0.0432  H
ATOM     57 H44  DES L   1      -6.891  -8.317 -12.282  1.00  0.00    +0.1182 HD
ATOM     58 H45  DES L   1      -7.024  -9.533 -11.220  1.00  0.00    +0.1182 HD
ENDBRANCH 21 53
ENDBRANCH 17 21
ENDBRANCH 1 19
TORSDOF 8
ENDMDL
MODEL 15
REMARK VINA RESULT:    -6.528      3.094     10.454
REMARK INTER + INTRA:         -10.933
REMARK INTER:                 -10.719
REMARK INTRA:                  -0.214
REMARK UNBOUND:                -1.352
ROOT
ATOM      1 C19  DES L   1      -6.503  -5.302 -14.409  1.00  0.00    +0.0423  A
ATOM      2 C20  DES L   1      -7.155  -5.436 -15.633  1.00  0.00    -0.0377  A
ATOM      3 C21  DES L   1      -7.965  -4.405 -16.122  1.00  0.00    -0.0506  A
ATOM      4 C22  DES L   1      -8.134  -3.220 -15.387  1.00  0.00    +0.0004  A
ATOM      5 C23  DES L   1      -8.932  -2.160 -15.826  1.00  0.00    +0.0353  A
ATOM      6 N24  DES L   1      -9.117  -1.005 -15.143  1.00  0.00    -0.2626 NA
ATOM      7 C25  DES L   1      -8.476  -0.896 -13.963  1.00  0.00    +0.0281  A
ATOM      8 C26  DES L   1      -7.661  -1.884 -13.431  1.00  0.00    -0.0358  A
ATOM      9 C27  DES L   1      -7.482  -3.072 -14.150  1.00  0.00    -0.0131  A
ATOM     10 C28  DES L   1      -6.671  -4.118 -13.674  1.00  0.00    -0.0305  A
ATOM     11 H47  DES L   1      -7.053  -6.331 -16.239  1.00  0.00    +0.0638  H
ATOM     12 H48  DES L   1      -8.461  -4.536 -17.081  1.00  0.00    +0.0625  H
ATOM     13 H49  DES L   1      -9.463  -2.211 -16.773  1.00  0.00    +0.0836  H
ATOM     14 H50  DES L   1      -8.638   0.038 -13.433  1.00  0.00    +0.0830  H
ATOM     15 H51  DES L   1      -7.178  -1.723 -12.472  1.00  0.00    +0.0639  H
ATOM     16 H52  DES L   1      -6.165  -4.004 -12.717  1.00  0.00    +0.0644  H
ENDROOT
BRANCH 1 19
ATOM     17 C16  DES L   1      -4.972  -6.246 -12.653  1.00  0.00    +0.2339  C
ATOM     18 O17  DES L   1      -4.965  -5.306 -11.859  1.00  0.00    -0.2722 OA
ATOM     19 N18  DES L   1      -5.670  -6.288 -13.848  1.00  0.00    -0.3256  N
ATOM     20 H46  DES L   1      -5.550  -7.149 -14.387  1.00  0.00    +0.1686 HD
BRANCH 17 21
ATOM     21 C13  DES L   1      -4.195  -7.534 -12.335  1.00  0.00    +0.0752  C
ATOM     22 H41  DES L   1      -4.280  -8.121 -13.265  1.00  0.00    +0.0458  H
BRANCH 21 26
ATOM     23  C9  DES L   1       0.083  -7.009 -11.712  1.00  0.00    -0.0103  A
ATOM     24 C10  DES L   1      -0.794  -6.975 -10.621  1.00  0.00    -0.0551  A
ATOM     25 C11  DES L   1      -2.170  -7.135 -10.806  1.00  0.00    -0.0574  A
ATOM     26 C12  DES L   1      -2.705  -7.323 -12.088  1.00  0.00    -0.0341  A
ATOM     27 C29  DES L   1      -1.821  -7.349 -13.180  1.00  0.00    -0.0574  A
ATOM     28 C30  DES L   1      -0.445  -7.187 -12.995  1.00  0.00    -0.0551  A
ATOM     29 H39  DES L   1      -0.408  -6.808  -9.616  1.00  0.00    +0.0621  H
ATOM     30 H40  DES L   1      -2.811  -7.097  -9.927  1.00  0.00    +0.0621  H
ATOM     31 H53  DES L   1      -2.199  -7.485 -14.192  1.00  0.00    +0.0621  H
ATOM     32 H54  DES L   1       0.213  -7.191 -13.862  1.00  0.00    +0.0621  H
BRANCH 23 33
ATOM     33  C8  DES L   1       1.562  -6.802 -11.510  1.00  0.00    +0.1179  C
ATOM     34 H37  DES L   1       1.762  -6.124 -10.672  1.00  0.00    +0.0749  H
ATOM     35 H38  DES L   1       2.035  -7.754 -11.244  1.00  0.00    +0.0749  H
BRANCH 33 36
ATOM     36  O7  DES L   1       2.153  -6.357 -12.736  1.00  0.00    -0.4564 OA
BRANCH 36 37
ATOM     37  C5  DES L   1       3.098  -7.177 -13.258  1.00  0.00    +0.3398  C
ATOM     38  O6  DES L   1       3.202  -8.377 -13.065  1.00  0.00    -0.2449 OA
BRANCH 37 42
ATOM     39  C1  DES L   1       5.749  -4.899 -15.740  1.00  0.00    -0.0615  A
ATOM     40  C2  DES L   1       4.403  -5.012 -16.071  1.00  0.00    -0.0610  A
ATOM     41  C3  DES L   1       3.546  -5.748 -15.252  1.00  0.00    -0.0475  A
ATOM     42  C4  DES L   1       4.033  -6.375 -14.092  1.00  0.00    +0.0619  A
ATOM     43 C31  DES L   1       5.394  -6.257 -13.747  1.00  0.00    -0.0365  A
ATOM     44 C32  DES L   1       5.973  -6.901 -12.518  1.00  0.00    -0.0389  C
ATOM     45 C33  DES L   1       6.242  -5.518 -14.590  1.00  0.00    -0.0581  A
ATOM     46 H34  DES L   1       6.420  -4.329 -16.379  1.00  0.00    +0.0618  H
ATOM     47 H35  DES L   1       4.019  -4.531 -16.967  1.00  0.00    +0.0618  H
ATOM     48 H36  DES L   1       2.499  -5.838 -15.531  1.00  0.00    +0.0626  H
ATOM     49 H55  DES L   1       5.360  -6.677 -11.638  1.00  0.00    +0.0278  H
ATOM     50 H56  DES L   1       6.044  -7.984 -12.655  1.00  0.00    +0.0278  H
ATOM     51 H57  DES L   1       6.979  -6.524 -12.307  1.00  0.00    +0.0278  H
ATOM     52 H58  DES L   1       7.300  -5.416 -14.352  1.00  0.00    +0.0620  H
ENDBRANCH 37 42
ENDBRANCH 36 37
ENDBRANCH 33 36
ENDBRANCH 23 33
ENDBRANCH 21 26
BRANCH 21 53
ATOM     53 C14  DES L   1      -4.859  -8.398 -11.237  1.00  0.00    +0.0085  C
ATOM     54 N15  DES L   1      -4.738  -9.853 -11.452  1.00  0.00    -0.3289 NA
ATOM     55 H42  DES L   1      -5.924  -8.150 -11.161  1.00  0.00    +0.0432  H
ATOM     56 H43  DES L   1      -4.403  -8.163 -10.268  1.00  0.00    +0.0432  H
ATOM     57 H44  DES L   1      -5.261 -10.091 -12.302  1.00  0.00    +0.1182 HD
ATOM     58 H45  DES L   1      -5.243 -10.330 -10.700  1.00  0.00    +0.1182 HD
ENDBRANCH 21 53
ENDBRANCH 17 21
ENDBRANCH 1 19
TORSDOF 8
ENDMDL
MODEL 16
REMARK VINA RESULT:    -6.526      3.036      4.048
REMARK INTER + INTRA:         -10.930
REMARK INTER:                  -9.002
REMARK INTRA:                  -1.928
REMARK UNBOUND:                -1.352
ROOT
ATOM      1 C19  DES L   1       1.693  -5.544 -13.346  1.00  0.00    +0.0423  A
ATOM      2 C20  DES L   1       2.392  -4.411 -13.757  1.00  0.00    -0.0377  A
ATOM      3 C21  DES L   1       3.775  -4.467 -13.965  1.00  0.00    -0.0506  A
ATOM      4 C22  DES L   1       4.480  -5.665 -13.763  1.00  0.00    +0.0004  A
ATOM      5 C23  DES L   1       5.859  -5.778 -13.954  1.00  0.00    +0.0353  A
ATOM      6 N24  DES L   1       6.569  -6.916 -13.769  1.00  0.00    -0.2626 NA
ATOM      7 C25  DES L   1       5.873  -7.999 -13.372  1.00  0.00    +0.0281  A
ATOM      8 C26  DES L   1       4.504  -8.002 -13.152  1.00  0.00    -0.0358  A
ATOM      9 C27  DES L   1       3.786  -6.816 -13.348  1.00  0.00    -0.0131  A
ATOM     10 C28  DES L   1       2.396  -6.742 -13.144  1.00  0.00    -0.0305  A
ATOM     11 H47  DES L   1       1.892  -3.463 -13.929  1.00  0.00    +0.0638  H
ATOM     12 H48  DES L   1       4.295  -3.568 -14.287  1.00  0.00    +0.0625  H
ATOM     13 H49  DES L   1       6.454  -4.926 -14.275  1.00  0.00    +0.0836  H
ATOM     14 H50  DES L   1       6.463  -8.901 -13.230  1.00  0.00    +0.0830  H
ATOM     15 H51  DES L   1       4.013  -8.916 -12.833  1.00  0.00    +0.0639  H
ATOM     16 H52  DES L   1       1.859  -7.632 -12.823  1.00  0.00    +0.0644  H
ENDROOT
BRANCH 1 19
ATOM     17 C16  DES L   1      -0.380  -6.148 -12.060  1.00  0.00    +0.2339  C
ATOM     18 O17  DES L   1       0.130  -6.748 -11.116  1.00  0.00    -0.2722 OA
ATOM     19 N18  DES L   1       0.305  -5.574 -13.117  1.00  0.00    -0.3256  N
ATOM     20 H46  DES L   1      -0.286  -5.122 -13.820  1.00  0.00    +0.1686 HD
BRANCH 17 21
ATOM     21 C13  DES L   1      -1.904  -5.942 -12.115  1.00  0.00    +0.0752  C
ATOM     22 H41  DES L   1      -2.055  -5.400 -13.063  1.00  0.00    +0.0458  H
BRANCH 21 26
ATOM     23  C9  DES L   1      -4.206  -9.615 -12.525  1.00  0.00    -0.0103  A
ATOM     24 C10  DES L   1      -4.399  -8.787 -11.412  1.00  0.00    -0.0551  A
ATOM     25 C11  DES L   1      -3.662  -7.608 -11.263  1.00  0.00    -0.0574  A
ATOM     26 C12  DES L   1      -2.707  -7.234 -12.218  1.00  0.00    -0.0341  A
ATOM     27 C29  DES L   1      -2.513  -8.072 -13.329  1.00  0.00    -0.0574  A
ATOM     28 C30  DES L   1      -3.248  -9.251 -13.477  1.00  0.00    -0.0551  A
ATOM     29 H39  DES L   1      -5.119  -9.065 -10.643  1.00  0.00    +0.0621  H
ATOM     30 H40  DES L   1      -3.845  -7.001 -10.379  1.00  0.00    +0.0621  H
ATOM     31 H53  DES L   1      -1.775  -7.819 -14.088  1.00  0.00    +0.0621  H
ATOM     32 H54  DES L   1      -3.061  -9.891 -14.337  1.00  0.00    +0.0621  H
BRANCH 23 33
ATOM     33  C8  DES L   1      -4.979 -10.902 -12.662  1.00  0.00    +0.1179  C
ATOM     34 H37  DES L   1      -4.352 -11.774 -12.443  1.00  0.00    +0.0749  H
ATOM     35 H38  DES L   1      -5.790 -10.925 -11.926  1.00  0.00    +0.0749  H
BRANCH 33 36
ATOM     36  O7  DES L   1      -5.578 -10.961 -13.961  1.00  0.00    -0.4564 OA
BRANCH 36 37
ATOM     37  C5  DES L   1      -6.879 -10.585 -14.020  1.00  0.00    +0.3398  C
ATOM     38  O6  DES L   1      -7.846 -11.327 -14.075  1.00  0.00    -0.2449 OA
BRANCH 37 42
ATOM     39  C1  DES L   1      -7.013  -6.301 -14.126  1.00  0.00    -0.0615  A
ATOM     40  C2  DES L   1      -6.435  -7.011 -15.174  1.00  0.00    -0.0610  A
ATOM     41  C3  DES L   1      -6.404  -8.405 -15.134  1.00  0.00    -0.0475  A
ATOM     42  C4  DES L   1      -6.957  -9.099 -14.045  1.00  0.00    +0.0619  A
ATOM     43 C31  DES L   1      -7.551  -8.386 -12.984  1.00  0.00    -0.0365  A
ATOM     44 C32  DES L   1      -8.162  -9.073 -11.794  1.00  0.00    -0.0389  C
ATOM     45 C33  DES L   1      -7.564  -6.982 -13.039  1.00  0.00    -0.0581  A
ATOM     46 H34  DES L   1      -7.035  -5.214 -14.152  1.00  0.00    +0.0618  H
ATOM     47 H35  DES L   1      -6.005  -6.480 -16.019  1.00  0.00    +0.0618  H
ATOM     48 H36  DES L   1      -5.937  -8.945 -15.955  1.00  0.00    +0.0626  H
ATOM     49 H55  DES L   1      -8.840  -9.871 -12.113  1.00  0.00    +0.0278  H
ATOM     50 H56  DES L   1      -7.378  -9.486 -11.151  1.00  0.00    +0.0278  H
ATOM     51 H57  DES L   1      -8.755  -8.376 -11.193  1.00  0.00    +0.0278  H
ATOM     52 H58  DES L   1      -8.011  -6.405 -12.230  1.00  0.00    +0.0620  H
ENDBRANCH 37 42
ENDBRANCH 36 37
ENDBRANCH 33 36
ENDBRANCH 23 33
ENDBRANCH 21 26
BRANCH 21 53
ATOM     53 C14  DES L   1      -2.437  -5.001 -11.009  1.00  0.00    +0.0085  C
ATOM     54 N15  DES L   1      -1.450  -4.020 -10.518  1.00  0.00    -0.3289 NA
ATOM     55 H42  DES L   1      -2.787  -5.592 -10.154  1.00  0.00    +0.0432  H
ATOM     56 H43  DES L   1      -3.301  -4.445 -11.393  1.00  0.00    +0.0432  H
ATOM     57 H44  DES L   1      -0.693  -4.537 -10.057  1.00  0.00    +0.1182 HD
ATOM     58 H45  DES L   1      -1.885  -3.480  -9.765  1.00  0.00    +0.1182 HD
ENDBRANCH 21 53
ENDBRANCH 17 21
ENDBRANCH 1 19
TORSDOF 8
ENDMDL
MODEL 17
REMARK VINA RESULT:    -6.511      3.141     10.319
REMARK INTER + INTRA:         -10.908
REMARK INTER:                 -10.110
REMARK INTRA:                  -0.799
REMARK UNBOUND:                -1.352
ROOT
ATOM      1 C19  DES L   1      -5.843  -6.097 -13.685  1.00  0.00    +0.0423  A
ATOM      2 C20  DES L   1      -5.952  -5.369 -12.502  1.00  0.00    -0.0377  A
ATOM      3 C21  DES L   1      -6.729  -4.207 -12.453  1.00  0.00    -0.0506  A
ATOM      4 C22  DES L   1      -7.411  -3.755 -13.595  1.00  0.00    +0.0004  A
ATOM      5 C23  DES L   1      -8.200  -2.602 -13.603  1.00  0.00    +0.0353  A
ATOM      6 N24  DES L   1      -8.870  -2.139 -14.685  1.00  0.00    -0.2626 NA
ATOM      7 C25  DES L   1      -8.752  -2.858 -15.818  1.00  0.00    +0.0281  A
ATOM      8 C26  DES L   1      -7.998  -4.017 -15.924  1.00  0.00    -0.0358  A
ATOM      9 C27  DES L   1      -7.310  -4.480 -14.795  1.00  0.00    -0.0131  A
ATOM     10 C28  DES L   1      -6.525  -5.648 -14.826  1.00  0.00    -0.0305  A
ATOM     11 H47  DES L   1      -5.446  -5.679 -11.593  1.00  0.00    +0.0638  H
ATOM     12 H48  DES L   1      -6.797  -3.659 -11.516  1.00  0.00    +0.0625  H
ATOM     13 H49  DES L   1      -8.320  -1.996 -12.708  1.00  0.00    +0.0836  H
ATOM     14 H50  DES L   1      -9.299  -2.469 -16.673  1.00  0.00    +0.0830  H
ATOM     15 H51  DES L   1      -7.951  -4.543 -16.872  1.00  0.00    +0.0639  H
ATOM     16 H52  DES L   1      -6.446  -6.209 -15.755  1.00  0.00    +0.0644  H
ENDROOT
BRANCH 1 19
ATOM     17 C16  DES L   1      -5.170  -8.440 -13.076  1.00  0.00    +0.2339  C
ATOM     18 O17  DES L   1      -5.948  -8.643 -12.144  1.00  0.00    -0.2722 OA
ATOM     19 N18  DES L   1      -5.086  -7.276 -13.818  1.00  0.00    -0.3256  N
ATOM     20 H46  DES L   1      -4.372  -7.282 -14.551  1.00  0.00    +0.1686 HD
BRANCH 17 21
ATOM     21 C13  DES L   1      -4.209  -9.550 -13.538  1.00  0.00    +0.0752  C
ATOM     22 H41  DES L   1      -4.630  -9.866 -14.506  1.00  0.00    +0.0458  H
BRANCH 21 26
ATOM     23  C9  DES L   1      -0.185  -8.076 -14.307  1.00  0.00    -0.0103  A
ATOM     24 C10  DES L   1      -0.712  -9.112 -15.086  1.00  0.00    -0.0551  A
ATOM     25 C11  DES L   1      -2.000  -9.601 -14.847  1.00  0.00    -0.0574  A
ATOM     26 C12  DES L   1      -2.788  -9.072 -13.815  1.00  0.00    -0.0341  A
ATOM     27 C29  DES L   1      -2.250  -8.037 -13.032  1.00  0.00    -0.0574  A
ATOM     28 C30  DES L   1      -0.962  -7.550 -13.270  1.00  0.00    -0.0551  A
ATOM     29 H39  DES L   1      -0.114  -9.558 -15.880  1.00  0.00    +0.0621  H
ATOM     30 H40  DES L   1      -2.364 -10.410 -15.477  1.00  0.00    +0.0621  H
ATOM     31 H53  DES L   1      -2.828  -7.606 -12.216  1.00  0.00    +0.0621  H
ATOM     32 H54  DES L   1      -0.564  -6.763 -12.633  1.00  0.00    +0.0621  H
BRANCH 23 33
ATOM     33  C8  DES L   1       1.217  -7.578 -14.548  1.00  0.00    +0.1179  C
ATOM     34 H37  DES L   1       1.577  -7.854 -15.546  1.00  0.00    +0.0749  H
ATOM     35 H38  DES L   1       1.230  -6.482 -14.518  1.00  0.00    +0.0749  H
BRANCH 33 36
ATOM     36  O7  DES L   1       2.075  -8.044 -13.501  1.00  0.00    -0.4564 OA
BRANCH 36 37
ATOM     37  C5  DES L   1       2.621  -7.079 -12.721  1.00  0.00    +0.3398  C
ATOM     38  O6  DES L   1       2.085  -6.522 -11.777  1.00  0.00    -0.2449 OA
BRANCH 37 42
ATOM     39  C1  DES L   1       6.597  -6.217 -14.072  1.00  0.00    -0.0615  A
ATOM     40  C2  DES L   1       6.314  -7.432 -13.454  1.00  0.00    -0.0610  A
ATOM     41  C3  DES L   1       5.015  -7.706 -13.026  1.00  0.00    -0.0475  A
ATOM     42  C4  DES L   1       3.988  -6.766 -13.217  1.00  0.00    +0.0619  A
ATOM     43 C31  DES L   1       4.267  -5.538 -13.849  1.00  0.00    -0.0365  A
ATOM     44 C32  DES L   1       3.211  -4.494 -14.085  1.00  0.00    -0.0389  C
ATOM     45 C33  DES L   1       5.585  -5.277 -14.265  1.00  0.00    -0.0581  A
ATOM     46 H34  DES L   1       7.610  -5.999 -14.403  1.00  0.00    +0.0618  H
ATOM     47 H35  DES L   1       7.104  -8.163 -13.303  1.00  0.00    +0.0618  H
ATOM     48 H36  DES L   1       4.812  -8.655 -12.534  1.00  0.00    +0.0626  H
ATOM     49 H55  DES L   1       2.322  -4.939 -14.544  1.00  0.00    +0.0278  H
ATOM     50 H56  DES L   1       2.938  -4.010 -13.141  1.00  0.00    +0.0278  H
ATOM     51 H57  DES L   1       3.565  -3.716 -14.769  1.00  0.00    +0.0278  H
ATOM     52 H58  DES L   1       5.830  -4.333 -14.750  1.00  0.00    +0.0620  H
ENDBRANCH 37 42
ENDBRANCH 36 37
ENDBRANCH 33 36
ENDBRANCH 23 33
ENDBRANCH 21 26
BRANCH 21 53
ATOM     53 C14  DES L   1      -4.245 -10.808 -12.638  1.00  0.00    +0.0085  C
ATOM     54 N15  DES L   1      -3.587 -10.637 -11.328  1.00  0.00    -0.3289 NA
ATOM     55 H42  DES L   1      -3.766 -11.648 -13.154  1.00  0.00    +0.0432  H
ATOM     56 H43  DES L   1      -5.287 -11.092 -12.455  1.00  0.00    +0.0432  H
ATOM     57 H44  DES L   1      -2.587 -10.481 -11.494  1.00  0.00    +0.1182 HD
ATOM     58 H45  DES L   1      -3.627 -11.531 -10.831  1.00  0.00    +0.1182 HD
ENDBRANCH 21 53
ENDBRANCH 17 21
ENDBRANCH 1 19
TORSDOF 8
ENDMDL
MODEL 18
REMARK VINA RESULT:    -6.284      4.016      5.923
REMARK INTER + INTRA:         -10.575
REMARK INTER:                  -9.652
REMARK INTRA:                  -0.923
REMARK UNBOUND:                -1.352
ROOT
ATOM      1 C19  DES L   1       0.247  -2.595 -13.344  1.00  0.00    +0.0423  A
ATOM      2 C20  DES L   1       0.642  -2.809 -14.663  1.00  0.00    -0.0377  A
ATOM      3 C21  DES L   1       0.960  -1.729 -15.493  1.00  0.00    -0.0506  A
ATOM      4 C22  DES L   1       0.887  -0.412 -15.010  1.00  0.00    +0.0004  A
ATOM      5 C23  DES L   1       1.192   0.704 -15.793  1.00  0.00    +0.0353  A
ATOM      6 N24  DES L   1       1.132   1.986 -15.360  1.00  0.00    -0.2626 NA
ATOM      7 C25  DES L   1       0.750   2.170 -14.082  1.00  0.00    +0.0281  A
ATOM      8 C26  DES L   1       0.424   1.138 -13.215  1.00  0.00    -0.0358  A
ATOM      9 C27  DES L   1       0.490  -0.182 -13.681  1.00  0.00    -0.0131  A
ATOM     10 C28  DES L   1       0.174  -1.280 -12.860  1.00  0.00    -0.0305  A
ATOM     11 H47  DES L   1       0.716  -3.808 -15.082  1.00  0.00    +0.0638  H
ATOM     12 H48  DES L   1       1.266  -1.925 -16.517  1.00  0.00    +0.0625  H
ATOM     13 H49  DES L   1       1.505   0.595 -16.829  1.00  0.00    +0.0836  H
ATOM     14 H50  DES L   1       0.709   3.206 -13.755  1.00  0.00    +0.0830  H
ATOM     15 H51  DES L   1       0.123   1.365 -12.197  1.00  0.00    +0.0639  H
ATOM     16 H52  DES L   1      -0.133  -1.103 -11.831  1.00  0.00    +0.0644  H
ENDROOT
BRANCH 1 19
ATOM     17 C16  DES L   1       0.718  -4.641 -11.963  1.00  0.00    +0.2339  C
ATOM     18 O17  DES L   1       1.901  -4.818 -12.253  1.00  0.00    -0.2722 OA
ATOM     19 N18  DES L   1      -0.088  -3.625 -12.444  1.00  0.00    -0.3256  N
ATOM     20 H46  DES L   1      -1.051  -3.638 -12.101  1.00  0.00    +0.1686 HD
BRANCH 17 21
ATOM     21 C13  DES L   1       0.023  -5.566 -10.949  1.00  0.00    +0.0752  C
ATOM     22 H41  DES L   1      -0.399  -4.866 -10.211  1.00  0.00    +0.0458  H
BRANCH 21 26
ATOM     23  C9  DES L   1      -3.287  -7.793 -12.694  1.00  0.00    -0.0103  A
ATOM     24 C10  DES L   1      -3.493  -7.015 -11.549  1.00  0.00    -0.0551  A
ATOM     25 C11  DES L   1      -2.438  -6.300 -10.973  1.00  0.00    -0.0574  A
ATOM     26 C12  DES L   1      -1.150  -6.354 -11.523  1.00  0.00    -0.0341  A
ATOM     27 C29  DES L   1      -0.948  -7.143 -12.668  1.00  0.00    -0.0574  A
ATOM     28 C30  DES L   1      -2.002  -7.859 -13.242  1.00  0.00    -0.0551  A
ATOM     29 H39  DES L   1      -4.478  -6.972 -11.087  1.00  0.00    +0.0621  H
ATOM     30 H40  DES L   1      -2.647  -5.712 -10.081  1.00  0.00    +0.0621  H
ATOM     31 H53  DES L   1       0.040  -7.217 -13.119  1.00  0.00    +0.0621  H
ATOM     32 H54  DES L   1      -1.811  -8.478 -14.116  1.00  0.00    +0.0621  H
BRANCH 23 33
ATOM     33  C8  DES L   1      -4.420  -8.589 -13.290  1.00  0.00    +0.1179  C
ATOM     34 H37  DES L   1      -4.358  -8.621 -14.384  1.00  0.00    +0.0749  H
ATOM     35 H38  DES L   1      -4.355  -9.631 -12.956  1.00  0.00    +0.0749  H
BRANCH 33 36
ATOM     36  O7  DES L   1      -5.667  -8.066 -12.821  1.00  0.00    -0.4564 OA
BRANCH 36 37
ATOM     37  C5  DES L   1      -6.774  -8.581 -13.411  1.00  0.00    +0.3398  C
ATOM     38  O6  DES L   1      -6.987  -8.655 -14.610  1.00  0.00    -0.2449 OA
BRANCH 37 42
ATOM     39  C1  DES L   1      -9.517  -9.939 -10.409  1.00  0.00    -0.0615  A
ATOM     40  C2  DES L   1      -8.407 -10.709 -10.745  1.00  0.00    -0.0610  A
ATOM     41  C3  DES L   1      -7.516 -10.254 -11.717  1.00  0.00    -0.0475  A
ATOM     42  C4  DES L   1      -7.728  -9.021 -12.357  1.00  0.00    +0.0619  A
ATOM     43 C31  DES L   1      -8.845  -8.233 -12.015  1.00  0.00    -0.0365  A
ATOM     44 C32  DES L   1      -9.123  -6.905 -12.662  1.00  0.00    -0.0389  C
ATOM     45 C33  DES L   1      -9.736  -8.713 -11.039  1.00  0.00    -0.0581  A
ATOM     46 H34  DES L   1     -10.215 -10.293  -9.654  1.00  0.00    +0.0618  H
ATOM     47 H35  DES L   1      -8.238 -11.664 -10.254  1.00  0.00    +0.0618  H
ATOM     48 H36  DES L   1      -6.661 -10.873 -11.978  1.00  0.00    +0.0626  H
ATOM     49 H55  DES L   1      -8.227  -6.276 -12.657  1.00  0.00    +0.0278  H
ATOM     50 H56  DES L   1      -9.470  -7.049 -13.690  1.00  0.00    +0.0278  H
ATOM     51 H57  DES L   1      -9.900  -6.353 -12.122  1.00  0.00    +0.0278  H
ATOM     52 H58  DES L   1     -10.611  -8.129 -10.760  1.00  0.00    +0.0620  H
ENDBRANCH 37 42
ENDBRANCH 36 37
ENDBRANCH 33 36
ENDBRANCH 23 33
ENDBRANCH 21 26
BRANCH 21 53
ATOM     53 C14  DES L   1       1.006  -6.461 -10.159  1.00  0.00    +0.0085  C
ATOM     54 N15  DES L   1       0.362  -7.560  -9.412  1.00  0.00    -0.3289 NA
ATOM     55 H42  DES L   1       1.575  -5.852  -9.447  1.00  0.00    +0.0432  H
ATOM     56 H43  DES L   1       1.729  -6.906 -10.853  1.00  0.00    +0.0432  H
ATOM     57 H44  DES L   1      -0.231  -7.144  -8.686  1.00  0.00    +0.1182 HD
ATOM     58 H45  DES L   1       1.088  -8.062  -8.894  1.00  0.00    +0.1182 HD
ENDBRANCH 21 53
ENDBRANCH 17 21
ENDBRANCH 1 19
TORSDOF 8
ENDMDL
MODEL 19
REMARK VINA RESULT:    -6.276      3.669      9.650
REMARK INTER + INTRA:         -10.564
REMARK INTER:                  -8.677
REMARK INTRA:                  -1.886
REMARK UNBOUND:                -1.352
ROOT
ATOM      1 C19  DES L   1      -6.834  -7.600 -13.323  1.00  0.00    +0.0423  A
ATOM      2 C20  DES L   1      -8.169  -7.866 -13.025  1.00  0.00    -0.0377  A
ATOM      3 C21  DES L   1      -9.078  -6.817 -12.850  1.00  0.00    -0.0506  A
ATOM      4 C22  DES L   1      -8.661  -5.482 -12.971  1.00  0.00    +0.0004  A
ATOM      5 C23  DES L   1      -9.526  -4.397 -12.806  1.00  0.00    +0.0353  A
ATOM      6 N24  DES L   1      -9.157  -3.098 -12.915  1.00  0.00    -0.2626 NA
ATOM      7 C25  DES L   1      -7.862  -2.864 -13.206  1.00  0.00    +0.0281  A
ATOM      8 C26  DES L   1      -6.918  -3.863 -13.391  1.00  0.00    -0.0358  A
ATOM      9 C27  DES L   1      -7.317  -5.200 -13.272  1.00  0.00    -0.0131  A
ATOM     10 C28  DES L   1      -6.416  -6.266 -13.446  1.00  0.00    -0.0305  A
ATOM     11 H47  DES L   1      -8.540  -8.881 -12.923  1.00  0.00    +0.0638  H
ATOM     12 H48  DES L   1     -10.114  -7.054 -12.619  1.00  0.00    +0.0625  H
ATOM     13 H49  DES L   1     -10.577  -4.546 -12.572  1.00  0.00    +0.0836  H
ATOM     14 H50  DES L   1      -7.589  -1.816 -13.290  1.00  0.00    +0.0830  H
ATOM     15 H51  DES L   1      -5.892  -3.596 -13.622  1.00  0.00    +0.0639  H
ATOM     16 H52  DES L   1      -5.375  -6.049 -13.679  1.00  0.00    +0.0644  H
ENDROOT
BRANCH 1 19
ATOM     17 C16  DES L   1      -5.250  -9.400 -12.569  1.00  0.00    +0.2339  C
ATOM     18 O17  DES L   1      -5.472  -9.377 -11.359  1.00  0.00    -0.2722 OA
ATOM     19 N18  DES L   1      -5.857  -8.595 -13.517  1.00  0.00    -0.3256  N
ATOM     20 H46  DES L   1      -5.540  -8.746 -14.478  1.00  0.00    +0.1686 HD
BRANCH 17 21
ATOM     21 C13  DES L   1      -4.254 -10.416 -13.154  1.00  0.00    +0.0752  C
ATOM     22 H41  DES L   1      -4.807 -10.859 -13.998  1.00  0.00    +0.0458  H
BRANCH 21 26
ATOM     23  C9  DES L   1      -0.704  -8.527 -14.824  1.00  0.00    -0.0103  A
ATOM     24 C10  DES L   1      -1.098  -9.795 -15.269  1.00  0.00    -0.0551  A
ATOM     25 C11  DES L   1      -2.231 -10.417 -14.737  1.00  0.00    -0.0574  A
ATOM     26 C12  DES L   1      -2.992  -9.791 -13.740  1.00  0.00    -0.0341  A
ATOM     27 C29  DES L   1      -2.588  -8.522 -13.293  1.00  0.00    -0.0574  A
ATOM     28 C30  DES L   1      -1.454  -7.901 -13.823  1.00  0.00    -0.0551  A
ATOM     29 H39  DES L   1      -0.512 -10.315 -16.026  1.00  0.00    +0.0621  H
ATOM     30 H40  DES L   1      -2.494 -11.404 -15.112  1.00  0.00    +0.0621  H
ATOM     31 H53  DES L   1      -3.149  -8.008 -12.515  1.00  0.00    +0.0621  H
ATOM     32 H54  DES L   1      -1.152  -6.927 -13.442  1.00  0.00    +0.0621  H
BRANCH 23 33
ATOM     33  C8  DES L   1       0.539  -7.877 -15.376  1.00  0.00    +0.1179  C
ATOM     34 H37  DES L   1       0.774  -8.246 -16.381  1.00  0.00    +0.0749  H
ATOM     35 H38  DES L   1       0.375  -6.799 -15.485  1.00  0.00    +0.0749  H
BRANCH 33 36
ATOM     36  O7  DES L   1       1.620  -8.054 -14.454  1.00  0.00    -0.4564 OA
BRANCH 36 37
ATOM     37  C5  DES L   1       2.303  -6.928 -14.133  1.00  0.00    +0.3398  C
ATOM     38  O6  DES L   1       3.346  -6.546 -14.638  1.00  0.00    -0.2449 OA
BRANCH 37 42
ATOM     39  C1  DES L   1       0.234  -4.993 -10.917  1.00  0.00    -0.0615  A
ATOM     40  C2  DES L   1       0.873  -6.210 -10.707  1.00  0.00    -0.0610  A
ATOM     41  C3  DES L   1       1.551  -6.828 -11.758  1.00  0.00    -0.0475  A
ATOM     42  C4  DES L   1       1.597  -6.227 -13.028  1.00  0.00    +0.0619  A
ATOM     43 C31  DES L   1       0.959  -4.989 -13.244  1.00  0.00    -0.0365  A
ATOM     44 C32  DES L   1       0.976  -4.296 -14.578  1.00  0.00    -0.0389  C
ATOM     45 C33  DES L   1       0.273  -4.388 -12.174  1.00  0.00    -0.0581  A
ATOM     46 H34  DES L   1      -0.299  -4.511 -10.100  1.00  0.00    +0.0618  H
ATOM     47 H35  DES L   1       0.841  -6.682  -9.728  1.00  0.00    +0.0618  H
ATOM     48 H36  DES L   1       2.035  -7.786 -11.582  1.00  0.00    +0.0626  H
ATOM     49 H55  DES L   1       1.995  -4.247 -14.976  1.00  0.00    +0.0278  H
ATOM     50 H56  DES L   1       0.325  -4.819 -15.286  1.00  0.00    +0.0278  H
ATOM     51 H57  DES L   1       0.619  -3.264 -14.495  1.00  0.00    +0.0278  H
ATOM     52 H58  DES L   1      -0.235  -3.435 -12.314  1.00  0.00    +0.0620  H
ENDBRANCH 37 42
ENDBRANCH 36 37
ENDBRANCH 33 36
ENDBRANCH 23 33
ENDBRANCH 21 26
BRANCH 21 53
ATOM     53 C14  DES L   1      -3.942 -11.592 -12.199  1.00  0.00    +0.0085  C
ATOM     54 N15  DES L   1      -3.213 -11.203 -10.975  1.00  0.00    -0.3289 NA
ATOM     55 H42  DES L   1      -3.350 -12.351 -12.723  1.00  0.00    +0.0432  H
ATOM     56 H43  DES L   1      -4.881 -12.068 -11.892  1.00  0.00    +0.0432  H
ATOM     57 H44  DES L   1      -2.287 -10.861 -11.255  1.00  0.00    +0.1182 HD
ATOM     58 H45  DES L   1      -3.019 -12.051 -10.436  1.00  0.00    +0.1182 HD
ENDBRANCH 21 53
ENDBRANCH 17 21
ENDBRANCH 1 19
TORSDOF 8
ENDMDL
MODEL 20
REMARK VINA RESULT:    -6.185      2.378      4.099
REMARK INTER + INTRA:         -10.430
REMARK INTER:                  -9.468
REMARK INTRA:                  -0.963
REMARK UNBOUND:                -1.352
ROOT
ATOM      1 C19  DES L   1       0.478  -5.862 -12.744  1.00  0.00    +0.0423  A
ATOM      2 C20  DES L   1       0.614  -4.639 -13.399  1.00  0.00    -0.0377  A
ATOM      3 C21  DES L   1       1.872  -4.197 -13.820  1.00  0.00    -0.0506  A
ATOM      4 C22  DES L   1       3.018  -4.978 -13.592  1.00  0.00    +0.0004  A
ATOM      5 C23  DES L   1       4.298  -4.585 -13.991  1.00  0.00    +0.0353  A
ATOM      6 N24  DES L   1       5.422  -5.312 -13.787  1.00  0.00    -0.2626 NA
ATOM      7 C25  DES L   1       5.267  -6.491 -13.154  1.00  0.00    +0.0281  A
ATOM      8 C26  DES L   1       4.046  -6.980 -12.715  1.00  0.00    -0.0358  A
ATOM      9 C27  DES L   1       2.894  -6.213 -12.933  1.00  0.00    -0.0131  A
ATOM     10 C28  DES L   1       1.621  -6.643 -12.516  1.00  0.00    -0.0305  A
ATOM     11 H47  DES L   1      -0.241  -4.002 -13.601  1.00  0.00    +0.0638  H
ATOM     12 H48  DES L   1       1.949  -3.239 -14.330  1.00  0.00    +0.0625  H
ATOM     13 H49  DES L   1       4.462  -3.641 -14.505  1.00  0.00    +0.0836  H
ATOM     14 H50  DES L   1       6.182  -7.058 -13.001  1.00  0.00    +0.0830  H
ATOM     15 H51  DES L   1       4.001  -7.940 -12.211  1.00  0.00    +0.0639  H
ATOM     16 H52  DES L   1       1.525  -7.600 -12.006  1.00  0.00    +0.0644  H
ENDROOT
BRANCH 1 19
ATOM     17 C16  DES L   1      -1.713  -5.757 -11.517  1.00  0.00    +0.2339  C
ATOM     18 O17  DES L   1      -1.652  -4.607 -11.084  1.00  0.00    -0.2722 OA
ATOM     19 N18  DES L   1      -0.749  -6.381 -12.290  1.00  0.00    -0.3256  N
ATOM     20 H46  DES L   1      -0.965  -7.346 -12.553  1.00  0.00    +0.1686 HD
BRANCH 17 21
ATOM     21 C13  DES L   1      -2.958  -6.620 -11.251  1.00  0.00    +0.0752  C
ATOM     22 H41  DES L   1      -3.226  -6.370 -10.211  1.00  0.00    +0.0458  H
BRANCH 21 26
ATOM     23  C9  DES L   1      -6.462  -5.559 -13.609  1.00  0.00    -0.0103  A
ATOM     24 C10  DES L   1      -5.706  -6.688 -13.946  1.00  0.00    -0.0551  A
ATOM     25 C11  DES L   1      -4.574  -7.038 -13.203  1.00  0.00    -0.0574  A
ATOM     26 C12  DES L   1      -4.165  -6.260 -12.110  1.00  0.00    -0.0341  A
ATOM     27 C29  DES L   1      -4.924  -5.125 -11.781  1.00  0.00    -0.0574  A
ATOM     28 C30  DES L   1      -6.054  -4.775 -12.525  1.00  0.00    -0.0551  A
ATOM     29 H39  DES L   1      -5.987  -7.298 -14.804  1.00  0.00    +0.0621  H
ATOM     30 H40  DES L   1      -4.017  -7.922 -13.506  1.00  0.00    +0.0621  H
ATOM     31 H53  DES L   1      -4.634  -4.492 -10.945  1.00  0.00    +0.0621  H
ATOM     32 H54  DES L   1      -6.609  -3.877 -12.260  1.00  0.00    +0.0621  H
BRANCH 23 33
ATOM     33  C8  DES L   1      -7.660  -5.169 -14.435  1.00  0.00    +0.1179  C
ATOM     34 H37  DES L   1      -8.276  -4.420 -13.923  1.00  0.00    +0.0749  H
ATOM     35 H38  DES L   1      -7.328  -4.697 -15.367  1.00  0.00    +0.0749  H
BRANCH 33 36
ATOM     36  O7  DES L   1      -8.398  -6.344 -14.789  1.00  0.00    -0.4564 OA
BRANCH 36 37
ATOM     37  C5  DES L   1      -9.187  -6.853 -13.811  1.00  0.00    +0.3398  C
ATOM     38  O6  DES L   1      -9.906  -6.218 -13.057  1.00  0.00    -0.2449 OA
BRANCH 37 42
ATOM     39  C1  DES L   1      -8.752 -11.117 -13.771  1.00  0.00    -0.0615  A
ATOM     40  C2  DES L   1      -8.603 -10.408 -14.959  1.00  0.00    -0.0610  A
ATOM     41  C3  DES L   1      -8.738  -9.020 -14.960  1.00  0.00    -0.0475  A
ATOM     42  C4  DES L   1      -9.020  -8.330 -13.769  1.00  0.00    +0.0619  A
ATOM     43 C31  DES L   1      -9.163  -9.042 -12.561  1.00  0.00    -0.0365  A
ATOM     44 C32  DES L   1      -9.461  -8.361 -11.254  1.00  0.00    -0.0389  C
ATOM     45 C33  DES L   1      -9.032 -10.442 -12.583  1.00  0.00    -0.0581  A
ATOM     46 H34  DES L   1      -8.650 -12.200 -13.768  1.00  0.00    +0.0618  H
ATOM     47 H35  DES L   1      -8.386 -10.935 -15.885  1.00  0.00    +0.0618  H
ATOM     48 H36  DES L   1      -8.632  -8.481 -15.899  1.00  0.00    +0.0626  H
ATOM     49 H55  DES L   1      -8.782  -7.517 -11.093  1.00  0.00    +0.0278  H
ATOM     50 H56  DES L   1     -10.498  -8.011 -11.236  1.00  0.00    +0.0278  H
ATOM     51 H57  DES L   1      -9.324  -9.043 -10.408  1.00  0.00    +0.0278  H
ATOM     52 H58  DES L   1      -9.145 -11.018 -11.665  1.00  0.00    +0.0620  H
ENDBRANCH 37 42
ENDBRANCH 36 37
ENDBRANCH 33 36
ENDBRANCH 23 33
ENDBRANCH 21 26
BRANCH 21 53
ATOM     53 C14  DES L   1      -2.665  -8.139 -11.250  1.00  0.00    +0.0085  C
ATOM     54 N15  DES L   1      -1.475  -8.528 -10.469  1.00  0.00    -0.3289 NA
ATOM     55 H42  DES L   1      -2.530  -8.493 -12.279  1.00  0.00    +0.0432  H
ATOM     56 H43  DES L   1      -3.528  -8.674 -10.835  1.00  0.00    +0.0432  H
ATOM     57 H44  DES L   1      -0.651  -8.119 -10.923  1.00  0.00    +0.1182 HD
ATOM     58 H45  DES L   1      -1.345  -9.538 -10.567  1.00  0.00    +0.1182 HD
ENDBRANCH 21 53
ENDBRANCH 17 21
ENDBRANCH 1 19
TORSDOF 8
ENDMDL
