MODEL 1
REMARK VINA RESULT:    -8.025      0.000      0.000
REMARK INTER + INTRA:         -12.973
REMARK INTER:                 -11.778
REMARK INTRA:                  -1.195
REMARK UNBOUND:                -1.195
ROOT
ATOM      1 C20  DES L   1       1.842  -5.721 -12.433  1.00  0.00    +0.0423  A
ATOM      2 C21  DES L   1       1.888  -4.630 -13.309  1.00  0.00    -0.0377  A
ATOM      3 C22  DES L   1       3.039  -4.360 -14.053  1.00  0.00    -0.0506  A
ATOM      4 C23  DES L   1       4.169  -5.182 -13.930  1.00  0.00    +0.0004  A
ATOM      5 C24  DES L   1       5.349  -4.965 -14.647  1.00  0.00    +0.0353  A
ATOM      6 N25  DES L   1       6.458  -5.737 -14.554  1.00  0.00    -0.2626 NA
ATOM      7 C26  DES L   1       6.392  -6.781 -13.701  1.00  0.00    +0.0281  A
ATOM      8 C27  DES L   1       5.275  -7.089 -12.942  1.00  0.00    -0.0358  A
ATOM      9 C28  DES L   1       4.137  -6.281 -13.052  1.00  0.00    -0.0131  A
ATOM     10 C29  DES L   1       2.968  -6.538 -12.310  1.00  0.00    -0.0305  A
ATOM     11 H49  DES L   1       1.026  -3.976 -13.423  1.00  0.00    +0.0638  H
ATOM     12 H50  DES L   1       3.047  -3.506 -14.726  1.00  0.00    +0.0625  H
ATOM     13 H51  DES L   1       5.441  -4.135 -15.342  1.00  0.00    +0.0836  H
ATOM     14 H52  DES L   1       7.291  -7.386 -13.641  1.00  0.00    +0.0830  H
ATOM     15 H53  DES L   1       5.295  -7.947 -12.276  1.00  0.00    +0.0639  H
ATOM     16 H54  DES L   1       2.963  -7.389 -11.635  1.00  0.00    +0.0644  H
ENDROOT
BRANCH 1 19
ATOM     17 C17  DES L   1      -0.585  -6.333 -12.203  1.00  0.00    +0.2339  C
ATOM     18 O18  DES L   1      -0.843  -6.606 -13.374  1.00  0.00    -0.2722 OA
ATOM     19 N19  DES L   1       0.644  -5.917 -11.722  1.00  0.00    -0.3256  N
ATOM     20 H48  DES L   1       0.671  -5.722 -10.717  1.00  0.00    +0.1686 HD
BRANCH 17 21
ATOM     21 C14  DES L   1      -1.666  -6.484 -11.118  1.00  0.00    +0.0752  C
ATOM     22 H43  DES L   1      -1.492  -5.616 -10.463  1.00  0.00    +0.0458  H
BRANCH 21 26
ATOM     23 C10  DES L   1      -5.719  -6.211 -12.684  1.00  0.00    -0.0103  A
ATOM     24 C11  DES L   1      -5.048  -7.437 -12.623  1.00  0.00    -0.0551  A
ATOM     25 C12  DES L   1      -3.750  -7.509 -12.112  1.00  0.00    -0.0574  A
ATOM     26 C13  DES L   1      -3.096  -6.362 -11.637  1.00  0.00    -0.0341  A
ATOM     27 C30  DES L   1      -3.777  -5.137 -11.692  1.00  0.00    -0.0574  A
ATOM     28 C31  DES L   1      -5.075  -5.065 -12.206  1.00  0.00    -0.0551  A
ATOM     29 H41  DES L   1      -5.537  -8.347 -12.966  1.00  0.00    +0.0621  H
ATOM     30 H42  DES L   1      -3.255  -8.479 -12.078  1.00  0.00    +0.0621  H
ATOM     31 H55  DES L   1      -3.319  -4.219 -11.331  1.00  0.00    +0.0621  H
ATOM     32 H56  DES L   1      -5.587  -4.104 -12.221  1.00  0.00    +0.0621  H
BRANCH 23 33
ATOM     33  C9  DES L   1      -7.129  -6.129 -13.206  1.00  0.00    +0.1178  C
ATOM     34 H39  DES L   1      -7.147  -6.148 -14.303  1.00  0.00    +0.0749  H
ATOM     35 H40  DES L   1      -7.701  -7.006 -12.882  1.00  0.00    +0.0749  H
BRANCH 33 36
ATOM     36  O8  DES L   1      -7.769  -4.973 -12.652  1.00  0.00    -0.4564 OA
BRANCH 36 37
ATOM     37  C6  DES L   1      -8.697  -4.378 -13.438  1.00  0.00    +0.3395  C
ATOM     38  O7  DES L   1      -9.835  -4.774 -13.636  1.00  0.00    -0.2450 OA
BRANCH 37 43
ATOM     39  C1  DES L   1      -6.523   0.388 -15.933  1.00  0.00    -0.0397  C
ATOM     40  C2  DES L   1      -7.065  -0.842 -15.266  1.00  0.00    -0.0504  A
ATOM     41  C3  DES L   1      -7.072  -2.068 -15.941  1.00  0.00    -0.0581  A
ATOM     42  C4  DES L   1      -7.603  -3.208 -15.331  1.00  0.00    -0.0475  A
ATOM     43  C5  DES L   1      -8.146  -3.134 -14.042  1.00  0.00    +0.0590  A
ATOM     44 C32  DES L   1      -8.150  -1.905 -13.369  1.00  0.00    -0.0475  A
ATOM     45 C33  DES L   1      -7.618  -0.767 -13.982  1.00  0.00    -0.0581  A
ATOM     46 H34  DES L   1      -7.318   0.893 -16.490  1.00  0.00    +0.0278  H
ATOM     47 H35  DES L   1      -6.110   1.083 -15.194  1.00  0.00    +0.0278  H
ATOM     48 H36  DES L   1      -5.713   0.133 -16.625  1.00  0.00    +0.0278  H
ATOM     49 H37  DES L   1      -6.661  -2.146 -16.945  1.00  0.00    +0.0620  H
ATOM     50 H38  DES L   1      -7.592  -4.154 -15.869  1.00  0.00    +0.0626  H
ATOM     51 H57  DES L   1      -8.561  -1.818 -12.367  1.00  0.00    +0.0626  H
ATOM     52 H58  DES L   1      -7.634   0.181 -13.446  1.00  0.00    +0.0620  H
ENDBRANCH 37 43
ENDBRANCH 36 37
ENDBRANCH 33 36
ENDBRANCH 23 33
ENDBRANCH 21 26
BRANCH 21 53
ATOM     53 C15  DES L   1      -1.468  -7.727 -10.218  1.00  0.00    +0.0085  C
ATOM     54 N16  DES L   1      -0.180  -7.759  -9.498  1.00  0.00    -0.3289 NA
ATOM     55 H44  DES L   1      -2.270  -7.765  -9.472  1.00  0.00    +0.0432  H
ATOM     56 H45  DES L   1      -1.545  -8.639 -10.822  1.00  0.00    +0.0432  H
ATOM     57 H46  DES L   1      -0.133  -8.631  -8.966  1.00  0.00    +0.1182 HD
ATOM     58 H47  DES L   1       0.570  -7.840 -10.193  1.00  0.00    +0.1182 HD
ENDBRANCH 21 53
ENDBRANCH 17 21
ENDBRANCH 1 19
TORSDOF 8
ENDMDL
MODEL 2
REMARK VINA RESULT:    -7.793      1.751      2.492
REMARK INTER + INTRA:         -12.633
REMARK INTER:                 -10.913
REMARK INTRA:                  -1.720
REMARK UNBOUND:                -1.195
ROOT
ATOM      1 C20  DES L   1       1.632  -6.229 -13.323  1.00  0.00    +0.0423  A
ATOM      2 C21  DES L   1       1.222  -5.979 -14.637  1.00  0.00    -0.0377  A
ATOM      3 C22  DES L   1       2.138  -5.558 -15.604  1.00  0.00    -0.0506  A
ATOM      4 C23  DES L   1       3.488  -5.377 -15.268  1.00  0.00    +0.0004  A
ATOM      5 C24  DES L   1       4.451  -4.957 -16.189  1.00  0.00    +0.0353  A
ATOM      6 N25  DES L   1       5.761  -4.773 -15.900  1.00  0.00    -0.2626 NA
ATOM      7 C26  DES L   1       6.134  -5.016 -14.626  1.00  0.00    +0.0281  A
ATOM      8 C27  DES L   1       5.265  -5.435 -13.632  1.00  0.00    -0.0358  A
ATOM      9 C28  DES L   1       3.914  -5.622 -13.950  1.00  0.00    -0.0131  A
ATOM     10 C29  DES L   1       2.977  -6.046 -12.988  1.00  0.00    -0.0305  A
ATOM     11 H49  DES L   1       0.181  -6.111 -14.926  1.00  0.00    +0.0638  H
ATOM     12 H50  DES L   1       1.790  -5.372 -16.618  1.00  0.00    +0.0625  H
ATOM     13 H51  DES L   1       4.189  -4.751 -17.223  1.00  0.00    +0.0836  H
ATOM     14 H52  DES L   1       7.188  -4.860 -14.416  1.00  0.00    +0.0830  H
ATOM     15 H53  DES L   1       5.638  -5.611 -12.628  1.00  0.00    +0.0639  H
ATOM     16 H54  DES L   1       3.324  -6.228 -11.976  1.00  0.00    +0.0644  H
ENDROOT
BRANCH 1 19
ATOM     17 C17  DES L   1      -0.378  -5.904 -11.849  1.00  0.00    +0.2339  C
ATOM     18 O18  DES L   1      -0.594  -4.711 -12.053  1.00  0.00    -0.2722 OA
ATOM     19 N19  DES L   1       0.643  -6.647 -12.415  1.00  0.00    -0.3256  N
ATOM     20 H48  DES L   1       0.678  -7.628 -12.120  1.00  0.00    +0.1686 HD
BRANCH 17 21
ATOM     21 C14  DES L   1      -1.308  -6.714 -10.929  1.00  0.00    +0.0752  C
ATOM     22 H43  DES L   1      -1.708  -5.955 -10.240  1.00  0.00    +0.0458  H
BRANCH 21 26
ATOM     23 C10  DES L   1      -4.730  -8.570 -12.879  1.00  0.00    -0.0103  A
ATOM     24 C11  DES L   1      -4.640  -8.503 -11.484  1.00  0.00    -0.0551  A
ATOM     25 C12  DES L   1      -3.539  -7.899 -10.874  1.00  0.00    -0.0574  A
ATOM     26 C13  DES L   1      -2.507  -7.335 -11.640  1.00  0.00    -0.0341  A
ATOM     27 C30  DES L   1      -2.606  -7.396 -13.037  1.00  0.00    -0.0574  A
ATOM     28 C31  DES L   1      -3.707  -8.003 -13.649  1.00  0.00    -0.0551  A
ATOM     29 H41  DES L   1      -5.434  -8.915 -10.864  1.00  0.00    +0.0621  H
ATOM     30 H42  DES L   1      -3.500  -7.864  -9.786  1.00  0.00    +0.0621  H
ATOM     31 H55  DES L   1      -1.839  -6.968 -13.678  1.00  0.00    +0.0621  H
ATOM     32 H56  DES L   1      -3.768  -8.022 -14.736  1.00  0.00    +0.0621  H
BRANCH 23 33
ATOM     33  C9  DES L   1      -5.927  -9.194 -13.546  1.00  0.00    +0.1178  C
ATOM     34 H39  DES L   1      -5.622  -9.899 -14.328  1.00  0.00    +0.0749  H
ATOM     35 H40  DES L   1      -6.498  -9.782 -12.819  1.00  0.00    +0.0749  H
BRANCH 33 36
ATOM     36  O8  DES L   1      -6.790  -8.157 -14.028  1.00  0.00    -0.4564 OA
BRANCH 36 37
ATOM     37  C6  DES L   1      -7.642  -7.628 -13.118  1.00  0.00    +0.3395  C
ATOM     38  O7  DES L   1      -8.353  -8.253 -12.346  1.00  0.00    -0.2450 OA
BRANCH 37 43
ATOM     39  C1  DES L   1      -7.627  -1.830 -13.344  1.00  0.00    -0.0397  C
ATOM     40  C2  DES L   1      -7.610  -3.330 -13.306  1.00  0.00    -0.0504  A
ATOM     41  C3  DES L   1      -8.758  -4.060 -13.632  1.00  0.00    -0.0581  A
ATOM     42  C4  DES L   1      -8.750  -5.456 -13.569  1.00  0.00    -0.0475  A
ATOM     43  C5  DES L   1      -7.597  -6.141 -13.166  1.00  0.00    +0.0590  A
ATOM     44 C32  DES L   1      -6.450  -5.412 -12.828  1.00  0.00    -0.0475  A
ATOM     45 C33  DES L   1      -6.460  -4.015 -12.893  1.00  0.00    -0.0581  A
ATOM     46 H34  DES L   1      -7.946  -1.435 -12.375  1.00  0.00    +0.0278  H
ATOM     47 H35  DES L   1      -6.634  -1.433 -13.579  1.00  0.00    +0.0278  H
ATOM     48 H36  DES L   1      -8.312  -1.467 -14.117  1.00  0.00    +0.0278  H
ATOM     49 H37  DES L   1      -9.667  -3.547 -13.941  1.00  0.00    +0.0620  H
ATOM     50 H38  DES L   1      -9.652  -6.006 -13.834  1.00  0.00    +0.0626  H
ATOM     51 H57  DES L   1      -5.539  -5.915 -12.516  1.00  0.00    +0.0626  H
ATOM     52 H58  DES L   1      -5.561  -3.464 -12.622  1.00  0.00    +0.0620  H
ENDBRANCH 37 43
ENDBRANCH 36 37
ENDBRANCH 33 36
ENDBRANCH 23 33
ENDBRANCH 21 26
BRANCH 21 53
ATOM     53 C15  DES L   1      -0.560  -7.731 -10.035  1.00  0.00    +0.0085  C
ATOM     54 N16  DES L   1       0.745  -7.256  -9.534  1.00  0.00    -0.3289 NA
ATOM     55 H44  DES L   1      -1.182  -7.977  -9.168  1.00  0.00    +0.0432  H
ATOM     56 H45  DES L   1      -0.395  -8.662 -10.590  1.00  0.00    +0.0432  H
ATOM     57 H46  DES L   1       1.172  -8.010  -8.990  1.00  0.00    +0.1182 HD
ATOM     58 H47  DES L   1       1.370  -7.135 -10.339  1.00  0.00    +0.1182 HD
ENDBRANCH 21 53
ENDBRANCH 17 21
ENDBRANCH 1 19
TORSDOF 8
ENDMDL
MODEL 3
REMARK VINA RESULT:    -7.523      3.387      5.882
REMARK INTER + INTRA:         -12.237
REMARK INTER:                 -11.101
REMARK INTRA:                  -1.136
REMARK UNBOUND:                -1.195
ROOT
ATOM      1 C20  DES L   1       0.806  -2.542 -13.828  1.00  0.00    +0.0423  A
ATOM      2 C21  DES L   1       0.551  -2.649 -15.199  1.00  0.00    -0.0377  A
ATOM      3 C22  DES L   1       0.130  -1.540 -15.936  1.00  0.00    -0.0506  A
ATOM      4 C23  DES L   1      -0.046  -0.298 -15.308  1.00  0.00    +0.0004  A
ATOM      5 C24  DES L   1      -0.464   0.848 -15.989  1.00  0.00    +0.0353  A
ATOM      6 N25  DES L   1      -0.644   2.061 -15.416  1.00  0.00    -0.2626 NA
ATOM      7 C26  DES L   1      -0.395   2.141 -14.092  1.00  0.00    +0.0281  A
ATOM      8 C27  DES L   1       0.024   1.071 -13.318  1.00  0.00    -0.0358  A
ATOM      9 C28  DES L   1       0.206  -0.176 -13.928  1.00  0.00    -0.0131  A
ATOM     10 C29  DES L   1       0.630  -1.305 -13.201  1.00  0.00    -0.0305  A
ATOM     11 H49  DES L   1       0.679  -3.600 -15.712  1.00  0.00    +0.0638  H
ATOM     12 H50  DES L   1      -0.061  -1.653 -17.001  1.00  0.00    +0.0625  H
ATOM     13 H51  DES L   1      -0.675   0.823 -17.055  1.00  0.00    +0.0836  H
ATOM     14 H52  DES L   1      -0.546   3.122 -13.652  1.00  0.00    +0.0830  H
ATOM     15 H53  DES L   1       0.205   1.211 -12.257  1.00  0.00    +0.0639  H
ATOM     16 H54  DES L   1       0.816  -1.192 -12.137  1.00  0.00    +0.0644  H
ENDROOT
BRANCH 1 19
ATOM     17 C17  DES L   1       2.372  -4.455 -13.372  1.00  0.00    +0.2339  C
ATOM     18 O18  DES L   1       3.244  -4.212 -14.204  1.00  0.00    -0.2722 OA
ATOM     19 N19  DES L   1       1.225  -3.709 -13.163  1.00  0.00    -0.3256  N
ATOM     20 H48  DES L   1       0.603  -4.067 -12.433  1.00  0.00    +0.1686 HD
BRANCH 17 21
ATOM     21 C14  DES L   1       2.524  -5.652 -12.417  1.00  0.00    +0.0752  C
ATOM     22 H43  DES L   1       2.916  -5.195 -11.496  1.00  0.00    +0.0458  H
BRANCH 21 26
ATOM     23 C10  DES L   1      -1.283  -7.530 -11.450  1.00  0.00    -0.0103  A
ATOM     24 C11  DES L   1      -0.823  -7.466 -12.770  1.00  0.00    -0.0551  A
ATOM     25 C12  DES L   1       0.404  -6.865 -13.063  1.00  0.00    -0.0574  A
ATOM     26 C13  DES L   1       1.207  -6.327 -12.045  1.00  0.00    -0.0341  A
ATOM     27 C30  DES L   1       0.745  -6.402 -10.723  1.00  0.00    -0.0574  A
ATOM     28 C31  DES L   1      -0.484  -7.001 -10.430  1.00  0.00    -0.0551  A
ATOM     29 H41  DES L   1      -1.414  -7.891 -13.578  1.00  0.00    +0.0621  H
ATOM     30 H42  DES L   1       0.734  -6.831 -14.101  1.00  0.00    +0.0621  H
ATOM     31 H55  DES L   1       1.330  -6.007  -9.896  1.00  0.00    +0.0621  H
ATOM     32 H56  DES L   1      -0.811  -7.062  -9.393  1.00  0.00    +0.0621  H
BRANCH 23 33
ATOM     33  C9  DES L   1      -2.591  -8.201 -11.121  1.00  0.00    +0.1178  C
ATOM     34 H39  DES L   1      -2.664  -9.183 -11.603  1.00  0.00    +0.0749  H
ATOM     35 H40  DES L   1      -2.654  -8.391 -10.043  1.00  0.00    +0.0749  H
BRANCH 33 36
ATOM     36  O8  DES L   1      -3.669  -7.322 -11.464  1.00  0.00    -0.4564 OA
BRANCH 36 37
ATOM     37  C6  DES L   1      -4.442  -7.713 -12.505  1.00  0.00    +0.3395  C
ATOM     38  O7  DES L   1      -4.268  -8.703 -13.199  1.00  0.00    -0.2450 OA
BRANCH 37 43
ATOM     39  C1  DES L   1      -8.748  -3.891 -13.222  1.00  0.00    -0.0397  C
ATOM     40  C2  DES L   1      -7.650  -4.894 -13.016  1.00  0.00    -0.0504  A
ATOM     41  C3  DES L   1      -6.390  -4.482 -12.570  1.00  0.00    -0.0581  A
ATOM     42  C4  DES L   1      -5.359  -5.412 -12.406  1.00  0.00    -0.0475  A
ATOM     43  C5  DES L   1      -5.572  -6.765 -12.698  1.00  0.00    +0.0590  A
ATOM     44 C32  DES L   1      -6.830  -7.178 -13.156  1.00  0.00    -0.0475  A
ATOM     45 C33  DES L   1      -7.859  -6.245 -13.319  1.00  0.00    -0.0581  A
ATOM     46 H34  DES L   1      -8.705  -3.494 -14.240  1.00  0.00    +0.0278  H
ATOM     47 H35  DES L   1      -9.730  -4.348 -13.060  1.00  0.00    +0.0278  H
ATOM     48 H36  DES L   1      -8.656  -3.061 -12.514  1.00  0.00    +0.0278  H
ATOM     49 H37  DES L   1      -6.201  -3.435 -12.343  1.00  0.00    +0.0620  H
ATOM     50 H38  DES L   1      -4.388  -5.073 -12.050  1.00  0.00    +0.0626  H
ATOM     51 H57  DES L   1      -7.026  -8.221 -13.387  1.00  0.00    +0.0626  H
ATOM     52 H58  DES L   1      -8.829  -6.583 -13.680  1.00  0.00    +0.0620  H
ENDBRANCH 37 43
ENDBRANCH 36 37
ENDBRANCH 33 36
ENDBRANCH 23 33
ENDBRANCH 21 26
BRANCH 21 53
ATOM     53 C15  DES L   1       3.601  -6.667 -12.867  1.00  0.00    +0.0085  C
ATOM     54 N16  DES L   1       4.982  -6.145 -12.833  1.00  0.00    -0.3289 NA
ATOM     55 H44  DES L   1       3.560  -7.550 -12.218  1.00  0.00    +0.0432  H
ATOM     56 H45  DES L   1       3.389  -7.006 -13.888  1.00  0.00    +0.0432  H
ATOM     57 H46  DES L   1       5.608  -6.875 -13.182  1.00  0.00    +0.1182 HD
ATOM     58 H47  DES L   1       5.054  -5.392 -13.527  1.00  0.00    +0.1182 HD
ENDBRANCH 21 53
ENDBRANCH 17 21
ENDBRANCH 1 19
TORSDOF 8
ENDMDL
MODEL 4
REMARK VINA RESULT:    -7.449      3.108      4.559
REMARK INTER + INTRA:         -12.128
REMARK INTER:                 -10.616
REMARK INTRA:                  -1.512
REMARK UNBOUND:                -1.195
ROOT
ATOM      1 C20  DES L   1       0.357  -3.029 -13.357  1.00  0.00    +0.0423  A
ATOM      2 C21  DES L   1       0.652  -3.100 -14.723  1.00  0.00    -0.0377  A
ATOM      3 C22  DES L   1       0.884  -1.938 -15.464  1.00  0.00    -0.0506  A
ATOM      4 C23  DES L   1       0.824  -0.681 -14.846  1.00  0.00    +0.0004  A
ATOM      5 C24  DES L   1       1.047   0.516 -15.532  1.00  0.00    +0.0353  A
ATOM      6 N25  DES L   1       0.998   1.746 -14.968  1.00  0.00    -0.2626 NA
ATOM      7 C26  DES L   1       0.710   1.790 -13.651  1.00  0.00    +0.0281  A
ATOM      8 C27  DES L   1       0.471   0.668 -12.873  1.00  0.00    -0.0358  A
ATOM      9 C28  DES L   1       0.528  -0.595 -13.473  1.00  0.00    -0.0131  A
ATOM     10 C29  DES L   1       0.296  -1.776 -12.742  1.00  0.00    -0.0305  A
ATOM     11 H49  DES L   1       0.704  -4.061 -15.229  1.00  0.00    +0.0638  H
ATOM     12 H50  DES L   1       1.111  -2.023 -16.525  1.00  0.00    +0.0625  H
ATOM     13 H51  DES L   1       1.281   0.521 -16.593  1.00  0.00    +0.0836  H
ATOM     14 H52  DES L   1       0.674   2.786 -13.218  1.00  0.00    +0.0830  H
ATOM     15 H53  DES L   1       0.244   0.782 -11.817  1.00  0.00    +0.0639  H
ATOM     16 H54  DES L   1       0.065  -1.690 -11.684  1.00  0.00    +0.0644  H
ENDROOT
BRANCH 1 19
ATOM     17 C17  DES L   1      -0.783  -4.529 -11.693  1.00  0.00    +0.2339  C
ATOM     18 O18  DES L   1      -1.582  -3.730 -11.207  1.00  0.00    -0.2722 OA
ATOM     19 N19  DES L   1       0.135  -4.247 -12.690  1.00  0.00    -0.3256  N
ATOM     20 H48  DES L   1       0.730  -5.034 -12.964  1.00  0.00    +0.1686 HD
BRANCH 17 21
ATOM     21 C14  DES L   1      -0.776  -5.996 -11.228  1.00  0.00    +0.0752  C
ATOM     22 H43  DES L   1      -0.798  -5.915 -10.131  1.00  0.00    +0.0458  H
BRANCH 21 26
ATOM     23 C10  DES L   1      -4.316  -8.301 -12.282  1.00  0.00    -0.0103  A
ATOM     24 C11  DES L   1      -4.182  -7.718 -11.017  1.00  0.00    -0.0551  A
ATOM     25 C12  DES L   1      -3.043  -6.976 -10.696  1.00  0.00    -0.0574  A
ATOM     26 C13  DES L   1      -2.016  -6.787 -11.634  1.00  0.00    -0.0341  A
ATOM     27 C30  DES L   1      -2.160  -7.366 -12.904  1.00  0.00    -0.0574  A
ATOM     28 C31  DES L   1      -3.299  -8.110 -13.224  1.00  0.00    -0.0551  A
ATOM     29 H41  DES L   1      -4.970  -7.832 -10.275  1.00  0.00    +0.0621  H
ATOM     30 H42  DES L   1      -2.969  -6.536  -9.702  1.00  0.00    +0.0621  H
ATOM     31 H55  DES L   1      -1.398  -7.243 -13.670  1.00  0.00    +0.0621  H
ATOM     32 H56  DES L   1      -3.393  -8.534 -14.223  1.00  0.00    +0.0621  H
BRANCH 23 33
ATOM     33  C9  DES L   1      -5.554  -9.078 -12.646  1.00  0.00    +0.1178  C
ATOM     34 H39  DES L   1      -5.297 -10.021 -13.143  1.00  0.00    +0.0749  H
ATOM     35 H40  DES L   1      -6.102  -9.358 -11.738  1.00  0.00    +0.0749  H
BRANCH 33 36
ATOM     36  O8  DES L   1      -6.418  -8.246 -13.428  1.00  0.00    -0.4564 OA
BRANCH 36 37
ATOM     37  C6  DES L   1      -7.511  -7.765 -12.789  1.00  0.00    +0.3395  C
ATOM     38  O7  DES L   1      -8.333  -8.424 -12.171  1.00  0.00    -0.2450 OA
BRANCH 37 43
ATOM     39  C1  DES L   1      -7.961  -2.004 -13.317  1.00  0.00    -0.0397  C
ATOM     40  C2  DES L   1      -7.830  -3.495 -13.206  1.00  0.00    -0.0504  A
ATOM     41  C3  DES L   1      -8.970  -4.305 -13.165  1.00  0.00    -0.0581  A
ATOM     42  C4  DES L   1      -8.848  -5.691 -13.033  1.00  0.00    -0.0475  A
ATOM     43  C5  DES L   1      -7.584  -6.284 -12.926  1.00  0.00    +0.0590  A
ATOM     44 C32  DES L   1      -6.442  -5.474 -12.955  1.00  0.00    -0.0475  A
ATOM     45 C33  DES L   1      -6.567  -4.088 -13.088  1.00  0.00    -0.0581  A
ATOM     46 H34  DES L   1      -8.033  -1.560 -12.320  1.00  0.00    +0.0278  H
ATOM     47 H35  DES L   1      -7.099  -1.573 -13.836  1.00  0.00    +0.0278  H
ATOM     48 H36  DES L   1      -8.853  -1.733 -13.890  1.00  0.00    +0.0278  H
ATOM     49 H37  DES L   1      -9.962  -3.864 -13.240  1.00  0.00    +0.0620  H
ATOM     50 H38  DES L   1      -9.747  -6.306 -13.011  1.00  0.00    +0.0626  H
ATOM     51 H57  DES L   1      -5.447  -5.906 -12.879  1.00  0.00    +0.0626  H
ATOM     52 H58  DES L   1      -5.669  -3.473 -13.104  1.00  0.00    +0.0620  H
ENDBRANCH 37 43
ENDBRANCH 36 37
ENDBRANCH 33 36
ENDBRANCH 23 33
ENDBRANCH 21 26
BRANCH 21 53
ATOM     53 C15  DES L   1       0.537  -6.742 -11.563  1.00  0.00    +0.0085  C
ATOM     54 N16  DES L   1       1.730  -6.217 -10.869  1.00  0.00    -0.3289 NA
ATOM     55 H44  DES L   1       0.431  -7.799 -11.293  1.00  0.00    +0.0432  H
ATOM     56 H45  DES L   1       0.723  -6.701 -12.642  1.00  0.00    +0.0432  H
ATOM     57 H46  DES L   1       2.544  -6.750 -11.185  1.00  0.00    +0.1182 HD
ATOM     58 H47  DES L   1       1.900  -5.264 -11.208  1.00  0.00    +0.1182 HD
ENDBRANCH 21 53
ENDBRANCH 17 21
ENDBRANCH 1 19
TORSDOF 8
ENDMDL
MODEL 5
REMARK VINA RESULT:    -7.083      3.136     10.072
REMARK INTER + INTRA:         -11.591
REMARK INTER:                 -10.474
REMARK INTRA:                  -1.117
REMARK UNBOUND:                -1.195
ROOT
ATOM      1 C20  DES L   1      -6.559  -5.442 -14.028  1.00  0.00    +0.0423  A
ATOM      2 C21  DES L   1      -6.959  -5.569 -15.362  1.00  0.00    -0.0377  A
ATOM      3 C22  DES L   1      -7.620  -4.523 -16.012  1.00  0.00    -0.0506  A
ATOM      4 C23  DES L   1      -7.893  -3.327 -15.331  1.00  0.00    +0.0004  A
ATOM      5 C24  DES L   1      -8.549  -2.246 -15.925  1.00  0.00    +0.0353  A
ATOM      6 N25  DES L   1      -8.828  -1.078 -15.299  1.00  0.00    -0.2626 NA
ATOM      7 C26  DES L   1      -8.436  -0.980 -14.012  1.00  0.00    +0.0281  A
ATOM      8 C27  DES L   1      -7.779  -1.987 -13.324  1.00  0.00    -0.0358  A
ATOM      9 C28  DES L   1      -7.497  -3.187 -13.988  1.00  0.00    -0.0131  A
ATOM     10 C29  DES L   1      -6.833  -4.252 -13.349  1.00  0.00    -0.0305  A
ATOM     11 H49  DES L   1      -6.761  -6.484 -15.915  1.00  0.00    +0.0638  H
ATOM     12 H50  DES L   1      -7.919  -4.649 -17.050  1.00  0.00    +0.0625  H
ATOM     13 H51  DES L   1      -8.881  -2.288 -16.959  1.00  0.00    +0.0836  H
ATOM     14 H52  DES L   1      -8.670  -0.036 -13.528  1.00  0.00    +0.0830  H
ATOM     15 H53  DES L   1      -7.494  -1.835 -12.287  1.00  0.00    +0.0639  H
ATOM     16 H54  DES L   1      -6.538  -4.126 -12.311  1.00  0.00    +0.0644  H
ENDROOT
BRANCH 1 19
ATOM     17 C17  DES L   1      -6.458  -7.665 -12.858  1.00  0.00    +0.2339  C
ATOM     18 O18  DES L   1      -7.661  -7.886 -12.728  1.00  0.00    -0.2722 OA
ATOM     19 N19  DES L   1      -5.903  -6.545 -13.452  1.00  0.00    -0.3256  N
ATOM     20 H48  DES L   1      -4.879  -6.523 -13.461  1.00  0.00    +0.1686 HD
BRANCH 17 21
ATOM     21 C14  DES L   1      -5.424  -8.699 -12.378  1.00  0.00    +0.0752  C
ATOM     22 H43  DES L   1      -5.309  -9.366 -13.245  1.00  0.00    +0.0458  H
BRANCH 21 26
ATOM     23 C10  DES L   1      -1.537  -6.940 -11.507  1.00  0.00    -0.0103  A
ATOM     24 C11  DES L   1      -2.597  -6.840 -10.598  1.00  0.00    -0.0551  A
ATOM     25 C12  DES L   1      -3.836  -7.415 -10.890  1.00  0.00    -0.0574  A
ATOM     26 C13  DES L   1      -4.044  -8.115 -12.089  1.00  0.00    -0.0341  A
ATOM     27 C30  DES L   1      -2.976  -8.220 -12.991  1.00  0.00    -0.0574  A
ATOM     28 C31  DES L   1      -1.736  -7.642 -12.701  1.00  0.00    -0.0551  A
ATOM     29 H41  DES L   1      -2.461  -6.319  -9.652  1.00  0.00    +0.0621  H
ATOM     30 H42  DES L   1      -4.640  -7.319 -10.161  1.00  0.00    +0.0621  H
ATOM     31 H55  DES L   1      -3.081  -8.757 -13.931  1.00  0.00    +0.0621  H
ATOM     32 H56  DES L   1      -0.918  -7.753 -13.411  1.00  0.00    +0.0621  H
BRANCH 23 33
ATOM     33  C9  DES L   1      -0.190  -6.347 -11.188  1.00  0.00    +0.1178  C
ATOM     34 H39  DES L   1      -0.292  -5.405 -10.637  1.00  0.00    +0.0749  H
ATOM     35 H40  DES L   1       0.370  -7.022 -10.529  1.00  0.00    +0.0749  H
BRANCH 33 36
ATOM     36  O8  DES L   1       0.563  -6.213 -12.400  1.00  0.00    -0.4564 OA
BRANCH 36 37
ATOM     37  C6  DES L   1       1.250  -5.055 -12.543  1.00  0.00    +0.3395  C
ATOM     38  O7  DES L   1       0.832  -3.934 -12.296  1.00  0.00    -0.2450 OA
BRANCH 37 43
ATOM     39  C1  DES L   1       6.617  -6.241 -14.401  1.00  0.00    -0.0397  C
ATOM     40  C2  DES L   1       5.238  -5.908 -13.912  1.00  0.00    -0.0504  A
ATOM     41  C3  DES L   1       4.634  -6.682 -12.915  1.00  0.00    -0.0581  A
ATOM     42  C4  DES L   1       3.339  -6.389 -12.480  1.00  0.00    -0.0475  A
ATOM     43  C5  DES L   1       2.625  -5.325 -13.045  1.00  0.00    +0.0590  A
ATOM     44 C32  DES L   1       3.223  -4.556 -14.051  1.00  0.00    -0.0475  A
ATOM     45 C33  DES L   1       4.519  -4.851 -14.484  1.00  0.00    -0.0581  A
ATOM     46 H34  DES L   1       6.558  -6.954 -15.229  1.00  0.00    +0.0278  H
ATOM     47 H35  DES L   1       7.138  -5.342 -14.744  1.00  0.00    +0.0278  H
ATOM     48 H36  DES L   1       7.220  -6.679 -13.599  1.00  0.00    +0.0278  H
ATOM     49 H37  DES L   1       5.169  -7.517 -12.467  1.00  0.00    +0.0620  H
ATOM     50 H38  DES L   1       2.889  -6.998 -11.697  1.00  0.00    +0.0626  H
ATOM     51 H57  DES L   1       2.695  -3.722 -14.505  1.00  0.00    +0.0626  H
ATOM     52 H58  DES L   1       4.967  -4.246 -15.270  1.00  0.00    +0.0620  H
ENDBRANCH 37 43
ENDBRANCH 36 37
ENDBRANCH 33 36
ENDBRANCH 23 33
ENDBRANCH 21 26
BRANCH 21 53
ATOM     53 C15  DES L   1      -5.938  -9.597 -11.229  1.00  0.00    +0.0085  C
ATOM     54 N16  DES L   1      -6.909 -10.627 -11.648  1.00  0.00    -0.3289 NA
ATOM     55 H44  DES L   1      -5.088 -10.109 -10.762  1.00  0.00    +0.0432  H
ATOM     56 H45  DES L   1      -6.408  -8.979 -10.455  1.00  0.00    +0.0432  H
ATOM     57 H46  DES L   1      -7.213 -11.138 -10.816  1.00  0.00    +0.1182 HD
ATOM     58 H47  DES L   1      -7.755 -10.149 -11.979  1.00  0.00    +0.1182 HD
ENDBRANCH 21 53
ENDBRANCH 17 21
ENDBRANCH 1 19
TORSDOF 8
ENDMDL
MODEL 6
REMARK VINA RESULT:    -7.006      3.592      6.305
REMARK INTER + INTRA:         -11.478
REMARK INTER:                 -10.113
REMARK INTRA:                  -1.365
REMARK UNBOUND:                -1.195
ROOT
ATOM      1 C20  DES L   1       0.908  -2.706 -14.237  1.00  0.00    +0.0423  A
ATOM      2 C21  DES L   1       0.887  -2.203 -12.931  1.00  0.00    -0.0377  A
ATOM      3 C22  DES L   1       0.539  -0.873 -12.684  1.00  0.00    -0.0506  A
ATOM      4 C23  DES L   1       0.205  -0.020 -13.747  1.00  0.00    +0.0004  A
ATOM      5 C24  DES L   1      -0.152   1.319 -13.566  1.00  0.00    +0.0353  A
ATOM      6 N25  DES L   1      -0.480   2.169 -14.567  1.00  0.00    -0.2626 NA
ATOM      7 C26  DES L   1      -0.450   1.663 -15.817  1.00  0.00    +0.0281  A
ATOM      8 C27  DES L   1      -0.111   0.353 -16.113  1.00  0.00    -0.0358  A
ATOM      9 C28  DES L   1       0.223  -0.513 -15.065  1.00  0.00    -0.0131  A
ATOM     10 C29  DES L   1       0.578  -1.856 -15.296  1.00  0.00    -0.0305  A
ATOM     11 H49  DES L   1       1.142  -2.841 -12.088  1.00  0.00    +0.0638  H
ATOM     12 H50  DES L   1       0.531  -0.509 -11.660  1.00  0.00    +0.0625  H
ATOM     13 H51  DES L   1      -0.186   1.762 -12.574  1.00  0.00    +0.0836  H
ATOM     14 H52  DES L   1      -0.715   2.362 -16.605  1.00  0.00    +0.0830  H
ATOM     15 H53  DES L   1      -0.109   0.016 -17.146  1.00  0.00    +0.0639  H
ATOM     16 H54  DES L   1       0.589  -2.218 -16.319  1.00  0.00    +0.0644  H
ENDROOT
BRANCH 1 19
ATOM     17 C17  DES L   1       2.531  -4.626 -14.301  1.00  0.00    +0.2339  C
ATOM     18 O18  DES L   1       3.575  -4.022 -14.060  1.00  0.00    -0.2722 OA
ATOM     19 N19  DES L   1       1.273  -4.056 -14.394  1.00  0.00    -0.3256  N
ATOM     20 H48  DES L   1       0.517  -4.711 -14.613  1.00  0.00    +0.1686 HD
BRANCH 17 21
ATOM     21 C14  DES L   1       2.543  -6.153 -14.485  1.00  0.00    +0.0752  C
ATOM     22 H43  DES L   1       3.190  -6.503 -13.666  1.00  0.00    +0.0458  H
BRANCH 21 26
ATOM     23 C10  DES L   1      -1.295  -8.097 -13.816  1.00  0.00    -0.0103  A
ATOM     24 C11  DES L   1      -0.591  -7.504 -12.762  1.00  0.00    -0.0551  A
ATOM     25 C12  DES L   1       0.637  -6.879 -12.994  1.00  0.00    -0.0574  A
ATOM     26 C13  DES L   1       1.185  -6.819 -14.286  1.00  0.00    -0.0341  A
ATOM     27 C30  DES L   1       0.470  -7.407 -15.339  1.00  0.00    -0.0574  A
ATOM     28 C31  DES L   1      -0.757  -8.035 -15.107  1.00  0.00    -0.0551  A
ATOM     29 H41  DES L   1      -0.999  -7.518 -11.754  1.00  0.00    +0.0621  H
ATOM     30 H42  DES L   1       1.160  -6.427 -12.152  1.00  0.00    +0.0621  H
ATOM     31 H55  DES L   1       0.846  -7.382 -16.359  1.00  0.00    +0.0621  H
ATOM     32 H56  DES L   1      -1.299  -8.468 -15.946  1.00  0.00    +0.0621  H
BRANCH 23 33
ATOM     33  C9  DES L   1      -2.632  -8.748 -13.580  1.00  0.00    +0.1178  C
ATOM     34 H39  DES L   1      -3.427  -8.231 -14.132  1.00  0.00    +0.0749  H
ATOM     35 H40  DES L   1      -2.622  -9.775 -13.962  1.00  0.00    +0.0749  H
BRANCH 33 36
ATOM     36  O8  DES L   1      -2.878  -8.819 -12.171  1.00  0.00    -0.4564 OA
BRANCH 36 37
ATOM     37  C6  DES L   1      -4.180  -8.842 -11.799  1.00  0.00    +0.3395  C
ATOM     38  O7  DES L   1      -4.769  -9.784 -11.291  1.00  0.00    -0.2450 OA
BRANCH 37 43
ATOM     39  C1  DES L   1      -6.825  -3.812 -12.972  1.00  0.00    -0.0397  C
ATOM     40  C2  DES L   1      -6.118  -5.104 -12.685  1.00  0.00    -0.0504  A
ATOM     41  C3  DES L   1      -6.687  -6.324 -13.070  1.00  0.00    -0.0581  A
ATOM     42  C4  DES L   1      -6.042  -7.528 -12.777  1.00  0.00    -0.0475  A
ATOM     43  C5  DES L   1      -4.825  -7.531 -12.084  1.00  0.00    +0.0590  A
ATOM     44 C32  DES L   1      -4.259  -6.312 -11.687  1.00  0.00    -0.0475  A
ATOM     45 C33  DES L   1      -4.907  -5.108 -11.982  1.00  0.00    -0.0581  A
ATOM     46 H34  DES L   1      -7.499  -3.563 -12.147  1.00  0.00    +0.0278  H
ATOM     47 H35  DES L   1      -6.108  -2.995 -13.104  1.00  0.00    +0.0278  H
ATOM     48 H36  DES L   1      -7.408  -3.883 -13.896  1.00  0.00    +0.0278  H
ATOM     49 H37  DES L   1      -7.634  -6.345 -13.604  1.00  0.00    +0.0620  H
ATOM     50 H38  DES L   1      -6.496  -8.466 -13.092  1.00  0.00    +0.0626  H
ATOM     51 H57  DES L   1      -3.314  -6.282 -11.152  1.00  0.00    +0.0626  H
ATOM     52 H58  DES L   1      -4.455  -4.171 -11.663  1.00  0.00    +0.0620  H
ENDBRANCH 37 43
ENDBRANCH 36 37
ENDBRANCH 33 36
ENDBRANCH 23 33
ENDBRANCH 21 26
BRANCH 21 53
ATOM     53 C15  DES L   1       3.240  -6.612 -15.787  1.00  0.00    +0.0085  C
ATOM     54 N16  DES L   1       4.662  -6.226 -15.886  1.00  0.00    -0.3289 NA
ATOM     55 H44  DES L   1       3.183  -7.704 -15.863  1.00  0.00    +0.0432  H
ATOM     56 H45  DES L   1       2.713  -6.200 -16.656  1.00  0.00    +0.0432  H
ATOM     57 H46  DES L   1       5.017  -6.541 -16.792  1.00  0.00    +0.1182 HD
ATOM     58 H47  DES L   1       4.711  -5.202 -15.932  1.00  0.00    +0.1182 HD
ENDBRANCH 21 53
ENDBRANCH 17 21
ENDBRANCH 1 19
TORSDOF 8
ENDMDL
MODEL 7
REMARK VINA RESULT:    -7.006      3.188      4.208
REMARK INTER + INTRA:         -11.477
REMARK INTER:                  -9.960
REMARK INTRA:                  -1.517
REMARK UNBOUND:                -1.195
ROOT
ATOM      1 C20  DES L   1       1.809  -5.894 -13.424  1.00  0.00    +0.0423  A
ATOM      2 C21  DES L   1       2.380  -4.691 -13.855  1.00  0.00    -0.0377  A
ATOM      3 C22  DES L   1       3.757  -4.591 -14.070  1.00  0.00    -0.0506  A
ATOM      4 C23  DES L   1       4.589  -5.699 -13.854  1.00  0.00    +0.0004  A
ATOM      5 C24  DES L   1       5.972  -5.662 -14.052  1.00  0.00    +0.0353  A
ATOM      6 N25  DES L   1       6.805  -6.711 -13.854  1.00  0.00    -0.2626 NA
ATOM      7 C26  DES L   1       6.233  -7.860 -13.435  1.00  0.00    +0.0281  A
ATOM      8 C27  DES L   1       4.875  -8.009 -13.208  1.00  0.00    -0.0358  A
ATOM      9 C28  DES L   1       4.028  -6.914 -13.419  1.00  0.00    -0.0131  A
ATOM     10 C29  DES L   1       2.639  -6.997 -13.207  1.00  0.00    -0.0305  A
ATOM     11 H49  DES L   1       1.759  -3.816 -14.030  1.00  0.00    +0.0638  H
ATOM     12 H50  DES L   1       4.173  -3.643 -14.406  1.00  0.00    +0.0625  H
ATOM     13 H51  DES L   1       6.469  -4.756 -14.387  1.00  0.00    +0.0836  H
ATOM     14 H52  DES L   1       6.919  -8.688 -13.281  1.00  0.00    +0.0830  H
ATOM     15 H53  DES L   1       4.486  -8.966 -12.871  1.00  0.00    +0.0639  H
ATOM     16 H54  DES L   1       2.225  -7.942 -12.869  1.00  0.00    +0.0644  H
ENDROOT
BRANCH 1 19
ATOM     17 C17  DES L   1      -0.299  -6.365 -12.139  1.00  0.00    +0.2339  C
ATOM     18 O18  DES L   1       0.184  -6.861 -11.122  1.00  0.00    -0.2722 OA
ATOM     19 N19  DES L   1       0.416  -5.905 -13.231  1.00  0.00    -0.3256  N
ATOM     20 H48  DES L   1      -0.155  -5.533 -13.996  1.00  0.00    +0.1686 HD
BRANCH 17 21
ATOM     21 C14  DES L   1      -1.821  -6.171 -12.258  1.00  0.00    +0.0752  C
ATOM     22 H43  DES L   1      -1.937  -5.659 -13.226  1.00  0.00    +0.0458  H
BRANCH 21 26
ATOM     23 C10  DES L   1      -4.122  -9.848 -12.630  1.00  0.00    -0.0103  A
ATOM     24 C11  DES L   1      -3.505  -9.265 -13.743  1.00  0.00    -0.0551  A
ATOM     25 C12  DES L   1      -2.765  -8.088 -13.606  1.00  0.00    -0.0574  A
ATOM     26 C13  DES L   1      -2.612  -7.473 -12.353  1.00  0.00    -0.0341  A
ATOM     27 C30  DES L   1      -3.225  -8.066 -11.241  1.00  0.00    -0.0574  A
ATOM     28 C31  DES L   1      -3.967  -9.243 -11.378  1.00  0.00    -0.0551  A
ATOM     29 H41  DES L   1      -3.591  -9.730 -14.723  1.00  0.00    +0.0621  H
ATOM     30 H42  DES L   1      -2.298  -7.660 -14.491  1.00  0.00    +0.0621  H
ATOM     31 H55  DES L   1      -3.131  -7.635 -10.247  1.00  0.00    +0.0621  H
ATOM     32 H56  DES L   1      -4.418  -9.693 -10.494  1.00  0.00    +0.0621  H
BRANCH 23 33
ATOM     33  C9  DES L   1      -4.898 -11.132 -12.763  1.00  0.00    +0.1178  C
ATOM     34 H39  DES L   1      -4.391 -11.833 -13.438  1.00  0.00    +0.0749  H
ATOM     35 H40  DES L   1      -4.955 -11.639 -11.793  1.00  0.00    +0.0749  H
BRANCH 33 36
ATOM     36  O8  DES L   1      -6.239 -10.831 -13.167  1.00  0.00    -0.4564 OA
BRANCH 36 37
ATOM     37  C6  DES L   1      -7.132 -10.657 -12.164  1.00  0.00    +0.3395  C
ATOM     38  O7  DES L   1      -7.375 -11.451 -11.268  1.00  0.00    -0.2450 OA
BRANCH 37 43
ATOM     39  C1  DES L   1      -9.601  -5.437 -12.738  1.00  0.00    -0.0397  C
ATOM     40  C2  DES L   1      -8.961  -6.783 -12.560  1.00  0.00    -0.0504  A
ATOM     41  C3  DES L   1      -7.746  -7.077 -13.189  1.00  0.00    -0.0581  A
ATOM     42  C4  DES L   1      -7.164  -8.340 -13.047  1.00  0.00    -0.0475  A
ATOM     43  C5  DES L   1      -7.796  -9.330 -12.284  1.00  0.00    +0.0590  A
ATOM     44 C32  DES L   1      -9.018  -9.041 -11.663  1.00  0.00    -0.0475  A
ATOM     45 C33  DES L   1      -9.598  -7.777 -11.807  1.00  0.00    -0.0581  A
ATOM     46 H34  DES L   1     -10.253  -5.447 -13.616  1.00  0.00    +0.0278  H
ATOM     47 H35  DES L   1     -10.194  -5.168 -11.858  1.00  0.00    +0.0278  H
ATOM     48 H36  DES L   1      -8.843  -4.658 -12.868  1.00  0.00    +0.0278  H
ATOM     49 H37  DES L   1      -7.241  -6.325 -13.791  1.00  0.00    +0.0620  H
ATOM     50 H38  DES L   1      -6.214  -8.547 -13.538  1.00  0.00    +0.0626  H
ATOM     51 H57  DES L   1      -9.530  -9.787 -11.062  1.00  0.00    +0.0626  H
ATOM     52 H58  DES L   1     -10.549  -7.571 -11.321  1.00  0.00    +0.0620  H
ENDBRANCH 37 43
ENDBRANCH 36 37
ENDBRANCH 33 36
ENDBRANCH 23 33
ENDBRANCH 21 26
BRANCH 21 53
ATOM     53 C15  DES L   1      -2.404  -5.201 -11.204  1.00  0.00    +0.0085  C
ATOM     54 N16  DES L   1      -1.406  -4.315 -10.573  1.00  0.00    -0.3289 NA
ATOM     55 H44  DES L   1      -3.164  -4.567 -11.676  1.00  0.00    +0.0432  H
ATOM     56 H45  DES L   1      -2.905  -5.770 -10.412  1.00  0.00    +0.0432  H
ATOM     57 H46  DES L   1      -1.883  -3.745  -9.870  1.00  0.00    +0.1182 HD
ATOM     58 H47  DES L   1      -0.759  -4.900 -10.033  1.00  0.00    +0.1182 HD
ENDBRANCH 21 53
ENDBRANCH 17 21
ENDBRANCH 1 19
TORSDOF 8
ENDMDL
MODEL 8
REMARK VINA RESULT:    -6.951      3.409      9.169
REMARK INTER + INTRA:         -11.397
REMARK INTER:                 -10.102
REMARK INTRA:                  -1.295
REMARK UNBOUND:                -1.195
ROOT
ATOM      1 C20  DES L   1      -6.457  -5.371 -14.055  1.00  0.00    +0.0423  A
ATOM      2 C21  DES L   1      -6.881  -5.501 -15.382  1.00  0.00    -0.0377  A
ATOM      3 C22  DES L   1      -7.582  -4.469 -16.012  1.00  0.00    -0.0506  A
ATOM      4 C23  DES L   1      -7.871  -3.284 -15.319  1.00  0.00    +0.0004  A
ATOM      5 C24  DES L   1      -8.567  -2.217 -15.893  1.00  0.00    +0.0353  A
ATOM      6 N25  DES L   1      -8.863  -1.060 -15.255  1.00  0.00    -0.2626 NA
ATOM      7 C26  DES L   1      -8.447  -0.958 -13.976  1.00  0.00    +0.0281  A
ATOM      8 C27  DES L   1      -7.750  -1.952 -13.307  1.00  0.00    -0.0358  A
ATOM      9 C28  DES L   1      -7.451  -3.141 -13.983  1.00  0.00    -0.0131  A
ATOM     10 C29  DES L   1      -6.747  -4.191 -13.364  1.00  0.00    -0.0305  A
ATOM     11 H49  DES L   1      -6.671  -6.408 -15.943  1.00  0.00    +0.0638  H
ATOM     12 H50  DES L   1      -7.899  -4.598 -17.045  1.00  0.00    +0.0625  H
ATOM     13 H51  DES L   1      -8.919  -2.263 -16.920  1.00  0.00    +0.0836  H
ATOM     14 H52  DES L   1      -8.696  -0.024 -13.482  1.00  0.00    +0.0830  H
ATOM     15 H53  DES L   1      -7.447  -1.798 -12.276  1.00  0.00    +0.0639  H
ATOM     16 H54  DES L   1      -6.434  -4.063 -12.332  1.00  0.00    +0.0644  H
ENDROOT
BRANCH 1 19
ATOM     17 C17  DES L   1      -6.271  -7.566 -12.844  1.00  0.00    +0.2339  C
ATOM     18 O18  DES L   1      -7.462  -7.785 -12.629  1.00  0.00    -0.2722 OA
ATOM     19 N19  DES L   1      -5.760  -6.459 -13.499  1.00  0.00    -0.3256  N
ATOM     20 H48  DES L   1      -4.739  -6.436 -13.577  1.00  0.00    +0.1686 HD
BRANCH 17 21
ATOM     21 C14  DES L   1      -5.205  -8.587 -12.410  1.00  0.00    +0.0752  C
ATOM     22 H43  DES L   1      -5.079  -9.219 -13.302  1.00  0.00    +0.0458  H
BRANCH 21 26
ATOM     23 C10  DES L   1      -1.257  -6.938 -11.601  1.00  0.00    -0.0103  A
ATOM     24 C11  DES L   1      -1.520  -7.640 -12.782  1.00  0.00    -0.0551  A
ATOM     25 C12  DES L   1      -2.793  -8.158 -13.030  1.00  0.00    -0.0574  A
ATOM     26 C13  DES L   1      -3.839  -7.975 -12.111  1.00  0.00    -0.0341  A
ATOM     27 C30  DES L   1      -3.572  -7.263 -10.933  1.00  0.00    -0.0574  A
ATOM     28 C31  DES L   1      -2.297  -6.747 -10.684  1.00  0.00    -0.0551  A
ATOM     29 H41  DES L   1      -0.734  -7.781 -13.522  1.00  0.00    +0.0621  H
ATOM     30 H42  DES L   1      -2.965  -8.700 -13.959  1.00  0.00    +0.0621  H
ATOM     31 H55  DES L   1      -4.348  -7.087 -10.192  1.00  0.00    +0.0621  H
ATOM     32 H56  DES L   1      -2.122  -6.182  -9.769  1.00  0.00    +0.0621  H
BRANCH 23 33
ATOM     33  C9  DES L   1       0.105  -6.351 -11.339  1.00  0.00    +0.1178  C
ATOM     34 H39  DES L   1       0.028  -5.328 -10.952  1.00  0.00    +0.0749  H
ATOM     35 H40  DES L   1       0.618  -6.928 -10.560  1.00  0.00    +0.0749  H
BRANCH 33 36
ATOM     36  O8  DES L   1       0.895  -6.446 -12.530  1.00  0.00    -0.4564 OA
BRANCH 36 37
ATOM     37  C6  DES L   1       1.907  -5.553 -12.641  1.00  0.00    +0.3395  C
ATOM     38  O7  DES L   1       3.058  -5.719 -12.269  1.00  0.00    -0.2450 OA
BRANCH 37 43
ATOM     39  C1  DES L   1       0.061  -0.776 -15.367  1.00  0.00    -0.0397  C
ATOM     40  C2  DES L   1       0.561  -1.996 -14.651  1.00  0.00    -0.0504  A
ATOM     41  C3  DES L   1       0.924  -3.140 -15.370  1.00  0.00    -0.0581  A
ATOM     42  C4  DES L   1       1.362  -4.286 -14.701  1.00  0.00    -0.0475  A
ATOM     43  C5  DES L   1       1.431  -4.307 -13.303  1.00  0.00    +0.0590  A
ATOM     44 C32  DES L   1       1.058  -3.167 -12.580  1.00  0.00    -0.0475  A
ATOM     45 C33  DES L   1       0.620  -2.022 -13.252  1.00  0.00    -0.0581  A
ATOM     46 H34  DES L   1      -1.024  -0.834 -15.492  1.00  0.00    +0.0278  H
ATOM     47 H35  DES L   1       0.306   0.133 -14.809  1.00  0.00    +0.0278  H
ATOM     48 H36  DES L   1       0.526  -0.684 -16.354  1.00  0.00    +0.0278  H
ATOM     49 H37  DES L   1       0.872  -3.147 -16.457  1.00  0.00    +0.0620  H
ATOM     50 H38  DES L   1       1.648  -5.164 -15.279  1.00  0.00    +0.0626  H
ATOM     51 H57  DES L   1       1.105  -3.152 -11.495  1.00  0.00    +0.0626  H
ATOM     52 H58  DES L   1       0.329  -1.146 -12.675  1.00  0.00    +0.0620  H
ENDBRANCH 37 43
ENDBRANCH 36 37
ENDBRANCH 33 36
ENDBRANCH 23 33
ENDBRANCH 21 26
BRANCH 21 53
ATOM     53 C15  DES L   1      -5.683  -9.540 -11.290  1.00  0.00    +0.0085  C
ATOM     54 N16  DES L   1      -6.711 -10.511 -11.715  1.00  0.00    -0.3289 NA
ATOM     55 H44  DES L   1      -4.826 -10.106 -10.906  1.00  0.00    +0.0432  H
ATOM     56 H45  DES L   1      -6.088  -8.958 -10.454  1.00  0.00    +0.0432  H
ATOM     57 H46  DES L   1      -6.984 -11.065 -10.899  1.00  0.00    +0.1182 HD
ATOM     58 H47  DES L   1      -7.557  -9.988 -11.966  1.00  0.00    +0.1182 HD
ENDBRANCH 21 53
ENDBRANCH 17 21
ENDBRANCH 1 19
TORSDOF 8
ENDMDL
MODEL 9
REMARK VINA RESULT:    -6.883      2.049      3.450
REMARK INTER + INTRA:         -11.297
REMARK INTER:                 -10.275
REMARK INTRA:                  -1.023
REMARK UNBOUND:                -1.195
ROOT
ATOM      1 C20  DES L   1      -1.254  -7.350 -11.662  1.00  0.00    +0.0423  A
ATOM      2 C21  DES L   1      -0.299  -7.318 -10.640  1.00  0.00    -0.0377  A
ATOM      3 C22  DES L   1       0.952  -6.731 -10.850  1.00  0.00    -0.0506  A
ATOM      4 C23  DES L   1       1.267  -6.165 -12.095  1.00  0.00    +0.0004  A
ATOM      5 C24  DES L   1       2.499  -5.564 -12.367  1.00  0.00    +0.0353  A
ATOM      6 N25  DES L   1       2.838  -5.007 -13.554  1.00  0.00    -0.2626 NA
ATOM      7 C26  DES L   1       1.902  -5.052 -14.525  1.00  0.00    +0.0281  A
ATOM      8 C27  DES L   1       0.649  -5.622 -14.366  1.00  0.00    -0.0358  A
ATOM      9 C28  DES L   1       0.316  -6.191 -13.131  1.00  0.00    -0.0131  A
ATOM     10 C29  DES L   1      -0.939  -6.787 -12.902  1.00  0.00    -0.0305  A
ATOM     11 H49  DES L   1      -0.516  -7.750  -9.666  1.00  0.00    +0.0638  H
ATOM     12 H50  DES L   1       1.675  -6.721 -10.038  1.00  0.00    +0.0625  H
ATOM     13 H51  DES L   1       3.278  -5.509 -11.610  1.00  0.00    +0.0836  H
ATOM     14 H52  DES L   1       2.194  -4.602 -15.469  1.00  0.00    +0.0830  H
ATOM     15 H53  DES L   1      -0.053  -5.621 -15.194  1.00  0.00    +0.0639  H
ATOM     16 H54  DES L   1      -1.659  -6.801 -13.714  1.00  0.00    +0.0644  H
ENDROOT
BRANCH 1 19
ATOM     17 C17  DES L   1      -3.148  -8.952 -12.068  1.00  0.00    +0.2339  C
ATOM     18 O18  DES L   1      -2.757  -9.476 -13.110  1.00  0.00    -0.2722 OA
ATOM     19 N19  DES L   1      -2.485  -7.961 -11.364  1.00  0.00    -0.3256  N
ATOM     20 H48  DES L   1      -2.967  -7.634 -10.522  1.00  0.00    +0.1686 HD
BRANCH 17 21
ATOM     21 C14  DES L   1      -4.460  -9.417 -11.412  1.00  0.00    +0.0752  C
ATOM     22 H43  DES L   1      -4.395  -9.007 -10.393  1.00  0.00    +0.0458  H
BRANCH 21 26
ATOM     23 C10  DES L   1      -8.010  -7.624 -13.185  1.00  0.00    -0.0103  A
ATOM     24 C11  DES L   1      -6.744  -7.057 -13.369  1.00  0.00    -0.0551  A
ATOM     25 C12  DES L   1      -5.614  -7.648 -12.799  1.00  0.00    -0.0574  A
ATOM     26 C13  DES L   1      -5.718  -8.826 -12.043  1.00  0.00    -0.0341  A
ATOM     27 C30  DES L   1      -6.988  -9.394 -11.869  1.00  0.00    -0.0574  A
ATOM     28 C31  DES L   1      -8.120  -8.802 -12.438  1.00  0.00    -0.0551  A
ATOM     29 H41  DES L   1      -6.629  -6.155 -13.966  1.00  0.00    +0.0621  H
ATOM     30 H42  DES L   1      -4.643  -7.181 -12.961  1.00  0.00    +0.0621  H
ATOM     31 H55  DES L   1      -7.124 -10.310 -11.298  1.00  0.00    +0.0621  H
ATOM     32 H56  DES L   1      -9.092  -9.274 -12.302  1.00  0.00    +0.0621  H
BRANCH 23 33
ATOM     33  C9  DES L   1      -9.230  -7.010 -13.820  1.00  0.00    +0.1178  C
ATOM     34 H39  DES L   1      -9.678  -7.689 -14.555  1.00  0.00    +0.0749  H
ATOM     35 H40  DES L   1     -10.002  -6.839 -13.061  1.00  0.00    +0.0749  H
BRANCH 33 36
ATOM     36  O8  DES L   1      -8.882  -5.734 -14.370  1.00  0.00    -0.4564 OA
BRANCH 36 37
ATOM     37  C6  DES L   1      -9.115  -4.664 -13.573  1.00  0.00    +0.3395  C
ATOM     38  O7  DES L   1      -9.762  -4.665 -12.536  1.00  0.00    -0.2450 OA
BRANCH 37 43
ATOM     39  C1  DES L   1      -6.568   0.146 -15.583  1.00  0.00    -0.0397  C
ATOM     40  C2  DES L   1      -7.247  -1.096 -15.085  1.00  0.00    -0.0504  A
ATOM     41  C3  DES L   1      -7.797  -1.136 -13.799  1.00  0.00    -0.0581  A
ATOM     42  C4  DES L   1      -8.404  -2.302 -13.325  1.00  0.00    -0.0475  A
ATOM     43  C5  DES L   1      -8.456  -3.449 -14.126  1.00  0.00    +0.0590  A
ATOM     44 C32  DES L   1      -7.896  -3.416 -15.409  1.00  0.00    -0.0475  A
ATOM     45 C33  DES L   1      -7.290  -2.248 -15.881  1.00  0.00    -0.0581  A
ATOM     46 H34  DES L   1      -5.508   0.126 -15.314  1.00  0.00    +0.0278  H
ATOM     47 H35  DES L   1      -6.657   0.230 -16.671  1.00  0.00    +0.0278  H
ATOM     48 H36  DES L   1      -7.026   1.041 -15.150  1.00  0.00    +0.0278  H
ATOM     49 H37  DES L   1      -7.762  -0.257 -13.158  1.00  0.00    +0.0620  H
ATOM     50 H38  DES L   1      -8.834  -2.310 -12.324  1.00  0.00    +0.0626  H
ATOM     51 H57  DES L   1      -7.925  -4.290 -16.055  1.00  0.00    +0.0626  H
ATOM     52 H58  DES L   1      -6.856  -2.241 -16.879  1.00  0.00    +0.0620  H
ENDBRANCH 37 43
ENDBRANCH 36 37
ENDBRANCH 33 36
ENDBRANCH 23 33
ENDBRANCH 21 26
BRANCH 21 53
ATOM     53 C15  DES L   1      -4.552 -10.951 -11.237  1.00  0.00    +0.0085  C
ATOM     54 N16  DES L   1      -3.253 -11.619 -11.024  1.00  0.00    -0.3289 NA
ATOM     55 H44  DES L   1      -5.192 -11.179 -10.376  1.00  0.00    +0.0432  H
ATOM     56 H45  DES L   1      -5.026 -11.398 -12.119  1.00  0.00    +0.0432  H
ATOM     57 H46  DES L   1      -3.418 -12.626 -10.957  1.00  0.00    +0.1182 HD
ATOM     58 H47  DES L   1      -2.694 -11.506 -11.876  1.00  0.00    +0.1182 HD
ENDBRANCH 21 53
ENDBRANCH 17 21
ENDBRANCH 1 19
TORSDOF 8
ENDMDL
MODEL 10
REMARK VINA RESULT:    -6.768      3.898      8.711
REMARK INTER + INTRA:         -11.128
REMARK INTER:                 -10.246
REMARK INTRA:                  -0.883
REMARK UNBOUND:                -1.195
ROOT
ATOM      1 C20  DES L   1      -5.114  -6.661 -12.722  1.00  0.00    +0.0423  A
ATOM      2 C21  DES L   1      -5.931  -7.779 -12.923  1.00  0.00    -0.0377  A
ATOM      3 C22  DES L   1      -7.299  -7.630 -13.162  1.00  0.00    -0.0506  A
ATOM      4 C23  DES L   1      -7.875  -6.351 -13.204  1.00  0.00    +0.0004  A
ATOM      5 C24  DES L   1      -9.235  -6.136 -13.439  1.00  0.00    +0.0353  A
ATOM      6 N25  DES L   1      -9.824  -4.918 -13.486  1.00  0.00    -0.2626 NA
ATOM      7 C26  DES L   1      -9.018  -3.855 -13.287  1.00  0.00    +0.0281  A
ATOM      8 C27  DES L   1      -7.657  -3.950 -13.045  1.00  0.00    -0.0358  A
ATOM      9 C28  DES L   1      -7.065  -5.218 -13.002  1.00  0.00    -0.0131  A
ATOM     10 C29  DES L   1      -5.688  -5.387 -12.761  1.00  0.00    -0.0305  A
ATOM     11 H49  DES L   1      -5.512  -8.782 -12.896  1.00  0.00    +0.0638  H
ATOM     12 H50  DES L   1      -7.910  -8.517 -13.315  1.00  0.00    +0.0625  H
ATOM     13 H51  DES L   1      -9.916  -6.968 -13.603  1.00  0.00    +0.0836  H
ATOM     14 H52  DES L   1      -9.510  -2.888 -13.327  1.00  0.00    +0.0830  H
ATOM     15 H53  DES L   1      -7.071  -3.049 -12.894  1.00  0.00    +0.0639  H
ATOM     16 H54  DES L   1      -5.080  -4.502 -12.604  1.00  0.00    +0.0644  H
ENDROOT
BRANCH 1 19
ATOM     17 C17  DES L   1      -3.090  -7.010 -11.272  1.00  0.00    +0.2339  C
ATOM     18 O18  DES L   1      -3.609  -6.903 -10.162  1.00  0.00    -0.2722 OA
ATOM     19 N19  DES L   1      -3.749  -6.904 -12.485  1.00  0.00    -0.3256  N
ATOM     20 H48  DES L   1      -3.153  -7.009 -13.311  1.00  0.00    +0.1686 HD
BRANCH 17 21
ATOM     21 C14  DES L   1      -1.590  -7.331 -11.399  1.00  0.00    +0.0752  C
ATOM     22 H43  DES L   1      -1.571  -8.193 -12.082  1.00  0.00    +0.0458  H
BRANCH 21 26
ATOM     23 C10  DES L   1       0.664  -4.113 -13.274  1.00  0.00    -0.0103  A
ATOM     24 C11  DES L   1      -0.150  -3.873 -12.162  1.00  0.00    -0.0551  A
ATOM     25 C12  DES L   1      -0.862  -4.917 -11.568  1.00  0.00    -0.0574  A
ATOM     26 C13  DES L   1      -0.769  -6.229 -12.061  1.00  0.00    -0.0341  A
ATOM     27 C30  DES L   1       0.056  -6.464 -13.170  1.00  0.00    -0.0574  A
ATOM     28 C31  DES L   1       0.767  -5.419 -13.766  1.00  0.00    -0.0551  A
ATOM     29 H41  DES L   1      -0.228  -2.871 -11.745  1.00  0.00    +0.0621  H
ATOM     30 H42  DES L   1      -1.488  -4.697 -10.703  1.00  0.00    +0.0621  H
ATOM     31 H55  DES L   1       0.170  -7.462 -13.587  1.00  0.00    +0.0621  H
ATOM     32 H56  DES L   1       1.414  -5.633 -14.616  1.00  0.00    +0.0621  H
BRANCH 23 33
ATOM     33  C9  DES L   1       1.458  -2.998 -13.903  1.00  0.00    +0.1178  C
ATOM     34 H39  DES L   1       2.411  -2.847 -13.382  1.00  0.00    +0.0749  H
ATOM     35 H40  DES L   1       1.719  -3.260 -14.935  1.00  0.00    +0.0749  H
BRANCH 33 36
ATOM     36  O8  DES L   1       0.650  -1.816 -13.954  1.00  0.00    -0.4564 OA
BRANCH 36 37
ATOM     37  C6  DES L   1       0.218  -1.449 -15.184  1.00  0.00    +0.3395  C
ATOM     38  O7  DES L   1       0.148  -2.168 -16.169  1.00  0.00    -0.2450 OA
BRANCH 37 43
ATOM     39  C1  DES L   1      -1.219   4.172 -15.111  1.00  0.00    -0.0397  C
ATOM     40  C2  DES L   1      -0.873   2.712 -15.116  1.00  0.00    -0.0504  A
ATOM     41  C3  DES L   1       0.272   2.253 -14.455  1.00  0.00    -0.0581  A
ATOM     42  C4  DES L   1       0.609   0.897 -14.484  1.00  0.00    -0.0475  A
ATOM     43  C5  DES L   1      -0.186  -0.016 -15.186  1.00  0.00    +0.0590  A
ATOM     44 C32  DES L   1      -1.326   0.442 -15.859  1.00  0.00    -0.0475  A
ATOM     45 C33  DES L   1      -1.662   1.800 -15.828  1.00  0.00    -0.0581  A
ATOM     46 H34  DES L   1      -0.737   4.674 -15.956  1.00  0.00    +0.0278  H
ATOM     47 H35  DES L   1      -2.302   4.318 -15.183  1.00  0.00    +0.0278  H
ATOM     48 H36  DES L   1      -0.889   4.648 -14.182  1.00  0.00    +0.0278  H
ATOM     49 H37  DES L   1       0.907   2.947 -13.908  1.00  0.00    +0.0620  H
ATOM     50 H38  DES L   1       1.500   0.559 -13.956  1.00  0.00    +0.0626  H
ATOM     51 H57  DES L   1      -1.965  -0.243 -16.409  1.00  0.00    +0.0626  H
ATOM     52 H58  DES L   1      -2.548   2.139 -16.360  1.00  0.00    +0.0620  H
ENDBRANCH 37 43
ENDBRANCH 36 37
ENDBRANCH 33 36
ENDBRANCH 23 33
ENDBRANCH 21 26
BRANCH 21 53
ATOM     53 C15  DES L   1      -0.954  -7.832 -10.081  1.00  0.00    +0.0085  C
ATOM     54 N16  DES L   1       0.370  -7.251  -9.784  1.00  0.00    -0.3289 NA
ATOM     55 H44  DES L   1      -1.620  -7.594  -9.244  1.00  0.00    +0.0432  H
ATOM     56 H45  DES L   1      -0.848  -8.923 -10.111  1.00  0.00    +0.0432  H
ATOM     57 H46  DES L   1       0.718  -7.672  -8.919  1.00  0.00    +0.1182 HD
ATOM     58 H47  DES L   1       1.026  -7.568 -10.507  1.00  0.00    +0.1182 HD
ENDBRANCH 21 53
ENDBRANCH 17 21
ENDBRANCH 1 19
TORSDOF 8
ENDMDL
MODEL 11
REMARK VINA RESULT:    -6.705      4.323     10.398
REMARK INTER + INTRA:         -11.036
REMARK INTER:                  -9.959
REMARK INTRA:                  -1.077
REMARK UNBOUND:                -1.195
ROOT
ATOM      1 C20  DES L   1      -4.930  -9.133 -11.759  1.00  0.00    +0.0423  A
ATOM      2 C21  DES L   1      -5.684  -8.476 -12.738  1.00  0.00    -0.0377  A
ATOM      3 C22  DES L   1      -7.044  -8.752 -12.897  1.00  0.00    -0.0506  A
ATOM      4 C23  DES L   1      -7.675  -9.697 -12.074  1.00  0.00    +0.0004  A
ATOM      5 C24  DES L   1      -9.031 -10.017 -12.183  1.00  0.00    +0.0353  A
ATOM      6 N25  DES L   1      -9.672 -10.922 -11.406  1.00  0.00    -0.2626 NA
ATOM      7 C26  DES L   1      -8.925 -11.546 -10.471  1.00  0.00    +0.0281  A
ATOM      8 C27  DES L   1      -7.574 -11.307 -10.275  1.00  0.00    -0.0358  A
ATOM      9 C28  DES L   1      -6.928 -10.366 -11.086  1.00  0.00    -0.0131  A
ATOM     10 C29  DES L   1      -5.558 -10.076 -10.940  1.00  0.00    -0.0305  A
ATOM     11 H49  DES L   1      -5.221  -7.739 -13.390  1.00  0.00    +0.0638  H
ATOM     12 H50  DES L   1      -7.605  -8.226 -13.666  1.00  0.00    +0.0625  H
ATOM     13 H51  DES L   1      -9.664  -9.537 -12.924  1.00  0.00    +0.0836  H
ATOM     14 H52  DES L   1      -9.457 -12.268  -9.860  1.00  0.00    +0.0830  H
ATOM     15 H53  DES L   1      -7.037 -11.848  -9.501  1.00  0.00    +0.0639  H
ATOM     16 H54  DES L   1      -4.998 -10.604 -10.175  1.00  0.00    +0.0644  H
ENDROOT
BRANCH 1 19
ATOM     17 C17  DES L   1      -2.982  -7.748 -10.980  1.00  0.00    +0.2339  C
ATOM     18 O18  DES L   1      -3.580  -6.909 -10.308  1.00  0.00    -0.2722 OA
ATOM     19 N19  DES L   1      -3.568  -8.795 -11.670  1.00  0.00    -0.3256  N
ATOM     20 H48  DES L   1      -2.914  -9.391 -12.187  1.00  0.00    +0.1686 HD
BRANCH 17 21
ATOM     21 C14  DES L   1      -1.446  -7.717 -11.071  1.00  0.00    +0.0752  C
ATOM     22 H43  DES L   1      -1.208  -8.615 -11.661  1.00  0.00    +0.0458  H
BRANCH 21 26
ATOM     23 C10  DES L   1       0.230  -4.381 -13.311  1.00  0.00    -0.0103  A
ATOM     24 C11  DES L   1       0.228  -5.677 -13.837  1.00  0.00    -0.0551  A
ATOM     25 C12  DES L   1      -0.319  -6.736 -13.108  1.00  0.00    -0.0574  A
ATOM     26 C13  DES L   1      -0.890  -6.524 -11.843  1.00  0.00    -0.0341  A
ATOM     27 C30  DES L   1      -0.893  -5.221 -11.325  1.00  0.00    -0.0574  A
ATOM     28 C31  DES L   1      -0.343  -4.162 -12.053  1.00  0.00    -0.0551  A
ATOM     29 H41  DES L   1       0.646  -5.869 -14.823  1.00  0.00    +0.0621  H
ATOM     30 H42  DES L   1      -0.305  -7.733 -13.546  1.00  0.00    +0.0621  H
ATOM     31 H55  DES L   1      -1.329  -5.001 -10.353  1.00  0.00    +0.0621  H
ATOM     32 H56  DES L   1      -0.375  -3.157 -11.634  1.00  0.00    +0.0621  H
BRANCH 23 33
ATOM     33  C9  DES L   1       0.791  -3.228 -14.101  1.00  0.00    +0.1178  C
ATOM     34 H39  DES L   1       0.438  -3.250 -15.139  1.00  0.00    +0.0749  H
ATOM     35 H40  DES L   1       0.436  -2.279 -13.684  1.00  0.00    +0.0749  H
BRANCH 33 36
ATOM     36  O8  DES L   1       2.220  -3.235 -13.992  1.00  0.00    -0.4564 OA
BRANCH 36 37
ATOM     37  C6  DES L   1       2.890  -3.761 -15.044  1.00  0.00    +0.3395  C
ATOM     38  O7  DES L   1       2.787  -3.413 -16.211  1.00  0.00    -0.2450 OA
BRANCH 37 43
ATOM     39  C1  DES L   1       6.572  -7.931 -13.394  1.00  0.00    -0.0397  C
ATOM     40  C2  DES L   1       5.599  -6.872 -13.824  1.00  0.00    -0.0504  A
ATOM     41  C3  DES L   1       5.849  -6.101 -14.965  1.00  0.00    -0.0581  A
ATOM     42  C4  DES L   1       4.957  -5.097 -15.348  1.00  0.00    -0.0475  A
ATOM     43  C5  DES L   1       3.808  -4.841 -14.589  1.00  0.00    +0.0590  A
ATOM     44 C32  DES L   1       3.561  -5.604 -13.441  1.00  0.00    -0.0475  A
ATOM     45 C33  DES L   1       4.455  -6.609 -13.059  1.00  0.00    -0.0581  A
ATOM     46 H34  DES L   1       7.325  -7.498 -12.728  1.00  0.00    +0.0278  H
ATOM     47 H35  DES L   1       6.059  -8.743 -12.870  1.00  0.00    +0.0278  H
ATOM     48 H36  DES L   1       7.077  -8.371 -14.260  1.00  0.00    +0.0278  H
ATOM     49 H37  DES L   1       6.739  -6.279 -15.565  1.00  0.00    +0.0620  H
ATOM     50 H38  DES L   1       5.165  -4.513 -16.244  1.00  0.00    +0.0626  H
ATOM     51 H57  DES L   1       2.676  -5.431 -12.835  1.00  0.00    +0.0626  H
ATOM     52 H58  DES L   1       4.250  -7.189 -12.162  1.00  0.00    +0.0620  H
ENDBRANCH 37 43
ENDBRANCH 36 37
ENDBRANCH 33 36
ENDBRANCH 23 33
ENDBRANCH 21 26
BRANCH 21 53
ATOM     53 C15  DES L   1      -0.743  -7.918  -9.708  1.00  0.00    +0.0085  C
ATOM     54 N16  DES L   1       0.724  -7.762  -9.750  1.00  0.00    -0.3289 NA
ATOM     55 H44  DES L   1      -1.137  -7.193  -8.987  1.00  0.00    +0.0432  H
ATOM     56 H45  DES L   1      -0.969  -8.918  -9.317  1.00  0.00    +0.0432  H
ATOM     57 H46  DES L   1       1.093  -7.951  -8.815  1.00  0.00    +0.1182 HD
ATOM     58 H47  DES L   1       1.107  -8.514 -10.334  1.00  0.00    +0.1182 HD
ENDBRANCH 21 53
ENDBRANCH 17 21
ENDBRANCH 1 19
TORSDOF 8
ENDMDL
MODEL 12
REMARK VINA RESULT:    -6.585      3.230      9.318
REMARK INTER + INTRA:         -10.859
REMARK INTER:                  -9.678
REMARK INTRA:                  -1.182
REMARK UNBOUND:                -1.195
ROOT
ATOM      1 C20  DES L   1      -5.951  -5.628 -13.671  1.00  0.00    +0.0423  A
ATOM      2 C21  DES L   1      -6.183  -4.840 -12.539  1.00  0.00    -0.0377  A
ATOM      3 C22  DES L   1      -6.989  -3.701 -12.614  1.00  0.00    -0.0506  A
ATOM      4 C23  DES L   1      -7.578  -3.332 -13.833  1.00  0.00    +0.0004  A
ATOM      5 C24  DES L   1      -8.394  -2.206 -13.973  1.00  0.00    +0.0353  A
ATOM      6 N25  DES L   1      -8.979  -1.819 -15.131  1.00  0.00    -0.2626 NA
ATOM      7 C26  DES L   1      -8.738  -2.593 -16.210  1.00  0.00    +0.0281  A
ATOM      8 C27  DES L   1      -7.947  -3.730 -16.187  1.00  0.00    -0.0358  A
ATOM      9 C28  DES L   1      -7.352  -4.115 -14.979  1.00  0.00    -0.0131  A
ATOM     10 C29  DES L   1      -6.536  -5.259 -14.885  1.00  0.00    -0.0305  A
ATOM     11 H49  DES L   1      -5.738  -5.103 -11.581  1.00  0.00    +0.0638  H
ATOM     12 H50  DES L   1      -7.152  -3.107 -11.718  1.00  0.00    +0.0625  H
ATOM     13 H51  DES L   1      -8.609  -1.558 -13.127  1.00  0.00    +0.0836  H
ATOM     14 H52  DES L   1      -9.215  -2.265 -17.129  1.00  0.00    +0.0830  H
ATOM     15 H53  DES L   1      -7.799  -4.303 -17.097  1.00  0.00    +0.0639  H
ATOM     16 H54  DES L   1      -6.370  -5.849 -15.781  1.00  0.00    +0.0644  H
ENDROOT
BRANCH 1 19
ATOM     17 C17  DES L   1      -5.440  -7.979 -12.942  1.00  0.00    +0.2339  C
ATOM     18 O18  DES L   1      -6.534  -8.293 -12.474  1.00  0.00    -0.2722 OA
ATOM     19 N19  DES L   1      -5.125  -6.755 -13.505  1.00  0.00    -0.3256  N
ATOM     20 H48  DES L   1      -4.159  -6.666 -13.833  1.00  0.00    +0.1686 HD
BRANCH 17 21
ATOM     21 C14  DES L   1      -4.289  -9.000 -12.974  1.00  0.00    +0.0752  C
ATOM     22 H43  DES L   1      -4.226  -9.279 -14.037  1.00  0.00    +0.0458  H
BRANCH 21 26
ATOM     23 C10  DES L   1      -0.464  -7.281 -11.804  1.00  0.00    -0.0103  A
ATOM     24 C11  DES L   1      -1.460  -7.542 -10.857  1.00  0.00    -0.0551  A
ATOM     25 C12  DES L   1      -2.680  -8.100 -11.247  1.00  0.00    -0.0574  A
ATOM     26 C13  DES L   1      -2.930  -8.422 -12.590  1.00  0.00    -0.0341  A
ATOM     27 C30  DES L   1      -1.925  -8.166 -13.534  1.00  0.00    -0.0574  A
ATOM     28 C31  DES L   1      -0.705  -7.606 -13.144  1.00  0.00    -0.0551  A
ATOM     29 H41  DES L   1      -1.288  -7.320  -9.805  1.00  0.00    +0.0621  H
ATOM     30 H42  DES L   1      -3.434  -8.291 -10.485  1.00  0.00    +0.0621  H
ATOM     31 H55  DES L   1      -2.064  -8.404 -14.586  1.00  0.00    +0.0621  H
ATOM     32 H56  DES L   1       0.065  -7.434 -13.895  1.00  0.00    +0.0621  H
BRANCH 23 33
ATOM     33  C9  DES L   1       0.865  -6.706 -11.389  1.00  0.00    +0.1178  C
ATOM     34 H39  DES L   1       0.793  -5.625 -11.219  1.00  0.00    +0.0749  H
ATOM     35 H40  DES L   1       1.178  -7.140 -10.432  1.00  0.00    +0.0749  H
BRANCH 33 36
ATOM     36  O8  DES L   1       1.854  -7.059 -12.362  1.00  0.00    -0.4564 OA
BRANCH 36 37
ATOM     37  C6  DES L   1       2.755  -6.095 -12.666  1.00  0.00    +0.3395  C
ATOM     38  O7  DES L   1       3.944  -6.104 -12.386  1.00  0.00    -0.2450 OA
BRANCH 37 43
ATOM     39  C1  DES L   1       0.192  -1.700 -15.456  1.00  0.00    -0.0397  C
ATOM     40  C2  DES L   1       0.833  -2.854 -14.744  1.00  0.00    -0.0504  A
ATOM     41  C3  DES L   1       1.026  -2.812 -13.358  1.00  0.00    -0.0581  A
ATOM     42  C4  DES L   1       1.649  -3.875 -12.699  1.00  0.00    -0.0475  A
ATOM     43  C5  DES L   1       2.099  -4.990 -13.418  1.00  0.00    +0.0590  A
ATOM     44 C32  DES L   1       1.917  -5.029 -14.806  1.00  0.00    -0.0475  A
ATOM     45 C33  DES L   1       1.294  -3.964 -15.464  1.00  0.00    -0.0581  A
ATOM     46 H34  DES L   1       0.955  -0.975 -15.756  1.00  0.00    +0.0278  H
ATOM     47 H35  DES L   1      -0.344  -2.040 -16.348  1.00  0.00    +0.0278  H
ATOM     48 H36  DES L   1      -0.537  -1.199 -14.811  1.00  0.00    +0.0278  H
ATOM     49 H37  DES L   1       0.690  -1.953 -12.782  1.00  0.00    +0.0620  H
ATOM     50 H38  DES L   1       1.783  -3.827 -11.619  1.00  0.00    +0.0626  H
ATOM     51 H57  DES L   1       2.252  -5.882 -15.390  1.00  0.00    +0.0626  H
ATOM     52 H58  DES L   1       1.164  -4.009 -16.543  1.00  0.00    +0.0620  H
ENDBRANCH 37 43
ENDBRANCH 36 37
ENDBRANCH 33 36
ENDBRANCH 23 33
ENDBRANCH 21 26
BRANCH 21 53
ATOM     53 C15  DES L   1      -4.608 -10.313 -12.220  1.00  0.00    +0.0085  C
ATOM     54 N16  DES L   1      -3.565 -11.351 -12.337  1.00  0.00    -0.3289 NA
ATOM     55 H44  DES L   1      -4.744 -10.094 -11.154  1.00  0.00    +0.0432  H
ATOM     56 H45  DES L   1      -5.552 -10.733 -12.587  1.00  0.00    +0.0432  H
ATOM     57 H46  DES L   1      -3.886 -12.185 -11.839  1.00  0.00    +0.1182 HD
ATOM     58 H47  DES L   1      -3.516 -11.642 -13.320  1.00  0.00    +0.1182 HD
ENDBRANCH 21 53
ENDBRANCH 17 21
ENDBRANCH 1 19
TORSDOF 8
ENDMDL
MODEL 13
REMARK VINA RESULT:    -6.413      4.443      8.654
REMARK INTER + INTRA:         -10.608
REMARK INTER:                  -9.419
REMARK INTRA:                  -1.189
REMARK UNBOUND:                -1.195
ROOT
ATOM      1 C20  DES L   1      -3.647  -8.216 -12.115  1.00  0.00    +0.0423  A
ATOM      2 C21  DES L   1      -4.530  -7.507 -12.937  1.00  0.00    -0.0377  A
ATOM      3 C22  DES L   1      -5.889  -7.832 -12.973  1.00  0.00    -0.0506  A
ATOM      4 C23  DES L   1      -6.386  -8.880 -12.183  1.00  0.00    +0.0004  A
ATOM      5 C24  DES L   1      -7.733  -9.253 -12.175  1.00  0.00    +0.0353  A
ATOM      6 N25  DES L   1      -8.248 -10.257 -11.426  1.00  0.00    -0.2626 NA
ATOM      7 C26  DES L   1      -7.377 -10.928 -10.644  1.00  0.00    +0.0281  A
ATOM      8 C27  DES L   1      -6.023 -10.644 -10.574  1.00  0.00    -0.0358  A
ATOM      9 C28  DES L   1      -5.508  -9.602 -11.354  1.00  0.00    -0.0131  A
ATOM     10 C29  DES L   1      -4.143  -9.260 -11.330  1.00  0.00    -0.0305  A
ATOM     11 H49  DES L   1      -4.172  -6.691 -13.560  1.00  0.00    +0.0638  H
ATOM     12 H50  DES L   1      -6.553  -7.264 -13.621  1.00  0.00    +0.0625  H
ATOM     13 H51  DES L   1      -8.464  -8.736 -12.792  1.00  0.00    +0.0836  H
ATOM     14 H52  DES L   1      -7.810 -11.730 -10.053  1.00  0.00    +0.0830  H
ATOM     15 H53  DES L   1      -5.383 -11.229  -9.920  1.00  0.00    +0.0639  H
ATOM     16 H54  DES L   1      -3.480  -9.831 -10.687  1.00  0.00    +0.0644  H
ENDROOT
BRANCH 1 19
ATOM     17 C17  DES L   1      -1.622  -6.994 -11.263  1.00  0.00    +0.2339  C
ATOM     18 O18  DES L   1      -2.112  -6.442 -10.279  1.00  0.00    -0.2722 OA
ATOM     19 N19  DES L   1      -2.297  -7.823 -12.143  1.00  0.00    -0.3256  N
ATOM     20 H48  DES L   1      -1.730  -8.185 -12.915  1.00  0.00    +0.1686 HD
BRANCH 17 21
ATOM     21 C14  DES L   1      -0.126  -6.825 -11.582  1.00  0.00    +0.0752  C
ATOM     22 H43  DES L   1       0.125  -7.750 -12.123  1.00  0.00    +0.0458  H
BRANCH 21 26
ATOM     23 C10  DES L   1       0.852  -3.583 -14.318  1.00  0.00    -0.0103  A
ATOM     24 C11  DES L   1       0.900  -4.919 -14.732  1.00  0.00    -0.0551  A
ATOM     25 C12  DES L   1       0.578  -5.948 -13.844  1.00  0.00    -0.0574  A
ATOM     26 C13  DES L   1       0.186  -5.667 -12.525  1.00  0.00    -0.0341  A
ATOM     27 C30  DES L   1       0.130  -4.326 -12.119  1.00  0.00    -0.0574  A
ATOM     28 C31  DES L   1       0.456  -3.297 -13.007  1.00  0.00    -0.0551  A
ATOM     29 H41  DES L   1       1.182  -5.166 -15.754  1.00  0.00    +0.0621  H
ATOM     30 H42  DES L   1       0.626  -6.977 -14.197  1.00  0.00    +0.0621  H
ATOM     31 H55  DES L   1      -0.174  -4.054 -11.111  1.00  0.00    +0.0621  H
ATOM     32 H56  DES L   1       0.387  -2.263 -12.670  1.00  0.00    +0.0621  H
BRANCH 23 33
ATOM     33  C9  DES L   1       1.170  -2.466 -15.278  1.00  0.00    +0.1178  C
ATOM     34 H39  DES L   1       2.232  -2.468 -15.549  1.00  0.00    +0.0749  H
ATOM     35 H40  DES L   1       0.621  -2.609 -16.215  1.00  0.00    +0.0749  H
BRANCH 33 36
ATOM     36  O8  DES L   1       0.734  -1.224 -14.713  1.00  0.00    -0.4564 OA
BRANCH 36 37
ATOM     37  C6  DES L   1      -0.096  -0.483 -15.484  1.00  0.00    +0.3395  C
ATOM     38  O7  DES L   1      -0.989  -0.912 -16.200  1.00  0.00    -0.2450 OA
BRANCH 37 43
ATOM     39  C1  DES L   1       0.955   5.191 -14.883  1.00  0.00    -0.0397  C
ATOM     40  C2  DES L   1       0.693   3.725 -15.066  1.00  0.00    -0.0504  A
ATOM     41  C3  DES L   1      -0.602   3.214 -14.923  1.00  0.00    -0.0581  A
ATOM     42  C4  DES L   1      -0.841   1.844 -15.065  1.00  0.00    -0.0475  A
ATOM     43  C5  DES L   1       0.214   0.965 -15.341  1.00  0.00    +0.0590  A
ATOM     44 C32  DES L   1       1.513   1.473 -15.473  1.00  0.00    -0.0475  A
ATOM     45 C33  DES L   1       1.749   2.844 -15.331  1.00  0.00    -0.0581  A
ATOM     46 H34  DES L   1       1.171   5.404 -13.832  1.00  0.00    +0.0278  H
ATOM     47 H35  DES L   1       1.805   5.515 -15.492  1.00  0.00    +0.0278  H
ATOM     48 H36  DES L   1       0.089   5.784 -15.193  1.00  0.00    +0.0278  H
ATOM     49 H37  DES L   1      -1.434   3.878 -14.703  1.00  0.00    +0.0620  H
ATOM     50 H38  DES L   1      -1.857   1.467 -14.958  1.00  0.00    +0.0626  H
ATOM     51 H57  DES L   1       2.351   0.816 -15.691  1.00  0.00    +0.0626  H
ATOM     52 H58  DES L   1       2.765   3.221 -15.433  1.00  0.00    +0.0620  H
ENDBRANCH 37 43
ENDBRANCH 36 37
ENDBRANCH 33 36
ENDBRANCH 23 33
ENDBRANCH 21 26
BRANCH 21 53
ATOM     53 C15  DES L   1       0.776  -6.823 -10.325  1.00  0.00    +0.0085  C
ATOM     54 N16  DES L   1       0.498  -7.916  -9.373  1.00  0.00    -0.3289 NA
ATOM     55 H44  DES L   1       1.825  -6.904 -10.632  1.00  0.00    +0.0432  H
ATOM     56 H45  DES L   1       0.668  -5.870  -9.792  1.00  0.00    +0.0432  H
ATOM     57 H46  DES L   1       1.117  -7.804  -8.567  1.00  0.00    +0.1182 HD
ATOM     58 H47  DES L   1      -0.446  -7.776  -8.995  1.00  0.00    +0.1182 HD
ENDBRANCH 21 53
ENDBRANCH 17 21
ENDBRANCH 1 19
TORSDOF 8
ENDMDL
MODEL 14
REMARK VINA RESULT:    -6.228      3.009      4.719
REMARK INTER + INTRA:         -10.336
REMARK INTER:                  -8.534
REMARK INTRA:                  -1.802
REMARK UNBOUND:                -1.195
ROOT
ATOM      1 C20  DES L   1      -2.075  -7.819 -11.509  1.00  0.00    +0.0423  A
ATOM      2 C21  DES L   1      -1.254  -7.714 -10.381  1.00  0.00    -0.0377  A
ATOM      3 C22  DES L   1       0.007  -7.119 -10.469  1.00  0.00    -0.0506  A
ATOM      4 C23  DES L   1       0.469  -6.618 -11.696  1.00  0.00    +0.0004  A
ATOM      5 C24  DES L   1       1.719  -6.013 -11.849  1.00  0.00    +0.0353  A
ATOM      6 N25  DES L   1       2.197  -5.518 -13.015  1.00  0.00    -0.2626 NA
ATOM      7 C26  DES L   1       1.388  -5.633 -14.090  1.00  0.00    +0.0281  A
ATOM      8 C27  DES L   1       0.131  -6.214 -14.054  1.00  0.00    -0.0358  A
ATOM      9 C28  DES L   1      -0.347  -6.718 -12.838  1.00  0.00    -0.0131  A
ATOM     10 C29  DES L   1      -1.615  -7.321 -12.731  1.00  0.00    -0.0305  A
ATOM     11 H49  DES L   1      -1.586  -8.094  -9.418  1.00  0.00    +0.0638  H
ATOM     12 H50  DES L   1       0.625  -7.051  -9.576  1.00  0.00    +0.0625  H
ATOM     13 H51  DES L   1       2.398  -5.903 -11.007  1.00  0.00    +0.0836  H
ATOM     14 H52  DES L   1       1.791  -5.232 -15.015  1.00  0.00    +0.0830  H
ATOM     15 H53  DES L   1      -0.463  -6.271 -14.961  1.00  0.00    +0.0639  H
ATOM     16 H54  DES L   1      -2.228  -7.392 -13.624  1.00  0.00    +0.0644  H
ENDROOT
BRANCH 1 19
ATOM     17 C17  DES L   1      -3.774  -9.643 -11.833  1.00  0.00    +0.2339  C
ATOM     18 O18  DES L   1      -3.126 -10.405 -12.549  1.00  0.00    -0.2722 OA
ATOM     19 N19  DES L   1      -3.328  -8.433 -11.330  1.00  0.00    -0.3256  N
ATOM     20 H48  DES L   1      -4.010  -7.925 -10.760  1.00  0.00    +0.1686 HD
BRANCH 17 21
ATOM     21 C14  DES L   1      -5.197 -10.023 -11.386  1.00  0.00    +0.0752  C
ATOM     22 H43  DES L   1      -5.331  -9.454 -10.454  1.00  0.00    +0.0458  H
BRANCH 21 26
ATOM     23 C10  DES L   1      -8.411  -8.748 -14.032  1.00  0.00    -0.0103  A
ATOM     24 C11  DES L   1      -8.484  -8.537 -12.651  1.00  0.00    -0.0551  A
ATOM     25 C12  DES L   1      -7.442  -8.946 -11.816  1.00  0.00    -0.0574  A
ATOM     26 C13  DES L   1      -6.296  -9.564 -12.341  1.00  0.00    -0.0341  A
ATOM     27 C30  DES L   1      -6.224  -9.765 -13.727  1.00  0.00    -0.0574  A
ATOM     28 C31  DES L   1      -7.268  -9.358 -14.562  1.00  0.00    -0.0551  A
ATOM     29 H41  DES L   1      -9.352  -8.044 -12.217  1.00  0.00    +0.0621  H
ATOM     30 H42  DES L   1      -7.530  -8.767 -10.745  1.00  0.00    +0.0621  H
ATOM     31 H55  DES L   1      -5.356 -10.232 -14.186  1.00  0.00    +0.0621  H
ATOM     32 H56  DES L   1      -7.179  -9.510 -15.637  1.00  0.00    +0.0621  H
BRANCH 23 33
ATOM     33  C9  DES L   1      -9.518  -8.285 -14.943  1.00  0.00    +0.1178  C
ATOM     34 H39  DES L   1      -9.225  -8.371 -15.996  1.00  0.00    +0.0749  H
ATOM     35 H40  DES L   1     -10.397  -8.928 -14.822  1.00  0.00    +0.0749  H
BRANCH 33 36
ATOM     36  O8  DES L   1      -9.906  -6.956 -14.572  1.00  0.00    -0.4564 OA
BRANCH 36 37
ATOM     37  C6  DES L   1      -9.163  -5.955 -15.100  1.00  0.00    +0.3395  C
ATOM     38  O7  DES L   1      -9.430  -5.310 -16.102  1.00  0.00    -0.2450 OA
BRANCH 37 43
ATOM     39  C1  DES L   1      -4.516  -4.976 -11.765  1.00  0.00    -0.0397  C
ATOM     40  C2  DES L   1      -5.706  -5.213 -12.649  1.00  0.00    -0.0504  A
ATOM     41  C3  DES L   1      -6.981  -4.801 -12.245  1.00  0.00    -0.0581  A
ATOM     42  C4  DES L   1      -8.093  -5.048 -13.055  1.00  0.00    -0.0475  A
ATOM     43  C5  DES L   1      -7.946  -5.720 -14.275  1.00  0.00    +0.0590  A
ATOM     44 C32  DES L   1      -6.673  -6.143 -14.676  1.00  0.00    -0.0475  A
ATOM     45 C33  DES L   1      -5.562  -5.896 -13.863  1.00  0.00    -0.0581  A
ATOM     46 H34  DES L   1      -4.386  -5.819 -11.080  1.00  0.00    +0.0278  H
ATOM     47 H35  DES L   1      -3.605  -4.858 -12.360  1.00  0.00    +0.0278  H
ATOM     48 H36  DES L   1      -4.642  -4.060 -11.179  1.00  0.00    +0.0278  H
ATOM     49 H37  DES L   1      -7.118  -4.283 -11.299  1.00  0.00    +0.0620  H
ATOM     50 H38  DES L   1      -9.076  -4.712 -12.728  1.00  0.00    +0.0626  H
ATOM     51 H57  DES L   1      -6.527  -6.664 -15.618  1.00  0.00    +0.0626  H
ATOM     52 H58  DES L   1      -4.580  -6.235 -14.188  1.00  0.00    +0.0620  H
ENDBRANCH 37 43
ENDBRANCH 36 37
ENDBRANCH 33 36
ENDBRANCH 23 33
ENDBRANCH 21 26
BRANCH 21 53
ATOM     53 C15  DES L   1      -5.342 -11.510 -10.989  1.00  0.00    +0.0085  C
ATOM     54 N16  DES L   1      -5.775 -11.729  -9.595  1.00  0.00    -0.3289 NA
ATOM     55 H44  DES L   1      -6.076 -11.991 -11.647  1.00  0.00    +0.0432  H
ATOM     56 H45  DES L   1      -4.388 -12.030 -11.137  1.00  0.00    +0.0432  H
ATOM     57 H46  DES L   1      -5.804 -12.738  -9.424  1.00  0.00    +0.1182 HD
ATOM     58 H47  DES L   1      -5.034 -11.385  -8.975  1.00  0.00    +0.1182 HD
ENDBRANCH 21 53
ENDBRANCH 17 21
ENDBRANCH 1 19
TORSDOF 8
ENDMDL
MODEL 15
REMARK VINA RESULT:    -6.214      4.957      9.320
REMARK INTER + INTRA:         -10.316
REMARK INTER:                  -9.227
REMARK INTRA:                  -1.088
REMARK UNBOUND:                -1.195
ROOT
ATOM      1 C20  DES L   1      -2.766  -6.968 -11.982  1.00  0.00    +0.0423  A
ATOM      2 C21  DES L   1      -2.785  -8.290 -11.523  1.00  0.00    -0.0377  A
ATOM      3 C22  DES L   1      -3.963  -9.041 -11.558  1.00  0.00    -0.0506  A
ATOM      4 C23  DES L   1      -5.147  -8.476 -12.056  1.00  0.00    +0.0004  A
ATOM      5 C24  DES L   1      -6.356  -9.175 -12.117  1.00  0.00    +0.0353  A
ATOM      6 N25  DES L   1      -7.516  -8.663 -12.591  1.00  0.00    -0.2626 NA
ATOM      7 C26  DES L   1      -7.475  -7.386 -13.025  1.00  0.00    +0.0281  A
ATOM      8 C27  DES L   1      -6.334  -6.601 -13.011  1.00  0.00    -0.0358  A
ATOM      9 C28  DES L   1      -5.142  -7.148 -12.519  1.00  0.00    -0.0131  A
ATOM     10 C29  DES L   1      -3.946  -6.406 -12.476  1.00  0.00    -0.0305  A
ATOM     11 H49  DES L   1      -1.882  -8.752 -11.132  1.00  0.00    +0.0638  H
ATOM     12 H50  DES L   1      -3.949 -10.066 -11.195  1.00  0.00    +0.0625  H
ATOM     13 H51  DES L   1      -6.429 -10.204 -11.776  1.00  0.00    +0.0836  H
ATOM     14 H52  DES L   1      -8.416  -6.995 -13.399  1.00  0.00    +0.0830  H
ATOM     15 H53  DES L   1      -6.377  -5.580 -13.378  1.00  0.00    +0.0639  H
ATOM     16 H54  DES L   1      -3.962  -5.381 -12.835  1.00  0.00    +0.0644  H
ENDROOT
BRANCH 1 19
ATOM     17 C17  DES L   1      -0.375  -6.524 -12.619  1.00  0.00    +0.2339  C
ATOM     18 O18  DES L   1      -0.217  -7.407 -13.461  1.00  0.00    -0.2722 OA
ATOM     19 N19  DES L   1      -1.538  -6.286 -11.908  1.00  0.00    -0.3256  N
ATOM     20 H48  DES L   1      -1.484  -5.513 -11.238  1.00  0.00    +0.1686 HD
BRANCH 17 21
ATOM     21 C14  DES L   1       0.764  -5.538 -12.309  1.00  0.00    +0.0752  C
ATOM     22 H43  DES L   1       1.672  -6.120 -12.527  1.00  0.00    +0.0458  H
BRANCH 21 26
ATOM     23 C10  DES L   1       0.774  -2.001 -14.849  1.00  0.00    -0.0103  A
ATOM     24 C11  DES L   1       0.601  -1.897 -13.465  1.00  0.00    -0.0551  A
ATOM     25 C12  DES L   1       0.606  -3.041 -12.662  1.00  0.00    -0.0574  A
ATOM     26 C13  DES L   1       0.798  -4.314 -13.221  1.00  0.00    -0.0341  A
ATOM     27 C30  DES L   1       0.981  -4.412 -14.608  1.00  0.00    -0.0574  A
ATOM     28 C31  DES L   1       0.973  -3.268 -15.411  1.00  0.00    -0.0551  A
ATOM     29 H41  DES L   1       0.469  -0.922 -13.001  1.00  0.00    +0.0621  H
ATOM     30 H42  DES L   1       0.468  -2.925 -11.588  1.00  0.00    +0.0621  H
ATOM     31 H55  DES L   1       1.141  -5.373 -15.090  1.00  0.00    +0.0621  H
ATOM     32 H56  DES L   1       1.134  -3.370 -16.483  1.00  0.00    +0.0621  H
BRANCH 23 33
ATOM     33  C9  DES L   1       0.799  -0.772 -15.718  1.00  0.00    +0.1178  C
ATOM     34 H39  DES L   1       1.548  -0.863 -16.513  1.00  0.00    +0.0749  H
ATOM     35 H40  DES L   1      -0.165  -0.653 -16.227  1.00  0.00    +0.0749  H
BRANCH 33 36
ATOM     36  O8  DES L   1       0.990   0.383 -14.893  1.00  0.00    -0.4564 OA
BRANCH 36 37
ATOM     37  C6  DES L   1       0.655   1.570 -15.451  1.00  0.00    +0.3395  C
ATOM     38  O7  DES L   1      -0.446   1.879 -15.882  1.00  0.00    -0.2450 OA
BRANCH 37 43
ATOM     39  C1  DES L   1       5.119   5.277 -15.491  1.00  0.00    -0.0397  C
ATOM     40  C2  DES L   1       3.973   4.308 -15.506  1.00  0.00    -0.0504  A
ATOM     41  C3  DES L   1       2.653   4.771 -15.484  1.00  0.00    -0.0581  A
ATOM     42  C4  DES L   1       1.587   3.868 -15.470  1.00  0.00    -0.0475  A
ATOM     43  C5  DES L   1       1.827   2.488 -15.465  1.00  0.00    +0.0590  A
ATOM     44 C32  DES L   1       3.147   2.022 -15.476  1.00  0.00    -0.0475  A
ATOM     45 C33  DES L   1       4.212   2.928 -15.490  1.00  0.00    -0.0581  A
ATOM     46 H34  DES L   1       5.398   5.509 -14.459  1.00  0.00    +0.0278  H
ATOM     47 H35  DES L   1       5.989   4.861 -16.009  1.00  0.00    +0.0278  H
ATOM     48 H36  DES L   1       4.851   6.207 -16.003  1.00  0.00    +0.0278  H
ATOM     49 H37  DES L   1       2.445   5.839 -15.482  1.00  0.00    +0.0620  H
ATOM     50 H38  DES L   1       0.566   4.248 -15.461  1.00  0.00    +0.0626  H
ATOM     51 H57  DES L   1       3.364   0.957 -15.476  1.00  0.00    +0.0626  H
ATOM     52 H58  DES L   1       5.232   2.548 -15.494  1.00  0.00    +0.0620  H
ENDBRANCH 37 43
ENDBRANCH 36 37
ENDBRANCH 33 36
ENDBRANCH 23 33
ENDBRANCH 21 26
BRANCH 21 53
ATOM     53 C15  DES L   1       0.864  -5.161 -10.812  1.00  0.00    +0.0085  C
ATOM     54 N16  DES L   1       1.023  -6.314  -9.903  1.00  0.00    -0.3289 NA
ATOM     55 H44  DES L   1       1.722  -4.496 -10.662  1.00  0.00    +0.0432  H
ATOM     56 H45  DES L   1      -0.032  -4.607 -10.507  1.00  0.00    +0.0432  H
ATOM     57 H46  DES L   1       1.041  -5.963  -8.942  1.00  0.00    +0.1182 HD
ATOM     58 H47  DES L   1       0.169  -6.879  -9.955  1.00  0.00    +0.1182 HD
ENDBRANCH 21 53
ENDBRANCH 17 21
ENDBRANCH 1 19
TORSDOF 8
ENDMDL
MODEL 16
REMARK VINA RESULT:    -6.174      3.455      9.632
REMARK INTER + INTRA:         -10.257
REMARK INTER:                  -8.639
REMARK INTRA:                  -1.618
REMARK UNBOUND:                -1.195
ROOT
ATOM      1 C20  DES L   1      -6.213  -7.395 -13.475  1.00  0.00    +0.0423  A
ATOM      2 C21  DES L   1      -7.433  -7.935 -13.055  1.00  0.00    -0.0377  A
ATOM      3 C22  DES L   1      -8.530  -7.109 -12.797  1.00  0.00    -0.0506  A
ATOM      4 C23  DES L   1      -8.420  -5.719 -12.955  1.00  0.00    +0.0004  A
ATOM      5 C24  DES L   1      -9.479  -4.840 -12.714  1.00  0.00    +0.0353  A
ATOM      6 N25  DES L   1      -9.409  -3.495 -12.856  1.00  0.00    -0.2626 NA
ATOM      7 C26  DES L   1      -8.222  -2.996 -13.258  1.00  0.00    +0.0281  A
ATOM      8 C27  DES L   1      -7.107  -3.773 -13.526  1.00  0.00    -0.0358  A
ATOM      9 C28  DES L   1      -7.198  -5.162 -13.375  1.00  0.00    -0.0131  A
ATOM     10 C29  DES L   1      -6.103  -6.010 -13.630  1.00  0.00    -0.0305  A
ATOM     11 H49  DES L   1      -7.547  -9.009 -12.924  1.00  0.00    +0.0638  H
ATOM     12 H50  DES L   1      -9.466  -7.556 -12.473  1.00  0.00    +0.0625  H
ATOM     13 H51  DES L   1     -10.450  -5.204 -12.388  1.00  0.00    +0.0836  H
ATOM     14 H52  DES L   1      -8.187  -1.916 -13.364  1.00  0.00    +0.0830  H
ATOM     15 H53  DES L   1      -6.184  -3.300 -13.846  1.00  0.00    +0.0639  H
ATOM     16 H54  DES L   1      -5.168  -5.562 -13.950  1.00  0.00    +0.0644  H
ENDROOT
BRANCH 1 19
ATOM     17 C17  DES L   1      -4.524  -8.589 -14.903  1.00  0.00    +0.2339  C
ATOM     18 O18  DES L   1      -4.782  -8.086 -15.995  1.00  0.00    -0.2722 OA
ATOM     19 N19  DES L   1      -5.162  -8.300 -13.709  1.00  0.00    -0.3256  N
ATOM     20 H48  DES L   1      -4.821  -8.826 -12.899  1.00  0.00    +0.1686 HD
BRANCH 17 21
ATOM     21 C14  DES L   1      -3.375  -9.605 -14.771  1.00  0.00    +0.0752  C
ATOM     22 H43  DES L   1      -3.463 -10.208 -15.687  1.00  0.00    +0.0458  H
BRANCH 21 26
ATOM     23 C10  DES L   1       0.643  -7.929 -14.795  1.00  0.00    -0.0103  A
ATOM     24 C11  DES L   1       0.386  -9.201 -15.319  1.00  0.00    -0.0551  A
ATOM     25 C12  DES L   1      -0.910  -9.722 -15.309  1.00  0.00    -0.0574  A
ATOM     26 C13  DES L   1      -1.983  -8.981 -14.789  1.00  0.00    -0.0341  A
ATOM     27 C30  DES L   1      -1.721  -7.704 -14.274  1.00  0.00    -0.0574  A
ATOM     28 C31  DES L   1      -0.424  -7.183 -14.281  1.00  0.00    -0.0551  A
ATOM     29 H41  DES L   1       1.195  -9.791 -15.745  1.00  0.00    +0.0621  H
ATOM     30 H42  DES L   1      -1.076 -10.716 -15.724  1.00  0.00    +0.0621  H
ATOM     31 H55  DES L   1      -2.517  -7.085 -13.866  1.00  0.00    +0.0621  H
ATOM     32 H56  DES L   1      -0.252  -6.181 -13.891  1.00  0.00    +0.0621  H
BRANCH 23 33
ATOM     33  C9  DES L   1       2.032  -7.347 -14.827  1.00  0.00    +0.1178  C
ATOM     34 H39  DES L   1       2.603  -7.733 -15.680  1.00  0.00    +0.0749  H
ATOM     35 H40  DES L   1       1.980  -6.261 -14.968  1.00  0.00    +0.0749  H
BRANCH 33 36
ATOM     36  O8  DES L   1       2.670  -7.585 -13.567  1.00  0.00    -0.4564 OA
BRANCH 36 37
ATOM     37  C6  DES L   1       3.019  -6.482 -12.864  1.00  0.00    +0.3395  C
ATOM     38  O7  DES L   1       4.157  -6.083 -12.666  1.00  0.00    -0.2450 OA
BRANCH 37 43
ATOM     39  C1  DES L   1      -1.723  -3.877 -10.769  1.00  0.00    -0.0397  C
ATOM     40  C2  DES L   1      -0.509  -4.552 -11.337  1.00  0.00    -0.0504  A
ATOM     41  C3  DES L   1      -0.082  -5.784 -10.831  1.00  0.00    -0.0581  A
ATOM     42  C4  DES L   1       1.065  -6.399 -11.341  1.00  0.00    -0.0475  A
ATOM     43  C5  DES L   1       1.807  -5.783 -12.356  1.00  0.00    +0.0590  A
ATOM     44 C32  DES L   1       1.388  -4.544 -12.857  1.00  0.00    -0.0475  A
ATOM     45 C33  DES L   1       0.240  -3.931 -12.345  1.00  0.00    -0.0581  A
ATOM     46 H34  DES L   1      -1.437  -3.239  -9.927  1.00  0.00    +0.0278  H
ATOM     47 H35  DES L   1      -2.220  -3.262 -11.527  1.00  0.00    +0.0278  H
ATOM     48 H36  DES L   1      -2.453  -4.615 -10.421  1.00  0.00    +0.0278  H
ATOM     49 H37  DES L   1      -0.641  -6.277 -10.038  1.00  0.00    +0.0620  H
ATOM     50 H38  DES L   1       1.376  -7.362 -10.939  1.00  0.00    +0.0626  H
ATOM     51 H57  DES L   1       1.941  -4.044 -13.647  1.00  0.00    +0.0626  H
ATOM     52 H58  DES L   1      -0.069  -2.966 -12.742  1.00  0.00    +0.0620  H
ENDBRANCH 37 43
ENDBRANCH 36 37
ENDBRANCH 33 36
ENDBRANCH 23 33
ENDBRANCH 21 26
BRANCH 21 53
ATOM     53 C15  DES L   1      -3.563 -10.599 -13.601  1.00  0.00    +0.0085  C
ATOM     54 N16  DES L   1      -3.279 -10.031 -12.268  1.00  0.00    -0.3289 NA
ATOM     55 H44  DES L   1      -4.597 -10.963 -13.597  1.00  0.00    +0.0432  H
ATOM     56 H45  DES L   1      -2.914 -11.471 -13.746  1.00  0.00    +0.0432  H
ATOM     57 H46  DES L   1      -3.395 -10.772 -11.573  1.00  0.00    +0.1182 HD
ATOM     58 H47  DES L   1      -2.282  -9.795 -12.229  1.00  0.00    +0.1182 HD
ENDBRANCH 21 53
ENDBRANCH 17 21
ENDBRANCH 1 19
TORSDOF 8
ENDMDL
MODEL 17
REMARK VINA RESULT:    -6.083      4.789      8.807
REMARK INTER + INTRA:         -10.123
REMARK INTER:                  -8.983
REMARK INTRA:                  -1.139
REMARK UNBOUND:                -1.195
ROOT
ATOM      1 C20  DES L   1      -2.702  -6.781 -12.002  1.00  0.00    +0.0423  A
ATOM      2 C21  DES L   1      -2.676  -8.112 -11.570  1.00  0.00    -0.0377  A
ATOM      3 C22  DES L   1      -3.830  -8.898 -11.609  1.00  0.00    -0.0506  A
ATOM      4 C23  DES L   1      -5.036  -8.361 -12.084  1.00  0.00    +0.0004  A
ATOM      5 C24  DES L   1      -6.223  -9.095 -12.149  1.00  0.00    +0.0353  A
ATOM      6 N25  DES L   1      -7.404  -8.610 -12.601  1.00  0.00    -0.2626 NA
ATOM      7 C26  DES L   1      -7.406  -7.324 -13.009  1.00  0.00    +0.0281  A
ATOM      8 C27  DES L   1      -6.289  -6.504 -12.989  1.00  0.00    -0.0358  A
ATOM      9 C28  DES L   1      -5.077  -7.024 -12.520  1.00  0.00    -0.0131  A
ATOM     10 C29  DES L   1      -3.904  -6.246 -12.473  1.00  0.00    -0.0305  A
ATOM     11 H49  DES L   1      -1.755  -8.554 -11.196  1.00  0.00    +0.0638  H
ATOM     12 H50  DES L   1      -3.781  -9.930 -11.267  1.00  0.00    +0.0625  H
ATOM     13 H51  DES L   1      -6.261 -10.133 -11.828  1.00  0.00    +0.0836  H
ATOM     14 H52  DES L   1      -8.362  -6.955 -13.367  1.00  0.00    +0.0830  H
ATOM     15 H53  DES L   1      -6.367  -5.478 -13.335  1.00  0.00    +0.0639  H
ATOM     16 H54  DES L   1      -3.955  -5.215 -12.811  1.00  0.00    +0.0644  H
ENDROOT
BRANCH 1 19
ATOM     17 C17  DES L   1      -0.349  -6.220 -12.684  1.00  0.00    +0.2339  C
ATOM     18 O18  DES L   1      -0.189  -7.047 -13.580  1.00  0.00    -0.2722 OA
ATOM     19 N19  DES L   1      -1.495  -6.063 -11.925  1.00  0.00    -0.3256  N
ATOM     20 H48  DES L   1      -1.444  -5.329 -11.212  1.00  0.00    +0.1686 HD
BRANCH 17 21
ATOM     21 C14  DES L   1       0.768  -5.214 -12.350  1.00  0.00    +0.0752  C
ATOM     22 H43  DES L   1       1.688  -5.764 -12.599  1.00  0.00    +0.0458  H
BRANCH 21 26
ATOM     23 C10  DES L   1       0.655  -1.591 -14.762  1.00  0.00    -0.0103  A
ATOM     24 C11  DES L   1       0.503  -1.540 -13.372  1.00  0.00    -0.0551  A
ATOM     25 C12  DES L   1       0.548  -2.711 -12.612  1.00  0.00    -0.0574  A
ATOM     26 C13  DES L   1       0.759  -3.959 -13.218  1.00  0.00    -0.0341  A
ATOM     27 C30  DES L   1       0.919  -4.003 -14.611  1.00  0.00    -0.0574  A
ATOM     28 C31  DES L   1       0.872  -2.832 -15.372  1.00  0.00    -0.0551  A
ATOM     29 H41  DES L   1       0.357  -0.585 -12.872  1.00  0.00    +0.0621  H
ATOM     30 H42  DES L   1       0.426  -2.637 -11.532  1.00  0.00    +0.0621  H
ATOM     31 H55  DES L   1       1.093  -4.943 -15.130  1.00  0.00    +0.0621  H
ATOM     32 H56  DES L   1       1.018  -2.893 -16.450  1.00  0.00    +0.0621  H
BRANCH 23 33
ATOM     33  C9  DES L   1       0.637  -0.331 -15.587  1.00  0.00    +0.1178  C
ATOM     34 H39  DES L   1       1.463  -0.318 -16.308  1.00  0.00    +0.0749  H
ATOM     35 H40  DES L   1      -0.282  -0.287 -16.184  1.00  0.00    +0.0749  H
BRANCH 33 36
ATOM     36  O8  DES L   1       0.633   0.803 -14.712  1.00  0.00    -0.4564 OA
BRANCH 36 37
ATOM     37  C6  DES L   1       1.395   1.852 -15.102  1.00  0.00    +0.3395  C
ATOM     38  O7  DES L   1       2.565   1.803 -15.451  1.00  0.00    -0.2450 OA
BRANCH 37 43
ATOM     39  C1  DES L   1      -1.825   6.676 -14.936  1.00  0.00    -0.0397  C
ATOM     40  C2  DES L   1      -0.981   5.437 -15.005  1.00  0.00    -0.0504  A
ATOM     41  C3  DES L   1      -1.579   4.172 -15.008  1.00  0.00    -0.0581  A
ATOM     42  C4  DES L   1      -0.792   3.018 -15.043  1.00  0.00    -0.0475  A
ATOM     43  C5  DES L   1       0.605   3.113 -15.063  1.00  0.00    +0.0590  A
ATOM     44 C32  DES L   1       1.206   4.377 -15.048  1.00  0.00    -0.0475  A
ATOM     45 C33  DES L   1       0.416   5.531 -15.013  1.00  0.00    -0.0581  A
ATOM     46 H34  DES L   1      -2.007   6.947 -13.892  1.00  0.00    +0.0278  H
ATOM     47 H35  DES L   1      -1.331   7.513 -15.439  1.00  0.00    +0.0278  H
ATOM     48 H36  DES L   1      -2.788   6.520 -15.434  1.00  0.00    +0.0278  H
ATOM     49 H37  DES L   1      -2.663   4.075 -14.987  1.00  0.00    +0.0620  H
ATOM     50 H38  DES L   1      -1.277   2.042 -15.053  1.00  0.00    +0.0626  H
ATOM     51 H57  DES L   1       2.288   4.483 -15.067  1.00  0.00    +0.0626  H
ATOM     52 H58  DES L   1       0.900   6.505 -14.998  1.00  0.00    +0.0620  H
ENDBRANCH 37 43
ENDBRANCH 36 37
ENDBRANCH 33 36
ENDBRANCH 23 33
ENDBRANCH 21 26
BRANCH 21 53
ATOM     53 C15  DES L   1       0.874  -4.889 -10.842  1.00  0.00    +0.0085  C
ATOM     54 N16  DES L   1       0.950  -6.075  -9.967  1.00  0.00    -0.3289 NA
ATOM     55 H44  DES L   1       1.772  -4.284 -10.665  1.00  0.00    +0.0432  H
ATOM     56 H45  DES L   1       0.013  -4.287 -10.530  1.00  0.00    +0.0432  H
ATOM     57 H46  DES L   1       0.979  -5.754  -8.995  1.00  0.00    +0.1182 HD
ATOM     58 H47  DES L   1       0.061  -6.582 -10.043  1.00  0.00    +0.1182 HD
ENDBRANCH 21 53
ENDBRANCH 17 21
ENDBRANCH 1 19
TORSDOF 8
ENDMDL
MODEL 18
REMARK VINA RESULT:    -6.037      4.687      9.766
REMARK INTER + INTRA:         -10.056
REMARK INTER:                  -7.888
REMARK INTRA:                  -2.167
REMARK UNBOUND:                -1.195
ROOT
ATOM      1 C20  DES L   1      -4.265  -9.069 -14.173  1.00  0.00    +0.0423  A
ATOM      2 C21  DES L   1      -5.246  -8.085 -14.341  1.00  0.00    -0.0377  A
ATOM      3 C22  DES L   1      -6.381  -8.061 -13.527  1.00  0.00    -0.0506  A
ATOM      4 C23  DES L   1      -6.553  -9.029 -12.525  1.00  0.00    +0.0004  A
ATOM      5 C24  DES L   1      -7.665  -9.058 -11.679  1.00  0.00    +0.0353  A
ATOM      6 N25  DES L   1      -7.864  -9.975 -10.703  1.00  0.00    -0.2626 NA
ATOM      7 C26  DES L   1      -6.907 -10.916 -10.561  1.00  0.00    +0.0281  A
ATOM      8 C27  DES L   1      -5.765 -10.982 -11.343  1.00  0.00    -0.0358  A
ATOM      9 C28  DES L   1      -5.575 -10.024 -12.346  1.00  0.00    -0.0131  A
ATOM     10 C29  DES L   1      -4.438 -10.034 -13.176  1.00  0.00    -0.0305  A
ATOM     11 H49  DES L   1      -5.138  -7.323 -15.110  1.00  0.00    +0.0638  H
ATOM     12 H50  DES L   1      -7.127  -7.285 -13.680  1.00  0.00    +0.0625  H
ATOM     13 H51  DES L   1      -8.456  -8.318 -11.764  1.00  0.00    +0.0836  H
ATOM     14 H52  DES L   1      -7.087 -11.642  -9.774  1.00  0.00    +0.0830  H
ATOM     15 H53  DES L   1      -5.038 -11.769 -11.169  1.00  0.00    +0.0639  H
ATOM     16 H54  DES L   1      -3.696 -10.811 -13.025  1.00  0.00    +0.0644  H
ENDROOT
BRANCH 1 19
ATOM     17 C17  DES L   1      -1.824  -8.826 -14.720  1.00  0.00    +0.2339  C
ATOM     18 O18  DES L   1      -1.373  -8.657 -13.589  1.00  0.00    -0.2722 OA
ATOM     19 N19  DES L   1      -3.157  -9.019 -15.038  1.00  0.00    -0.3256  N
ATOM     20 H48  DES L   1      -3.351  -9.132 -16.037  1.00  0.00    +0.1686 HD
BRANCH 17 21
ATOM     21 C14  DES L   1      -0.876  -8.880 -15.931  1.00  0.00    +0.0752  C
ATOM     22 H43  DES L   1      -1.537  -8.657 -16.782  1.00  0.00    +0.0458  H
BRANCH 21 26
ATOM     23 C10  DES L   1       2.147  -5.747 -15.974  1.00  0.00    -0.0103  A
ATOM     24 C11  DES L   1       0.794  -5.445 -15.784  1.00  0.00    -0.0551  A
ATOM     25 C12  DES L   1      -0.163  -6.462 -15.766  1.00  0.00    -0.0574  A
ATOM     26 C13  DES L   1       0.208  -7.806 -15.925  1.00  0.00    -0.0341  A
ATOM     27 C30  DES L   1       1.566  -8.104 -16.107  1.00  0.00    -0.0574  A
ATOM     28 C31  DES L   1       2.524  -7.086 -16.127  1.00  0.00    -0.0551  A
ATOM     29 H41  DES L   1       0.478  -4.414 -15.639  1.00  0.00    +0.0621  H
ATOM     30 H42  DES L   1      -1.208  -6.193 -15.616  1.00  0.00    +0.0621  H
ATOM     31 H55  DES L   1       1.909  -9.129 -16.228  1.00  0.00    +0.0621  H
ATOM     32 H56  DES L   1       3.574  -7.347 -16.252  1.00  0.00    +0.0621  H
BRANCH 23 33
ATOM     33  C9  DES L   1       3.189  -4.659 -15.966  1.00  0.00    +0.1178  C
ATOM     34 H39  DES L   1       4.167  -5.046 -16.275  1.00  0.00    +0.0749  H
ATOM     35 H40  DES L   1       2.928  -3.885 -16.696  1.00  0.00    +0.0749  H
BRANCH 33 36
ATOM     36  O8  DES L   1       3.210  -4.039 -14.675  1.00  0.00    -0.4564 OA
BRANCH 36 37
ATOM     37  C6  DES L   1       3.632  -4.819 -13.652  1.00  0.00    +0.3395  C
ATOM     38  O7  DES L   1       4.793  -5.089 -13.382  1.00  0.00    -0.2450 OA
BRANCH 37 43
ATOM     39  C1  DES L   1      -0.821  -6.900 -10.569  1.00  0.00    -0.0397  C
ATOM     40  C2  DES L   1       0.312  -6.354 -11.388  1.00  0.00    -0.0504  A
ATOM     41  C3  DES L   1       1.345  -7.194 -11.817  1.00  0.00    -0.0581  A
ATOM     42  C4  DES L   1       2.414  -6.679 -12.555  1.00  0.00    -0.0475  A
ATOM     43  C5  DES L   1       2.472  -5.314 -12.862  1.00  0.00    +0.0590  A
ATOM     44 C32  DES L   1       1.445  -4.469 -12.423  1.00  0.00    -0.0475  A
ATOM     45 C33  DES L   1       0.375  -4.987 -11.686  1.00  0.00    -0.0581  A
ATOM     46 H34  DES L   1      -0.571  -6.853  -9.505  1.00  0.00    +0.0278  H
ATOM     47 H35  DES L   1      -1.740  -6.330 -10.743  1.00  0.00    +0.0278  H
ATOM     48 H36  DES L   1      -1.031  -7.941 -10.838  1.00  0.00    +0.0278  H
ATOM     49 H37  DES L   1       1.323  -8.257 -11.584  1.00  0.00    +0.0620  H
ATOM     50 H38  DES L   1       3.205  -7.351 -12.887  1.00  0.00    +0.0626  H
ATOM     51 H57  DES L   1       1.460  -3.406 -12.650  1.00  0.00    +0.0626  H
ATOM     52 H58  DES L   1      -0.412  -4.315 -11.349  1.00  0.00    +0.0620  H
ENDBRANCH 37 43
ENDBRANCH 36 37
ENDBRANCH 33 36
ENDBRANCH 23 33
ENDBRANCH 21 26
BRANCH 21 53
ATOM     53 C15  DES L   1      -0.308 -10.292 -16.208  1.00  0.00    +0.0085  C
ATOM     54 N16  DES L   1      -0.141 -11.128 -15.003  1.00  0.00    -0.3289 NA
ATOM     55 H44  DES L   1      -0.978 -10.824 -16.894  1.00  0.00    +0.0432  H
ATOM     56 H45  DES L   1       0.666 -10.210 -16.705  1.00  0.00    +0.0432  H
ATOM     57 H46  DES L   1       0.273 -12.020 -15.287  1.00  0.00    +0.1182 HD
ATOM     58 H47  DES L   1       0.574 -10.691 -14.410  1.00  0.00    +0.1182 HD
ENDBRANCH 21 53
ENDBRANCH 17 21
ENDBRANCH 1 19
TORSDOF 8
ENDMDL
MODEL 19
REMARK VINA RESULT:    -5.920      2.844      4.667
REMARK INTER + INTRA:          -9.884
REMARK INTER:                  -8.048
REMARK INTRA:                  -1.836
REMARK UNBOUND:                -1.195
ROOT
ATOM      1 C20  DES L   1      -2.601  -7.774 -12.603  1.00  0.00    +0.0423  A
ATOM      2 C21  DES L   1      -3.178  -6.713 -11.898  1.00  0.00    -0.0377  A
ATOM      3 C22  DES L   1      -2.435  -5.570 -11.592  1.00  0.00    -0.0506  A
ATOM      4 C23  DES L   1      -1.093  -5.472 -11.990  1.00  0.00    +0.0004  A
ATOM      5 C24  DES L   1      -0.298  -4.356 -11.715  1.00  0.00    +0.0353  A
ATOM      6 N25  DES L   1       0.999  -4.227 -12.083  1.00  0.00    -0.2626 NA
ATOM      7 C26  DES L   1       1.536  -5.264 -12.759  1.00  0.00    +0.0281  A
ATOM      8 C27  DES L   1       0.841  -6.417 -13.086  1.00  0.00    -0.0358  A
ATOM      9 C28  DES L   1      -0.499  -6.533 -12.699  1.00  0.00    -0.0131  A
ATOM     10 C29  DES L   1      -1.263  -7.677 -12.997  1.00  0.00    -0.0305  A
ATOM     11 H49  DES L   1      -4.216  -6.762 -11.577  1.00  0.00    +0.0638  H
ATOM     12 H50  DES L   1      -2.910  -4.760 -11.043  1.00  0.00    +0.0625  H
ATOM     13 H51  DES L   1      -0.695  -3.502 -11.172  1.00  0.00    +0.0836  H
ATOM     14 H52  DES L   1       2.576  -5.140 -13.044  1.00  0.00    +0.0830  H
ATOM     15 H53  DES L   1       1.341  -7.211 -13.633  1.00  0.00    +0.0639  H
ATOM     16 H54  DES L   1      -0.787  -8.486 -13.542  1.00  0.00    +0.0644  H
ENDROOT
BRANCH 1 19
ATOM     17 C17  DES L   1      -3.650  -9.996 -12.070  1.00  0.00    +0.2339  C
ATOM     18 O18  DES L   1      -3.152 -10.200 -10.964  1.00  0.00    -0.2722 OA
ATOM     19 N19  DES L   1      -3.421  -8.886 -12.866  1.00  0.00    -0.3256  N
ATOM     20 H48  DES L   1      -3.912  -8.891 -13.764  1.00  0.00    +0.1686 HD
BRANCH 17 21
ATOM     21 C14  DES L   1      -4.654 -10.999 -12.665  1.00  0.00    +0.0752  C
ATOM     22 H43  DES L   1      -4.826 -11.706 -11.840  1.00  0.00    +0.0458  H
BRANCH 21 26
ATOM     23 C10  DES L   1      -8.559  -9.291 -13.553  1.00  0.00    -0.0103  A
ATOM     24 C11  DES L   1      -7.919  -9.040 -12.334  1.00  0.00    -0.0551  A
ATOM     25 C12  DES L   1      -6.664  -9.590 -12.067  1.00  0.00    -0.0574  A
ATOM     26 C13  DES L   1      -6.010 -10.393 -13.014  1.00  0.00    -0.0341  A
ATOM     27 C30  DES L   1      -6.652 -10.635 -14.237  1.00  0.00    -0.0574  A
ATOM     28 C31  DES L   1      -7.910 -10.087 -14.504  1.00  0.00    -0.0551  A
ATOM     29 H41  DES L   1      -8.393  -8.405 -11.587  1.00  0.00    +0.0621  H
ATOM     30 H42  DES L   1      -6.193  -9.375 -11.108  1.00  0.00    +0.0621  H
ATOM     31 H55  DES L   1      -6.187 -11.244 -15.009  1.00  0.00    +0.0621  H
ATOM     32 H56  DES L   1      -8.378 -10.276 -15.469  1.00  0.00    +0.0621  H
BRANCH 23 33
ATOM     33  C9  DES L   1      -9.900  -8.679 -13.861  1.00  0.00    +0.1178  C
ATOM     34 H39  DES L   1     -10.266  -9.001 -14.843  1.00  0.00    +0.0749  H
ATOM     35 H40  DES L   1     -10.646  -9.024 -13.135  1.00  0.00    +0.0749  H
BRANCH 33 36
ATOM     36  O8  DES L   1      -9.807  -7.255 -13.733  1.00  0.00    -0.4564 OA
BRANCH 36 37
ATOM     37  C6  DES L   1      -9.336  -6.595 -14.816  1.00  0.00    +0.3395  C
ATOM     38  O7  DES L   1      -9.349  -6.998 -15.969  1.00  0.00    -0.2450 OA
BRANCH 37 43
ATOM     39  C1  DES L   1      -7.274  -1.356 -13.411  1.00  0.00    -0.0397  C
ATOM     40  C2  DES L   1      -7.780  -2.722 -13.773  1.00  0.00    -0.0504  A
ATOM     41  C3  DES L   1      -8.405  -2.942 -15.005  1.00  0.00    -0.0581  A
ATOM     42  C4  DES L   1      -8.902  -4.208 -15.329  1.00  0.00    -0.0475  A
ATOM     43  C5  DES L   1      -8.791  -5.267 -14.420  1.00  0.00    +0.0590  A
ATOM     44 C32  DES L   1      -8.176  -5.046 -13.181  1.00  0.00    -0.0475  A
ATOM     45 C33  DES L   1      -7.680  -3.779 -12.859  1.00  0.00    -0.0581  A
ATOM     46 H34  DES L   1      -8.065  -0.782 -12.920  1.00  0.00    +0.0278  H
ATOM     47 H35  DES L   1      -6.414  -1.423 -12.738  1.00  0.00    +0.0278  H
ATOM     48 H36  DES L   1      -6.946  -0.813 -14.304  1.00  0.00    +0.0278  H
ATOM     49 H37  DES L   1      -8.508  -2.132 -15.723  1.00  0.00    +0.0620  H
ATOM     50 H38  DES L   1      -9.378  -4.361 -16.296  1.00  0.00    +0.0626  H
ATOM     51 H57  DES L   1      -8.072  -5.849 -12.457  1.00  0.00    +0.0626  H
ATOM     52 H58  DES L   1      -7.208  -3.624 -11.891  1.00  0.00    +0.0620  H
ENDBRANCH 37 43
ENDBRANCH 36 37
ENDBRANCH 33 36
ENDBRANCH 23 33
ENDBRANCH 21 26
BRANCH 21 53
ATOM     53 C15  DES L   1      -4.069 -11.845 -13.820  1.00  0.00    +0.0085  C
ATOM     54 N16  DES L   1      -2.615 -11.684 -14.018  1.00  0.00    -0.3289 NA
ATOM     55 H44  DES L   1      -4.266 -12.906 -13.627  1.00  0.00    +0.0432  H
ATOM     56 H45  DES L   1      -4.572 -11.589 -14.760  1.00  0.00    +0.0432  H
ATOM     57 H46  DES L   1      -2.337 -12.252 -14.822  1.00  0.00    +0.1182 HD
ATOM     58 H47  DES L   1      -2.440 -10.717 -14.313  1.00  0.00    +0.1182 HD
ENDBRANCH 21 53
ENDBRANCH 17 21
ENDBRANCH 1 19
TORSDOF 8
ENDMDL
