MODEL 1
REMARK VINA RESULT:    -7.897      0.000      0.000
REMARK INTER + INTRA:         -13.445
REMARK INTER:                 -12.052
REMARK INTRA:                  -1.394
REMARK UNBOUND:                -1.394
ROOT
ATOM      1 C23  NAC L   1       0.670  -2.731 -13.709  1.00  0.00    +0.0423  A
ATOM      2 C24  NAC L   1       0.601  -2.789 -15.105  1.00  0.00    -0.0377  A
ATOM      3 C25  NAC L   1       0.413  -1.627 -15.859  1.00  0.00    -0.0506  A
ATOM      4 C26  NAC L   1       0.294  -0.381 -15.221  1.00  0.00    +0.0004  A
ATOM      5 C27  NAC L   1       0.105   0.815 -15.918  1.00  0.00    +0.0353  A
ATOM      6 N28  NAC L   1      -0.013   2.031 -15.337  1.00  0.00    -0.2626 NA
ATOM      7 C29  NAC L   1       0.064   2.063 -13.991  1.00  0.00    +0.0281  A
ATOM      8 C30  NAC L   1       0.250   0.941 -13.200  1.00  0.00    -0.0358  A
ATOM      9 C31  NAC L   1       0.368  -0.311 -13.818  1.00  0.00    -0.0131  A
ATOM     10 C32  NAC L   1       0.557  -1.491 -13.075  1.00  0.00    -0.0305  A
ATOM     11 H55  NAC L   1       0.689  -3.739 -15.626  1.00  0.00    +0.0638  H
ATOM     12 H56  NAC L   1       0.362  -1.699 -16.943  1.00  0.00    +0.0625  H
ATOM     13 H57  NAC L   1       0.040   0.829 -17.002  1.00  0.00    +0.0836  H
ATOM     14 H58  NAC L   1      -0.032   3.049 -13.545  1.00  0.00    +0.0830  H
ATOM     15 H59  NAC L   1       0.302   1.043 -12.121  1.00  0.00    +0.0639  H
ATOM     16 H60  NAC L   1       0.622  -1.415 -11.993  1.00  0.00    +0.0644  H
ENDROOT
BRANCH 1 19
ATOM     17 C20  NAC L   1       1.987  -4.763 -13.028  1.00  0.00    +0.2344  C
ATOM     18 O21  NAC L   1       3.059  -4.496 -13.566  1.00  0.00    -0.2722 OA
ATOM     19 N22  NAC L   1       0.861  -3.949 -13.030  1.00  0.00    -0.3256  N
ATOM     20 H54  NAC L   1       0.105  -4.237 -12.408  1.00  0.00    +0.1686 HD
BRANCH 17 21
ATOM     21 C14  NAC L   1       1.779  -6.045 -12.210  1.00  0.00    +0.0803  C
ATOM     22 H47  NAC L   1       2.134  -5.857 -11.191  1.00  0.00    +0.0463  H
BRANCH 21 26
ATOM     23 C10  NAC L   1      -2.419  -7.158 -11.898  1.00  0.00    -0.0103  A
ATOM     24 C11  NAC L   1      -1.755  -6.600 -10.799  1.00  0.00    -0.0551  A
ATOM     25 C12  NAC L   1      -0.406  -6.248 -10.887  1.00  0.00    -0.0574  A
ATOM     26 C13  NAC L   1       0.311  -6.439 -12.078  1.00  0.00    -0.0336  A
ATOM     27 C33  NAC L   1      -0.364  -6.988 -13.180  1.00  0.00    -0.0574  A
ATOM     28 C34  NAC L   1      -1.713  -7.340 -13.093  1.00  0.00    -0.0551  A
ATOM     29 H45  NAC L   1      -2.288  -6.434  -9.864  1.00  0.00    +0.0621  H
ATOM     30 H46  NAC L   1       0.080  -5.835 -10.006  1.00  0.00    +0.0621  H
ATOM     31 H61  NAC L   1       0.154  -7.143 -14.125  1.00  0.00    +0.0621  H
ATOM     32 H62  NAC L   1      -2.214  -7.753 -13.965  1.00  0.00    +0.0621  H
BRANCH 23 33
ATOM     33  C9  NAC L   1      -3.878  -7.522 -11.806  1.00  0.00    +0.1179  C
ATOM     34 H43  NAC L   1      -4.362  -7.049 -10.942  1.00  0.00    +0.0749  H
ATOM     35 H44  NAC L   1      -3.976  -8.603 -11.651  1.00  0.00    +0.0749  H
BRANCH 33 36
ATOM     36  O8  NAC L   1      -4.529  -7.203 -13.041  1.00  0.00    -0.4564 OA
BRANCH 36 37
ATOM     37  C6  NAC L   1      -5.881  -7.183 -12.998  1.00  0.00    +0.3398  C
ATOM     38  O7  NAC L   1      -6.613  -8.052 -12.554  1.00  0.00    -0.2449 OA
BRANCH 37 43
ATOM     39  C1  NAC L   1      -7.726  -1.953 -14.665  1.00  0.00    -0.0397  C
ATOM     40  C2  NAC L   1      -7.286  -3.327 -14.248  1.00  0.00    -0.0502  A
ATOM     41  C3  NAC L   1      -6.937  -3.586 -12.921  1.00  0.00    -0.0580  A
ATOM     42  C4  NAC L   1      -6.493  -4.853 -12.547  1.00  0.00    -0.0473  A
ATOM     43  C5  NAC L   1      -6.377  -5.878 -13.499  1.00  0.00    +0.0619  A
ATOM     44 C35  NAC L   1      -6.743  -5.642 -14.838  1.00  0.00    -0.0362  A
ATOM     45 C36  NAC L   1      -6.676  -6.703 -15.901  1.00  0.00    -0.0389  C
ATOM     46 C37  NAC L   1      -7.174  -4.352 -15.199  1.00  0.00    -0.0551  A
ATOM     47 H38  NAC L   1      -8.439  -2.006 -15.493  1.00  0.00    +0.0278  H
ATOM     48 H39  NAC L   1      -8.225  -1.435 -13.839  1.00  0.00    +0.0278  H
ATOM     49 H40  NAC L   1      -6.859  -1.363 -14.980  1.00  0.00    +0.0278  H
ATOM     50 H41  NAC L   1      -7.007  -2.803 -12.169  1.00  0.00    +0.0620  H
ATOM     51 H42  NAC L   1      -6.226  -5.043 -11.509  1.00  0.00    +0.0626  H
ATOM     52 H63  NAC L   1      -7.306  -6.442 -16.759  1.00  0.00    +0.0278  H
ATOM     53 H64  NAC L   1      -7.048  -7.661 -15.522  1.00  0.00    +0.0278  H
ATOM     54 H65  NAC L   1      -5.649  -6.820 -16.257  1.00  0.00    +0.0278  H
ATOM     55 H66  NAC L   1      -7.437  -4.144 -16.236  1.00  0.00    +0.0623  H
ENDBRANCH 37 43
ENDBRANCH 36 37
ENDBRANCH 33 36
ENDBRANCH 23 33
ENDBRANCH 21 26
BRANCH 21 56
ATOM     56 C15  NAC L   1       2.621  -7.191 -12.805  1.00  0.00    +0.0334  C
ATOM     57 H48  NAC L   1       2.482  -7.248 -13.891  1.00  0.00    +0.0497  H
ATOM     58 H49  NAC L   1       2.283  -8.148 -12.391  1.00  0.00    +0.0497  H
BRANCH 56 59
ATOM     59 N16  NAC L   1       4.066  -7.142 -12.601  1.00  0.00    -0.3551  N
ATOM     60 C17  NAC L   1       5.007  -7.224 -13.599  1.00  0.00    +0.2179  C
ATOM     61 C18  NAC L   1       6.420  -7.041 -13.118  1.00  0.00    +0.0143  C
ATOM     62 O19  NAC L   1       4.742  -7.488 -14.768  1.00  0.00    -0.2736 OA
ATOM     63 H50  NAC L   1       4.386  -6.951 -11.658  1.00  0.00    +0.1623 HD
ATOM     64 H51  NAC L   1       6.805  -8.001 -12.761  1.00  0.00    +0.0325  H
ATOM     65 H52  NAC L   1       6.465  -6.310 -12.307  1.00  0.00    +0.0325  H
ATOM     66 H53  NAC L   1       7.041  -6.683 -13.943  1.00  0.00    +0.0325  H
ENDBRANCH 56 59
ENDBRANCH 21 56
ENDBRANCH 17 21
ENDBRANCH 1 19
TORSDOF 9
ENDMDL
MODEL 2
REMARK VINA RESULT:    -7.343      1.203      2.132
REMARK INTER + INTRA:         -12.600
REMARK INTER:                 -11.129
REMARK INTRA:                  -1.471
REMARK UNBOUND:                -1.394
ROOT
ATOM      1 C23  NAC L   1       0.760  -2.387 -13.699  1.00  0.00    +0.0423  A
ATOM      2 C24  NAC L   1       0.920  -1.542 -12.595  1.00  0.00    -0.0377  A
ATOM      3 C25  NAC L   1       0.581  -0.189 -12.678  1.00  0.00    -0.0506  A
ATOM      4 C26  NAC L   1       0.071   0.342 -13.873  1.00  0.00    +0.0004  A
ATOM      5 C27  NAC L   1      -0.286   1.685 -14.019  1.00  0.00    +0.0353  A
ATOM      6 N28  NAC L   1      -0.780   2.229 -15.155  1.00  0.00    -0.2626 NA
ATOM      7 C29  NAC L   1      -0.932   1.394 -16.203  1.00  0.00    +0.0281  A
ATOM      8 C30  NAC L   1      -0.613   0.046 -16.172  1.00  0.00    -0.0358  A
ATOM      9 C31  NAC L   1      -0.099  -0.500 -14.988  1.00  0.00    -0.0131  A
ATOM     10 C32  NAC L   1       0.247  -1.860 -14.887  1.00  0.00    -0.0305  A
ATOM     11 H55  NAC L   1       1.314  -1.925 -11.657  1.00  0.00    +0.0638  H
ATOM     12 H56  NAC L   1       0.717   0.447 -11.805  1.00  0.00    +0.0625  H
ATOM     13 H57  NAC L   1      -0.179   2.386 -13.196  1.00  0.00    +0.0836  H
ATOM     14 H58  NAC L   1      -1.332   1.851 -17.104  1.00  0.00    +0.0830  H
ATOM     15 H59  NAC L   1      -0.762  -0.565 -17.055  1.00  0.00    +0.0639  H
ATOM     16 H60  NAC L   1       0.098  -2.497 -15.755  1.00  0.00    +0.0644  H
ENDROOT
BRANCH 1 19
ATOM     17 C20  NAC L   1       2.081  -4.460 -14.228  1.00  0.00    +0.2344  C
ATOM     18 O21  NAC L   1       2.840  -4.002 -15.079  1.00  0.00    -0.2722 OA
ATOM     19 N22  NAC L   1       1.126  -3.735 -13.527  1.00  0.00    -0.3256  N
ATOM     20 H54  NAC L   1       0.685  -4.221 -12.746  1.00  0.00    +0.1686 HD
BRANCH 17 21
ATOM     21 C14  NAC L   1       2.141  -5.928 -13.785  1.00  0.00    +0.0803  C
ATOM     22 H47  NAC L   1       2.577  -5.960 -12.780  1.00  0.00    +0.0463  H
BRANCH 21 26
ATOM     23 C10  NAC L   1      -1.773  -7.793 -13.379  1.00  0.00    -0.0103  A
ATOM     24 C11  NAC L   1      -1.177  -7.675 -14.640  1.00  0.00    -0.0551  A
ATOM     25 C12  NAC L   1       0.074  -7.070 -14.781  1.00  0.00    -0.0574  A
ATOM     26 C13  NAC L   1       0.764  -6.575 -13.664  1.00  0.00    -0.0336  A
ATOM     27 C33  NAC L   1       0.167  -6.708 -12.400  1.00  0.00    -0.0574  A
ATOM     28 C34  NAC L   1      -1.084  -7.313 -12.259  1.00  0.00    -0.0551  A
ATOM     29 H45  NAC L   1      -1.686  -8.056 -15.524  1.00  0.00    +0.0621  H
ATOM     30 H46  NAC L   1       0.496  -6.979 -15.780  1.00  0.00    +0.0621  H
ATOM     31 H61  NAC L   1       0.673  -6.345 -11.508  1.00  0.00    +0.0621  H
ATOM     32 H62  NAC L   1      -1.519  -7.412 -11.267  1.00  0.00    +0.0621  H
BRANCH 23 33
ATOM     33  C9  NAC L   1      -3.115  -8.460 -13.226  1.00  0.00    +0.1179  C
ATOM     34 H43  NAC L   1      -3.338  -8.692 -12.177  1.00  0.00    +0.0749  H
ATOM     35 H44  NAC L   1      -3.106  -9.423 -13.751  1.00  0.00    +0.0749  H
BRANCH 33 36
ATOM     36  O8  NAC L   1      -4.125  -7.648 -13.835  1.00  0.00    -0.4564 OA
BRANCH 36 37
ATOM     37  C6  NAC L   1      -5.348  -7.713 -13.261  1.00  0.00    +0.3398  C
ATOM     38  O7  NAC L   1      -5.855  -8.685 -12.724  1.00  0.00    -0.2449 OA
BRANCH 37 43
ATOM     39  C1  NAC L   1      -8.091  -2.620 -13.525  1.00  0.00    -0.0397  C
ATOM     40  C2  NAC L   1      -7.342  -3.919 -13.470  1.00  0.00    -0.0502  A
ATOM     41  C3  NAC L   1      -7.786  -5.023 -14.201  1.00  0.00    -0.0580  A
ATOM     42  C4  NAC L   1      -7.109  -6.240 -14.118  1.00  0.00    -0.0473  A
ATOM     43  C5  NAC L   1      -5.985  -6.373 -13.289  1.00  0.00    +0.0619  A
ATOM     44 C35  NAC L   1      -5.509  -5.267 -12.559  1.00  0.00    -0.0362  A
ATOM     45 C36  NAC L   1      -4.292  -5.332 -11.680  1.00  0.00    -0.0389  C
ATOM     46 C37  NAC L   1      -6.215  -4.053 -12.645  1.00  0.00    -0.0551  A
ATOM     47 H38  NAC L   1      -7.411  -1.772 -13.392  1.00  0.00    +0.0278  H
ATOM     48 H39  NAC L   1      -8.583  -2.492 -14.495  1.00  0.00    +0.0278  H
ATOM     49 H40  NAC L   1      -8.850  -2.593 -12.737  1.00  0.00    +0.0278  H
ATOM     50 H41  NAC L   1      -8.663  -4.946 -14.840  1.00  0.00    +0.0620  H
ATOM     51 H42  NAC L   1      -7.464  -7.091 -14.695  1.00  0.00    +0.0626  H
ATOM     52 H63  NAC L   1      -3.893  -4.330 -11.483  1.00  0.00    +0.0278  H
ATOM     53 H64  NAC L   1      -3.488  -5.897 -12.164  1.00  0.00    +0.0278  H
ATOM     54 H65  NAC L   1      -4.541  -5.792 -10.720  1.00  0.00    +0.0278  H
ATOM     55 H66  NAC L   1      -5.877  -3.193 -12.067  1.00  0.00    +0.0623  H
ENDBRANCH 37 43
ENDBRANCH 36 37
ENDBRANCH 33 36
ENDBRANCH 23 33
ENDBRANCH 21 26
BRANCH 21 56
ATOM     56 C15  NAC L   1       3.060  -6.727 -14.729  1.00  0.00    +0.0334  C
ATOM     57 H48  NAC L   1       2.996  -6.336 -15.752  1.00  0.00    +0.0497  H
ATOM     58 H49  NAC L   1       2.729  -7.772 -14.768  1.00  0.00    +0.0497  H
BRANCH 56 59
ATOM     59 N16  NAC L   1       4.486  -6.758 -14.417  1.00  0.00    -0.3551  N
ATOM     60 C17  NAC L   1       5.100  -7.695 -13.621  1.00  0.00    +0.2179  C
ATOM     61 C18  NAC L   1       6.595  -7.550 -13.554  1.00  0.00    +0.0143  C
ATOM     62 O19  NAC L   1       4.494  -8.539 -12.966  1.00  0.00    -0.2736 OA
ATOM     63 H50  NAC L   1       5.071  -6.081 -14.894  1.00  0.00    +0.1623 HD
ATOM     64 H51  NAC L   1       6.850  -6.818 -12.782  1.00  0.00    +0.0325  H
ATOM     65 H52  NAC L   1       6.999  -7.218 -14.514  1.00  0.00    +0.0325  H
ATOM     66 H53  NAC L   1       7.043  -8.515 -13.303  1.00  0.00    +0.0325  H
ENDBRANCH 56 59
ENDBRANCH 21 56
ENDBRANCH 17 21
ENDBRANCH 1 19
TORSDOF 9
ENDMDL
MODEL 3
REMARK VINA RESULT:    -7.311      3.293      5.045
REMARK INTER + INTRA:         -12.551
REMARK INTER:                 -10.590
REMARK INTRA:                  -1.961
REMARK UNBOUND:                -1.394
ROOT
ATOM      1 C23  NAC L   1       1.639  -5.711 -13.359  1.00  0.00    +0.0423  A
ATOM      2 C24  NAC L   1       1.810  -5.028 -14.568  1.00  0.00    -0.0377  A
ATOM      3 C25  NAC L   1       3.063  -4.972 -15.184  1.00  0.00    -0.0506  A
ATOM      4 C26  NAC L   1       4.170  -5.605 -14.597  1.00  0.00    +0.0004  A
ATOM      5 C27  NAC L   1       5.448  -5.585 -15.163  1.00  0.00    +0.0353  A
ATOM      6 N28  NAC L   1       6.535  -6.184 -14.626  1.00  0.00    -0.2626 NA
ATOM      7 C29  NAC L   1       6.345  -6.842 -13.464  1.00  0.00    +0.0281  A
ATOM      8 C30  NAC L   1       5.124  -6.928 -12.814  1.00  0.00    -0.0358  A
ATOM      9 C31  NAC L   1       4.009  -6.300 -13.384  1.00  0.00    -0.0131  A
ATOM     10 C32  NAC L   1       2.740  -6.346 -12.777  1.00  0.00    -0.0305  A
ATOM     11 H55  NAC L   1       0.972  -4.527 -15.045  1.00  0.00    +0.0638  H
ATOM     12 H56  NAC L   1       3.170  -4.433 -16.123  1.00  0.00    +0.0625  H
ATOM     13 H57  NAC L   1       5.639  -5.067 -16.099  1.00  0.00    +0.0836  H
ATOM     14 H58  NAC L   1       7.230  -7.317 -13.050  1.00  0.00    +0.0830  H
ATOM     15 H59  NAC L   1       5.045  -7.476 -11.881  1.00  0.00    +0.0639  H
ATOM     16 H60  NAC L   1       2.632  -6.896 -11.846  1.00  0.00    +0.0644  H
ENDROOT
BRANCH 1 19
ATOM     17 C20  NAC L   1      -0.570  -6.763 -12.777  1.00  0.00    +0.2344  C
ATOM     18 O21  NAC L   1      -0.353  -7.910 -13.161  1.00  0.00    -0.2722 OA
ATOM     19 N22  NAC L   1       0.344  -5.717 -12.809  1.00  0.00    -0.3256  N
ATOM     20 H54  NAC L   1       0.067  -4.871 -12.311  1.00  0.00    +0.1686 HD
BRANCH 17 21
ATOM     21 C14  NAC L   1      -1.905  -6.353 -12.141  1.00  0.00    +0.0803  C
ATOM     22 H47  NAC L   1      -2.157  -5.350 -12.504  1.00  0.00    +0.0463  H
BRANCH 21 26
ATOM     23 C10  NAC L   1      -5.208  -8.904 -13.385  1.00  0.00    -0.0103  A
ATOM     24 C11  NAC L   1      -5.232  -8.282 -12.131  1.00  0.00    -0.0551  A
ATOM     25 C12  NAC L   1      -4.174  -7.469 -11.720  1.00  0.00    -0.0574  A
ATOM     26 C13  NAC L   1      -3.067  -7.252 -12.554  1.00  0.00    -0.0336  A
ATOM     27 C33  NAC L   1      -3.054  -7.869 -13.816  1.00  0.00    -0.0574  A
ATOM     28 C34  NAC L   1      -4.113  -8.682 -14.228  1.00  0.00    -0.0551  A
ATOM     29 H45  NAC L   1      -6.082  -8.427 -11.464  1.00  0.00    +0.0621  H
ATOM     30 H46  NAC L   1      -4.220  -7.018 -10.730  1.00  0.00    +0.0621  H
ATOM     31 H61  NAC L   1      -2.218  -7.719 -14.497  1.00  0.00    +0.0621  H
ATOM     32 H62  NAC L   1      -4.082  -9.138 -15.214  1.00  0.00    +0.0621  H
BRANCH 23 33
ATOM     33  C9  NAC L   1      -6.358  -9.766 -13.833  1.00  0.00    +0.1179  C
ATOM     34 H43  NAC L   1      -6.213 -10.818 -13.552  1.00  0.00    +0.0749  H
ATOM     35 H44  NAC L   1      -6.419  -9.755 -14.928  1.00  0.00    +0.0749  H
BRANCH 33 36
ATOM     36  O8  NAC L   1      -7.585  -9.228 -13.328  1.00  0.00    -0.4564 OA
BRANCH 36 37
ATOM     37  C6  NAC L   1      -8.308  -8.500 -14.210  1.00  0.00    +0.3398  C
ATOM     38  O7  NAC L   1      -9.146  -8.918 -14.993  1.00  0.00    -0.2449 OA
BRANCH 37 43
ATOM     39  C1  NAC L   1      -7.244  -2.897 -13.211  1.00  0.00    -0.0397  C
ATOM     40  C2  NAC L   1      -7.538  -4.338 -13.510  1.00  0.00    -0.0502  A
ATOM     41  C3  NAC L   1      -8.302  -5.102 -12.625  1.00  0.00    -0.0580  A
ATOM     42  C4  NAC L   1      -8.541  -6.451 -12.887  1.00  0.00    -0.0473  A
ATOM     43  C5  NAC L   1      -8.007  -7.059 -14.033  1.00  0.00    +0.0619  A
ATOM     44 C35  NAC L   1      -7.251  -6.301 -14.948  1.00  0.00    -0.0362  A
ATOM     45 C36  NAC L   1      -6.678  -6.880 -16.211  1.00  0.00    -0.0389  C
ATOM     46 C37  NAC L   1      -7.008  -4.945 -14.657  1.00  0.00    -0.0551  A
ATOM     47 H38  NAC L   1      -7.146  -2.319 -14.135  1.00  0.00    +0.0278  H
ATOM     48 H39  NAC L   1      -8.055  -2.444 -12.630  1.00  0.00    +0.0278  H
ATOM     49 H40  NAC L   1      -6.313  -2.816 -12.642  1.00  0.00    +0.0278  H
ATOM     50 H41  NAC L   1      -8.716  -4.654 -11.723  1.00  0.00    +0.0620  H
ATOM     51 H42  NAC L   1      -9.140  -7.034 -12.191  1.00  0.00    +0.0626  H
ATOM     52 H63  NAC L   1      -6.435  -6.092 -16.933  1.00  0.00    +0.0278  H
ATOM     53 H64  NAC L   1      -7.401  -7.540 -16.703  1.00  0.00    +0.0278  H
ATOM     54 H65  NAC L   1      -5.761  -7.435 -15.993  1.00  0.00    +0.0278  H
ATOM     55 H66  NAC L   1      -6.403  -4.350 -15.340  1.00  0.00    +0.0623  H
ENDBRANCH 37 43
ENDBRANCH 36 37
ENDBRANCH 33 36
ENDBRANCH 23 33
ENDBRANCH 21 26
BRANCH 21 56
ATOM     56 C15  NAC L   1      -1.760  -6.285 -10.609  1.00  0.00    +0.0334  C
ATOM     57 H48  NAC L   1      -2.728  -6.073 -10.139  1.00  0.00    +0.0497  H
ATOM     58 H49  NAC L   1      -1.089  -5.460 -10.339  1.00  0.00    +0.0497  H
BRANCH 56 59
ATOM     59 N16  NAC L   1      -1.249  -7.470  -9.926  1.00  0.00    -0.3551  N
ATOM     60 C17  NAC L   1       0.056  -7.660  -9.544  1.00  0.00    +0.2179  C
ATOM     61 C18  NAC L   1       0.283  -8.926  -8.764  1.00  0.00    +0.0143  C
ATOM     62 O19  NAC L   1       0.977  -6.910  -9.857  1.00  0.00    -0.2736 OA
ATOM     63 H50  NAC L   1      -1.934  -8.162  -9.644  1.00  0.00    +0.1623 HD
ATOM     64 H51  NAC L   1       0.432  -9.755  -9.462  1.00  0.00    +0.0325  H
ATOM     65 H52  NAC L   1      -0.571  -9.145  -8.118  1.00  0.00    +0.0325  H
ATOM     66 H53  NAC L   1       1.172  -8.813  -8.138  1.00  0.00    +0.0325  H
ENDBRANCH 56 59
ENDBRANCH 21 56
ENDBRANCH 17 21
ENDBRANCH 1 19
TORSDOF 9
ENDMDL
MODEL 4
REMARK VINA RESULT:    -7.215      3.627      6.120
REMARK INTER + INTRA:         -12.404
REMARK INTER:                 -10.435
REMARK INTRA:                  -1.970
REMARK UNBOUND:                -1.394
ROOT
ATOM      1 C23  NAC L   1       0.492  -6.162 -12.904  1.00  0.00    +0.0423  A
ATOM      2 C24  NAC L   1       1.582  -6.354 -12.048  1.00  0.00    -0.0377  A
ATOM      3 C25  NAC L   1       2.875  -6.009 -12.450  1.00  0.00    -0.0506  A
ATOM      4 C26  NAC L   1       3.097  -5.460 -13.723  1.00  0.00    +0.0004  A
ATOM      5 C27  NAC L   1       4.365  -5.095 -14.184  1.00  0.00    +0.0353  A
ATOM      6 N28  NAC L   1       4.615  -4.563 -15.403  1.00  0.00    -0.2626 NA
ATOM      7 C29  NAC L   1       3.548  -4.381 -16.209  1.00  0.00    +0.0281  A
ATOM      8 C30  NAC L   1       2.248  -4.706 -15.856  1.00  0.00    -0.0358  A
ATOM      9 C31  NAC L   1       2.008  -5.257 -14.591  1.00  0.00    -0.0131  A
ATOM     10 C32  NAC L   1       0.712  -5.611 -14.169  1.00  0.00    -0.0305  A
ATOM     11 H55  NAC L   1       1.440  -6.778 -11.057  1.00  0.00    +0.0638  H
ATOM     12 H56  NAC L   1       3.705  -6.169 -11.766  1.00  0.00    +0.0625  H
ATOM     13 H57  NAC L   1       5.247  -5.225 -13.563  1.00  0.00    +0.0836  H
ATOM     14 H58  NAC L   1       3.771  -3.952 -17.181  1.00  0.00    +0.0830  H
ATOM     15 H59  NAC L   1       1.439  -4.531 -16.557  1.00  0.00    +0.0639  H
ATOM     16 H60  NAC L   1      -0.117  -5.437 -14.849  1.00  0.00    +0.0644  H
ENDROOT
BRANCH 1 19
ATOM     17 C20  NAC L   1      -1.666  -5.778 -11.671  1.00  0.00    +0.2344  C
ATOM     18 O21  NAC L   1      -1.523  -4.592 -11.382  1.00  0.00    -0.2722 OA
ATOM     19 N22  NAC L   1      -0.774  -6.538 -12.417  1.00  0.00    -0.3256  N
ATOM     20 H54  NAC L   1      -1.108  -7.457 -12.706  1.00  0.00    +0.1686 HD
BRANCH 17 21
ATOM     21 C14  NAC L   1      -2.921  -6.570 -11.278  1.00  0.00    +0.0803  C
ATOM     22 H47  NAC L   1      -3.184  -6.295 -10.250  1.00  0.00    +0.0463  H
BRANCH 21 26
ATOM     23 C10  NAC L   1      -6.426  -5.557 -13.654  1.00  0.00    -0.0103  A
ATOM     24 C11  NAC L   1      -5.655  -6.680 -13.980  1.00  0.00    -0.0551  A
ATOM     25 C12  NAC L   1      -4.524  -7.008 -13.229  1.00  0.00    -0.0574  A
ATOM     26 C13  NAC L   1      -4.139  -6.225 -12.130  1.00  0.00    -0.0336  A
ATOM     27 C33  NAC L   1      -4.923  -5.107 -11.801  1.00  0.00    -0.0574  A
ATOM     28 C34  NAC L   1      -6.054  -4.779 -12.552  1.00  0.00    -0.0551  A
ATOM     29 H45  NAC L   1      -5.934  -7.310 -14.823  1.00  0.00    +0.0621  H
ATOM     30 H46  NAC L   1      -3.940  -7.877 -13.524  1.00  0.00    +0.0621  H
ATOM     31 H61  NAC L   1      -4.663  -4.480 -10.950  1.00  0.00    +0.0621  H
ATOM     32 H62  NAC L   1      -6.649  -3.914 -12.269  1.00  0.00    +0.0621  H
BRANCH 23 33
ATOM     33  C9  NAC L   1      -7.654  -5.215 -14.456  1.00  0.00    +0.1179  C
ATOM     34 H43  NAC L   1      -7.591  -5.597 -15.483  1.00  0.00    +0.0749  H
ATOM     35 H44  NAC L   1      -7.740  -4.125 -14.546  1.00  0.00    +0.0749  H
BRANCH 33 36
ATOM     36  O8  NAC L   1      -8.820  -5.683 -13.768  1.00  0.00    -0.4564 OA
BRANCH 36 37
ATOM     37  C6  NAC L   1      -9.368  -6.819 -14.258  1.00  0.00    +0.3398  C
ATOM     38  O7  NAC L   1      -9.894  -6.967 -15.349  1.00  0.00    -0.2449 OA
BRANCH 37 43
ATOM     39  C1  NAC L   1      -8.776 -11.012 -10.309  1.00  0.00    -0.0397  C
ATOM     40  C2  NAC L   1      -8.884  -9.923 -11.336  1.00  0.00    -0.0502  A
ATOM     41  C3  NAC L   1      -9.570  -8.742 -11.046  1.00  0.00    -0.0580  A
ATOM     42  C4  NAC L   1      -9.701  -7.749 -12.016  1.00  0.00    -0.0473  A
ATOM     43  C5  NAC L   1      -9.159  -7.929 -13.297  1.00  0.00    +0.0619  A
ATOM     44 C35  NAC L   1      -8.447  -9.104 -13.604  1.00  0.00    -0.0362  A
ATOM     45 C36  NAC L   1      -7.812  -9.347 -14.945  1.00  0.00    -0.0389  C
ATOM     46 C37  NAC L   1      -8.339 -10.102 -12.617  1.00  0.00    -0.0551  A
ATOM     47 H38  NAC L   1      -7.841 -11.570 -10.429  1.00  0.00    +0.0278  H
ATOM     48 H39  NAC L   1      -8.777 -10.597  -9.296  1.00  0.00    +0.0278  H
ATOM     49 H40  NAC L   1      -9.617 -11.705 -10.409  1.00  0.00    +0.0278  H
ATOM     50 H41  NAC L   1     -10.010  -8.587 -10.063  1.00  0.00    +0.0620  H
ATOM     51 H42  NAC L   1     -10.237  -6.833 -11.775  1.00  0.00    +0.0626  H
ATOM     52 H63  NAC L   1      -7.038 -10.122 -14.881  1.00  0.00    +0.0278  H
ATOM     53 H64  NAC L   1      -7.316  -8.443 -15.313  1.00  0.00    +0.0278  H
ATOM     54 H65  NAC L   1      -8.563  -9.677 -15.667  1.00  0.00    +0.0278  H
ATOM     55 H66  NAC L   1      -7.813 -11.028 -12.844  1.00  0.00    +0.0623  H
ENDBRANCH 37 43
ENDBRANCH 36 37
ENDBRANCH 33 36
ENDBRANCH 23 33
ENDBRANCH 21 26
BRANCH 21 56
ATOM     56 C15  NAC L   1      -2.620  -8.081 -11.306  1.00  0.00    +0.0334  C
ATOM     57 H48  NAC L   1      -1.830  -8.331 -10.587  1.00  0.00    +0.0497  H
ATOM     58 H49  NAC L   1      -2.247  -8.363 -12.298  1.00  0.00    +0.0497  H
BRANCH 56 59
ATOM     59 N16  NAC L   1      -3.720  -8.994 -11.005  1.00  0.00    -0.3551  N
ATOM     60 C17  NAC L   1      -3.883 -10.241 -11.556  1.00  0.00    +0.2179  C
ATOM     61 C18  NAC L   1      -5.046 -11.009 -10.989  1.00  0.00    +0.0143  C
ATOM     62 O19  NAC L   1      -3.194 -10.680 -12.473  1.00  0.00    -0.2736 OA
ATOM     63 H50  NAC L   1      -4.359  -8.708 -10.273  1.00  0.00    +0.1623 HD
ATOM     64 H51  NAC L   1      -5.958 -10.722 -11.521  1.00  0.00    +0.0325  H
ATOM     65 H52  NAC L   1      -5.168 -10.800  -9.923  1.00  0.00    +0.0325  H
ATOM     66 H53  NAC L   1      -4.870 -12.080 -11.116  1.00  0.00    +0.0325  H
ENDBRANCH 56 59
ENDBRANCH 21 56
ENDBRANCH 17 21
ENDBRANCH 1 19
TORSDOF 9
ENDMDL
MODEL 5
REMARK VINA RESULT:    -7.184      2.358      3.498
REMARK INTER + INTRA:         -12.357
REMARK INTER:                 -11.285
REMARK INTRA:                  -1.072
REMARK UNBOUND:                -1.394
ROOT
ATOM      1 C23  NAC L   1       0.592  -1.355 -13.439  1.00  0.00    +0.0423  A
ATOM      2 C24  NAC L   1       0.966  -0.328 -12.566  1.00  0.00    -0.0377  A
ATOM      3 C25  NAC L   1       0.608   0.997 -12.828  1.00  0.00    -0.0506  A
ATOM      4 C26  NAC L   1      -0.137   1.315 -13.975  1.00  0.00    +0.0004  A
ATOM      5 C27  NAC L   1      -0.526   2.619 -14.292  1.00  0.00    +0.0353  A
ATOM      6 N28  NAC L   1      -1.243   2.961 -15.387  1.00  0.00    -0.2626 NA
ATOM      7 C29  NAC L   1      -1.598   1.954 -16.211  1.00  0.00    +0.0281  A
ATOM      8 C30  NAC L   1      -1.269   0.626 -15.995  1.00  0.00    -0.0358  A
ATOM      9 C31  NAC L   1      -0.523   0.290 -14.857  1.00  0.00    -0.0131  A
ATOM     10 C32  NAC L   1      -0.153  -1.039 -14.578  1.00  0.00    -0.0305  A
ATOM     11 H55  NAC L   1       1.544  -0.544 -11.671  1.00  0.00    +0.0638  H
ATOM     12 H56  NAC L   1       0.912   1.777 -12.133  1.00  0.00    +0.0625  H
ATOM     13 H57  NAC L   1      -0.260   3.456 -13.652  1.00  0.00    +0.0836  H
ATOM     14 H58  NAC L   1      -2.175   2.250 -17.082  1.00  0.00    +0.0830  H
ATOM     15 H59  NAC L   1      -1.589  -0.132 -16.702  1.00  0.00    +0.0639  H
ATOM     16 H60  NAC L   1      -0.470  -1.819 -15.265  1.00  0.00    +0.0644  H
ENDROOT
BRANCH 1 19
ATOM     17 C20  NAC L   1       1.678  -3.580 -13.884  1.00  0.00    +0.2344  C
ATOM     18 O21  NAC L   1       2.126  -3.363 -15.007  1.00  0.00    -0.2722 OA
ATOM     19 N22  NAC L   1       0.996  -2.660 -13.098  1.00  0.00    -0.3256  N
ATOM     20 H54  NAC L   1       0.827  -2.940 -12.132  1.00  0.00    +0.1686 HD
BRANCH 17 21
ATOM     21 C14  NAC L   1       1.878  -4.923 -13.169  1.00  0.00    +0.0803  C
ATOM     22 H47  NAC L   1       2.475  -4.741 -12.268  1.00  0.00    +0.0463  H
BRANCH 21 26
ATOM     23 C10  NAC L   1      -1.871  -6.707 -11.858  1.00  0.00    -0.0103  A
ATOM     24 C11  NAC L   1      -1.219  -5.768 -11.051  1.00  0.00    -0.0551  A
ATOM     25 C12  NAC L   1      -0.011  -5.196 -11.459  1.00  0.00    -0.0574  A
ATOM     26 C13  NAC L   1       0.571  -5.546 -12.687  1.00  0.00    -0.0336  A
ATOM     27 C33  NAC L   1      -0.094  -6.480 -13.497  1.00  0.00    -0.0574  A
ATOM     28 C34  NAC L   1      -1.302  -7.051 -13.089  1.00  0.00    -0.0551  A
ATOM     29 H45  NAC L   1      -1.651  -5.472 -10.096  1.00  0.00    +0.0621  H
ATOM     30 H46  NAC L   1       0.475  -4.484 -10.796  1.00  0.00    +0.0621  H
ATOM     31 H61  NAC L   1       0.320  -6.771 -14.461  1.00  0.00    +0.0621  H
ATOM     32 H62  NAC L   1      -1.802  -7.764 -13.741  1.00  0.00    +0.0621  H
BRANCH 23 33
ATOM     33  C9  NAC L   1      -3.182  -7.309 -11.423  1.00  0.00    +0.1179  C
ATOM     34 H43  NAC L   1      -4.000  -7.041 -12.104  1.00  0.00    +0.0749  H
ATOM     35 H44  NAC L   1      -3.463  -6.905 -10.443  1.00  0.00    +0.0749  H
BRANCH 33 36
ATOM     36  O8  NAC L   1      -3.032  -8.726 -11.278  1.00  0.00    -0.4564 OA
BRANCH 36 37
ATOM     37  C6  NAC L   1      -3.644  -9.476 -12.223  1.00  0.00    +0.3398  C
ATOM     38  O7  NAC L   1      -3.122 -10.005 -13.191  1.00  0.00    -0.2449 OA
BRANCH 37 43
ATOM     39  C1  NAC L   1      -9.125 -10.341 -10.567  1.00  0.00    -0.0397  C
ATOM     40  C2  NAC L   1      -7.716 -10.130 -11.038  1.00  0.00    -0.0502  A
ATOM     41  C3  NAC L   1      -6.654 -10.786 -10.410  1.00  0.00    -0.0580  A
ATOM     42  C4  NAC L   1      -5.343 -10.557 -10.826  1.00  0.00    -0.0473  A
ATOM     43  C5  NAC L   1      -5.073  -9.658 -11.869  1.00  0.00    +0.0619  A
ATOM     44 C35  NAC L   1      -6.131  -9.002 -12.527  1.00  0.00    -0.0362  A
ATOM     45 C36  NAC L   1      -5.915  -8.053 -13.673  1.00  0.00    -0.0389  C
ATOM     46 C37  NAC L   1      -7.446  -9.234 -12.083  1.00  0.00    -0.0551  A
ATOM     47 H38  NAC L   1      -9.833 -10.246 -11.397  1.00  0.00    +0.0278  H
ATOM     48 H39  NAC L   1      -9.252 -11.345 -10.148  1.00  0.00    +0.0278  H
ATOM     49 H40  NAC L   1      -9.377  -9.603  -9.799  1.00  0.00    +0.0278  H
ATOM     50 H41  NAC L   1      -6.839 -11.478  -9.591  1.00  0.00    +0.0620  H
ATOM     51 H42  NAC L   1      -4.526 -11.076 -10.330  1.00  0.00    +0.0626  H
ATOM     52 H63  NAC L   1      -6.834  -7.923 -14.257  1.00  0.00    +0.0278  H
ATOM     53 H64  NAC L   1      -5.159  -8.439 -14.365  1.00  0.00    +0.0278  H
ATOM     54 H65  NAC L   1      -5.609  -7.071 -13.301  1.00  0.00    +0.0278  H
ATOM     55 H66  NAC L   1      -8.275  -8.716 -12.564  1.00  0.00    +0.0623  H
ENDBRANCH 37 43
ENDBRANCH 36 37
ENDBRANCH 33 36
ENDBRANCH 23 33
ENDBRANCH 21 26
BRANCH 21 56
ATOM     56 C15  NAC L   1       2.665  -5.890 -14.075  1.00  0.00    +0.0334  C
ATOM     57 H48  NAC L   1       2.896  -5.416 -15.037  1.00  0.00    +0.0497  H
ATOM     58 H49  NAC L   1       2.049  -6.770 -14.296  1.00  0.00    +0.0497  H
BRANCH 56 59
ATOM     59 N16  NAC L   1       3.941  -6.396 -13.576  1.00  0.00    -0.3551  N
ATOM     60 C17  NAC L   1       5.114  -5.682 -13.543  1.00  0.00    +0.2179  C
ATOM     61 C18  NAC L   1       6.251  -6.412 -12.881  1.00  0.00    +0.0143  C
ATOM     62 O19  NAC L   1       5.257  -4.577 -14.059  1.00  0.00    -0.2736 OA
ATOM     63 H50  NAC L   1       3.929  -7.315 -13.150  1.00  0.00    +0.1623 HD
ATOM     64 H51  NAC L   1       6.738  -7.059 -13.617  1.00  0.00    +0.0325  H
ATOM     65 H52  NAC L   1       5.891  -7.019 -12.046  1.00  0.00    +0.0325  H
ATOM     66 H53  NAC L   1       6.973  -5.687 -12.498  1.00  0.00    +0.0325  H
ENDBRANCH 56 59
ENDBRANCH 21 56
ENDBRANCH 17 21
ENDBRANCH 1 19
TORSDOF 9
ENDMDL
MODEL 6
REMARK VINA RESULT:    -7.126      1.497      2.314
REMARK INTER + INTRA:         -12.269
REMARK INTER:                 -10.504
REMARK INTRA:                  -1.765
REMARK UNBOUND:                -1.394
ROOT
ATOM      1 C23  NAC L   1       0.575  -2.001 -13.700  1.00  0.00    +0.0423  A
ATOM      2 C24  NAC L   1       0.869  -1.206 -12.586  1.00  0.00    -0.0377  A
ATOM      3 C25  NAC L   1       0.796   0.187 -12.666  1.00  0.00    -0.0506  A
ATOM      4 C26  NAC L   1       0.422   0.809 -13.868  1.00  0.00    +0.0004  A
ATOM      5 C27  NAC L   1       0.331   2.196 -14.011  1.00  0.00    +0.0353  A
ATOM      6 N28  NAC L   1      -0.026   2.828 -15.153  1.00  0.00    -0.2626 NA
ATOM      7 C29  NAC L   1      -0.311   2.041 -16.211  1.00  0.00    +0.0281  A
ATOM      8 C30  NAC L   1      -0.254   0.657 -16.183  1.00  0.00    -0.0358  A
ATOM      9 C31  NAC L   1       0.119   0.019 -14.992  1.00  0.00    -0.0131  A
ATOM     10 C32  NAC L   1       0.199  -1.382 -14.895  1.00  0.00    -0.0305  A
ATOM     11 H55  NAC L   1       1.162  -1.659 -11.643  1.00  0.00    +0.0638  H
ATOM     12 H56  NAC L   1       1.030   0.783 -11.786  1.00  0.00    +0.0625  H
ATOM     13 H57  NAC L   1       0.551   2.862 -13.182  1.00  0.00    +0.0836  H
ATOM     14 H58  NAC L   1      -0.596   2.569 -17.117  1.00  0.00    +0.0830  H
ATOM     15 H59  NAC L   1      -0.498   0.088 -17.074  1.00  0.00    +0.0639  H
ATOM     16 H60  NAC L   1      -0.050  -1.976 -15.770  1.00  0.00    +0.0644  H
ENDROOT
BRANCH 1 19
ATOM     17 C20  NAC L   1       0.021  -4.195 -12.601  1.00  0.00    +0.2344  C
ATOM     18 O21  NAC L   1      -0.838  -3.811 -11.810  1.00  0.00    -0.2722 OA
ATOM     19 N22  NAC L   1       0.674  -3.395 -13.530  1.00  0.00    -0.3256  N
ATOM     20 H54  NAC L   1       1.243  -3.889 -14.219  1.00  0.00    +0.1686 HD
BRANCH 17 21
ATOM     21 C14  NAC L   1       0.446  -5.667 -12.697  1.00  0.00    +0.0803  C
ATOM     22 H47  NAC L   1       1.173  -5.860 -11.900  1.00  0.00    +0.0463  H
BRANCH 21 26
ATOM     23 C10  NAC L   1      -2.813  -8.458 -11.957  1.00  0.00    -0.0103  A
ATOM     24 C11  NAC L   1      -2.412  -8.177 -13.268  1.00  0.00    -0.0551  A
ATOM     25 C12  NAC L   1      -1.373  -7.276 -13.516  1.00  0.00    -0.0574  A
ATOM     26 C13  NAC L   1      -0.706  -6.639 -12.458  1.00  0.00    -0.0336  A
ATOM     27 C33  NAC L   1      -1.105  -6.935 -11.145  1.00  0.00    -0.0574  A
ATOM     28 C34  NAC L   1      -2.144  -7.836 -10.897  1.00  0.00    -0.0551  A
ATOM     29 H45  NAC L   1      -2.907  -8.661 -14.109  1.00  0.00    +0.0621  H
ATOM     30 H46  NAC L   1      -1.102  -7.068 -14.549  1.00  0.00    +0.0621  H
ATOM     31 H61  NAC L   1      -0.607  -6.469 -10.297  1.00  0.00    +0.0621  H
ATOM     32 H62  NAC L   1      -2.426  -8.055  -9.870  1.00  0.00    +0.0621  H
BRANCH 23 33
ATOM     33  C9  NAC L   1      -3.922  -9.442 -11.691  1.00  0.00    +0.1179  C
ATOM     34 H43  NAC L   1      -3.717 -10.058 -10.806  1.00  0.00    +0.0749  H
ATOM     35 H44  NAC L   1      -3.999 -10.142 -12.532  1.00  0.00    +0.0749  H
BRANCH 33 36
ATOM     36  O8  NAC L   1      -5.169  -8.744 -11.597  1.00  0.00    -0.4564 OA
BRANCH 36 37
ATOM     37  C6  NAC L   1      -5.830  -8.572 -12.764  1.00  0.00    +0.3398  C
ATOM     38  O7  NAC L   1      -6.035  -9.415 -13.622  1.00  0.00    -0.2449 OA
BRANCH 37 43
ATOM     39  C1  NAC L   1      -7.653  -3.087 -13.110  1.00  0.00    -0.0397  C
ATOM     40  C2  NAC L   1      -7.203  -4.513 -12.981  1.00  0.00    -0.0502  A
ATOM     41  C3  NAC L   1      -5.843  -4.829 -12.993  1.00  0.00    -0.0580  A
ATOM     42  C4  NAC L   1      -5.430  -6.158 -12.912  1.00  0.00    -0.0473  A
ATOM     43  C5  NAC L   1      -6.374  -7.193 -12.832  1.00  0.00    +0.0619  A
ATOM     44 C35  NAC L   1      -7.749  -6.894 -12.798  1.00  0.00    -0.0362  A
ATOM     45 C36  NAC L   1      -8.812  -7.951 -12.679  1.00  0.00    -0.0389  C
ATOM     46 C37  NAC L   1      -8.147  -5.547 -12.897  1.00  0.00    -0.0551  A
ATOM     47 H38  NAC L   1      -8.592  -2.923 -12.571  1.00  0.00    +0.0278  H
ATOM     48 H39  NAC L   1      -6.912  -2.402 -12.685  1.00  0.00    +0.0278  H
ATOM     49 H40  NAC L   1      -7.802  -2.836 -14.165  1.00  0.00    +0.0278  H
ATOM     50 H41  NAC L   1      -5.094  -4.043 -13.068  1.00  0.00    +0.0620  H
ATOM     51 H42  NAC L   1      -4.367  -6.391 -12.920  1.00  0.00    +0.0626  H
ATOM     52 H63  NAC L   1      -9.758  -7.522 -12.329  1.00  0.00    +0.0278  H
ATOM     53 H64  NAC L   1      -8.526  -8.713 -11.946  1.00  0.00    +0.0278  H
ATOM     54 H65  NAC L   1      -8.991  -8.420 -13.650  1.00  0.00    +0.0278  H
ATOM     55 H66  NAC L   1      -9.207  -5.299 -12.899  1.00  0.00    +0.0623  H
ENDBRANCH 37 43
ENDBRANCH 36 37
ENDBRANCH 33 36
ENDBRANCH 23 33
ENDBRANCH 21 26
BRANCH 21 56
ATOM     56 C15  NAC L   1       1.137  -5.929 -14.049  1.00  0.00    +0.0334  C
ATOM     57 H48  NAC L   1       1.148  -5.017 -14.659  1.00  0.00    +0.0497  H
ATOM     58 H49  NAC L   1       0.570  -6.680 -14.612  1.00  0.00    +0.0497  H
BRANCH 56 59
ATOM     59 N16  NAC L   1       2.521  -6.393 -14.021  1.00  0.00    -0.3551  N
ATOM     60 C17  NAC L   1       3.624  -5.581 -13.916  1.00  0.00    +0.2179  C
ATOM     61 C18  NAC L   1       4.923  -6.332 -13.805  1.00  0.00    +0.0143  C
ATOM     62 O19  NAC L   1       3.579  -4.356 -13.974  1.00  0.00    -0.2736 OA
ATOM     63 H50  NAC L   1       2.663  -7.396 -13.994  1.00  0.00    +0.1623 HD
ATOM     64 H51  NAC L   1       5.279  -6.583 -14.808  1.00  0.00    +0.0325  H
ATOM     65 H52  NAC L   1       4.794  -7.250 -13.226  1.00  0.00    +0.0325  H
ATOM     66 H53  NAC L   1       5.663  -5.704 -13.301  1.00  0.00    +0.0325  H
ENDBRANCH 56 59
ENDBRANCH 21 56
ENDBRANCH 17 21
ENDBRANCH 1 19
TORSDOF 9
ENDMDL
MODEL 7
REMARK VINA RESULT:    -6.905      3.633      5.319
REMARK INTER + INTRA:         -11.931
REMARK INTER:                 -10.756
REMARK INTRA:                  -1.175
REMARK UNBOUND:                -1.394
ROOT
ATOM      1 C23  NAC L   1       1.886  -6.300 -12.767  1.00  0.00    +0.0423  A
ATOM      2 C24  NAC L   1       2.293  -7.638 -12.739  1.00  0.00    -0.0377  A
ATOM      3 C25  NAC L   1       3.556  -8.008 -13.208  1.00  0.00    -0.0506  A
ATOM      4 C26  NAC L   1       4.437  -7.038 -13.712  1.00  0.00    +0.0004  A
ATOM      5 C27  NAC L   1       5.712  -7.345 -14.195  1.00  0.00    +0.0353  A
ATOM      6 N28  NAC L   1       6.585  -6.437 -14.687  1.00  0.00    -0.2626 NA
ATOM      7 C29  NAC L   1       6.174  -5.152 -14.698  1.00  0.00    +0.0281  A
ATOM      8 C30  NAC L   1       4.933  -4.734 -14.244  1.00  0.00    -0.0358  A
ATOM      9 C31  NAC L   1       4.040  -5.689 -13.740  1.00  0.00    -0.0131  A
ATOM     10 C32  NAC L   1       2.764  -5.333 -13.264  1.00  0.00    -0.0305  A
ATOM     11 H55  NAC L   1       1.632  -8.411 -12.355  1.00  0.00    +0.0638  H
ATOM     12 H56  NAC L   1       3.848  -9.056 -13.176  1.00  0.00    +0.0625  H
ATOM     13 H57  NAC L   1       6.079  -8.367 -14.201  1.00  0.00    +0.0836  H
ATOM     14 H58  NAC L   1       6.890  -4.439 -15.095  1.00  0.00    +0.0830  H
ATOM     15 H59  NAC L   1       4.669  -3.682 -14.283  1.00  0.00    +0.0639  H
ATOM     16 H60  NAC L   1       2.479  -4.285 -13.283  1.00  0.00    +0.0644  H
ENDROOT
BRANCH 1 19
ATOM     17 C20  NAC L   1      -0.628  -6.376 -12.821  1.00  0.00    +0.2344  C
ATOM     18 O21  NAC L   1      -0.785  -7.095 -13.805  1.00  0.00    -0.2722 OA
ATOM     19 N22  NAC L   1       0.598  -6.016 -12.275  1.00  0.00    -0.3256  N
ATOM     20 H54  NAC L   1       0.559  -5.547 -11.369  1.00  0.00    +0.1686 HD
BRANCH 17 21
ATOM     21 C14  NAC L   1      -1.811  -5.821 -12.017  1.00  0.00    +0.0803  C
ATOM     22 H47  NAC L   1      -1.887  -4.748 -12.226  1.00  0.00    +0.0463  H
BRANCH 21 26
ATOM     23 C10  NAC L   1      -5.665  -7.505 -13.145  1.00  0.00    -0.0103  A
ATOM     24 C11  NAC L   1      -4.491  -8.242 -13.339  1.00  0.00    -0.0551  A
ATOM     25 C12  NAC L   1      -3.250  -7.707 -12.988  1.00  0.00    -0.0574  A
ATOM     26 C13  NAC L   1      -3.151  -6.424 -12.430  1.00  0.00    -0.0336  A
ATOM     27 C33  NAC L   1      -4.334  -5.694 -12.227  1.00  0.00    -0.0574  A
ATOM     28 C34  NAC L   1      -5.576  -6.229 -12.577  1.00  0.00    -0.0551  A
ATOM     29 H45  NAC L   1      -4.537  -9.244 -13.764  1.00  0.00    +0.0621  H
ATOM     30 H46  NAC L   1      -2.357  -8.303 -13.171  1.00  0.00    +0.0621  H
ATOM     31 H61  NAC L   1      -4.301  -4.698 -11.788  1.00  0.00    +0.0621  H
ATOM     32 H62  NAC L   1      -6.477  -5.646 -12.400  1.00  0.00    +0.0621  H
BRANCH 23 33
ATOM     33  C9  NAC L   1      -7.004  -8.090 -13.509  1.00  0.00    +0.1179  C
ATOM     34 H43  NAC L   1      -7.743  -7.945 -12.710  1.00  0.00    +0.0749  H
ATOM     35 H44  NAC L   1      -6.907  -9.176 -13.634  1.00  0.00    +0.0749  H
BRANCH 33 36
ATOM     36  O8  NAC L   1      -7.439  -7.550 -14.762  1.00  0.00    -0.4564 OA
BRANCH 36 37
ATOM     37  C6  NAC L   1      -8.619  -6.890 -14.733  1.00  0.00    +0.3398  C
ATOM     38  O7  NAC L   1      -9.731  -7.369 -14.885  1.00  0.00    -0.2449 OA
BRANCH 37 43
ATOM     39  C1  NAC L   1      -7.620  -1.280 -13.705  1.00  0.00    -0.0397  C
ATOM     40  C2  NAC L   1      -7.857  -2.744 -13.933  1.00  0.00    -0.0502  A
ATOM     41  C3  NAC L   1      -7.431  -3.354 -15.115  1.00  0.00    -0.0580  A
ATOM     42  C4  NAC L   1      -7.687  -4.706 -15.340  1.00  0.00    -0.0473  A
ATOM     43  C5  NAC L   1      -8.387  -5.466 -14.390  1.00  0.00    +0.0619  A
ATOM     44 C35  NAC L   1      -8.807  -4.874 -13.183  1.00  0.00    -0.0362  A
ATOM     45 C36  NAC L   1      -9.530  -5.638 -12.108  1.00  0.00    -0.0389  C
ATOM     46 C37  NAC L   1      -8.553  -3.505 -12.982  1.00  0.00    -0.0551  A
ATOM     47 H38  NAC L   1      -7.490  -1.067 -12.639  1.00  0.00    +0.0278  H
ATOM     48 H39  NAC L   1      -6.710  -0.946 -14.215  1.00  0.00    +0.0278  H
ATOM     49 H40  NAC L   1      -8.469  -0.701 -14.082  1.00  0.00    +0.0278  H
ATOM     50 H41  NAC L   1      -6.899  -2.781 -15.872  1.00  0.00    +0.0620  H
ATOM     51 H42  NAC L   1      -7.348  -5.169 -16.264  1.00  0.00    +0.0626  H
ATOM     52 H63  NAC L   1      -9.463  -5.121 -11.144  1.00  0.00    +0.0278  H
ATOM     53 H64  NAC L   1      -9.083  -6.627 -11.963  1.00  0.00    +0.0278  H
ATOM     54 H65  NAC L   1     -10.588  -5.743 -12.364  1.00  0.00    +0.0278  H
ATOM     55 H66  NAC L   1      -8.893  -3.024 -12.066  1.00  0.00    +0.0623  H
ENDBRANCH 37 43
ENDBRANCH 36 37
ENDBRANCH 33 36
ENDBRANCH 23 33
ENDBRANCH 21 26
BRANCH 21 56
ATOM     56 C15  NAC L   1      -1.552  -5.996 -10.508  1.00  0.00    +0.0334  C
ATOM     57 H48  NAC L   1      -2.438  -5.707  -9.929  1.00  0.00    +0.0497  H
ATOM     58 H49  NAC L   1      -0.737  -5.333 -10.196  1.00  0.00    +0.0497  H
BRANCH 56 59
ATOM     59 N16  NAC L   1      -1.200  -7.332 -10.035  1.00  0.00    -0.3551  N
ATOM     60 C17  NAC L   1       0.017  -7.686  -9.505  1.00  0.00    +0.2179  C
ATOM     61 C18  NAC L   1       0.071  -9.103  -9.002  1.00  0.00    +0.0143  C
ATOM     62 O19  NAC L   1       0.999  -6.950  -9.496  1.00  0.00    -0.2736 OA
ATOM     63 H50  NAC L   1      -1.944  -8.021 -10.026  1.00  0.00    +0.1623 HD
ATOM     64 H51  NAC L   1       0.309  -9.771  -9.835  1.00  0.00    +0.0325  H
ATOM     65 H52  NAC L   1      -0.886  -9.397  -8.563  1.00  0.00    +0.0325  H
ATOM     66 H53  NAC L   1       0.846  -9.186  -8.235  1.00  0.00    +0.0325  H
ENDBRANCH 56 59
ENDBRANCH 21 56
ENDBRANCH 17 21
ENDBRANCH 1 19
TORSDOF 9
ENDMDL
MODEL 8
REMARK VINA RESULT:    -6.895      3.453      9.030
REMARK INTER + INTRA:         -11.916
REMARK INTER:                 -10.735
REMARK INTRA:                  -1.182
REMARK UNBOUND:                -1.394
ROOT
ATOM      1 C23  NAC L   1      -6.504  -5.370 -13.887  1.00  0.00    +0.0423  A
ATOM      2 C24  NAC L   1      -6.753  -4.741 -12.662  1.00  0.00    -0.0377  A
ATOM      3 C25  NAC L   1      -7.397  -3.502 -12.616  1.00  0.00    -0.0506  A
ATOM      4 C26  NAC L   1      -7.807  -2.871 -13.801  1.00  0.00    +0.0004  A
ATOM      5 C27  NAC L   1      -8.454  -1.634 -13.821  1.00  0.00    +0.0353  A
ATOM      6 N28  NAC L   1      -8.863  -0.999 -14.944  1.00  0.00    -0.2626 NA
ATOM      7 C29  NAC L   1      -8.619  -1.628 -16.112  1.00  0.00    +0.0281  A
ATOM      8 C30  NAC L   1      -7.986  -2.856 -16.211  1.00  0.00    -0.0358  A
ATOM      9 C31  NAC L   1      -7.567  -3.498 -15.038  1.00  0.00    -0.0131  A
ATOM     10 C32  NAC L   1      -6.916  -4.746 -15.067  1.00  0.00    -0.0305  A
ATOM     11 H55  NAC L   1      -6.445  -5.204 -11.728  1.00  0.00    +0.0638  H
ATOM     12 H56  NAC L   1      -7.577  -3.033 -11.651  1.00  0.00    +0.0625  H
ATOM     13 H57  NAC L   1      -8.670  -1.098 -12.901  1.00  0.00    +0.0836  H
ATOM     14 H58  NAC L   1      -8.957  -1.102 -17.000  1.00  0.00    +0.0830  H
ATOM     15 H59  NAC L   1      -7.823  -3.303 -17.186  1.00  0.00    +0.0639  H
ATOM     16 H60  NAC L   1      -6.750  -5.219 -16.030  1.00  0.00    +0.0644  H
ENDROOT
BRANCH 1 19
ATOM     17 C20  NAC L   1      -6.402  -7.881 -14.000  1.00  0.00    +0.2344  C
ATOM     18 O21  NAC L   1      -7.571  -8.115 -14.300  1.00  0.00    -0.2722 OA
ATOM     19 N22  NAC L   1      -5.850  -6.616 -13.841  1.00  0.00    -0.3256  N
ATOM     20 H54  NAC L   1      -4.835  -6.584 -13.748  1.00  0.00    +0.1686 HD
BRANCH 17 21
ATOM     21 C14  NAC L   1      -5.365  -8.998 -13.817  1.00  0.00    +0.0803  C
ATOM     22 H47  NAC L   1      -5.018  -9.302 -14.811  1.00  0.00    +0.0463  H
BRANCH 21 26
ATOM     23 C10  NAC L   1      -1.856  -7.662 -11.612  1.00  0.00    -0.0103  A
ATOM     24 C11  NAC L   1      -1.758  -7.962 -12.975  1.00  0.00    -0.0551  A
ATOM     25 C12  NAC L   1      -2.876  -8.400 -13.689  1.00  0.00    -0.0574  A
ATOM     26 C13  NAC L   1      -4.121  -8.542 -13.059  1.00  0.00    -0.0336  A
ATOM     27 C33  NAC L   1      -4.216  -8.227 -11.694  1.00  0.00    -0.0574  A
ATOM     28 C34  NAC L   1      -3.098  -7.789 -10.980  1.00  0.00    -0.0551  A
ATOM     29 H45  NAC L   1      -0.805  -7.855 -13.493  1.00  0.00    +0.0621  H
ATOM     30 H46  NAC L   1      -2.756  -8.643 -14.743  1.00  0.00    +0.0621  H
ATOM     31 H61  NAC L   1      -5.167  -8.315 -11.170  1.00  0.00    +0.0621  H
ATOM     32 H62  NAC L   1      -3.202  -7.542  -9.926  1.00  0.00    +0.0621  H
BRANCH 23 33
ATOM     33  C9  NAC L   1      -0.653  -7.174 -10.848  1.00  0.00    +0.1179  C
ATOM     34 H43  NAC L   1      -0.336  -7.896 -10.084  1.00  0.00    +0.0749  H
ATOM     35 H44  NAC L   1      -0.912  -6.257 -10.305  1.00  0.00    +0.0749  H
BRANCH 33 36
ATOM     36  O8  NAC L   1       0.397  -6.849 -11.765  1.00  0.00    -0.4564 OA
BRANCH 36 37
ATOM     37  C6  NAC L   1       0.945  -5.622 -11.612  1.00  0.00    +0.3398  C
ATOM     38  O7  NAC L   1       0.646  -4.784 -10.776  1.00  0.00    -0.2449 OA
BRANCH 37 43
ATOM     39  C1  NAC L   1       5.438  -5.242 -15.245  1.00  0.00    -0.0397  C
ATOM     40  C2  NAC L   1       4.280  -5.297 -14.292  1.00  0.00    -0.0502  A
ATOM     41  C3  NAC L   1       4.255  -6.239 -13.262  1.00  0.00    -0.0580  A
ATOM     42  C4  NAC L   1       3.160  -6.312 -12.402  1.00  0.00    -0.0473  A
ATOM     43  C5  NAC L   1       2.064  -5.451 -12.570  1.00  0.00    +0.0619  A
ATOM     44 C35  NAC L   1       2.079  -4.481 -13.590  1.00  0.00    -0.0362  A
ATOM     45 C36  NAC L   1       0.955  -3.506 -13.804  1.00  0.00    -0.0389  C
ATOM     46 C37  NAC L   1       3.186  -4.433 -14.457  1.00  0.00    -0.0551  A
ATOM     47 H38  NAC L   1       5.602  -4.220 -15.602  1.00  0.00    +0.0278  H
ATOM     48 H39  NAC L   1       6.363  -5.566 -14.757  1.00  0.00    +0.0278  H
ATOM     49 H40  NAC L   1       5.246  -5.891 -16.105  1.00  0.00    +0.0278  H
ATOM     50 H41  NAC L   1       5.088  -6.925 -13.121  1.00  0.00    +0.0620  H
ATOM     51 H42  NAC L   1       3.154  -7.049 -11.602  1.00  0.00    +0.0626  H
ATOM     52 H63  NAC L   1       1.288  -2.641 -14.391  1.00  0.00    +0.0278  H
ATOM     53 H64  NAC L   1       0.590  -3.111 -12.850  1.00  0.00    +0.0278  H
ATOM     54 H65  NAC L   1       0.133  -3.985 -14.344  1.00  0.00    +0.0278  H
ATOM     55 H66  NAC L   1       3.203  -3.707 -15.268  1.00  0.00    +0.0623  H
ENDBRANCH 37 43
ENDBRANCH 36 37
ENDBRANCH 33 36
ENDBRANCH 23 33
ENDBRANCH 21 26
BRANCH 21 56
ATOM     56 C15  NAC L   1      -6.021 -10.220 -13.146  1.00  0.00    +0.0334  C
ATOM     57 H48  NAC L   1      -5.394 -10.592 -12.326  1.00  0.00    +0.0497  H
ATOM     58 H49  NAC L   1      -6.109 -11.036 -13.873  1.00  0.00    +0.0497  H
BRANCH 56 59
ATOM     59 N16  NAC L   1      -7.349 -10.040 -12.566  1.00  0.00    -0.3551  N
ATOM     60 C17  NAC L   1      -7.623  -9.996 -11.221  1.00  0.00    +0.2179  C
ATOM     61 C18  NAC L   1      -9.063  -9.696 -10.904  1.00  0.00    +0.0143  C
ATOM     62 O19  NAC L   1      -6.798 -10.243 -10.346  1.00  0.00    -0.2736 OA
ATOM     63 H50  NAC L   1      -8.106  -9.852 -13.214  1.00  0.00    +0.1623 HD
ATOM     64 H51  NAC L   1      -9.637 -10.626 -10.928  1.00  0.00    +0.0325  H
ATOM     65 H52  NAC L   1      -9.483  -8.992 -11.628  1.00  0.00    +0.0325  H
ATOM     66 H53  NAC L   1      -9.130  -9.251  -9.908  1.00  0.00    +0.0325  H
ENDBRANCH 56 59
ENDBRANCH 21 56
ENDBRANCH 17 21
ENDBRANCH 1 19
TORSDOF 9
ENDMDL
MODEL 9
REMARK VINA RESULT:    -6.835      3.504      6.522
REMARK INTER + INTRA:         -11.825
REMARK INTER:                  -9.620
REMARK INTRA:                  -2.206
REMARK UNBOUND:                -1.394
ROOT
ATOM      1 C23  NAC L   1       0.053  -6.553 -12.849  1.00  0.00    +0.0423  A
ATOM      2 C24  NAC L   1       0.202  -5.202 -13.181  1.00  0.00    -0.0377  A
ATOM      3 C25  NAC L   1       1.457  -4.684 -13.514  1.00  0.00    -0.0506  A
ATOM      4 C26  NAC L   1       2.587  -5.517 -13.522  1.00  0.00    +0.0004  A
ATOM      5 C27  NAC L   1       3.867  -5.060 -13.846  1.00  0.00    +0.0353  A
ATOM      6 N28  NAC L   1       4.977  -5.834 -13.864  1.00  0.00    -0.2626 NA
ATOM      7 C29  NAC L   1       4.807  -7.134 -13.548  1.00  0.00    +0.0281  A
ATOM      8 C30  NAC L   1       3.586  -7.696 -13.212  1.00  0.00    -0.0358  A
ATOM      9 C31  NAC L   1       2.447  -6.879 -13.195  1.00  0.00    -0.0131  A
ATOM     10 C32  NAC L   1       1.176  -7.383 -12.862  1.00  0.00    -0.0305  A
ATOM     11 H55  NAC L   1      -0.654  -4.533 -13.182  1.00  0.00    +0.0638  H
ATOM     12 H56  NAC L   1       1.547  -3.630 -13.767  1.00  0.00    +0.0625  H
ATOM     13 H57  NAC L   1       4.043  -4.021 -14.108  1.00  0.00    +0.0836  H
ATOM     14 H58  NAC L   1       5.710  -7.738 -13.570  1.00  0.00    +0.0830  H
ATOM     15 H59  NAC L   1       3.524  -8.751 -12.968  1.00  0.00    +0.0639  H
ATOM     16 H60  NAC L   1       1.087  -8.439 -12.623  1.00  0.00    +0.0644  H
ENDROOT
BRANCH 1 19
ATOM     17 C20  NAC L   1      -1.823  -7.109 -11.269  1.00  0.00    +0.2344  C
ATOM     18 O21  NAC L   1      -1.303  -6.762 -10.211  1.00  0.00    -0.2722 OA
ATOM     19 N22  NAC L   1      -1.246  -6.989 -12.527  1.00  0.00    -0.3256  N
ATOM     20 H54  NAC L   1      -1.864  -7.175 -13.317  1.00  0.00    +0.1686 HD
BRANCH 17 21
ATOM     21 C14  NAC L   1      -3.245  -7.684 -11.331  1.00  0.00    +0.0803  C
ATOM     22 H47  NAC L   1      -3.620  -7.770 -10.305  1.00  0.00    +0.0463  H
BRANCH 21 26
ATOM     23 C10  NAC L   1      -6.032  -5.112 -13.472  1.00  0.00    -0.0103  A
ATOM     24 C11  NAC L   1      -5.418  -4.660 -12.299  1.00  0.00    -0.0551  A
ATOM     25 C12  NAC L   1      -4.529  -5.481 -11.600  1.00  0.00    -0.0574  A
ATOM     26 C13  NAC L   1      -4.228  -6.772 -12.061  1.00  0.00    -0.0336  A
ATOM     27 C33  NAC L   1      -4.838  -7.214 -13.246  1.00  0.00    -0.0574  A
ATOM     28 C34  NAC L   1      -5.726  -6.393 -13.945  1.00  0.00    -0.0551  A
ATOM     29 H45  NAC L   1      -5.627  -3.661 -11.920  1.00  0.00    +0.0621  H
ATOM     30 H46  NAC L   1      -4.086  -5.102 -10.681  1.00  0.00    +0.0621  H
ATOM     31 H61  NAC L   1      -4.624  -8.205 -13.642  1.00  0.00    +0.0621  H
ATOM     32 H62  NAC L   1      -6.177  -6.757 -14.866  1.00  0.00    +0.0621  H
BRANCH 23 33
ATOM     33  C9  NAC L   1      -6.977  -4.219 -14.233  1.00  0.00    +0.1179  C
ATOM     34 H43  NAC L   1      -6.460  -3.353 -14.666  1.00  0.00    +0.0749  H
ATOM     35 H44  NAC L   1      -7.725  -3.808 -13.545  1.00  0.00    +0.0749  H
BRANCH 33 36
ATOM     36  O8  NAC L   1      -7.675  -4.990 -15.218  1.00  0.00    -0.4564 OA
BRANCH 36 37
ATOM     37  C6  NAC L   1      -9.000  -5.150 -14.999  1.00  0.00    +0.3398  C
ATOM     38  O7  NAC L   1      -9.905  -4.463 -15.446  1.00  0.00    -0.2449 OA
BRANCH 37 43
ATOM     39  C1  NAC L   1      -9.800 -10.094 -12.093  1.00  0.00    -0.0397  C
ATOM     40  C2  NAC L   1      -9.632  -8.797 -12.830  1.00  0.00    -0.0502  A
ATOM     41  C3  NAC L   1      -9.426  -8.791 -14.211  1.00  0.00    -0.0580  A
ATOM     42  C4  NAC L   1      -9.233  -7.586 -14.887  1.00  0.00    -0.0473  A
ATOM     43  C5  NAC L   1      -9.229  -6.370 -14.188  1.00  0.00    +0.0619  A
ATOM     44 C35  NAC L   1      -9.456  -6.354 -12.798  1.00  0.00    -0.0362  A
ATOM     45 C36  NAC L   1      -9.499  -5.085 -11.994  1.00  0.00    -0.0389  C
ATOM     46 C37  NAC L   1      -9.633  -7.581 -12.132  1.00  0.00    -0.0551  A
ATOM     47 H38  NAC L   1     -10.453  -9.967 -11.223  1.00  0.00    +0.0278  H
ATOM     48 H39  NAC L   1     -10.258 -10.853 -12.734  1.00  0.00    +0.0278  H
ATOM     49 H40  NAC L   1      -8.825 -10.459 -11.753  1.00  0.00    +0.0278  H
ATOM     50 H41  NAC L   1      -9.411  -9.723 -14.772  1.00  0.00    +0.0620  H
ATOM     51 H42  NAC L   1      -9.075  -7.596 -15.964  1.00  0.00    +0.0626  H
ATOM     52 H63  NAC L   1     -10.014  -5.240 -11.038  1.00  0.00    +0.0278  H
ATOM     53 H64  NAC L   1     -10.056  -4.304 -12.523  1.00  0.00    +0.0278  H
ATOM     54 H65  NAC L   1      -8.485  -4.736 -11.779  1.00  0.00    +0.0278  H
ATOM     55 H66  NAC L   1      -9.784  -7.589 -11.053  1.00  0.00    +0.0623  H
ENDBRANCH 37 43
ENDBRANCH 36 37
ENDBRANCH 33 36
ENDBRANCH 23 33
ENDBRANCH 21 26
BRANCH 21 56
ATOM     56 C15  NAC L   1      -3.217  -9.095 -11.950  1.00  0.00    +0.0334  C
ATOM     57 H48  NAC L   1      -2.197  -9.499 -11.942  1.00  0.00    +0.0497  H
ATOM     58 H49  NAC L   1      -3.531  -9.043 -12.999  1.00  0.00    +0.0497  H
BRANCH 56 59
ATOM     59 N16  NAC L   1      -4.045 -10.123 -11.324  1.00  0.00    -0.3551  N
ATOM     60 C17  NAC L   1      -5.103 -10.758 -11.925  1.00  0.00    +0.2179  C
ATOM     61 C18  NAC L   1      -5.713 -11.849 -11.088  1.00  0.00    +0.0143  C
ATOM     62 O19  NAC L   1      -5.564 -10.435 -13.016  1.00  0.00    -0.2736 OA
ATOM     63 H50  NAC L   1      -3.756 -10.441 -10.406  1.00  0.00    +0.1623 HD
ATOM     64 H51  NAC L   1      -6.445 -11.409 -10.404  1.00  0.00    +0.0325  H
ATOM     65 H52  NAC L   1      -4.946 -12.371 -10.510  1.00  0.00    +0.0325  H
ATOM     66 H53  NAC L   1      -6.210 -12.572 -11.739  1.00  0.00    +0.0325  H
ENDBRANCH 56 59
ENDBRANCH 21 56
ENDBRANCH 17 21
ENDBRANCH 1 19
TORSDOF 9
ENDMDL
MODEL 10
REMARK VINA RESULT:    -6.816      3.084      8.458
REMARK INTER + INTRA:         -11.796
REMARK INTER:                 -10.354
REMARK INTRA:                  -1.443
REMARK UNBOUND:                -1.394
ROOT
ATOM      1 C23  NAC L   1      -6.166  -5.760 -13.664  1.00  0.00    +0.0423  A
ATOM      2 C24  NAC L   1      -6.547  -5.156 -12.461  1.00  0.00    -0.0377  A
ATOM      3 C25  NAC L   1      -7.287  -3.971 -12.461  1.00  0.00    -0.0506  A
ATOM      4 C26  NAC L   1      -7.662  -3.371 -13.674  1.00  0.00    +0.0004  A
ATOM      5 C27  NAC L   1      -8.401  -2.187 -13.740  1.00  0.00    +0.0353  A
ATOM      6 N28  NAC L   1      -8.780  -1.582 -14.889  1.00  0.00    -0.2626 NA
ATOM      7 C29  NAC L   1      -8.408  -2.186 -16.037  1.00  0.00    +0.0281  A
ATOM      8 C30  NAC L   1      -7.675  -3.361 -16.090  1.00  0.00    -0.0358  A
ATOM      9 C31  NAC L   1      -7.289  -3.973 -14.890  1.00  0.00    -0.0131  A
ATOM     10 C32  NAC L   1      -6.544  -5.166 -14.871  1.00  0.00    -0.0305  A
ATOM     11 H55  NAC L   1      -6.269  -5.598 -11.507  1.00  0.00    +0.0638  H
ATOM     12 H56  NAC L   1      -7.569  -3.521 -11.512  1.00  0.00    +0.0625  H
ATOM     13 H57  NAC L   1      -8.720  -1.672 -12.838  1.00  0.00    +0.0836  H
ATOM     14 H58  NAC L   1      -8.723  -1.685 -16.947  1.00  0.00    +0.0830  H
ATOM     15 H59  NAC L   1      -7.411  -3.790 -17.051  1.00  0.00    +0.0639  H
ATOM     16 H60  NAC L   1      -6.275  -5.622 -15.820  1.00  0.00    +0.0644  H
ENDROOT
BRANCH 1 19
ATOM     17 C20  NAC L   1      -5.812  -8.237 -13.928  1.00  0.00    +0.2344  C
ATOM     18 O21  NAC L   1      -6.871  -8.533 -14.477  1.00  0.00    -0.2722 OA
ATOM     19 N22  NAC L   1      -5.422  -6.952 -13.571  1.00  0.00    -0.3256  N
ATOM     20 H54  NAC L   1      -4.453  -6.851 -13.269  1.00  0.00    +0.1686 HD
BRANCH 17 21
ATOM     21 C14  NAC L   1      -4.734  -9.283 -13.613  1.00  0.00    +0.0803  C
ATOM     22 H47  NAC L   1      -4.491  -9.808 -14.543  1.00  0.00    +0.0463  H
BRANCH 21 26
ATOM     23 C10  NAC L   1      -1.035  -7.494 -12.172  1.00  0.00    -0.0103  A
ATOM     24 C11  NAC L   1      -1.198  -7.773 -13.533  1.00  0.00    -0.0551  A
ATOM     25 C12  NAC L   1      -2.377  -8.355 -14.004  1.00  0.00    -0.0574  A
ATOM     26 C13  NAC L   1      -3.426  -8.666 -13.125  1.00  0.00    -0.0336  A
ATOM     27 C33  NAC L   1      -3.261  -8.373 -11.762  1.00  0.00    -0.0574  A
ATOM     28 C34  NAC L   1      -2.082  -7.791 -11.291  1.00  0.00    -0.0551  A
ATOM     29 H45  NAC L   1      -0.404  -7.536 -14.240  1.00  0.00    +0.0621  H
ATOM     30 H46  NAC L   1      -2.460  -8.574 -15.067  1.00  0.00    +0.0621  H
ATOM     31 H61  NAC L   1      -4.054  -8.591 -11.049  1.00  0.00    +0.0621  H
ATOM     32 H62  NAC L   1      -1.985  -7.565 -10.232  1.00  0.00    +0.0621  H
BRANCH 23 33
ATOM     33  C9  NAC L   1       0.231  -6.852 -11.669  1.00  0.00    +0.1179  C
ATOM     34 H43  NAC L   1       0.637  -7.379 -10.795  1.00  0.00    +0.0749  H
ATOM     35 H44  NAC L   1       0.014  -5.832 -11.329  1.00  0.00    +0.0749  H
BRANCH 33 36
ATOM     36  O8  NAC L   1       1.177  -6.757 -12.739  1.00  0.00    -0.4564 OA
BRANCH 36 37
ATOM     37  C6  NAC L   1       2.096  -5.770 -12.619  1.00  0.00    +0.3398  C
ATOM     38  O7  NAC L   1       3.191  -5.849 -12.087  1.00  0.00    -0.2449 OA
BRANCH 37 43
ATOM     39  C1  NAC L   1       0.211  -0.880 -15.082  1.00  0.00    -0.0397  C
ATOM     40  C2  NAC L   1       0.671  -2.171 -14.470  1.00  0.00    -0.0502  A
ATOM     41  C3  NAC L   1       0.594  -2.367 -13.090  1.00  0.00    -0.0580  A
ATOM     42  C4  NAC L   1       1.058  -3.553 -12.521  1.00  0.00    -0.0473  A
ATOM     43  C5  NAC L   1       1.620  -4.556 -13.325  1.00  0.00    +0.0619  A
ATOM     44 C35  NAC L   1       1.688  -4.386 -14.721  1.00  0.00    -0.0362  A
ATOM     45 C36  NAC L   1       2.245  -5.434 -15.644  1.00  0.00    -0.0389  C
ATOM     46 C37  NAC L   1       1.229  -3.176 -15.275  1.00  0.00    -0.0551  A
ATOM     47 H38  NAC L   1      -0.175  -1.044 -16.094  1.00  0.00    +0.0278  H
ATOM     48 H39  NAC L   1      -0.598  -0.435 -14.495  1.00  0.00    +0.0278  H
ATOM     49 H40  NAC L   1       1.044  -0.172 -15.131  1.00  0.00    +0.0278  H
ATOM     50 H41  NAC L   1       0.175  -1.597 -12.446  1.00  0.00    +0.0620  H
ATOM     51 H42  NAC L   1       0.990  -3.693 -11.444  1.00  0.00    +0.0626  H
ATOM     52 H63  NAC L   1       1.905  -5.275 -16.674  1.00  0.00    +0.0278  H
ATOM     53 H64  NAC L   1       1.903  -6.434 -15.355  1.00  0.00    +0.0278  H
ATOM     54 H65  NAC L   1       3.338  -5.402 -15.640  1.00  0.00    +0.0278  H
ATOM     55 H66  NAC L   1       1.298  -3.017 -16.350  1.00  0.00    +0.0623  H
ENDBRANCH 37 43
ENDBRANCH 36 37
ENDBRANCH 33 36
ENDBRANCH 23 33
ENDBRANCH 21 26
BRANCH 21 56
ATOM     56 C15  NAC L   1      -5.281 -10.317 -12.609  1.00  0.00    +0.0334  C
ATOM     57 H48  NAC L   1      -4.751 -10.242 -11.651  1.00  0.00    +0.0497  H
ATOM     58 H49  NAC L   1      -5.103 -11.329 -12.991  1.00  0.00    +0.0497  H
BRANCH 56 59
ATOM     59 N16  NAC L   1      -6.700 -10.247 -12.273  1.00  0.00    -0.3551  N
ATOM     60 C17  NAC L   1      -7.208 -10.199 -10.998  1.00  0.00    +0.2179  C
ATOM     61 C18  NAC L   1      -8.701 -10.025 -10.945  1.00  0.00    +0.0143  C
ATOM     62 O19  NAC L   1      -6.530 -10.350  -9.986  1.00  0.00    -0.2736 OA
ATOM     63 H50  NAC L   1      -7.345 -10.143 -13.048  1.00  0.00    +0.1623 HD
ATOM     64 H51  NAC L   1      -9.180 -11.004 -11.033  1.00  0.00    +0.0325  H
ATOM     65 H52  NAC L   1      -9.047  -9.378 -11.755  1.00  0.00    +0.0325  H
ATOM     66 H53  NAC L   1      -8.979  -9.567  -9.992  1.00  0.00    +0.0325  H
ENDBRANCH 56 59
ENDBRANCH 21 56
ENDBRANCH 17 21
ENDBRANCH 1 19
TORSDOF 9
ENDMDL
MODEL 11
REMARK VINA RESULT:    -6.562      3.045      8.739
REMARK INTER + INTRA:         -11.408
REMARK INTER:                 -10.240
REMARK INTRA:                  -1.168
REMARK UNBOUND:                -1.394
ROOT
ATOM      1 C23  NAC L   1      -3.191  -8.068 -12.521  1.00  0.00    +0.0423  A
ATOM      2 C24  NAC L   1      -4.202  -7.343 -13.160  1.00  0.00    -0.0377  A
ATOM      3 C25  NAC L   1      -5.544  -7.699 -13.001  1.00  0.00    -0.0506  A
ATOM      4 C26  NAC L   1      -5.896  -8.792 -12.192  1.00  0.00    +0.0004  A
ATOM      5 C27  NAC L   1      -7.218  -9.197 -11.993  1.00  0.00    +0.0353  A
ATOM      6 N28  NAC L   1      -7.592 -10.243 -11.221  1.00  0.00    -0.2626 NA
ATOM      7 C29  NAC L   1      -6.600 -10.923 -10.610  1.00  0.00    +0.0281  A
ATOM      8 C30  NAC L   1      -5.257 -10.610 -10.735  1.00  0.00    -0.0358  A
ATOM      9 C31  NAC L   1      -4.887  -9.524 -11.540  1.00  0.00    -0.0131  A
ATOM     10 C32  NAC L   1      -3.540  -9.152 -11.712  1.00  0.00    -0.0305  A
ATOM     11 H55  NAC L   1      -3.960  -6.493 -13.794  1.00  0.00    +0.0638  H
ATOM     12 H56  NAC L   1      -6.312  -7.120 -13.510  1.00  0.00    +0.0625  H
ATOM     13 H57  NAC L   1      -8.043  -8.674 -12.467  1.00  0.00    +0.0836  H
ATOM     14 H58  NAC L   1      -6.922 -11.758  -9.994  1.00  0.00    +0.0830  H
ATOM     15 H59  NAC L   1      -4.512 -11.202 -10.212  1.00  0.00    +0.0639  H
ATOM     16 H60  NAC L   1      -2.776  -9.723 -11.192  1.00  0.00    +0.0644  H
ENDROOT
BRANCH 1 19
ATOM     17 C20  NAC L   1      -1.125  -6.736 -11.988  1.00  0.00    +0.2344  C
ATOM     18 O21  NAC L   1      -1.490  -6.214 -10.937  1.00  0.00    -0.2722 OA
ATOM     19 N22  NAC L   1      -1.867  -7.640 -12.737  1.00  0.00    -0.3256  N
ATOM     20 H54  NAC L   1      -1.367  -8.102 -13.497  1.00  0.00    +0.1686 HD
BRANCH 17 21
ATOM     21 C14  NAC L   1       0.265  -6.484 -12.587  1.00  0.00    +0.0803  C
ATOM     22 H47  NAC L   1       0.405  -7.181 -13.421  1.00  0.00    +0.0463  H
BRANCH 21 26
ATOM     23 C10  NAC L   1       0.652  -2.473 -14.237  1.00  0.00    -0.0103  A
ATOM     24 C11  NAC L   1       0.940  -3.590 -15.029  1.00  0.00    -0.0551  A
ATOM     25 C12  NAC L   1       0.828  -4.880 -14.506  1.00  0.00    -0.0574  A
ATOM     26 C13  NAC L   1       0.418  -5.086 -13.180  1.00  0.00    -0.0336  A
ATOM     27 C33  NAC L   1       0.118  -3.961 -12.394  1.00  0.00    -0.0574  A
ATOM     28 C34  NAC L   1       0.230  -2.671 -12.917  1.00  0.00    -0.0551  A
ATOM     29 H45  NAC L   1       1.254  -3.461 -16.064  1.00  0.00    +0.0621  H
ATOM     30 H46  NAC L   1       1.079  -5.723 -15.147  1.00  0.00    +0.0621  H
ATOM     31 H61  NAC L   1      -0.212  -4.078 -11.364  1.00  0.00    +0.0621  H
ATOM     32 H62  NAC L   1      -0.018  -1.818 -12.290  1.00  0.00    +0.0621  H
BRANCH 23 33
ATOM     33  C9  NAC L   1       0.758  -1.083 -14.808  1.00  0.00    +0.1179  C
ATOM     34 H43  NAC L   1       0.547  -1.067 -15.885  1.00  0.00    +0.0749  H
ATOM     35 H44  NAC L   1       1.787  -0.720 -14.699  1.00  0.00    +0.0749  H
BRANCH 33 36
ATOM     36  O8  NAC L   1      -0.091  -0.196 -14.070  1.00  0.00    -0.4564 OA
BRANCH 36 37
ATOM     37  C6  NAC L   1       0.539   0.819 -13.435  1.00  0.00    +0.3398  C
ATOM     38  O7  NAC L   1       1.237   0.738 -12.437  1.00  0.00    -0.2449 OA
BRANCH 37 43
ATOM     39  C1  NAC L   1      -0.529   5.787 -16.211  1.00  0.00    -0.0397  C
ATOM     40  C2  NAC L   1      -0.241   4.480 -15.531  1.00  0.00    -0.0502  A
ATOM     41  C3  NAC L   1      -1.222   3.852 -14.761  1.00  0.00    -0.0580  A
ATOM     42  C4  NAC L   1      -0.938   2.657 -14.100  1.00  0.00    -0.0473  A
ATOM     43  C5  NAC L   1       0.338   2.081 -14.188  1.00  0.00    +0.0619  A
ATOM     44 C35  NAC L   1       1.335   2.688 -14.975  1.00  0.00    -0.0362  A
ATOM     45 C36  NAC L   1       2.711   2.106 -15.141  1.00  0.00    -0.0389  C
ATOM     46 C37  NAC L   1       1.034   3.901 -15.622  1.00  0.00    -0.0551  A
ATOM     47 H38  NAC L   1       0.045   5.879 -17.139  1.00  0.00    +0.0278  H
ATOM     48 H39  NAC L   1      -1.588   5.866 -16.475  1.00  0.00    +0.0278  H
ATOM     49 H40  NAC L   1      -0.267   6.618 -15.549  1.00  0.00    +0.0278  H
ATOM     50 H41  NAC L   1      -2.214   4.288 -14.668  1.00  0.00    +0.0620  H
ATOM     51 H42  NAC L   1      -1.713   2.177 -13.506  1.00  0.00    +0.0626  H
ATOM     52 H63  NAC L   1       3.208   2.513 -16.029  1.00  0.00    +0.0278  H
ATOM     53 H64  NAC L   1       2.664   1.021 -15.280  1.00  0.00    +0.0278  H
ATOM     54 H65  NAC L   1       3.330   2.341 -14.270  1.00  0.00    +0.0278  H
ATOM     55 H66  NAC L   1       1.801   4.399 -16.214  1.00  0.00    +0.0623  H
ENDBRANCH 37 43
ENDBRANCH 36 37
ENDBRANCH 33 36
ENDBRANCH 23 33
ENDBRANCH 21 26
BRANCH 21 56
ATOM     56 C15  NAC L   1       1.353  -6.773 -11.535  1.00  0.00    +0.0334  C
ATOM     57 H48  NAC L   1       1.383  -7.843 -11.296  1.00  0.00    +0.0497  H
ATOM     58 H49  NAC L   1       1.112  -6.247 -10.603  1.00  0.00    +0.0497  H
BRANCH 56 59
ATOM     59 N16  NAC L   1       2.728  -6.412 -11.868  1.00  0.00    -0.3551  N
ATOM     60 C17  NAC L   1       3.496  -7.029 -12.824  1.00  0.00    +0.2179  C
ATOM     61 C18  NAC L   1       4.840  -6.386 -13.032  1.00  0.00    +0.0143  C
ATOM     62 O19  NAC L   1       3.161  -8.050 -13.417  1.00  0.00    -0.2736 OA
ATOM     63 H50  NAC L   1       3.105  -5.590 -11.410  1.00  0.00    +0.1623 HD
ATOM     64 H51  NAC L   1       5.546  -6.783 -12.297  1.00  0.00    +0.0325  H
ATOM     65 H52  NAC L   1       4.774  -5.300 -12.920  1.00  0.00    +0.0325  H
ATOM     66 H53  NAC L   1       5.199  -6.610 -14.040  1.00  0.00    +0.0325  H
ENDBRANCH 56 59
ENDBRANCH 21 56
ENDBRANCH 17 21
ENDBRANCH 1 19
TORSDOF 9
ENDMDL
MODEL 12
REMARK VINA RESULT:    -6.517      3.615      9.328
REMARK INTER + INTRA:         -11.340
REMARK INTER:                  -9.965
REMARK INTRA:                  -1.376
REMARK UNBOUND:                -1.394
ROOT
ATOM      1 C23  NAC L   1      -1.448  -6.719 -12.923  1.00  0.00    +0.0423  A
ATOM      2 C24  NAC L   1      -2.016  -6.149 -11.778  1.00  0.00    -0.0377  A
ATOM      3 C25  NAC L   1      -3.076  -6.777 -11.120  1.00  0.00    -0.0506  A
ATOM      4 C26  NAC L   1      -3.586  -7.995 -11.598  1.00  0.00    +0.0004  A
ATOM      5 C27  NAC L   1      -4.643  -8.671 -10.985  1.00  0.00    +0.0353  A
ATOM      6 N28  NAC L   1      -5.158  -9.845 -11.419  1.00  0.00    -0.2626 NA
ATOM      7 C29  NAC L   1      -4.590 -10.379 -12.519  1.00  0.00    +0.0281  A
ATOM      8 C30  NAC L   1      -3.538  -9.797 -13.207  1.00  0.00    -0.0358  A
ATOM      9 C31  NAC L   1      -3.018  -8.580 -12.745  1.00  0.00    -0.0131  A
ATOM     10 C32  NAC L   1      -1.951  -7.934 -13.396  1.00  0.00    -0.0305  A
ATOM     11 H55  NAC L   1      -1.643  -5.206 -11.385  1.00  0.00    +0.0638  H
ATOM     12 H56  NAC L   1      -3.501  -6.312 -10.232  1.00  0.00    +0.0625  H
ATOM     13 H57  NAC L   1      -5.124  -8.273 -10.096  1.00  0.00    +0.0836  H
ATOM     14 H58  NAC L   1      -5.017 -11.322 -12.849  1.00  0.00    +0.0830  H
ATOM     15 H59  NAC L   1      -3.131 -10.285 -14.086  1.00  0.00    +0.0639  H
ATOM     16 H60  NAC L   1      -1.519  -8.407 -14.274  1.00  0.00    +0.0644  H
ENDROOT
BRANCH 1 19
ATOM     17 C20  NAC L   1       0.911  -5.856 -13.047  1.00  0.00    +0.2344  C
ATOM     18 O21  NAC L   1       1.372  -6.386 -12.039  1.00  0.00    -0.2722 OA
ATOM     19 N22  NAC L   1      -0.384  -6.019 -13.522  1.00  0.00    -0.3256  N
ATOM     20 H54  NAC L   1      -0.566  -5.642 -14.453  1.00  0.00    +0.1686 HD
BRANCH 17 21
ATOM     21 C14  NAC L   1       1.762  -4.968 -13.965  1.00  0.00    +0.0803  C
ATOM     22 H47  NAC L   1       1.669  -5.351 -14.987  1.00  0.00    +0.0463  H
BRANCH 21 26
ATOM     23 C10  NAC L   1       0.349  -0.850 -14.047  1.00  0.00    -0.0103  A
ATOM     24 C11  NAC L   1       0.617  -1.525 -15.243  1.00  0.00    -0.0551  A
ATOM     25 C12  NAC L   1       1.079  -2.844 -15.227  1.00  0.00    -0.0574  A
ATOM     26 C13  NAC L   1       1.279  -3.521 -14.014  1.00  0.00    -0.0336  A
ATOM     27 C33  NAC L   1       0.996  -2.842 -12.818  1.00  0.00    -0.0574  A
ATOM     28 C34  NAC L   1       0.534  -1.524 -12.834  1.00  0.00    -0.0551  A
ATOM     29 H45  NAC L   1       0.465  -1.027 -16.200  1.00  0.00    +0.0621  H
ATOM     30 H46  NAC L   1       1.295  -3.330 -16.176  1.00  0.00    +0.0621  H
ATOM     31 H61  NAC L   1       1.129  -3.335 -11.857  1.00  0.00    +0.0621  H
ATOM     32 H62  NAC L   1       0.313  -1.025 -11.893  1.00  0.00    +0.0621  H
BRANCH 23 33
ATOM     33  C9  NAC L   1      -0.165   0.566 -14.067  1.00  0.00    +0.1179  C
ATOM     34 H43  NAC L   1      -0.791   0.785 -13.193  1.00  0.00    +0.0749  H
ATOM     35 H44  NAC L   1      -0.810   0.708 -14.942  1.00  0.00    +0.0749  H
BRANCH 33 36
ATOM     36  O8  NAC L   1       0.936   1.473 -14.193  1.00  0.00    -0.4564 OA
BRANCH 36 37
ATOM     37  C6  NAC L   1       0.909   2.275 -15.282  1.00  0.00    +0.3398  C
ATOM     38  O7  NAC L   1      -0.065   2.551 -15.965  1.00  0.00    -0.2449 OA
BRANCH 37 43
ATOM     39  C1  NAC L   1       6.251   4.306 -16.210  1.00  0.00    -0.0397  C
ATOM     40  C2  NAC L   1       4.865   3.803 -15.931  1.00  0.00    -0.0502  A
ATOM     41  C3  NAC L   1       4.606   2.431 -15.885  1.00  0.00    -0.0580  A
ATOM     42  C4  NAC L   1       3.310   1.968 -15.663  1.00  0.00    -0.0473  A
ATOM     43  C5  NAC L   1       2.249   2.872 -15.498  1.00  0.00    +0.0619  A
ATOM     44 C35  NAC L   1       2.493   4.258 -15.521  1.00  0.00    -0.0362  A
ATOM     45 C36  NAC L   1       1.409   5.280 -15.317  1.00  0.00    -0.0389  C
ATOM     46 C37  NAC L   1       3.805   4.706 -15.761  1.00  0.00    -0.0551  A
ATOM     47 H38  NAC L   1       6.427   5.263 -15.708  1.00  0.00    +0.0278  H
ATOM     48 H39  NAC L   1       7.005   3.603 -15.841  1.00  0.00    +0.0278  H
ATOM     49 H40  NAC L   1       6.390   4.440 -17.287  1.00  0.00    +0.0278  H
ATOM     50 H41  NAC L   1       5.411   1.713 -16.023  1.00  0.00    +0.0620  H
ATOM     51 H42  NAC L   1       3.123   0.897 -15.627  1.00  0.00    +0.0626  H
ATOM     52 H63  NAC L   1       1.830   6.251 -15.030  1.00  0.00    +0.0278  H
ATOM     53 H64  NAC L   1       0.736   4.982 -14.506  1.00  0.00    +0.0278  H
ATOM     54 H65  NAC L   1       0.839   5.418 -16.239  1.00  0.00    +0.0278  H
ATOM     55 H66  NAC L   1       4.007   5.775 -15.808  1.00  0.00    +0.0623  H
ENDBRANCH 37 43
ENDBRANCH 36 37
ENDBRANCH 33 36
ENDBRANCH 23 33
ENDBRANCH 21 26
BRANCH 21 56
ATOM     56 C15  NAC L   1       3.245  -5.055 -13.556  1.00  0.00    +0.0334  C
ATOM     57 H48  NAC L   1       3.395  -4.629 -12.556  1.00  0.00    +0.0497  H
ATOM     58 H49  NAC L   1       3.853  -4.461 -14.249  1.00  0.00    +0.0497  H
BRANCH 56 59
ATOM     59 N16  NAC L   1       3.855  -6.381 -13.506  1.00  0.00    -0.3551  N
ATOM     60 C17  NAC L   1       5.126  -6.649 -13.060  1.00  0.00    +0.2179  C
ATOM     61 C18  NAC L   1       5.459  -8.116 -13.020  1.00  0.00    +0.0143  C
ATOM     62 O19  NAC L   1       5.949  -5.783 -12.779  1.00  0.00    -0.2736 OA
ATOM     63 H50  NAC L   1       3.257  -7.165 -13.744  1.00  0.00    +0.1623 HD
ATOM     64 H51  NAC L   1       5.806  -8.432 -14.008  1.00  0.00    +0.0325  H
ATOM     65 H52  NAC L   1       4.584  -8.707 -12.736  1.00  0.00    +0.0325  H
ATOM     66 H53  NAC L   1       6.248  -8.288 -12.283  1.00  0.00    +0.0325  H
ENDBRANCH 56 59
ENDBRANCH 21 56
ENDBRANCH 17 21
ENDBRANCH 1 19
TORSDOF 9
ENDMDL
MODEL 13
REMARK VINA RESULT:    -6.265      3.753      9.179
REMARK INTER + INTRA:         -10.955
REMARK INTER:                  -9.822
REMARK INTRA:                  -1.133
REMARK UNBOUND:                -1.394
ROOT
ATOM      1 C23  NAC L   1      -6.137  -5.889 -13.873  1.00  0.00    +0.0423  A
ATOM      2 C24  NAC L   1      -6.255  -5.258 -12.630  1.00  0.00    -0.0377  A
ATOM      3 C25  NAC L   1      -6.922  -4.036 -12.511  1.00  0.00    -0.0506  A
ATOM      4 C26  NAC L   1      -7.486  -3.424 -13.642  1.00  0.00    +0.0004  A
ATOM      5 C27  NAC L   1      -8.164  -2.203 -13.589  1.00  0.00    +0.0353  A
ATOM      6 N28  NAC L   1      -8.720  -1.587 -14.658  1.00  0.00    -0.2626 NA
ATOM      7 C29  NAC L   1      -8.599  -2.217 -15.844  1.00  0.00    +0.0281  A
ATOM      8 C30  NAC L   1      -7.950  -3.429 -16.014  1.00  0.00    -0.0358  A
ATOM      9 C31  NAC L   1      -7.378  -4.053 -14.897  1.00  0.00    -0.0131  A
ATOM     10 C32  NAC L   1      -6.703  -5.284 -14.998  1.00  0.00    -0.0305  A
ATOM     11 H55  NAC L   1      -5.827  -5.707 -11.737  1.00  0.00    +0.0638  H
ATOM     12 H56  NAC L   1      -6.999  -3.565 -11.534  1.00  0.00    +0.0625  H
ATOM     13 H57  NAC L   1      -8.283  -1.667 -12.652  1.00  0.00    +0.0836  H
ATOM     14 H58  NAC L   1      -9.054  -1.706 -16.688  1.00  0.00    +0.0830  H
ATOM     15 H59  NAC L   1      -7.892  -3.878 -17.000  1.00  0.00    +0.0639  H
ATOM     16 H60  NAC L   1      -6.640  -5.759 -15.973  1.00  0.00    +0.0644  H
ENDROOT
BRANCH 1 19
ATOM     17 C20  NAC L   1      -5.964  -8.393 -13.704  1.00  0.00    +0.2344  C
ATOM     18 O21  NAC L   1      -7.153  -8.666 -13.553  1.00  0.00    -0.2722 OA
ATOM     19 N22  NAC L   1      -5.450  -7.117 -13.901  1.00  0.00    -0.3256  N
ATOM     20 H54  NAC L   1      -4.466  -7.072 -14.166  1.00  0.00    +0.1686 HD
BRANCH 17 21
ATOM     21 C14  NAC L   1      -4.877  -9.475 -13.751  1.00  0.00    +0.0803  C
ATOM     22 H47  NAC L   1      -5.103 -10.144 -14.588  1.00  0.00    +0.0463  H
BRANCH 21 26
ATOM     23 C10  NAC L   1      -0.916  -7.826 -14.491  1.00  0.00    -0.0103  A
ATOM     24 C11  NAC L   1      -1.620  -8.454 -15.524  1.00  0.00    -0.0551  A
ATOM     25 C12  NAC L   1      -2.888  -8.994 -15.294  1.00  0.00    -0.0574  A
ATOM     26 C13  NAC L   1      -3.485  -8.913 -14.027  1.00  0.00    -0.0336  A
ATOM     27 C33  NAC L   1      -2.778  -8.270 -12.998  1.00  0.00    -0.0574  A
ATOM     28 C34  NAC L   1      -1.510  -7.730 -13.228  1.00  0.00    -0.0551  A
ATOM     29 H45  NAC L   1      -1.185  -8.526 -16.520  1.00  0.00    +0.0621  H
ATOM     30 H46  NAC L   1      -3.397  -9.492 -16.117  1.00  0.00    +0.0621  H
ATOM     31 H61  NAC L   1      -3.210  -8.178 -12.003  1.00  0.00    +0.0621  H
ATOM     32 H62  NAC L   1      -0.989  -7.229 -12.416  1.00  0.00    +0.0621  H
BRANCH 23 33
ATOM     33  C9  NAC L   1       0.444  -7.230 -14.746  1.00  0.00    +0.1179  C
ATOM     34 H43  NAC L   1       1.007  -7.803 -15.493  1.00  0.00    +0.0749  H
ATOM     35 H44  NAC L   1       1.040  -7.271 -13.825  1.00  0.00    +0.0749  H
BRANCH 33 36
ATOM     36  O8  NAC L   1       0.303  -5.851 -15.105  1.00  0.00    -0.4564 OA
BRANCH 36 37
ATOM     37  C6  NAC L   1       0.934  -4.970 -14.296  1.00  0.00    +0.3398  C
ATOM     38  O7  NAC L   1       0.424  -4.057 -13.666  1.00  0.00    -0.2449 OA
BRANCH 37 43
ATOM     39  C1  NAC L   1       6.595  -6.181 -14.177  1.00  0.00    -0.0397  C
ATOM     40  C2  NAC L   1       5.119  -5.911 -14.199  1.00  0.00    -0.0502  A
ATOM     41  C3  NAC L   1       4.522  -5.333 -15.322  1.00  0.00    -0.0580  A
ATOM     42  C4  NAC L   1       3.157  -5.049 -15.323  1.00  0.00    -0.0473  A
ATOM     43  C5  NAC L   1       2.371  -5.325 -14.195  1.00  0.00    +0.0619  A
ATOM     44 C35  NAC L   1       2.950  -5.926 -13.061  1.00  0.00    -0.0362  A
ATOM     45 C36  NAC L   1       2.159  -6.280 -11.832  1.00  0.00    -0.0389  C
ATOM     46 C37  NAC L   1       4.332  -6.191 -13.072  1.00  0.00    -0.0551  A
ATOM     47 H38  NAC L   1       6.823  -7.056 -13.559  1.00  0.00    +0.0278  H
ATOM     48 H39  NAC L   1       6.970  -6.390 -15.185  1.00  0.00    +0.0278  H
ATOM     49 H40  NAC L   1       7.128  -5.314 -13.774  1.00  0.00    +0.0278  H
ATOM     50 H41  NAC L   1       5.115  -5.098 -16.203  1.00  0.00    +0.0620  H
ATOM     51 H42  NAC L   1       2.705  -4.601 -16.206  1.00  0.00    +0.0626  H
ATOM     52 H63  NAC L   1       2.686  -7.025 -11.224  1.00  0.00    +0.0278  H
ATOM     53 H64  NAC L   1       1.195  -6.724 -12.101  1.00  0.00    +0.0278  H
ATOM     54 H65  NAC L   1       1.999  -5.392 -11.215  1.00  0.00    +0.0278  H
ATOM     55 H66  NAC L   1       4.802  -6.632 -12.194  1.00  0.00    +0.0623  H
ENDBRANCH 37 43
ENDBRANCH 36 37
ENDBRANCH 33 36
ENDBRANCH 23 33
ENDBRANCH 21 26
BRANCH 21 56
ATOM     56 C15  NAC L   1      -4.904 -10.306 -12.453  1.00  0.00    +0.0334  C
ATOM     57 H48  NAC L   1      -4.569  -9.702 -11.601  1.00  0.00    +0.0497  H
ATOM     58 H49  NAC L   1      -4.206 -11.147 -12.541  1.00  0.00    +0.0497  H
BRANCH 56 59
ATOM     59 N16  NAC L   1      -6.185 -10.876 -12.044  1.00  0.00    -0.3551  N
ATOM     60 C17  NAC L   1      -6.721 -10.786 -10.782  1.00  0.00    +0.2179  C
ATOM     61 C18  NAC L   1      -8.101 -11.373 -10.666  1.00  0.00    +0.0143  C
ATOM     62 O19  NAC L   1      -6.118 -10.334  -9.813  1.00  0.00    -0.2736 OA
ATOM     63 H50  NAC L   1      -6.750 -11.295 -12.774  1.00  0.00    +0.1623 HD
ATOM     64 H51  NAC L   1      -8.020 -12.449 -10.488  1.00  0.00    +0.0325  H
ATOM     65 H52  NAC L   1      -8.677 -11.199 -11.579  1.00  0.00    +0.0325  H
ATOM     66 H53  NAC L   1      -8.626 -10.904  -9.829  1.00  0.00    +0.0325  H
ENDBRANCH 56 59
ENDBRANCH 21 56
ENDBRANCH 17 21
ENDBRANCH 1 19
TORSDOF 9
ENDMDL
MODEL 14
REMARK VINA RESULT:    -6.254      4.028      6.790
REMARK INTER + INTRA:         -10.938
REMARK INTER:                  -8.436
REMARK INTRA:                  -2.502
REMARK UNBOUND:                -1.394
ROOT
ATOM      1 C23  NAC L   1      -2.757  -8.215 -12.331  1.00  0.00    +0.0423  A
ATOM      2 C24  NAC L   1      -2.747  -7.843 -10.982  1.00  0.00    -0.0377  A
ATOM      3 C25  NAC L   1      -1.817  -6.916 -10.505  1.00  0.00    -0.0506  A
ATOM      4 C26  NAC L   1      -0.880  -6.340 -11.378  1.00  0.00    +0.0004  A
ATOM      5 C27  NAC L   1       0.075  -5.408 -10.962  1.00  0.00    +0.0353  A
ATOM      6 N28  NAC L   1       0.991  -4.833 -11.775  1.00  0.00    -0.2626 NA
ATOM      7 C29  NAC L   1       0.958  -5.201 -13.072  1.00  0.00    +0.0281  A
ATOM      8 C30  NAC L   1       0.056  -6.114 -13.594  1.00  0.00    -0.0358  A
ATOM      9 C31  NAC L   1      -0.885  -6.702 -12.737  1.00  0.00    -0.0131  A
ATOM     10 C32  NAC L   1      -1.828  -7.638 -13.201  1.00  0.00    -0.0305  A
ATOM     11 H55  NAC L   1      -3.459  -8.274 -10.283  1.00  0.00    +0.0638  H
ATOM     12 H56  NAC L   1      -1.829  -6.645  -9.452  1.00  0.00    +0.0625  H
ATOM     13 H57  NAC L   1       0.131  -5.086  -9.926  1.00  0.00    +0.0836  H
ATOM     14 H58  NAC L   1       1.700  -4.726 -13.708  1.00  0.00    +0.0830  H
ATOM     15 H59  NAC L   1       0.088  -6.363 -14.650  1.00  0.00    +0.0639  H
ATOM     16 H60  NAC L   1      -1.823  -7.896 -14.256  1.00  0.00    +0.0644  H
ENDROOT
BRANCH 1 19
ATOM     17 C20  NAC L   1      -3.905 -10.452 -12.258  1.00  0.00    +0.2344  C
ATOM     18 O21  NAC L   1      -3.276 -10.969 -11.338  1.00  0.00    -0.2722 OA
ATOM     19 N22  NAC L   1      -3.727  -9.155 -12.725  1.00  0.00    -0.3256  N
ATOM     20 H54  NAC L   1      -4.430  -8.822 -13.385  1.00  0.00    +0.1686 HD
BRANCH 17 21
ATOM     21 C14  NAC L   1      -5.040 -11.184 -12.986  1.00  0.00    +0.0803  C
ATOM     22 H47  NAC L   1      -5.411 -11.974 -12.324  1.00  0.00    +0.0463  H
BRANCH 21 26
ATOM     23 C10  NAC L   1      -8.484  -8.638 -13.771  1.00  0.00    -0.0103  A
ATOM     24 C11  NAC L   1      -7.847  -9.305 -14.825  1.00  0.00    -0.0551  A
ATOM     25 C12  NAC L   1      -6.736 -10.117 -14.584  1.00  0.00    -0.0574  A
ATOM     26 C13  NAC L   1      -6.238 -10.287 -13.283  1.00  0.00    -0.0336  A
ATOM     27 C33  NAC L   1      -6.889  -9.625 -12.229  1.00  0.00    -0.0574  A
ATOM     28 C34  NAC L   1      -8.000  -8.813 -12.470  1.00  0.00    -0.0551  A
ATOM     29 H45  NAC L   1      -8.216  -9.197 -15.844  1.00  0.00    +0.0621  H
ATOM     30 H46  NAC L   1      -6.257 -10.604 -15.431  1.00  0.00    +0.0621  H
ATOM     31 H61  NAC L   1      -6.539  -9.739 -11.205  1.00  0.00    +0.0621  H
ATOM     32 H62  NAC L   1      -8.491  -8.321 -11.634  1.00  0.00    +0.0621  H
BRANCH 23 33
ATOM     33  C9  NAC L   1      -9.691  -7.776 -14.031  1.00  0.00    +0.1179  C
ATOM     34 H43  NAC L   1      -9.916  -7.121 -13.179  1.00  0.00    +0.0749  H
ATOM     35 H44  NAC L   1     -10.575  -8.414 -14.160  1.00  0.00    +0.0749  H
BRANCH 33 36
ATOM     36  O8  NAC L   1      -9.506  -7.047 -15.249  1.00  0.00    -0.4564 OA
BRANCH 36 37
ATOM     37  C6  NAC L   1      -9.263  -5.724 -15.105  1.00  0.00    +0.3398  C
ATOM     38  O7  NAC L   1      -9.906  -4.804 -15.583  1.00  0.00    -0.2449 OA
BRANCH 37 43
ATOM     39  C1  NAC L   1      -4.601  -5.008 -11.745  1.00  0.00    -0.0397  C
ATOM     40  C2  NAC L   1      -5.829  -5.219 -12.583  1.00  0.00    -0.0502  A
ATOM     41  C3  NAC L   1      -5.726  -5.778 -13.859  1.00  0.00    -0.0580  A
ATOM     42  C4  NAC L   1      -6.864  -5.936 -14.649  1.00  0.00    -0.0473  A
ATOM     43  C5  NAC L   1      -8.121  -5.524 -14.179  1.00  0.00    +0.0619  A
ATOM     44 C35  NAC L   1      -8.247  -4.978 -12.888  1.00  0.00    -0.0362  A
ATOM     45 C36  NAC L   1      -9.567  -4.548 -12.310  1.00  0.00    -0.0389  C
ATOM     46 C37  NAC L   1      -7.085  -4.811 -12.112  1.00  0.00    -0.0551  A
ATOM     47 H38  NAC L   1      -4.837  -5.096 -10.679  1.00  0.00    +0.0278  H
ATOM     48 H39  NAC L   1      -3.839  -5.761 -11.971  1.00  0.00    +0.0278  H
ATOM     49 H40  NAC L   1      -4.185  -4.014 -11.935  1.00  0.00    +0.0278  H
ATOM     50 H41  NAC L   1      -4.760  -6.092 -14.248  1.00  0.00    +0.0620  H
ATOM     51 H42  NAC L   1      -6.771  -6.375 -15.640  1.00  0.00    +0.0626  H
ATOM     52 H63  NAC L   1      -9.517  -4.481 -11.217  1.00  0.00    +0.0278  H
ATOM     53 H64  NAC L   1     -10.352  -5.276 -12.541  1.00  0.00    +0.0278  H
ATOM     54 H65  NAC L   1      -9.849  -3.565 -12.697  1.00  0.00    +0.0278  H
ATOM     55 H66  NAC L   1      -7.161  -4.366 -11.121  1.00  0.00    +0.0623  H
ENDBRANCH 37 43
ENDBRANCH 36 37
ENDBRANCH 33 36
ENDBRANCH 23 33
ENDBRANCH 21 26
BRANCH 21 56
ATOM     56 C15  NAC L   1      -4.500 -11.850 -14.267  1.00  0.00    +0.0334  C
ATOM     57 H48  NAC L   1      -5.044 -11.488 -15.148  1.00  0.00    +0.0497  H
ATOM     58 H49  NAC L   1      -4.665 -12.933 -14.216  1.00  0.00    +0.0497  H
BRANCH 56 59
ATOM     59 N16  NAC L   1      -3.086 -11.663 -14.581  1.00  0.00    -0.3551  N
ATOM     60 C17  NAC L   1      -2.576 -10.642 -15.346  1.00  0.00    +0.2179  C
ATOM     61 C18  NAC L   1      -1.074 -10.632 -15.421  1.00  0.00    +0.0143  C
ATOM     62 O19  NAC L   1      -3.268  -9.844 -15.971  1.00  0.00    -0.2736 OA
ATOM     63 H50  NAC L   1      -2.434 -12.292 -14.128  1.00  0.00    +0.1623 HD
ATOM     64 H51  NAC L   1      -0.750 -11.308 -16.218  1.00  0.00    +0.0325  H
ATOM     65 H52  NAC L   1      -0.634 -10.952 -14.473  1.00  0.00    +0.0325  H
ATOM     66 H53  NAC L   1      -0.728  -9.618 -15.639  1.00  0.00    +0.0325  H
ENDBRANCH 56 59
ENDBRANCH 21 56
ENDBRANCH 17 21
ENDBRANCH 1 19
TORSDOF 9
ENDMDL
MODEL 15
REMARK VINA RESULT:    -6.110      3.488      8.663
REMARK INTER + INTRA:         -10.718
REMARK INTER:                  -9.007
REMARK INTRA:                  -1.711
REMARK UNBOUND:                -1.394
ROOT
ATOM      1 C23  NAC L   1      -6.659  -5.776 -14.168  1.00  0.00    +0.0423  A
ATOM      2 C24  NAC L   1      -6.718  -5.290 -12.858  1.00  0.00    -0.0377  A
ATOM      3 C25  NAC L   1      -7.025  -3.950 -12.607  1.00  0.00    -0.0506  A
ATOM      4 C26  NAC L   1      -7.281  -3.071 -13.672  1.00  0.00    +0.0004  A
ATOM      5 C27  NAC L   1      -7.592  -1.722 -13.487  1.00  0.00    +0.0353  A
ATOM      6 N28  NAC L   1      -7.845  -0.848 -14.488  1.00  0.00    -0.2626 NA
ATOM      7 C29  NAC L   1      -7.788  -1.340 -15.743  1.00  0.00    +0.0281  A
ATOM      8 C30  NAC L   1      -7.490  -2.659 -16.043  1.00  0.00    -0.0358  A
ATOM      9 C31  NAC L   1      -7.229  -3.550 -14.994  1.00  0.00    -0.0131  A
ATOM     10 C32  NAC L   1      -6.918  -4.903 -15.228  1.00  0.00    -0.0305  A
ATOM     11 H55  NAC L   1      -6.524  -5.947 -12.014  1.00  0.00    +0.0638  H
ATOM     12 H56  NAC L   1      -7.063  -3.597 -11.579  1.00  0.00    +0.0625  H
ATOM     13 H57  NAC L   1      -7.648  -1.290 -12.491  1.00  0.00    +0.0836  H
ATOM     14 H58  NAC L   1      -7.996  -0.622 -16.531  1.00  0.00    +0.0830  H
ATOM     15 H59  NAC L   1      -7.463  -2.985 -17.078  1.00  0.00    +0.0639  H
ATOM     16 H60  NAC L   1      -6.894  -5.256 -16.255  1.00  0.00    +0.0644  H
ENDROOT
BRANCH 1 19
ATOM     17 C20  NAC L   1      -7.209  -8.195 -14.582  1.00  0.00    +0.2344  C
ATOM     18 O21  NAC L   1      -8.414  -8.092 -14.797  1.00  0.00    -0.2722 OA
ATOM     19 N22  NAC L   1      -6.343  -7.138 -14.329  1.00  0.00    -0.3256  N
ATOM     20 H54  NAC L   1      -5.349  -7.369 -14.328  1.00  0.00    +0.1686 HD
BRANCH 17 21
ATOM     21 C14  NAC L   1      -6.482  -9.546 -14.627  1.00  0.00    +0.0803  C
ATOM     22 H47  NAC L   1      -6.817 -10.079 -15.524  1.00  0.00    +0.0463  H
BRANCH 21 26
ATOM     23 C10  NAC L   1      -2.161  -9.121 -14.951  1.00  0.00    -0.0103  A
ATOM     24 C11  NAC L   1      -2.953  -9.151 -16.104  1.00  0.00    -0.0551  A
ATOM     25 C12  NAC L   1      -4.339  -9.296 -16.011  1.00  0.00    -0.0574  A
ATOM     26 C13  NAC L   1      -4.968  -9.408 -14.762  1.00  0.00    -0.0336  A
ATOM     27 C33  NAC L   1      -4.169  -9.365 -13.608  1.00  0.00    -0.0574  A
ATOM     28 C34  NAC L   1      -2.783  -9.220 -13.701  1.00  0.00    -0.0551  A
ATOM     29 H45  NAC L   1      -2.493  -9.059 -17.087  1.00  0.00    +0.0621  H
ATOM     30 H46  NAC L   1      -4.920  -9.334 -16.931  1.00  0.00    +0.0621  H
ATOM     31 H61  NAC L   1      -4.619  -9.440 -12.620  1.00  0.00    +0.0621  H
ATOM     32 H62  NAC L   1      -2.189  -9.179 -12.791  1.00  0.00    +0.0621  H
BRANCH 23 33
ATOM     33  C9  NAC L   1      -0.668  -8.948 -15.053  1.00  0.00    +0.1179  C
ATOM     34 H43  NAC L   1      -0.269  -9.387 -15.977  1.00  0.00    +0.0749  H
ATOM     35 H44  NAC L   1      -0.180  -9.487 -14.231  1.00  0.00    +0.0749  H
BRANCH 33 36
ATOM     36  O8  NAC L   1      -0.336  -7.562 -14.916  1.00  0.00    -0.4564 OA
BRANCH 36 37
ATOM     37  C6  NAC L   1       0.629  -7.281 -14.011  1.00  0.00    +0.3398  C
ATOM     38  O7  NAC L   1       1.478  -8.047 -13.582  1.00  0.00    -0.2449 OA
BRANCH 37 43
ATOM     39  C1  NAC L   1       0.572  -1.594 -12.925  1.00  0.00    -0.0397  C
ATOM     40  C2  NAC L   1       0.603  -3.075 -13.164  1.00  0.00    -0.0502  A
ATOM     41  C3  NAC L   1       1.318  -3.603 -14.242  1.00  0.00    -0.0580  A
ATOM     42  C4  NAC L   1       1.312  -4.976 -14.483  1.00  0.00    -0.0473  A
ATOM     43  C5  NAC L   1       0.579  -5.842 -13.657  1.00  0.00    +0.0619  A
ATOM     44 C35  NAC L   1      -0.131  -5.332 -12.554  1.00  0.00    -0.0362  A
ATOM     45 C36  NAC L   1      -0.909  -6.206 -11.610  1.00  0.00    -0.0389  C
ATOM     46 C37  NAC L   1      -0.127  -3.941 -12.336  1.00  0.00    -0.0551  A
ATOM     47 H38  NAC L   1       0.477  -1.373 -11.857  1.00  0.00    +0.0278  H
ATOM     48 H39  NAC L   1       1.496  -1.121 -13.273  1.00  0.00    +0.0278  H
ATOM     49 H40  NAC L   1      -0.275  -1.147 -13.455  1.00  0.00    +0.0278  H
ATOM     50 H41  NAC L   1       1.882  -2.949 -14.903  1.00  0.00    +0.0620  H
ATOM     51 H42  NAC L   1       1.875  -5.374 -15.325  1.00  0.00    +0.0626  H
ATOM     52 H63  NAC L   1      -1.092  -5.694 -10.658  1.00  0.00    +0.0278  H
ATOM     53 H64  NAC L   1      -0.351  -7.117 -11.370  1.00  0.00    +0.0278  H
ATOM     54 H65  NAC L   1      -1.877  -6.469 -12.045  1.00  0.00    +0.0278  H
ATOM     55 H66  NAC L   1      -0.692  -3.526 -11.503  1.00  0.00    +0.0623  H
ENDBRANCH 37 43
ENDBRANCH 36 37
ENDBRANCH 33 36
ENDBRANCH 23 33
ENDBRANCH 21 26
BRANCH 21 56
ATOM     56 C15  NAC L   1      -6.866 -10.392 -13.398  1.00  0.00    +0.0334  C
ATOM     57 H48  NAC L   1      -6.062 -10.376 -12.652  1.00  0.00    +0.0497  H
ATOM     58 H49  NAC L   1      -6.999 -11.439 -13.699  1.00  0.00    +0.0497  H
BRANCH 56 59
ATOM     59 N16  NAC L   1      -8.075 -10.017 -12.671  1.00  0.00    -0.3551  N
ATOM     60 C17  NAC L   1      -8.151  -9.821 -11.314  1.00  0.00    +0.2179  C
ATOM     61 C18  NAC L   1      -9.496  -9.337 -10.844  1.00  0.00    +0.0143  C
ATOM     62 O19  NAC L   1      -7.238 -10.075 -10.534  1.00  0.00    -0.2736 OA
ATOM     63 H50  NAC L   1      -8.895  -9.807 -13.230  1.00  0.00    +0.1623 HD
ATOM     64 H51  NAC L   1     -10.155 -10.197 -10.694  1.00  0.00    +0.0325  H
ATOM     65 H52  NAC L   1      -9.945  -8.661 -11.576  1.00  0.00    +0.0325  H
ATOM     66 H53  NAC L   1      -9.379  -8.799  -9.900  1.00  0.00    +0.0325  H
ENDBRANCH 56 59
ENDBRANCH 21 56
ENDBRANCH 17 21
ENDBRANCH 1 19
TORSDOF 9
ENDMDL
MODEL 16
REMARK VINA RESULT:    -6.067      3.640      9.323
REMARK INTER + INTRA:         -10.653
REMARK INTER:                  -9.297
REMARK INTRA:                  -1.357
REMARK UNBOUND:                -1.394
ROOT
ATOM      1 C23  NAC L   1      -0.972  -7.089 -13.393  1.00  0.00    +0.0423  A
ATOM      2 C24  NAC L   1      -0.982  -8.100 -14.360  1.00  0.00    -0.0377  A
ATOM      3 C25  NAC L   1      -1.955  -9.103 -14.332  1.00  0.00    -0.0506  A
ATOM      4 C26  NAC L   1      -2.940  -9.107 -13.332  1.00  0.00    +0.0004  A
ATOM      5 C27  NAC L   1      -3.939 -10.081 -13.251  1.00  0.00    +0.0353  A
ATOM      6 N28  NAC L   1      -4.903 -10.115 -12.302  1.00  0.00    -0.2626 NA
ATOM      7 C29  NAC L   1      -4.877  -9.126 -11.385  1.00  0.00    +0.0281  A
ATOM      8 C30  NAC L   1      -3.936  -8.110 -11.369  1.00  0.00    -0.0358  A
ATOM      9 C31  NAC L   1      -2.943  -8.092 -12.358  1.00  0.00    -0.0131  A
ATOM     10 C32  NAC L   1      -1.955  -7.090 -12.400  1.00  0.00    -0.0305  A
ATOM     11 H55  NAC L   1      -0.231  -8.124 -15.146  1.00  0.00    +0.0638  H
ATOM     12 H56  NAC L   1      -1.940  -9.879 -15.095  1.00  0.00    +0.0625  H
ATOM     13 H57  NAC L   1      -3.993 -10.891 -13.972  1.00  0.00    +0.0836  H
ATOM     14 H58  NAC L   1      -5.660  -9.171 -10.633  1.00  0.00    +0.0830  H
ATOM     15 H59  NAC L   1      -3.977  -7.347 -10.599  1.00  0.00    +0.0639  H
ATOM     16 H60  NAC L   1      -1.980  -6.308 -11.646  1.00  0.00    +0.0644  H
ENDROOT
BRANCH 1 19
ATOM     17 C20  NAC L   1       0.608  -5.589 -14.649  1.00  0.00    +0.2344  C
ATOM     18 O21  NAC L   1       0.239  -5.826 -15.797  1.00  0.00    -0.2722 OA
ATOM     19 N22  NAC L   1       0.044  -6.120 -13.496  1.00  0.00    -0.3256  N
ATOM     20 H54  NAC L   1       0.356  -5.706 -12.618  1.00  0.00    +0.1686 HD
BRANCH 17 21
ATOM     21 C14  NAC L   1       1.738  -4.597 -14.341  1.00  0.00    +0.0803  C
ATOM     22 H47  NAC L   1       2.455  -4.635 -15.169  1.00  0.00    +0.0463  H
BRANCH 21 26
ATOM     23 C10  NAC L   1       0.343  -0.481 -14.069  1.00  0.00    -0.0103  A
ATOM     24 C11  NAC L   1       0.609  -1.052 -15.319  1.00  0.00    -0.0551  A
ATOM     25 C12  NAC L   1       1.066  -2.369 -15.416  1.00  0.00    -0.0574  A
ATOM     26 C13  NAC L   1       1.261  -3.149 -14.266  1.00  0.00    -0.0336  A
ATOM     27 C33  NAC L   1       0.980  -2.574 -13.016  1.00  0.00    -0.0574  A
ATOM     28 C34  NAC L   1       0.524  -1.257 -12.919  1.00  0.00    -0.0551  A
ATOM     29 H45  NAC L   1       0.460  -0.473 -16.229  1.00  0.00    +0.0621  H
ATOM     30 H46  NAC L   1       1.280  -2.772 -16.404  1.00  0.00    +0.0621  H
ATOM     31 H61  NAC L   1       1.110  -3.149 -12.101  1.00  0.00    +0.0621  H
ATOM     32 H62  NAC L   1       0.304  -0.840 -11.939  1.00  0.00    +0.0621  H
BRANCH 23 33
ATOM     33  C9  NAC L   1      -0.165   0.933 -13.968  1.00  0.00    +0.1179  C
ATOM     34 H43  NAC L   1      -0.675   1.116 -13.013  1.00  0.00    +0.0749  H
ATOM     35 H44  NAC L   1      -0.916   1.109 -14.747  1.00  0.00    +0.0749  H
BRANCH 33 36
ATOM     36  O8  NAC L   1       0.914   1.847 -14.196  1.00  0.00    -0.4564 OA
BRANCH 36 37
ATOM     37  C6  NAC L   1       0.793   2.628 -15.293  1.00  0.00    +0.3398  C
ATOM     38  O7  NAC L   1      -0.156   2.674 -16.060  1.00  0.00    -0.2449 OA
BRANCH 37 43
ATOM     39  C1  NAC L   1       5.213   6.360 -15.554  1.00  0.00    -0.0397  C
ATOM     40  C2  NAC L   1       4.074   5.382 -15.530  1.00  0.00    -0.0502  A
ATOM     41  C3  NAC L   1       2.796   5.795 -15.149  1.00  0.00    -0.0580  A
ATOM     42  C4  NAC L   1       1.749   4.875 -15.091  1.00  0.00    -0.0473  A
ATOM     43  C5  NAC L   1       1.969   3.525 -15.401  1.00  0.00    +0.0619  A
ATOM     44 C35  NAC L   1       3.247   3.093 -15.807  1.00  0.00    -0.0362  A
ATOM     45 C36  NAC L   1       3.544   1.669 -16.185  1.00  0.00    -0.0389  C
ATOM     46 C37  NAC L   1       4.294   4.033 -15.843  1.00  0.00    -0.0551  A
ATOM     47 H38  NAC L   1       5.940   6.093 -16.327  1.00  0.00    +0.0278  H
ATOM     48 H39  NAC L   1       4.857   7.371 -15.779  1.00  0.00    +0.0278  H
ATOM     49 H40  NAC L   1       5.717   6.370 -14.582  1.00  0.00    +0.0278  H
ATOM     50 H41  NAC L   1       2.605   6.835 -14.892  1.00  0.00    +0.0620  H
ATOM     51 H42  NAC L   1       0.757   5.211 -14.795  1.00  0.00    +0.0626  H
ATOM     52 H63  NAC L   1       4.460   1.602 -16.784  1.00  0.00    +0.0278  H
ATOM     53 H64  NAC L   1       2.740   1.250 -16.800  1.00  0.00    +0.0278  H
ATOM     54 H65  NAC L   1       3.680   1.058 -15.289  1.00  0.00    +0.0278  H
ATOM     55 H66  NAC L   1       5.294   3.711 -16.130  1.00  0.00    +0.0623  H
ENDBRANCH 37 43
ENDBRANCH 36 37
ENDBRANCH 33 36
ENDBRANCH 23 33
ENDBRANCH 21 26
BRANCH 21 56
ATOM     56 C15  NAC L   1       2.473  -5.018 -13.054  1.00  0.00    +0.0334  C
ATOM     57 H48  NAC L   1       1.811  -5.605 -12.406  1.00  0.00    +0.0497  H
ATOM     58 H49  NAC L   1       2.762  -4.125 -12.487  1.00  0.00    +0.0497  H
BRANCH 56 59
ATOM     59 N16  NAC L   1       3.684  -5.822 -13.200  1.00  0.00    -0.3551  N
ATOM     60 C17  NAC L   1       3.712  -7.187 -13.341  1.00  0.00    +0.2179  C
ATOM     61 C18  NAC L   1       5.088  -7.746 -13.578  1.00  0.00    +0.0143  C
ATOM     62 O19  NAC L   1       2.725  -7.908 -13.222  1.00  0.00    -0.2736 OA
ATOM     63 H50  NAC L   1       4.558  -5.315 -13.284  1.00  0.00    +0.1623 HD
ATOM     64 H51  NAC L   1       5.585  -7.897 -12.615  1.00  0.00    +0.0325  H
ATOM     65 H52  NAC L   1       5.685  -7.065 -14.190  1.00  0.00    +0.0325  H
ATOM     66 H53  NAC L   1       5.007  -8.702 -14.100  1.00  0.00    +0.0325  H
ENDBRANCH 56 59
ENDBRANCH 21 56
ENDBRANCH 17 21
ENDBRANCH 1 19
TORSDOF 9
ENDMDL
MODEL 17
REMARK VINA RESULT:    -6.067      3.123      8.902
REMARK INTER + INTRA:         -10.652
REMARK INTER:                  -9.794
REMARK INTRA:                  -0.857
REMARK UNBOUND:                -1.394
ROOT
ATOM      1 C23  NAC L   1      -3.043  -7.965 -12.737  1.00  0.00    +0.0423  A
ATOM      2 C24  NAC L   1      -4.091  -7.128 -13.134  1.00  0.00    -0.0377  A
ATOM      3 C25  NAC L   1      -5.414  -7.438 -12.808  1.00  0.00    -0.0506  A
ATOM      4 C26  NAC L   1      -5.709  -8.597 -12.071  1.00  0.00    +0.0004  A
ATOM      5 C27  NAC L   1      -7.010  -8.961 -11.714  1.00  0.00    +0.0353  A
ATOM      6 N28  NAC L   1      -7.330 -10.068 -11.006  1.00  0.00    -0.2626 NA
ATOM      7 C29  NAC L   1      -6.302 -10.857 -10.628  1.00  0.00    +0.0281  A
ATOM      8 C30  NAC L   1      -4.975 -10.593 -10.925  1.00  0.00    -0.0358  A
ATOM      9 C31  NAC L   1      -4.662  -9.443 -11.662  1.00  0.00    -0.0131  A
ATOM     10 C32  NAC L   1      -3.336  -9.115 -12.000  1.00  0.00    -0.0305  A
ATOM     11 H55  NAC L   1      -3.893  -6.225 -13.706  1.00  0.00    +0.0638  H
ATOM     12 H56  NAC L   1      -6.211  -6.771 -13.130  1.00  0.00    +0.0625  H
ATOM     13 H57  NAC L   1      -7.862  -8.351 -11.999  1.00  0.00    +0.0836  H
ATOM     14 H58  NAC L   1      -6.581 -11.739 -10.059  1.00  0.00    +0.0830  H
ATOM     15 H59  NAC L   1      -4.200 -11.273 -10.587  1.00  0.00    +0.0639  H
ATOM     16 H60  NAC L   1      -2.540  -9.775 -11.665  1.00  0.00    +0.0644  H
ENDROOT
BRANCH 1 19
ATOM     17 C20  NAC L   1      -0.646  -7.351 -12.285  1.00  0.00    +0.2344  C
ATOM     18 O21  NAC L   1      -0.615  -7.544 -11.072  1.00  0.00    -0.2722 OA
ATOM     19 N22  NAC L   1      -1.742  -7.577 -13.109  1.00  0.00    -0.3256  N
ATOM     20 H54  NAC L   1      -1.562  -7.521 -14.111  1.00  0.00    +0.1686 HD
BRANCH 17 21
ATOM     21 C14  NAC L   1       0.585  -6.877 -13.069  1.00  0.00    +0.0803  C
ATOM     22 H47  NAC L   1       0.548  -7.334 -14.065  1.00  0.00    +0.0463  H
BRANCH 21 26
ATOM     23 C10  NAC L   1       0.590  -2.567 -13.683  1.00  0.00    -0.0103  A
ATOM     24 C11  NAC L   1       0.975  -3.425 -14.719  1.00  0.00    -0.0551  A
ATOM     25 C12  NAC L   1       0.985  -4.809 -14.529  1.00  0.00    -0.0574  A
ATOM     26 C13  NAC L   1       0.605  -5.369 -13.300  1.00  0.00    -0.0336  A
ATOM     27 C33  NAC L   1       0.208  -4.503 -12.269  1.00  0.00    -0.0574  A
ATOM     28 C34  NAC L   1       0.198  -3.119 -12.459  1.00  0.00    -0.0551  A
ATOM     29 H45  NAC L   1       1.269  -3.019 -15.686  1.00  0.00    +0.0621  H
ATOM     30 H46  NAC L   1       1.309  -5.443 -15.352  1.00  0.00    +0.0621  H
ATOM     31 H61  NAC L   1      -0.103  -4.898 -11.303  1.00  0.00    +0.0621  H
ATOM     32 H62  NAC L   1      -0.124  -2.472 -11.646  1.00  0.00    +0.0621  H
BRANCH 23 33
ATOM     33  C9  NAC L   1       0.564  -1.076 -13.895  1.00  0.00    +0.1179  C
ATOM     34 H43  NAC L   1       1.187  -0.548 -13.161  1.00  0.00    +0.0749  H
ATOM     35 H44  NAC L   1      -0.456  -0.703 -13.745  1.00  0.00    +0.0749  H
BRANCH 33 36
ATOM     36  O8  NAC L   1       0.936  -0.778 -15.246  1.00  0.00    -0.4564 OA
BRANCH 36 37
ATOM     37  C6  NAC L   1       0.314   0.288 -15.799  1.00  0.00    +0.3398  C
ATOM     38  O7  NAC L   1      -0.834   0.335 -16.211  1.00  0.00    -0.2449 OA
BRANCH 37 43
ATOM     39  C1  NAC L   1       4.039   4.722 -15.822  1.00  0.00    -0.0397  C
ATOM     40  C2  NAC L   1       3.067   3.579 -15.772  1.00  0.00    -0.0502  A
ATOM     41  C3  NAC L   1       3.448   2.307 -16.205  1.00  0.00    -0.0580  A
ATOM     42  C4  NAC L   1       2.530   1.257 -16.193  1.00  0.00    -0.0473  A
ATOM     43  C5  NAC L   1       1.213   1.467 -15.759  1.00  0.00    +0.0619  A
ATOM     44 C35  NAC L   1       0.815   2.738 -15.299  1.00  0.00    -0.0362  A
ATOM     45 C36  NAC L   1      -0.570   3.024 -14.789  1.00  0.00    -0.0389  C
ATOM     46 C37  NAC L   1       1.751   3.788 -15.334  1.00  0.00    -0.0551  A
ATOM     47 H38  NAC L   1       3.841   5.438 -15.019  1.00  0.00    +0.0278  H
ATOM     48 H39  NAC L   1       5.067   4.367 -15.695  1.00  0.00    +0.0278  H
ATOM     49 H40  NAC L   1       3.959   5.237 -16.784  1.00  0.00    +0.0278  H
ATOM     50 H41  NAC L   1       4.461   2.124 -16.558  1.00  0.00    +0.0620  H
ATOM     51 H42  NAC L   1       2.841   0.270 -16.531  1.00  0.00    +0.0626  H
ATOM     52 H63  NAC L   1      -0.585   3.932 -14.175  1.00  0.00    +0.0278  H
ATOM     53 H64  NAC L   1      -0.928   2.210 -14.149  1.00  0.00    +0.0278  H
ATOM     54 H65  NAC L   1      -1.260   3.168 -15.624  1.00  0.00    +0.0278  H
ATOM     55 H66  NAC L   1       1.454   4.783 -15.007  1.00  0.00    +0.0623  H
ENDBRANCH 37 43
ENDBRANCH 36 37
ENDBRANCH 33 36
ENDBRANCH 23 33
ENDBRANCH 21 26
BRANCH 21 56
ATOM     56 C15  NAC L   1       1.872  -7.359 -12.371  1.00  0.00    +0.0334  C
ATOM     57 H48  NAC L   1       2.140  -8.367 -12.710  1.00  0.00    +0.0497  H
ATOM     58 H49  NAC L   1       1.702  -7.422 -11.290  1.00  0.00    +0.0497  H
BRANCH 56 59
ATOM     59 N16  NAC L   1       3.079  -6.557 -12.552  1.00  0.00    -0.3551  N
ATOM     60 C17  NAC L   1       4.240  -6.998 -13.138  1.00  0.00    +0.2179  C
ATOM     61 C18  NAC L   1       5.289  -5.931 -13.288  1.00  0.00    +0.0143  C
ATOM     62 O19  NAC L   1       4.444  -8.167 -13.455  1.00  0.00    -0.2736 OA
ATOM     63 H50  NAC L   1       3.016  -5.578 -12.295  1.00  0.00    +0.1623 HD
ATOM     64 H51  NAC L   1       5.860  -5.856 -12.358  1.00  0.00    +0.0325  H
ATOM     65 H52  NAC L   1       4.831  -4.963 -13.511  1.00  0.00    +0.0325  H
ATOM     66 H53  NAC L   1       5.961  -6.195 -14.109  1.00  0.00    +0.0325  H
ENDBRANCH 56 59
ENDBRANCH 21 56
ENDBRANCH 17 21
ENDBRANCH 1 19
TORSDOF 9
ENDMDL
MODEL 18
REMARK VINA RESULT:    -6.046      4.156      6.813
REMARK INTER + INTRA:         -10.621
REMARK INTER:                  -8.950
REMARK INTRA:                  -1.671
REMARK UNBOUND:                -1.394
ROOT
ATOM      1 C23  NAC L   1      -2.975  -7.962 -12.319  1.00  0.00    +0.0423  A
ATOM      2 C24  NAC L   1      -3.050  -7.375 -11.051  1.00  0.00    -0.0377  A
ATOM      3 C25  NAC L   1      -1.999  -6.591 -10.565  1.00  0.00    -0.0506  A
ATOM      4 C26  NAC L   1      -0.852  -6.380 -11.347  1.00  0.00    +0.0004  A
ATOM      5 C27  NAC L   1       0.230  -5.609 -10.918  1.00  0.00    +0.0353  A
ATOM      6 N28  NAC L   1       1.349  -5.384 -11.645  1.00  0.00    -0.2626 NA
ATOM      7 C29  NAC L   1       1.396  -5.954 -12.866  1.00  0.00    +0.0281  A
ATOM      8 C30  NAC L   1       0.382  -6.738 -13.393  1.00  0.00    -0.0358  A
ATOM      9 C31  NAC L   1      -0.769  -6.962 -12.626  1.00  0.00    -0.0131  A
ATOM     10 C32  NAC L   1      -1.836  -7.748 -13.100  1.00  0.00    -0.0305  A
ATOM     11 H55  NAC L   1      -3.924  -7.521 -10.423  1.00  0.00    +0.0638  H
ATOM     12 H56  NAC L   1      -2.082  -6.147  -9.576  1.00  0.00    +0.0625  H
ATOM     13 H57  NAC L   1       0.228  -5.132  -9.942  1.00  0.00    +0.0836  H
ATOM     14 H58  NAC L   1       2.302  -5.760 -13.433  1.00  0.00    +0.0830  H
ATOM     15 H59  NAC L   1       0.489  -7.165 -14.385  1.00  0.00    +0.0639  H
ATOM     16 H60  NAC L   1      -1.757  -8.179 -14.094  1.00  0.00    +0.0644  H
ENDROOT
BRANCH 1 19
ATOM     17 C20  NAC L   1      -4.286 -10.096 -12.547  1.00  0.00    +0.2344  C
ATOM     18 O21  NAC L   1      -3.556 -10.848 -11.904  1.00  0.00    -0.2722 OA
ATOM     19 N22  NAC L   1      -4.077  -8.735 -12.729  1.00  0.00    -0.3256  N
ATOM     20 H54  NAC L   1      -4.851  -8.220 -13.151  1.00  0.00    +0.1686 HD
BRANCH 17 21
ATOM     21 C14  NAC L   1      -5.589 -10.579 -13.197  1.00  0.00    +0.0803  C
ATOM     22 H47  NAC L   1      -6.000 -11.382 -12.574  1.00  0.00    +0.0463  H
BRANCH 21 26
ATOM     23 C10  NAC L   1      -8.697  -7.532 -13.313  1.00  0.00    -0.0103  A
ATOM     24 C11  NAC L   1      -7.938  -7.806 -14.456  1.00  0.00    -0.0551  A
ATOM     25 C12  NAC L   1      -6.932  -8.776 -14.427  1.00  0.00    -0.0574  A
ATOM     26 C13  NAC L   1      -6.666  -9.500 -13.255  1.00  0.00    -0.0336  A
ATOM     27 C33  NAC L   1      -7.440  -9.229 -12.115  1.00  0.00    -0.0574  A
ATOM     28 C34  NAC L   1      -8.445  -8.259 -12.144  1.00  0.00    -0.0551  A
ATOM     29 H45  NAC L   1      -8.126  -7.265 -15.383  1.00  0.00    +0.0621  H
ATOM     30 H46  NAC L   1      -6.350  -8.947 -15.330  1.00  0.00    +0.0621  H
ATOM     31 H61  NAC L   1      -7.271  -9.775 -11.188  1.00  0.00    +0.0621  H
ATOM     32 H62  NAC L   1      -9.037  -8.077 -11.250  1.00  0.00    +0.0621  H
BRANCH 23 33
ATOM     33  C9  NAC L   1      -9.792  -6.498 -13.352  1.00  0.00    +0.1179  C
ATOM     34 H43  NAC L   1     -10.230  -6.330 -12.360  1.00  0.00    +0.0749  H
ATOM     35 H44  NAC L   1     -10.612  -6.857 -13.985  1.00  0.00    +0.0749  H
BRANCH 33 36
ATOM     36  O8  NAC L   1      -9.290  -5.292 -13.941  1.00  0.00    -0.4564 OA
BRANCH 36 37
ATOM     37  C6  NAC L   1      -8.495  -4.543 -13.144  1.00  0.00    +0.3398  C
ATOM     38  O7  NAC L   1      -8.117  -4.819 -12.017  1.00  0.00    -0.2449 OA
BRANCH 37 43
ATOM     39  C1  NAC L   1      -6.844   0.357 -15.751  1.00  0.00    -0.0397  C
ATOM     40  C2  NAC L   1      -7.292  -0.926 -15.114  1.00  0.00    -0.0502  A
ATOM     41  C3  NAC L   1      -8.053  -0.906 -13.943  1.00  0.00    -0.0580  A
ATOM     42  C4  NAC L   1      -8.435  -2.100 -13.333  1.00  0.00    -0.0473  A
ATOM     43  C5  NAC L   1      -8.049  -3.334 -13.879  1.00  0.00    +0.0619  A
ATOM     44 C35  NAC L   1      -7.299  -3.375 -15.070  1.00  0.00    -0.0362  A
ATOM     45 C36  NAC L   1      -6.882  -4.662 -15.727  1.00  0.00    -0.0389  C
ATOM     46 C37  NAC L   1      -6.910  -2.159 -15.662  1.00  0.00    -0.0551  A
ATOM     47 H38  NAC L   1      -6.765   0.246 -16.837  1.00  0.00    +0.0278  H
ATOM     48 H39  NAC L   1      -7.562   1.162 -15.559  1.00  0.00    +0.0278  H
ATOM     49 H40  NAC L   1      -5.868   0.651 -15.353  1.00  0.00    +0.0278  H
ATOM     50 H41  NAC L   1      -8.352   0.039 -13.495  1.00  0.00    +0.0620  H
ATOM     51 H42  NAC L   1      -9.029  -2.070 -12.422  1.00  0.00    +0.0626  H
ATOM     52 H63  NAC L   1      -6.623  -4.502 -16.780  1.00  0.00    +0.0278  H
ATOM     53 H64  NAC L   1      -7.699  -5.391 -15.714  1.00  0.00    +0.0278  H
ATOM     54 H65  NAC L   1      -6.006  -5.079 -15.223  1.00  0.00    +0.0278  H
ATOM     55 H66  NAC L   1      -6.308  -2.172 -16.569  1.00  0.00    +0.0623  H
ENDBRANCH 37 43
ENDBRANCH 36 37
ENDBRANCH 33 36
ENDBRANCH 23 33
ENDBRANCH 21 26
BRANCH 21 56
ATOM     56 C15  NAC L   1      -5.297 -11.161 -14.594  1.00  0.00    +0.0334  C
ATOM     57 H48  NAC L   1      -5.807 -10.578 -15.369  1.00  0.00    +0.0497  H
ATOM     58 H49  NAC L   1      -5.689 -12.184 -14.656  1.00  0.00    +0.0497  H
BRANCH 56 59
ATOM     59 N16  NAC L   1      -3.901 -11.231 -15.017  1.00  0.00    -0.3551  N
ATOM     60 C17  NAC L   1      -3.201 -10.203 -15.599  1.00  0.00    +0.2179  C
ATOM     61 C18  NAC L   1      -1.749 -10.515 -15.838  1.00  0.00    +0.0143  C
ATOM     62 O19  NAC L   1      -3.710  -9.145 -15.959  1.00  0.00    -0.2736 OA
ATOM     63 H50  NAC L   1      -3.397 -12.079 -14.784  1.00  0.00    +0.1623 HD
ATOM     64 H51  NAC L   1      -1.647 -11.042 -16.792  1.00  0.00    +0.0325  H
ATOM     65 H52  NAC L   1      -1.347 -11.139 -15.036  1.00  0.00    +0.0325  H
ATOM     66 H53  NAC L   1      -1.178  -9.583 -15.874  1.00  0.00    +0.0325  H
ENDBRANCH 56 59
ENDBRANCH 21 56
ENDBRANCH 17 21
ENDBRANCH 1 19
TORSDOF 9
ENDMDL
MODEL 19
REMARK VINA RESULT:    -5.800      3.896      5.991
REMARK INTER + INTRA:         -10.245
REMARK INTER:                  -8.271
REMARK INTRA:                  -1.974
REMARK UNBOUND:                -1.394
ROOT
ATOM      1 C23  NAC L   1       1.902  -6.970 -13.342  1.00  0.00    +0.0423  A
ATOM      2 C24  NAC L   1       2.718  -7.985 -12.831  1.00  0.00    -0.0377  A
ATOM      3 C25  NAC L   1       4.082  -8.021 -13.129  1.00  0.00    -0.0506  A
ATOM      4 C26  NAC L   1       4.655  -7.033 -13.946  1.00  0.00    +0.0004  A
ATOM      5 C27  NAC L   1       6.012  -7.014 -14.280  1.00  0.00    +0.0353  A
ATOM      6 N28  NAC L   1       6.596  -6.078 -15.063  1.00  0.00    -0.2626 NA
ATOM      7 C29  NAC L   1       5.792  -5.105 -15.538  1.00  0.00    +0.0281  A
ATOM      8 C30  NAC L   1       4.435  -5.025 -15.271  1.00  0.00    -0.0358  A
ATOM      9 C31  NAC L   1       3.845  -6.004 -14.460  1.00  0.00    -0.0131  A
ATOM     10 C32  NAC L   1       2.472  -5.983 -14.150  1.00  0.00    -0.0305  A
ATOM     11 H55  NAC L   1       2.302  -8.764 -12.197  1.00  0.00    +0.0638  H
ATOM     12 H56  NAC L   1       4.695  -8.822 -12.720  1.00  0.00    +0.0625  H
ATOM     13 H57  NAC L   1       6.691  -7.779 -13.915  1.00  0.00    +0.0836  H
ATOM     14 H58  NAC L   1       6.281  -4.363 -16.163  1.00  0.00    +0.0830  H
ATOM     15 H59  NAC L   1       3.849  -4.212 -15.688  1.00  0.00    +0.0639  H
ATOM     16 H60  NAC L   1       1.865  -5.175 -14.548  1.00  0.00    +0.0644  H
ENDROOT
BRANCH 1 19
ATOM     17 C20  NAC L   1      -0.441  -7.877 -13.458  1.00  0.00    +0.2344  C
ATOM     18 O21  NAC L   1      -0.249  -8.830 -14.211  1.00  0.00    -0.2722 OA
ATOM     19 N22  NAC L   1       0.539  -7.011 -12.991  1.00  0.00    -0.3256  N
ATOM     20 H54  NAC L   1       0.249  -6.371 -12.252  1.00  0.00    +0.1686 HD
BRANCH 17 21
ATOM     21 C14  NAC L   1      -1.826  -7.559 -12.879  1.00  0.00    +0.0803  C
ATOM     22 H47  NAC L   1      -2.196  -6.651 -13.370  1.00  0.00    +0.0463  H
BRANCH 21 26
ATOM     23 C10  NAC L   1      -4.756 -10.687 -13.648  1.00  0.00    -0.0103  A
ATOM     24 C11  NAC L   1      -4.211  -9.957 -14.711  1.00  0.00    -0.0551  A
ATOM     25 C12  NAC L   1      -3.277  -8.945 -14.473  1.00  0.00    -0.0574  A
ATOM     26 C13  NAC L   1      -2.860  -8.643 -13.168  1.00  0.00    -0.0336  A
ATOM     27 C33  NAC L   1      -3.401  -9.388 -12.108  1.00  0.00    -0.0574  A
ATOM     28 C34  NAC L   1      -4.335 -10.399 -12.345  1.00  0.00    -0.0551  A
ATOM     29 H45  NAC L   1      -4.511 -10.173 -15.735  1.00  0.00    +0.0621  H
ATOM     30 H46  NAC L   1      -2.890  -8.386 -15.323  1.00  0.00    +0.0621  H
ATOM     31 H61  NAC L   1      -3.097  -9.191 -11.081  1.00  0.00    +0.0621  H
ATOM     32 H62  NAC L   1      -4.730 -10.967 -11.506  1.00  0.00    +0.0621  H
BRANCH 23 33
ATOM     33  C9  NAC L   1      -5.750 -11.788 -13.908  1.00  0.00    +0.1179  C
ATOM     34 H43  NAC L   1      -5.396 -12.755 -13.528  1.00  0.00    +0.0749  H
ATOM     35 H44  NAC L   1      -5.877 -11.919 -14.989  1.00  0.00    +0.0749  H
BRANCH 33 36
ATOM     36  O8  NAC L   1      -7.024 -11.420 -13.367  1.00  0.00    -0.4564 OA
BRANCH 36 37
ATOM     37  C6  NAC L   1      -7.837 -10.736 -14.204  1.00  0.00    +0.3398  C
ATOM     38  O7  NAC L   1      -8.288 -11.126 -15.269  1.00  0.00    -0.2449 OA
BRANCH 37 43
ATOM     39  C1  NAC L   1      -9.078  -5.497 -12.072  1.00  0.00    -0.0397  C
ATOM     40  C2  NAC L   1      -8.746  -6.869 -12.583  1.00  0.00    -0.0502  A
ATOM     41  C3  NAC L   1      -7.786  -7.039 -13.583  1.00  0.00    -0.0580  A
ATOM     42  C4  NAC L   1      -7.508  -8.311 -14.081  1.00  0.00    -0.0473  A
ATOM     43  C5  NAC L   1      -8.198  -9.432 -13.596  1.00  0.00    +0.0619  A
ATOM     44 C35  NAC L   1      -9.155  -9.285 -12.574  1.00  0.00    -0.0362  A
ATOM     45 C36  NAC L   1      -9.906 -10.447 -11.986  1.00  0.00    -0.0389  C
ATOM     46 C37  NAC L   1      -9.433  -7.991 -12.096  1.00  0.00    -0.0551  A
ATOM     47 H38  NAC L   1      -9.380  -5.535 -11.021  1.00  0.00    +0.0278  H
ATOM     48 H39  NAC L   1      -8.209  -4.834 -12.137  1.00  0.00    +0.0278  H
ATOM     49 H40  NAC L   1      -9.895  -5.067 -12.661  1.00  0.00    +0.0278  H
ATOM     50 H41  NAC L   1      -7.248  -6.182 -13.983  1.00  0.00    +0.0620  H
ATOM     51 H42  NAC L   1      -6.756  -8.429 -14.858  1.00  0.00    +0.0626  H
ATOM     52 H63  NAC L   1     -10.328 -10.190 -11.007  1.00  0.00    +0.0278  H
ATOM     53 H64  NAC L   1      -9.240 -11.301 -11.823  1.00  0.00    +0.0278  H
ATOM     54 H65  NAC L   1     -10.729 -10.739 -12.643  1.00  0.00    +0.0278  H
ATOM     55 H66  NAC L   1     -10.189  -7.855 -11.324  1.00  0.00    +0.0623  H
ENDBRANCH 37 43
ENDBRANCH 36 37
ENDBRANCH 33 36
ENDBRANCH 23 33
ENDBRANCH 21 26
BRANCH 21 56
ATOM     56 C15  NAC L   1      -1.713  -7.273 -11.369  1.00  0.00    +0.0334  C
ATOM     57 H48  NAC L   1      -0.670  -7.349 -11.040  1.00  0.00    +0.0497  H
ATOM     58 H49  NAC L   1      -2.279  -8.027 -10.809  1.00  0.00    +0.0497  H
BRANCH 56 59
ATOM     59 N16  NAC L   1      -2.176  -5.972 -10.892  1.00  0.00    -0.3551  N
ATOM     60 C17  NAC L   1      -1.550  -4.774 -11.135  1.00  0.00    +0.2179  C
ATOM     61 C18  NAC L   1      -2.301  -3.580 -10.613  1.00  0.00    +0.0143  C
ATOM     62 O19  NAC L   1      -0.449  -4.673 -11.668  1.00  0.00    -0.2736 OA
ATOM     63 H50  NAC L   1      -3.071  -5.956 -10.416  1.00  0.00    +0.1623 HD
ATOM     64 H51  NAC L   1      -2.046  -3.429  -9.560  1.00  0.00    +0.0325  H
ATOM     65 H52  NAC L   1      -3.380  -3.726 -10.707  1.00  0.00    +0.0325  H
ATOM     66 H53  NAC L   1      -2.018  -2.694 -11.187  1.00  0.00    +0.0325  H
ENDBRANCH 56 59
ENDBRANCH 21 56
ENDBRANCH 17 21
ENDBRANCH 1 19
TORSDOF 9
ENDMDL
