MODEL 1
REMARK VINA RESULT:    -7.881      0.000      0.000
REMARK INTER + INTRA:         -13.423
REMARK INTER:                 -12.028
REMARK INTRA:                  -1.395
REMARK UNBOUND:                -1.395
ROOT
ATOM      1 C23  NAC L   1       0.639  -2.577 -13.691  1.00  0.00    +0.0423  A
ATOM      2 C24  NAC L   1       0.642  -2.661 -15.087  1.00  0.00    -0.0377  A
ATOM      3 C25  NAC L   1       0.501  -1.513 -15.871  1.00  0.00    -0.0506  A
ATOM      4 C26  NAC L   1       0.356  -0.255 -15.265  1.00  0.00    +0.0004  A
ATOM      5 C27  NAC L   1       0.210   0.929 -15.993  1.00  0.00    +0.0353  A
ATOM      6 N28  NAC L   1       0.069   2.157 -15.442  1.00  0.00    -0.2626 NA
ATOM      7 C29  NAC L   1       0.076   2.214 -14.094  1.00  0.00    +0.0281  A
ATOM      8 C30  NAC L   1       0.214   1.106 -13.273  1.00  0.00    -0.0358  A
ATOM      9 C31  NAC L   1       0.357  -0.158 -13.861  1.00  0.00    -0.0131  A
ATOM     10 C32  NAC L   1       0.500  -1.324 -13.087  1.00  0.00    -0.0305  A
ATOM     11 H55  NAC L   1       0.752  -3.621 -15.585  1.00  0.00    +0.0638  H
ATOM     12 H56  NAC L   1       0.506  -1.605 -16.955  1.00  0.00    +0.0625  H
ATOM     13 H57  NAC L   1       0.202   0.923 -17.079  1.00  0.00    +0.0836  H
ATOM     14 H58  NAC L   1      -0.037   3.209 -13.672  1.00  0.00    +0.0830  H
ATOM     15 H59  NAC L   1       0.210   1.228 -12.195  1.00  0.00    +0.0639  H
ATOM     16 H60  NAC L   1       0.509  -1.228 -12.005  1.00  0.00    +0.0644  H
ENDROOT
BRANCH 1 19
ATOM     17 C20  NAC L   1       1.858  -4.666 -13.004  1.00  0.00    +0.2344  C
ATOM     18 O21  NAC L   1       2.916  -4.487 -13.603  1.00  0.00    -0.2722 OA
ATOM     19 N22  NAC L   1       0.787  -3.783 -12.980  1.00  0.00    -0.3256  N
ATOM     20 H54  NAC L   1       0.046  -4.001 -12.313  1.00  0.00    +0.1686 HD
BRANCH 17 21
ATOM     21 C14  NAC L   1       1.612  -5.906 -12.133  1.00  0.00    +0.0803  C
ATOM     22 H47  NAC L   1       1.880  -5.653 -11.102  1.00  0.00    +0.0463  H
BRANCH 21 26
ATOM     23 C10  NAC L   1      -2.566  -7.120 -11.953  1.00  0.00    -0.0103  A
ATOM     24 C11  NAC L   1      -1.823  -7.329 -13.120  1.00  0.00    -0.0551  A
ATOM     25 C12  NAC L   1      -0.484  -6.935 -13.191  1.00  0.00    -0.0574  A
ATOM     26 C13  NAC L   1       0.145  -6.328 -12.094  1.00  0.00    -0.0336  A
ATOM     27 C33  NAC L   1      -0.602  -6.133 -10.921  1.00  0.00    -0.0574  A
ATOM     28 C34  NAC L   1      -1.941  -6.527 -10.851  1.00  0.00    -0.0551  A
ATOM     29 H45  NAC L   1      -2.283  -7.804 -13.986  1.00  0.00    +0.0621  H
ATOM     30 H46  NAC L   1       0.056  -7.097 -14.122  1.00  0.00    +0.0621  H
ATOM     31 H61  NAC L   1      -0.148  -5.674 -10.045  1.00  0.00    +0.0621  H
ATOM     32 H62  NAC L   1      -2.494  -6.373  -9.927  1.00  0.00    +0.0621  H
BRANCH 23 33
ATOM     33  C9  NAC L   1      -4.004  -7.561 -11.874  1.00  0.00    +0.1179  C
ATOM     34 H43  NAC L   1      -4.516  -7.129 -11.004  1.00  0.00    +0.0749  H
ATOM     35 H44  NAC L   1      -4.047  -8.648 -11.737  1.00  0.00    +0.0749  H
BRANCH 33 36
ATOM     36  O8  NAC L   1      -4.667  -7.256 -13.106  1.00  0.00    -0.4564 OA
BRANCH 36 37
ATOM     37  C6  NAC L   1      -6.016  -7.189 -13.040  1.00  0.00    +0.3398  C
ATOM     38  O7  NAC L   1      -6.772  -8.036 -12.591  1.00  0.00    -0.2449 OA
BRANCH 37 43
ATOM     39  C1  NAC L   1      -7.711  -1.883 -14.625  1.00  0.00    -0.0397  C
ATOM     40  C2  NAC L   1      -7.311  -3.275 -14.231  1.00  0.00    -0.0502  A
ATOM     41  C3  NAC L   1      -6.986  -3.569 -12.905  1.00  0.00    -0.0580  A
ATOM     42  C4  NAC L   1      -6.577  -4.854 -12.550  1.00  0.00    -0.0473  A
ATOM     43  C5  NAC L   1      -6.474  -5.862 -13.521  1.00  0.00    +0.0619  A
ATOM     44 C35  NAC L   1      -6.816  -5.591 -14.859  1.00  0.00    -0.0362  A
ATOM     45 C36  NAC L   1      -6.761  -6.632 -15.943  1.00  0.00    -0.0389  C
ATOM     46 C37  NAC L   1      -7.211  -4.284 -15.201  1.00  0.00    -0.0551  A
ATOM     47 H38  NAC L   1      -8.415  -1.902 -15.463  1.00  0.00    +0.0278  H
ATOM     48 H39  NAC L   1      -8.209  -1.369 -13.796  1.00  0.00    +0.0278  H
ATOM     49 H40  NAC L   1      -6.827  -1.309 -14.917  1.00  0.00    +0.0278  H
ATOM     50 H41  NAC L   1      -7.046  -2.800 -12.138  1.00  0.00    +0.0620  H
ATOM     51 H42  NAC L   1      -6.329  -5.070 -11.513  1.00  0.00    +0.0626  H
ATOM     52 H63  NAC L   1      -7.373  -6.339 -16.804  1.00  0.00    +0.0278  H
ATOM     53 H64  NAC L   1      -7.162  -7.588 -15.588  1.00  0.00    +0.0278  H
ATOM     54 H65  NAC L   1      -5.733  -6.767 -16.288  1.00  0.00    +0.0278  H
ATOM     55 H66  NAC L   1      -7.455  -4.049 -16.236  1.00  0.00    +0.0623  H
ENDBRANCH 37 43
ENDBRANCH 36 37
ENDBRANCH 33 36
ENDBRANCH 23 33
ENDBRANCH 21 26
BRANCH 21 56
ATOM     56 C15  NAC L   1       2.521  -7.062 -12.594  1.00  0.00    +0.0334  C
ATOM     57 H48  NAC L   1       2.406  -7.238 -13.670  1.00  0.00    +0.0497  H
ATOM     58 H49  NAC L   1       2.223  -7.988 -12.087  1.00  0.00    +0.0497  H
BRANCH 56 59
ATOM     59 N16  NAC L   1       3.958  -6.919 -12.376  1.00  0.00    -0.3551  N
ATOM     60 C17  NAC L   1       4.931  -7.267 -13.280  1.00  0.00    +0.2179  C
ATOM     61 C18  NAC L   1       6.325  -6.914 -12.838  1.00  0.00    +0.0143  C
ATOM     62 O19  NAC L   1       4.709  -7.871 -14.326  1.00  0.00    -0.2736 OA
ATOM     63 H50  NAC L   1       4.243  -6.449 -11.524  1.00  0.00    +0.1623 HD
ATOM     64 H51  NAC L   1       6.714  -7.715 -12.203  1.00  0.00    +0.0325  H
ATOM     65 H52  NAC L   1       6.331  -5.974 -12.279  1.00  0.00    +0.0325  H
ATOM     66 H53  NAC L   1       6.966  -6.800 -13.716  1.00  0.00    +0.0325  H
ENDBRANCH 56 59
ENDBRANCH 21 56
ENDBRANCH 17 21
ENDBRANCH 1 19
TORSDOF 9
ENDMDL
MODEL 2
REMARK VINA RESULT:    -7.475      1.680      2.192
REMARK INTER + INTRA:         -12.803
REMARK INTER:                 -12.298
REMARK INTRA:                  -0.505
REMARK UNBOUND:                -1.395
ROOT
ATOM      1 C23  NAC L   1       0.581  -1.300 -13.279  1.00  0.00    +0.0423  A
ATOM      2 C24  NAC L   1       0.987  -0.253 -12.445  1.00  0.00    -0.0377  A
ATOM      3 C25  NAC L   1       0.675   1.072 -12.760  1.00  0.00    -0.0506  A
ATOM      4 C26  NAC L   1      -0.056   1.370 -13.922  1.00  0.00    +0.0004  A
ATOM      5 C27  NAC L   1      -0.399   2.673 -14.292  1.00  0.00    +0.0353  A
ATOM      6 N28  NAC L   1      -1.102   2.996 -15.402  1.00  0.00    -0.2626 NA
ATOM      7 C29  NAC L   1      -1.488   1.969 -16.187  1.00  0.00    +0.0281  A
ATOM      8 C30  NAC L   1      -1.205   0.640 -15.918  1.00  0.00    -0.0358  A
ATOM      9 C31  NAC L   1      -0.474   0.324 -14.765  1.00  0.00    -0.0131  A
ATOM     10 C32  NAC L   1      -0.150  -1.004 -14.432  1.00  0.00    -0.0305  A
ATOM     11 H55  NAC L   1       1.555  -0.453 -11.540  1.00  0.00    +0.0638  H
ATOM     12 H56  NAC L   1       1.003   1.869 -12.096  1.00  0.00    +0.0625  H
ATOM     13 H57  NAC L   1      -0.108   3.525 -13.684  1.00  0.00    +0.0836  H
ATOM     14 H58  NAC L   1      -2.053   2.250 -17.072  1.00  0.00    +0.0830  H
ATOM     15 H59  NAC L   1      -1.548  -0.134 -16.596  1.00  0.00    +0.0639  H
ATOM     16 H60  NAC L   1      -0.491  -1.799 -15.090  1.00  0.00    +0.0644  H
ENDROOT
BRANCH 1 19
ATOM     17 C20  NAC L   1       1.596  -3.575 -13.630  1.00  0.00    +0.2344  C
ATOM     18 O21  NAC L   1       2.058  -3.416 -14.758  1.00  0.00    -0.2722 OA
ATOM     19 N22  NAC L   1       0.940  -2.603 -12.885  1.00  0.00    -0.3256  N
ATOM     20 H54  NAC L   1       0.756  -2.840 -11.910  1.00  0.00    +0.1686 HD
BRANCH 17 21
ATOM     21 C14  NAC L   1       1.747  -4.895 -12.863  1.00  0.00    +0.0803  C
ATOM     22 H47  NAC L   1       2.333  -4.695 -11.959  1.00  0.00    +0.0463  H
BRANCH 21 26
ATOM     23 C10  NAC L   1      -2.059  -6.469 -11.450  1.00  0.00    -0.0103  A
ATOM     24 C11  NAC L   1      -1.073  -7.339 -11.931  1.00  0.00    -0.0551  A
ATOM     25 C12  NAC L   1       0.148  -6.842 -12.395  1.00  0.00    -0.0574  A
ATOM     26 C13  NAC L   1       0.416  -5.465 -12.383  1.00  0.00    -0.0336  A
ATOM     27 C33  NAC L   1      -0.573  -4.599 -11.887  1.00  0.00    -0.0574  A
ATOM     28 C34  NAC L   1      -1.793  -5.095 -11.424  1.00  0.00    -0.0551  A
ATOM     29 H45  NAC L   1      -1.250  -8.413 -11.946  1.00  0.00    +0.0621  H
ATOM     30 H46  NAC L   1       0.882  -7.548 -12.779  1.00  0.00    +0.0621  H
ATOM     31 H61  NAC L   1      -0.401  -3.525 -11.853  1.00  0.00    +0.0621  H
ATOM     32 H62  NAC L   1      -2.537  -4.403 -11.035  1.00  0.00    +0.0621  H
BRANCH 23 33
ATOM     33  C9  NAC L   1      -3.368  -7.008 -10.935  1.00  0.00    +0.1179  C
ATOM     34 H43  NAC L   1      -4.079  -6.203 -10.710  1.00  0.00    +0.0749  H
ATOM     35 H44  NAC L   1      -3.200  -7.532  -9.986  1.00  0.00    +0.0749  H
BRANCH 33 36
ATOM     36  O8  NAC L   1      -3.893  -7.960 -11.866  1.00  0.00    -0.4564 OA
BRANCH 36 37
ATOM     37  C6  NAC L   1      -4.285  -7.454 -13.058  1.00  0.00    +0.3398  C
ATOM     38  O7  NAC L   1      -3.707  -7.565 -14.127  1.00  0.00    -0.2449 OA
BRANCH 37 43
ATOM     39  C1  NAC L   1      -9.290  -4.595 -12.508  1.00  0.00    -0.0397  C
ATOM     40  C2  NAC L   1      -8.005  -5.363 -12.616  1.00  0.00    -0.0502  A
ATOM     41  C3  NAC L   1      -6.777  -4.704 -12.524  1.00  0.00    -0.0580  A
ATOM     42  C4  NAC L   1      -5.586  -5.415 -12.663  1.00  0.00    -0.0473  A
ATOM     43  C5  NAC L   1      -5.606  -6.796 -12.911  1.00  0.00    +0.0619  A
ATOM     44 C35  NAC L   1      -6.834  -7.482 -12.988  1.00  0.00    -0.0362  A
ATOM     45 C36  NAC L   1      -6.927  -8.965 -13.218  1.00  0.00    -0.0389  C
ATOM     46 C37  NAC L   1      -8.025  -6.744 -12.860  1.00  0.00    -0.0551  A
ATOM     47 H38  NAC L   1     -10.079  -5.213 -12.067  1.00  0.00    +0.0278  H
ATOM     48 H39  NAC L   1      -9.169  -3.717 -11.864  1.00  0.00    +0.0278  H
ATOM     49 H40  NAC L   1      -9.612  -4.264 -13.500  1.00  0.00    +0.0278  H
ATOM     50 H41  NAC L   1      -6.738  -3.631 -12.344  1.00  0.00    +0.0620  H
ATOM     51 H42  NAC L   1      -4.637  -4.890 -12.586  1.00  0.00    +0.0626  H
ATOM     52 H63  NAC L   1      -7.904  -9.352 -12.908  1.00  0.00    +0.0278  H
ATOM     53 H64  NAC L   1      -6.178  -9.501 -12.625  1.00  0.00    +0.0278  H
ATOM     54 H65  NAC L   1      -6.792  -9.194 -14.278  1.00  0.00    +0.0278  H
ATOM     55 H66  NAC L   1      -8.984  -7.254 -12.943  1.00  0.00    +0.0623  H
ENDBRANCH 37 43
ENDBRANCH 36 37
ENDBRANCH 33 36
ENDBRANCH 23 33
ENDBRANCH 21 26
BRANCH 21 56
ATOM     56 C15  NAC L   1       2.524  -5.915 -13.718  1.00  0.00    +0.0334  C
ATOM     57 H48  NAC L   1       2.674  -5.531 -14.735  1.00  0.00    +0.0497  H
ATOM     58 H49  NAC L   1       1.939  -6.838 -13.811  1.00  0.00    +0.0497  H
BRANCH 56 59
ATOM     59 N16  NAC L   1       3.850  -6.314 -13.255  1.00  0.00    -0.3551  N
ATOM     60 C17  NAC L   1       5.016  -5.640 -13.527  1.00  0.00    +0.2179  C
ATOM     61 C18  NAC L   1       6.224  -6.213 -12.837  1.00  0.00    +0.0143  C
ATOM     62 O19  NAC L   1       5.095  -4.697 -14.309  1.00  0.00    -0.2736 OA
ATOM     63 H50  NAC L   1       3.891  -7.101 -12.619  1.00  0.00    +0.1623 HD
ATOM     64 H51  NAC L   1       6.628  -7.030 -13.442  1.00  0.00    +0.0325  H
ATOM     65 H52  NAC L   1       5.963  -6.591 -11.845  1.00  0.00    +0.0325  H
ATOM     66 H53  NAC L   1       6.982  -5.434 -12.724  1.00  0.00    +0.0325  H
ENDBRANCH 56 59
ENDBRANCH 21 56
ENDBRANCH 17 21
ENDBRANCH 1 19
TORSDOF 9
ENDMDL
MODEL 3
REMARK VINA RESULT:    -7.299      0.999      1.830
REMARK INTER + INTRA:         -12.534
REMARK INTER:                 -11.151
REMARK INTRA:                  -1.383
REMARK UNBOUND:                -1.395
ROOT
ATOM      1 C23  NAC L   1       0.672  -2.435 -13.471  1.00  0.00    +0.0423  A
ATOM      2 C24  NAC L   1       0.854  -1.546 -12.406  1.00  0.00    -0.0377  A
ATOM      3 C25  NAC L   1       0.592  -0.183 -12.563  1.00  0.00    -0.0506  A
ATOM      4 C26  NAC L   1       0.138   0.314 -13.795  1.00  0.00    +0.0004  A
ATOM      5 C27  NAC L   1      -0.141   1.665 -14.015  1.00  0.00    +0.0353  A
ATOM      6 N28  NAC L   1      -0.580   2.177 -15.188  1.00  0.00    -0.2626 NA
ATOM      7 C29  NAC L   1      -0.754   1.300 -16.198  1.00  0.00    +0.0281  A
ATOM      8 C30  NAC L   1      -0.510  -0.059 -16.093  1.00  0.00    -0.0358  A
ATOM      9 C31  NAC L   1      -0.053  -0.572 -14.871  1.00  0.00    -0.0131  A
ATOM     10 C32  NAC L   1       0.216  -1.943 -14.696  1.00  0.00    -0.0305  A
ATOM     11 H55  NAC L   1       1.205  -1.902 -11.440  1.00  0.00    +0.0638  H
ATOM     12 H56  NAC L   1       0.742   0.488 -11.720  1.00  0.00    +0.0625  H
ATOM     13 H57  NAC L   1      -0.015   2.400 -13.226  1.00  0.00    +0.0836  H
ATOM     14 H58  NAC L   1      -1.109   1.732 -17.130  1.00  0.00    +0.0830  H
ATOM     15 H59  NAC L   1      -0.672  -0.706 -16.949  1.00  0.00    +0.0639  H
ATOM     16 H60  NAC L   1       0.052  -2.613 -15.535  1.00  0.00    +0.0644  H
ENDROOT
BRANCH 1 19
ATOM     17 C20  NAC L   1       2.024  -4.543 -13.707  1.00  0.00    +0.2344  C
ATOM     18 O21  NAC L   1       2.957  -4.108 -14.378  1.00  0.00    -0.2722 OA
ATOM     19 N22  NAC L   1       0.961  -3.791 -13.224  1.00  0.00    -0.3256  N
ATOM     20 H54  NAC L   1       0.353  -4.262 -12.554  1.00  0.00    +0.1686 HD
BRANCH 17 21
ATOM     21 C14  NAC L   1       1.953  -6.010 -13.259  1.00  0.00    +0.0803  C
ATOM     22 H47  NAC L   1       2.282  -6.060 -12.216  1.00  0.00    +0.0463  H
BRANCH 21 26
ATOM     23 C10  NAC L   1      -2.089  -7.630 -13.249  1.00  0.00    -0.0103  A
ATOM     24 C11  NAC L   1      -1.295  -7.728 -14.398  1.00  0.00    -0.0551  A
ATOM     25 C12  NAC L   1      -0.000  -7.203 -14.413  1.00  0.00    -0.0574  A
ATOM     26 C13  NAC L   1       0.535  -6.574 -13.279  1.00  0.00    -0.0336  A
ATOM     27 C33  NAC L   1      -0.262  -6.490 -12.126  1.00  0.00    -0.0574  A
ATOM     28 C34  NAC L   1      -1.557  -7.015 -12.110  1.00  0.00    -0.0551  A
ATOM     29 H45  NAC L   1      -1.681  -8.217 -15.291  1.00  0.00    +0.0621  H
ATOM     30 H46  NAC L   1       0.580  -7.281 -15.331  1.00  0.00    +0.0621  H
ATOM     31 H61  NAC L   1       0.119  -6.018 -11.223  1.00  0.00    +0.0621  H
ATOM     32 H62  NAC L   1      -2.149  -6.946 -11.201  1.00  0.00    +0.0621  H
BRANCH 23 33
ATOM     33  C9  NAC L   1      -3.478  -8.212 -13.229  1.00  0.00    +0.1179  C
ATOM     34 H43  NAC L   1      -3.810  -8.438 -12.208  1.00  0.00    +0.0749  H
ATOM     35 H44  NAC L   1      -3.482  -9.168 -13.765  1.00  0.00    +0.0749  H
BRANCH 33 36
ATOM     36  O8  NAC L   1      -4.375  -7.331 -13.914  1.00  0.00    -0.4564 OA
BRANCH 36 37
ATOM     37  C6  NAC L   1      -5.669  -7.398 -13.525  1.00  0.00    +0.3398  C
ATOM     38  O7  NAC L   1      -6.264  -8.386 -13.125  1.00  0.00    -0.2449 OA
BRANCH 37 43
ATOM     39  C1  NAC L   1      -8.266  -2.233 -13.855  1.00  0.00    -0.0397  C
ATOM     40  C2  NAC L   1      -7.553  -3.552 -13.777  1.00  0.00    -0.0502  A
ATOM     41  C3  NAC L   1      -7.926  -4.608 -14.611  1.00  0.00    -0.0580  A
ATOM     42  C4  NAC L   1      -7.287  -5.843 -14.509  1.00  0.00    -0.0473  A
ATOM     43  C5  NAC L   1      -6.273  -6.044 -13.560  1.00  0.00    +0.0619  A
ATOM     44 C35  NAC L   1      -5.868  -4.985 -12.724  1.00  0.00    -0.0362  A
ATOM     45 C36  NAC L   1      -4.767  -5.122 -11.711  1.00  0.00    -0.0389  C
ATOM     46 C37  NAC L   1      -6.536  -3.752 -12.832  1.00  0.00    -0.0551  A
ATOM     47 H38  NAC L   1      -7.592  -1.409 -13.600  1.00  0.00    +0.0278  H
ATOM     48 H39  NAC L   1      -8.636  -2.047 -14.869  1.00  0.00    +0.0278  H
ATOM     49 H40  NAC L   1      -9.113  -2.225 -13.163  1.00  0.00    +0.0278  H
ATOM     50 H41  NAC L   1      -8.719  -4.479 -15.345  1.00  0.00    +0.0620  H
ATOM     51 H42  NAC L   1      -7.586  -6.657 -15.166  1.00  0.00    +0.0626  H
ATOM     52 H63  NAC L   1      -4.375  -4.141 -11.418  1.00  0.00    +0.0278  H
ATOM     53 H64  NAC L   1      -3.921  -5.683 -12.124  1.00  0.00    +0.0278  H
ATOM     54 H65  NAC L   1      -5.137  -5.621 -10.811  1.00  0.00    +0.0278  H
ATOM     55 H66  NAC L   1      -6.254  -2.929 -12.175  1.00  0.00    +0.0623  H
ENDBRANCH 37 43
ENDBRANCH 36 37
ENDBRANCH 33 36
ENDBRANCH 23 33
ENDBRANCH 21 26
BRANCH 21 56
ATOM     56 C15  NAC L   1       2.914  -6.866 -14.106  1.00  0.00    +0.0334  C
ATOM     57 H48  NAC L   1       2.792  -6.643 -15.173  1.00  0.00    +0.0497  H
ATOM     58 H49  NAC L   1       2.673  -7.928 -13.974  1.00  0.00    +0.0497  H
BRANCH 56 59
ATOM     59 N16  NAC L   1       4.345  -6.734 -13.844  1.00  0.00    -0.3551  N
ATOM     60 C17  NAC L   1       5.145  -7.718 -13.317  1.00  0.00    +0.2179  C
ATOM     61 C18  NAC L   1       6.601  -7.346 -13.251  1.00  0.00    +0.0143  C
ATOM     62 O19  NAC L   1       4.720  -8.781 -12.874  1.00  0.00    -0.2736 OA
ATOM     63 H50  NAC L   1       4.786  -5.875 -14.155  1.00  0.00    +0.1623 HD
ATOM     64 H51  NAC L   1       6.788  -6.787 -12.330  1.00  0.00    +0.0325  H
ATOM     65 H52  NAC L   1       6.886  -6.733 -14.110  1.00  0.00    +0.0325  H
ATOM     66 H53  NAC L   1       7.209  -8.255 -13.255  1.00  0.00    +0.0325  H
ENDBRANCH 56 59
ENDBRANCH 21 56
ENDBRANCH 17 21
ENDBRANCH 1 19
TORSDOF 9
ENDMDL
MODEL 4
REMARK VINA RESULT:    -7.285      3.364      5.167
REMARK INTER + INTRA:         -12.513
REMARK INTER:                 -10.562
REMARK INTRA:                  -1.951
REMARK UNBOUND:                -1.395
ROOT
ATOM      1 C23  NAC L   1       1.657  -5.754 -13.323  1.00  0.00    +0.0423  A
ATOM      2 C24  NAC L   1       1.863  -5.011 -14.491  1.00  0.00    -0.0377  A
ATOM      3 C25  NAC L   1       3.131  -4.935 -15.073  1.00  0.00    -0.0506  A
ATOM      4 C26  NAC L   1       4.218  -5.609 -14.494  1.00  0.00    +0.0004  A
ATOM      5 C27  NAC L   1       5.509  -5.572 -15.027  1.00  0.00    +0.0353  A
ATOM      6 N28  NAC L   1       6.577  -6.209 -14.496  1.00  0.00    -0.2626 NA
ATOM      7 C29  NAC L   1       6.354  -6.925 -13.375  1.00  0.00    +0.0281  A
ATOM      8 C30  NAC L   1       5.117  -7.032 -12.760  1.00  0.00    -0.0358  A
ATOM      9 C31  NAC L   1       4.021  -6.364 -13.323  1.00  0.00    -0.0131  A
ATOM     10 C32  NAC L   1       2.737  -6.429 -12.749  1.00  0.00    -0.0305  A
ATOM     11 H55  NAC L   1       1.041  -4.477 -14.961  1.00  0.00    +0.0638  H
ATOM     12 H56  NAC L   1       3.265  -4.349 -15.980  1.00  0.00    +0.0625  H
ATOM     13 H57  NAC L   1       5.727  -5.008 -15.930  1.00  0.00    +0.0836  H
ATOM     14 H58  NAC L   1       7.224  -7.430 -12.966  1.00  0.00    +0.0830  H
ATOM     15 H59  NAC L   1       5.011  -7.627 -11.859  1.00  0.00    +0.0639  H
ATOM     16 H60  NAC L   1       2.603  -7.026 -11.852  1.00  0.00    +0.0644  H
ENDROOT
BRANCH 1 19
ATOM     17 C20  NAC L   1      -0.550  -6.835 -12.788  1.00  0.00    +0.2344  C
ATOM     18 O21  NAC L   1      -0.307  -7.981 -13.159  1.00  0.00    -0.2722 OA
ATOM     19 N22  NAC L   1       0.348  -5.775 -12.805  1.00  0.00    -0.3256  N
ATOM     20 H54  NAC L   1       0.046  -4.930 -12.320  1.00  0.00    +0.1686 HD
BRANCH 17 21
ATOM     21 C14  NAC L   1      -1.907  -6.440 -12.189  1.00  0.00    +0.0803  C
ATOM     22 H47  NAC L   1      -2.148  -5.429 -12.535  1.00  0.00    +0.0463  H
BRANCH 21 26
ATOM     23 C10  NAC L   1      -5.186  -8.999 -13.476  1.00  0.00    -0.0103  A
ATOM     24 C11  NAC L   1      -4.135  -8.708 -14.353  1.00  0.00    -0.0551  A
ATOM     25 C12  NAC L   1      -3.083  -7.880 -13.953  1.00  0.00    -0.0574  A
ATOM     26 C13  NAC L   1      -3.053  -7.330 -12.662  1.00  0.00    -0.0336  A
ATOM     27 C33  NAC L   1      -4.104  -7.636 -11.783  1.00  0.00    -0.0574  A
ATOM     28 C34  NAC L   1      -5.156  -8.464 -12.184  1.00  0.00    -0.0551  A
ATOM     29 H45  NAC L   1      -4.128  -9.126 -15.359  1.00  0.00    +0.0621  H
ATOM     30 H46  NAC L   1      -2.294  -7.661 -14.669  1.00  0.00    +0.0621  H
ATOM     31 H61  NAC L   1      -4.113  -7.237 -10.770  1.00  0.00    +0.0621  H
ATOM     32 H62  NAC L   1      -5.951  -8.694 -11.479  1.00  0.00    +0.0621  H
BRANCH 23 33
ATOM     33  C9  NAC L   1      -6.311  -9.905 -13.905  1.00  0.00    +0.1179  C
ATOM     34 H43  NAC L   1      -7.022 -10.085 -13.089  1.00  0.00    +0.0749  H
ATOM     35 H44  NAC L   1      -5.906 -10.888 -14.173  1.00  0.00    +0.0749  H
BRANCH 33 36
ATOM     36  O8  NAC L   1      -6.940  -9.366 -15.073  1.00  0.00    -0.4564 OA
BRANCH 36 37
ATOM     37  C6  NAC L   1      -8.124  -8.745 -14.862  1.00  0.00    +0.3398  C
ATOM     38  O7  NAC L   1      -9.237  -9.229 -14.982  1.00  0.00    -0.2449 OA
BRANCH 37 43
ATOM     39  C1  NAC L   1      -7.081  -3.298 -13.197  1.00  0.00    -0.0397  C
ATOM     40  C2  NAC L   1      -7.331  -4.724 -13.590  1.00  0.00    -0.0502  A
ATOM     41  C3  NAC L   1      -6.863  -5.214 -14.812  1.00  0.00    -0.0580  A
ATOM     42  C4  NAC L   1      -7.131  -6.529 -15.190  1.00  0.00    -0.0473  A
ATOM     43  C5  NAC L   1      -7.884  -7.370 -14.358  1.00  0.00    +0.0619  A
ATOM     44 C35  NAC L   1      -8.347  -6.902 -13.114  1.00  0.00    -0.0362  A
ATOM     45 C36  NAC L   1      -9.130  -7.760 -12.159  1.00  0.00    -0.0389  C
ATOM     46 C37  NAC L   1      -8.081  -5.567 -12.756  1.00  0.00    -0.0551  A
ATOM     47 H38  NAC L   1      -6.995  -3.202 -12.109  1.00  0.00    +0.0278  H
ATOM     48 H39  NAC L   1      -6.144  -2.931 -13.629  1.00  0.00    +0.0278  H
ATOM     49 H40  NAC L   1      -7.903  -2.664 -13.545  1.00  0.00    +0.0278  H
ATOM     50 H41  NAC L   1      -6.288  -4.575 -15.479  1.00  0.00    +0.0620  H
ATOM     51 H42  NAC L   1      -6.758  -6.898 -16.144  1.00  0.00    +0.0626  H
ATOM     52 H63  NAC L   1      -9.098  -7.351 -11.142  1.00  0.00    +0.0278  H
ATOM     53 H64  NAC L   1      -8.706  -8.769 -12.101  1.00  0.00    +0.0278  H
ATOM     54 H65  NAC L   1     -10.177  -7.816 -12.469  1.00  0.00    +0.0278  H
ATOM     55 H66  NAC L   1      -8.453  -5.180 -11.809  1.00  0.00    +0.0623  H
ENDBRANCH 37 43
ENDBRANCH 36 37
ENDBRANCH 33 36
ENDBRANCH 23 33
ENDBRANCH 21 26
BRANCH 21 56
ATOM     56 C15  NAC L   1      -1.814  -6.409 -10.651  1.00  0.00    +0.0334  C
ATOM     57 H48  NAC L   1      -2.810  -6.298 -10.206  1.00  0.00    +0.0497  H
ATOM     58 H49  NAC L   1      -1.227  -5.537 -10.336  1.00  0.00    +0.0497  H
BRANCH 56 59
ATOM     59 N16  NAC L   1      -1.220  -7.566  -9.987  1.00  0.00    -0.3551  N
ATOM     60 C17  NAC L   1       0.082  -7.647  -9.558  1.00  0.00    +0.2179  C
ATOM     61 C18  NAC L   1       0.398  -8.915  -8.812  1.00  0.00    +0.0143  C
ATOM     62 O19  NAC L   1       0.939  -6.805  -9.809  1.00  0.00    -0.2736 OA
ATOM     63 H50  NAC L   1      -1.847  -8.328  -9.756  1.00  0.00    +0.1623 HD
ATOM     64 H51  NAC L   1       0.650  -9.701  -9.530  1.00  0.00    +0.0325  H
ATOM     65 H52  NAC L   1      -0.456  -9.235  -8.209  1.00  0.00    +0.0325  H
ATOM     66 H53  NAC L   1       1.248  -8.742  -8.147  1.00  0.00    +0.0325  H
ENDBRANCH 56 59
ENDBRANCH 21 56
ENDBRANCH 17 21
ENDBRANCH 1 19
TORSDOF 9
ENDMDL
MODEL 5
REMARK VINA RESULT:    -7.221      3.491      6.272
REMARK INTER + INTRA:         -12.416
REMARK INTER:                 -10.577
REMARK INTRA:                  -1.839
REMARK UNBOUND:                -1.395
ROOT
ATOM      1 C23  NAC L   1       0.304  -6.109 -12.642  1.00  0.00    +0.0423  A
ATOM      2 C24  NAC L   1       0.385  -4.866 -13.277  1.00  0.00    -0.0377  A
ATOM      3 C25  NAC L   1       1.621  -4.348 -13.676  1.00  0.00    -0.0506  A
ATOM      4 C26  NAC L   1       2.800  -5.075 -13.446  1.00  0.00    +0.0004  A
ATOM      5 C27  NAC L   1       4.064  -4.612 -13.821  1.00  0.00    +0.0353  A
ATOM      6 N28  NAC L   1       5.220  -5.285 -13.616  1.00  0.00    -0.2626 NA
ATOM      7 C29  NAC L   1       5.116  -6.485 -13.008  1.00  0.00    +0.0281  A
ATOM      8 C30  NAC L   1       3.916  -7.042 -12.595  1.00  0.00    -0.0358  A
ATOM      9 C31  NAC L   1       2.729  -6.329 -12.813  1.00  0.00    -0.0131  A
ATOM     10 C32  NAC L   1       1.477  -6.835 -12.418  1.00  0.00    -0.0305  A
ATOM     11 H55  NAC L   1      -0.511  -4.280 -13.467  1.00  0.00    +0.0638  H
ATOM     12 H56  NAC L   1       1.657  -3.378 -14.167  1.00  0.00    +0.0625  H
ATOM     13 H57  NAC L   1       4.188  -3.652 -14.314  1.00  0.00    +0.0836  H
ATOM     14 H58  NAC L   1       6.055  -7.009 -12.854  1.00  0.00    +0.0830  H
ATOM     15 H59  NAC L   1       3.909  -8.013 -12.111  1.00  0.00    +0.0639  H
ATOM     16 H60  NAC L   1       1.441  -7.810 -11.940  1.00  0.00    +0.0644  H
ENDROOT
BRANCH 1 19
ATOM     17 C20  NAC L   1      -1.886  -5.943 -11.416  1.00  0.00    +0.2344  C
ATOM     18 O21  NAC L   1      -1.738  -4.841 -10.892  1.00  0.00    -0.2722 OA
ATOM     19 N22  NAC L   1      -0.980  -6.553 -12.274  1.00  0.00    -0.3256  N
ATOM     20 H54  NAC L   1      -1.316  -7.392 -12.749  1.00  0.00    +0.1686 HD
BRANCH 17 21
ATOM     21 C14  NAC L   1      -3.160  -6.776 -11.222  1.00  0.00    +0.0803  C
ATOM     22 H47  NAC L   1      -3.492  -6.650 -10.185  1.00  0.00    +0.0463  H
BRANCH 21 26
ATOM     23 C10  NAC L   1      -6.443  -5.465 -13.764  1.00  0.00    -0.0103  A
ATOM     24 C11  NAC L   1      -6.118  -4.746 -12.609  1.00  0.00    -0.0551  A
ATOM     25 C12  NAC L   1      -5.072  -5.164 -11.782  1.00  0.00    -0.0574  A
ATOM     26 C13  NAC L   1      -4.321  -6.307 -12.094  1.00  0.00    -0.0336  A
ATOM     27 C33  NAC L   1      -4.645  -7.018 -13.261  1.00  0.00    -0.0574  A
ATOM     28 C34  NAC L   1      -5.691  -6.600 -14.088  1.00  0.00    -0.0551  A
ATOM     29 H45  NAC L   1      -6.678  -3.850 -12.345  1.00  0.00    +0.0621  H
ATOM     30 H46  NAC L   1      -4.861  -4.589 -10.882  1.00  0.00    +0.0621  H
ATOM     31 H61  NAC L   1      -4.081  -7.905 -13.543  1.00  0.00    +0.0621  H
ATOM     32 H62  NAC L   1      -5.913  -7.163 -14.992  1.00  0.00    +0.0621  H
BRANCH 23 33
ATOM     33  C9  NAC L   1      -7.560  -5.003 -14.663  1.00  0.00    +0.1179  C
ATOM     34 H43  NAC L   1      -7.438  -5.374 -15.689  1.00  0.00    +0.0749  H
ATOM     35 H44  NAC L   1      -7.543  -3.909 -14.735  1.00  0.00    +0.0749  H
BRANCH 33 36
ATOM     36  O8  NAC L   1      -8.819  -5.377 -14.092  1.00  0.00    -0.4564 OA
BRANCH 36 37
ATOM     37  C6  NAC L   1      -9.371  -6.508 -14.589  1.00  0.00    +0.3398  C
ATOM     38  O7  NAC L   1      -9.905  -6.645 -15.678  1.00  0.00    -0.2449 OA
BRANCH 37 43
ATOM     39  C1  NAC L   1      -8.732 -10.725 -10.672  1.00  0.00    -0.0397  C
ATOM     40  C2  NAC L   1      -8.853  -9.632 -11.695  1.00  0.00    -0.0502  A
ATOM     41  C3  NAC L   1      -9.448  -8.414 -11.361  1.00  0.00    -0.0580  A
ATOM     42  C4  NAC L   1      -9.593  -7.416 -12.323  1.00  0.00    -0.0473  A
ATOM     43  C5  NAC L   1      -9.157  -7.627 -13.640  1.00  0.00    +0.0619  A
ATOM     44 C35  NAC L   1      -8.536  -8.841 -13.992  1.00  0.00    -0.0362  A
ATOM     45 C36  NAC L   1      -8.015  -9.121 -15.374  1.00  0.00    -0.0389  C
ATOM     46 C37  NAC L   1      -8.413  -9.842 -13.010  1.00  0.00    -0.0551  A
ATOM     47 H38  NAC L   1      -7.843 -11.335 -10.857  1.00  0.00    +0.0278  H
ATOM     48 H39  NAC L   1      -8.637 -10.309  -9.664  1.00  0.00    +0.0278  H
ATOM     49 H40  NAC L   1      -9.617 -11.368 -10.707  1.00  0.00    +0.0278  H
ATOM     50 H41  NAC L   1      -9.806  -8.232 -10.349  1.00  0.00    +0.0620  H
ATOM     51 H42  NAC L   1     -10.056  -6.470 -12.049  1.00  0.00    +0.0626  H
ATOM     52 H63  NAC L   1      -7.285  -9.938 -15.363  1.00  0.00    +0.0278  H
ATOM     53 H64  NAC L   1      -7.497  -8.247 -15.782  1.00  0.00    +0.0278  H
ATOM     54 H65  NAC L   1      -8.835  -9.408 -16.038  1.00  0.00    +0.0278  H
ATOM     55 H66  NAC L   1      -7.959 -10.798 -13.271  1.00  0.00    +0.0623  H
ENDBRANCH 37 43
ENDBRANCH 36 37
ENDBRANCH 33 36
ENDBRANCH 23 33
ENDBRANCH 21 26
BRANCH 21 56
ATOM     56 C15  NAC L   1      -2.852  -8.269 -11.446  1.00  0.00    +0.0334  C
ATOM     57 H48  NAC L   1      -1.955  -8.566 -10.888  1.00  0.00    +0.0497  H
ATOM     58 H49  NAC L   1      -2.639  -8.446 -12.507  1.00  0.00    +0.0497  H
BRANCH 56 59
ATOM     59 N16  NAC L   1      -3.880  -9.235 -11.067  1.00  0.00    -0.3551  N
ATOM     60 C17  NAC L   1      -3.999 -10.503 -11.580  1.00  0.00    +0.2179  C
ATOM     61 C18  NAC L   1      -5.084 -11.321 -10.935  1.00  0.00    +0.0143  C
ATOM     62 O19  NAC L   1      -3.335 -10.925 -12.523  1.00  0.00    -0.2736 OA
ATOM     63 H50  NAC L   1      -4.495  -8.968 -10.307  1.00  0.00    +0.1623 HD
ATOM     64 H51  NAC L   1      -6.038 -11.100 -11.423  1.00  0.00    +0.0325  H
ATOM     65 H52  NAC L   1      -5.162 -11.093  -9.869  1.00  0.00    +0.0325  H
ATOM     66 H53  NAC L   1      -4.854 -12.383 -11.048  1.00  0.00    +0.0325  H
ENDBRANCH 56 59
ENDBRANCH 21 56
ENDBRANCH 17 21
ENDBRANCH 1 19
TORSDOF 9
ENDMDL
MODEL 6
REMARK VINA RESULT:    -7.021      1.458      2.086
REMARK INTER + INTRA:         -12.110
REMARK INTER:                 -10.455
REMARK INTRA:                  -1.656
REMARK UNBOUND:                -1.395
ROOT
ATOM      1 C23  NAC L   1       0.584  -2.611 -13.585  1.00  0.00    +0.0423  A
ATOM      2 C24  NAC L   1       0.835  -1.815 -12.462  1.00  0.00    -0.0377  A
ATOM      3 C25  NAC L   1       0.820  -0.421 -12.559  1.00  0.00    -0.0506  A
ATOM      4 C26  NAC L   1       0.548   0.200 -13.789  1.00  0.00    +0.0004  A
ATOM      5 C27  NAC L   1       0.519   1.588 -13.950  1.00  0.00    +0.0353  A
ATOM      6 N28  NAC L   1       0.261   2.220 -15.118  1.00  0.00    -0.2626 NA
ATOM      7 C29  NAC L   1       0.015   1.432 -16.185  1.00  0.00    +0.0281  A
ATOM      8 C30  NAC L   1       0.017   0.047 -16.141  1.00  0.00    -0.0358  A
ATOM      9 C31  NAC L   1       0.289  -0.591 -14.923  1.00  0.00    -0.0131  A
ATOM     10 C32  NAC L   1       0.308  -1.993 -14.807  1.00  0.00    -0.0305  A
ATOM     11 H55  NAC L   1       1.049  -2.268 -11.497  1.00  0.00    +0.0638  H
ATOM     12 H56  NAC L   1       1.020   0.176 -11.672  1.00  0.00    +0.0625  H
ATOM     13 H57  NAC L   1       0.711   2.255 -13.114  1.00  0.00    +0.0836  H
ATOM     14 H58  NAC L   1      -0.192   1.958 -17.112  1.00  0.00    +0.0830  H
ATOM     15 H59  NAC L   1      -0.190  -0.523 -17.040  1.00  0.00    +0.0639  H
ATOM     16 H60  NAC L   1       0.094  -2.587 -15.691  1.00  0.00    +0.0644  H
ENDROOT
BRANCH 1 19
ATOM     17 C20  NAC L   1       0.031  -4.750 -12.381  1.00  0.00    +0.2344  C
ATOM     18 O21  NAC L   1      -0.708  -4.302 -11.507  1.00  0.00    -0.2722 OA
ATOM     19 N22  NAC L   1       0.619  -4.006 -13.397  1.00  0.00    -0.3256  N
ATOM     20 H54  NAC L   1       1.074  -4.544 -14.134  1.00  0.00    +0.1686 HD
BRANCH 17 21
ATOM     21 C14  NAC L   1       0.353  -6.246 -12.492  1.00  0.00    +0.0803  C
ATOM     22 H47  NAC L   1       0.872  -6.548 -11.574  1.00  0.00    +0.0463  H
BRANCH 21 26
ATOM     23 C10  NAC L   1      -3.190  -8.771 -12.673  1.00  0.00    -0.0103  A
ATOM     24 C11  NAC L   1      -2.486  -8.461 -13.842  1.00  0.00    -0.0551  A
ATOM     25 C12  NAC L   1      -1.353  -7.645 -13.795  1.00  0.00    -0.0574  A
ATOM     26 C13  NAC L   1      -0.893  -7.123 -12.577  1.00  0.00    -0.0336  A
ATOM     27 C33  NAC L   1      -1.596  -7.447 -11.406  1.00  0.00    -0.0574  A
ATOM     28 C34  NAC L   1      -2.729  -8.264 -11.452  1.00  0.00    -0.0551  A
ATOM     29 H45  NAC L   1      -2.816  -8.858 -14.801  1.00  0.00    +0.0621  H
ATOM     30 H46  NAC L   1      -0.843  -7.411 -14.728  1.00  0.00    +0.0621  H
ATOM     31 H61  NAC L   1      -1.266  -7.070 -10.439  1.00  0.00    +0.0621  H
ATOM     32 H62  NAC L   1      -3.248  -8.507 -10.529  1.00  0.00    +0.0621  H
BRANCH 23 33
ATOM     33  C9  NAC L   1      -4.401  -9.664 -12.723  1.00  0.00    +0.1179  C
ATOM     34 H43  NAC L   1      -4.678 -10.032 -11.727  1.00  0.00    +0.0749  H
ATOM     35 H44  NAC L   1      -4.173 -10.556 -13.319  1.00  0.00    +0.0749  H
BRANCH 33 36
ATOM     36  O8  NAC L   1      -5.477  -8.977 -13.372  1.00  0.00    -0.4564 OA
BRANCH 36 37
ATOM     37  C6  NAC L   1      -6.502  -8.610 -12.569  1.00  0.00    +0.3398  C
ATOM     38  O7  NAC L   1      -7.083  -9.310 -11.756  1.00  0.00    -0.2449 OA
BRANCH 37 43
ATOM     39  C1  NAC L   1      -7.266  -2.909 -13.243  1.00  0.00    -0.0397  C
ATOM     40  C2  NAC L   1      -7.101  -4.387 -13.038  1.00  0.00    -0.0502  A
ATOM     41  C3  NAC L   1      -5.863  -4.916 -12.666  1.00  0.00    -0.0580  A
ATOM     42  C4  NAC L   1      -5.705  -6.293 -12.513  1.00  0.00    -0.0473  A
ATOM     43  C5  NAC L   1      -6.781  -7.163 -12.745  1.00  0.00    +0.0619  A
ATOM     44 C35  NAC L   1      -8.042  -6.648 -13.101  1.00  0.00    -0.0362  A
ATOM     45 C36  NAC L   1      -9.244  -7.521 -13.331  1.00  0.00    -0.0389  C
ATOM     46 C37  NAC L   1      -8.178  -5.257 -13.266  1.00  0.00    -0.0551  A
ATOM     47 H38  NAC L   1      -8.284  -2.592 -12.994  1.00  0.00    +0.0278  H
ATOM     48 H39  NAC L   1      -6.584  -2.346 -12.599  1.00  0.00    +0.0278  H
ATOM     49 H40  NAC L   1      -7.060  -2.652 -14.287  1.00  0.00    +0.0278  H
ATOM     50 H41  NAC L   1      -5.012  -4.260 -12.494  1.00  0.00    +0.0620  H
ATOM     51 H42  NAC L   1      -4.736  -6.691 -12.221  1.00  0.00    +0.0626  H
ATOM     52 H63  NAC L   1     -10.173  -6.943 -13.256  1.00  0.00    +0.0278  H
ATOM     53 H64  NAC L   1      -9.307  -8.309 -12.573  1.00  0.00    +0.0278  H
ATOM     54 H65  NAC L   1      -9.204  -7.969 -14.327  1.00  0.00    +0.0278  H
ATOM     55 H66  NAC L   1      -9.139  -4.843 -13.566  1.00  0.00    +0.0623  H
ENDBRANCH 37 43
ENDBRANCH 36 37
ENDBRANCH 33 36
ENDBRANCH 23 33
ENDBRANCH 21 26
BRANCH 21 56
ATOM     56 C15  NAC L   1       1.302  -6.494 -13.680  1.00  0.00    +0.0334  C
ATOM     57 H48  NAC L   1       1.367  -5.602 -14.314  1.00  0.00    +0.0497  H
ATOM     58 H49  NAC L   1       0.904  -7.301 -14.307  1.00  0.00    +0.0497  H
BRANCH 56 59
ATOM     59 N16  NAC L   1       2.685  -6.854 -13.376  1.00  0.00    -0.3551  N
ATOM     60 C17  NAC L   1       3.729  -5.968 -13.284  1.00  0.00    +0.2179  C
ATOM     61 C18  NAC L   1       5.026  -6.598 -12.856  1.00  0.00    +0.0143  C
ATOM     62 O19  NAC L   1       3.647  -4.780 -13.584  1.00  0.00    -0.2736 OA
ATOM     63 H50  NAC L   1       2.859  -7.824 -13.137  1.00  0.00    +0.1623 HD
ATOM     64 H51  NAC L   1       5.533  -7.009 -13.734  1.00  0.00    +0.0325  H
ATOM     65 H52  NAC L   1       4.850  -7.399 -12.132  1.00  0.00    +0.0325  H
ATOM     66 H53  NAC L   1       5.661  -5.841 -12.388  1.00  0.00    +0.0325  H
ENDBRANCH 56 59
ENDBRANCH 21 56
ENDBRANCH 17 21
ENDBRANCH 1 19
TORSDOF 9
ENDMDL
MODEL 7
REMARK VINA RESULT:    -7.001      1.498      1.940
REMARK INTER + INTRA:         -12.080
REMARK INTER:                 -10.807
REMARK INTRA:                  -1.273
REMARK UNBOUND:                -1.395
ROOT
ATOM      1 C23  NAC L   1       0.626  -2.445 -14.490  1.00  0.00    +0.0423  A
ATOM      2 C24  NAC L   1       0.095  -2.284 -15.775  1.00  0.00    -0.0377  A
ATOM      3 C25  NAC L   1      -0.394  -1.044 -16.194  1.00  0.00    -0.0506  A
ATOM      4 C26  NAC L   1      -0.355   0.062 -15.329  1.00  0.00    +0.0004  A
ATOM      5 C27  NAC L   1      -0.828   1.327 -15.688  1.00  0.00    +0.0353  A
ATOM      6 N28  NAC L   1      -0.806   2.412 -14.882  1.00  0.00    -0.2626 NA
ATOM      7 C29  NAC L   1      -0.283   2.235 -13.651  1.00  0.00    +0.0281  A
ATOM      8 C30  NAC L   1       0.215   1.027 -13.189  1.00  0.00    -0.0358  A
ATOM      9 C31  NAC L   1       0.182  -0.088 -14.037  1.00  0.00    -0.0131  A
ATOM     10 C32  NAC L   1       0.669  -1.344 -13.631  1.00  0.00    -0.0305  A
ATOM     11 H55  NAC L   1       0.051  -3.122 -16.466  1.00  0.00    +0.0638  H
ATOM     12 H56  NAC L   1      -0.803  -0.945 -17.197  1.00  0.00    +0.0625  H
ATOM     13 H57  NAC L   1      -1.254   1.508 -16.671  1.00  0.00    +0.0836  H
ATOM     14 H58  NAC L   1      -0.273   3.119 -13.020  1.00  0.00    +0.0830  H
ATOM     15 H59  NAC L   1       0.621   0.959 -12.185  1.00  0.00    +0.0639  H
ATOM     16 H60  NAC L   1       1.090  -1.437 -12.634  1.00  0.00    +0.0644  H
ENDROOT
BRANCH 1 19
ATOM     17 C20  NAC L   1       2.196  -4.402 -14.666  1.00  0.00    +0.2344  C
ATOM     18 O21  NAC L   1       3.008  -3.936 -15.462  1.00  0.00    -0.2722 OA
ATOM     19 N22  NAC L   1       1.095  -3.728 -14.152  1.00  0.00    -0.3256  N
ATOM     20 H54  NAC L   1       0.609  -4.193 -13.385  1.00  0.00    +0.1686 HD
BRANCH 17 21
ATOM     21 C14  NAC L   1       2.340  -5.815 -14.083  1.00  0.00    +0.0803  C
ATOM     22 H47  NAC L   1       2.747  -5.721 -13.070  1.00  0.00    +0.0463  H
BRANCH 21 26
ATOM     23 C10  NAC L   1      -1.450  -7.902 -13.594  1.00  0.00    -0.0103  A
ATOM     24 C11  NAC L   1      -0.854  -7.812 -14.857  1.00  0.00    -0.0551  A
ATOM     25 C12  NAC L   1       0.357  -7.137 -15.025  1.00  0.00    -0.0574  A
ATOM     26 C13  NAC L   1       1.006  -6.540 -13.934  1.00  0.00    -0.0336  A
ATOM     27 C33  NAC L   1       0.409  -6.645 -12.667  1.00  0.00    -0.0574  A
ATOM     28 C34  NAC L   1      -0.802  -7.320 -12.498  1.00  0.00    -0.0551  A
ATOM     29 H45  NAC L   1      -1.332  -8.271 -15.722  1.00  0.00    +0.0621  H
ATOM     30 H46  NAC L   1       0.780  -7.072 -16.026  1.00  0.00    +0.0621  H
ATOM     31 H61  NAC L   1       0.885  -6.204 -11.793  1.00  0.00    +0.0621  H
ATOM     32 H62  NAC L   1      -1.237  -7.395 -11.504  1.00  0.00    +0.0621  H
BRANCH 23 33
ATOM     33  C9  NAC L   1      -2.748  -8.644 -13.411  1.00  0.00    +0.1179  C
ATOM     34 H43  NAC L   1      -2.663  -9.695 -13.717  1.00  0.00    +0.0749  H
ATOM     35 H44  NAC L   1      -3.515  -8.205 -14.060  1.00  0.00    +0.0749  H
BRANCH 33 36
ATOM     36  O8  NAC L   1      -3.195  -8.501 -12.059  1.00  0.00    -0.4564 OA
BRANCH 36 37
ATOM     37  C6  NAC L   1      -4.529  -8.627 -11.870  1.00  0.00    +0.3398  C
ATOM     38  O7  NAC L   1      -5.116  -9.591 -11.407  1.00  0.00    -0.2449 OA
BRANCH 37 43
ATOM     39  C1  NAC L   1      -6.902  -3.505 -13.162  1.00  0.00    -0.0397  C
ATOM     40  C2  NAC L   1      -6.326  -4.845 -12.808  1.00  0.00    -0.0502  A
ATOM     41  C3  NAC L   1      -5.156  -4.934 -12.049  1.00  0.00    -0.0580  A
ATOM     42  C4  NAC L   1      -4.604  -6.180 -11.755  1.00  0.00    -0.0473  A
ATOM     43  C5  NAC L   1      -5.205  -7.356 -12.227  1.00  0.00    +0.0619  A
ATOM     44 C35  NAC L   1      -6.396  -7.288 -12.976  1.00  0.00    -0.0362  A
ATOM     45 C36  NAC L   1      -7.111  -8.509 -13.484  1.00  0.00    -0.0389  C
ATOM     46 C37  NAC L   1      -6.929  -6.021 -13.277  1.00  0.00    -0.0551  A
ATOM     47 H38  NAC L   1      -7.992  -3.559 -13.248  1.00  0.00    +0.0278  H
ATOM     48 H39  NAC L   1      -6.674  -2.764 -12.389  1.00  0.00    +0.0278  H
ATOM     49 H40  NAC L   1      -6.488  -3.161 -14.115  1.00  0.00    +0.0278  H
ATOM     50 H41  NAC L   1      -4.666  -4.035 -11.683  1.00  0.00    +0.0620  H
ATOM     51 H42  NAC L   1      -3.694  -6.235 -11.161  1.00  0.00    +0.0626  H
ATOM     52 H63  NAC L   1      -8.155  -8.283 -13.729  1.00  0.00    +0.0278  H
ATOM     53 H64  NAC L   1      -7.134  -9.295 -12.722  1.00  0.00    +0.0278  H
ATOM     54 H65  NAC L   1      -6.625  -8.886 -14.388  1.00  0.00    +0.0278  H
ATOM     55 H66  NAC L   1      -7.835  -5.949 -13.877  1.00  0.00    +0.0623  H
ENDBRANCH 37 43
ENDBRANCH 36 37
ENDBRANCH 33 36
ENDBRANCH 23 33
ENDBRANCH 21 26
BRANCH 21 56
ATOM     56 C15  NAC L   1       3.338  -6.633 -14.925  1.00  0.00    +0.0334  C
ATOM     57 H48  NAC L   1       3.695  -6.045 -15.779  1.00  0.00    +0.0497  H
ATOM     58 H49  NAC L   1       2.835  -7.517 -15.335  1.00  0.00    +0.0497  H
BRANCH 56 59
ATOM     59 N16  NAC L   1       4.544  -7.118 -14.259  1.00  0.00    -0.3551  N
ATOM     60 C17  NAC L   1       5.528  -6.320 -13.729  1.00  0.00    +0.2179  C
ATOM     61 C18  NAC L   1       6.606  -7.083 -13.009  1.00  0.00    +0.0143  C
ATOM     62 O19  NAC L   1       5.575  -5.102 -13.877  1.00  0.00    -0.2736 OA
ATOM     63 H50  NAC L   1       4.609  -8.119 -14.110  1.00  0.00    +0.1623 HD
ATOM     64 H51  NAC L   1       7.354  -7.418 -13.734  1.00  0.00    +0.0325  H
ATOM     65 H52  NAC L   1       6.190  -7.951 -12.490  1.00  0.00    +0.0325  H
ATOM     66 H53  NAC L   1       7.081  -6.431 -12.270  1.00  0.00    +0.0325  H
ENDBRANCH 56 59
ENDBRANCH 21 56
ENDBRANCH 17 21
ENDBRANCH 1 19
TORSDOF 9
ENDMDL
MODEL 8
REMARK VINA RESULT:    -6.917      3.586      5.429
REMARK INTER + INTRA:         -11.951
REMARK INTER:                 -10.044
REMARK INTRA:                  -1.907
REMARK UNBOUND:                -1.395
ROOT
ATOM      1 C23  NAC L   1       1.020  -5.950 -13.527  1.00  0.00    +0.0423  A
ATOM      2 C24  NAC L   1       0.830  -5.385 -14.793  1.00  0.00    -0.0377  A
ATOM      3 C25  NAC L   1       1.922  -4.968 -15.558  1.00  0.00    -0.0506  A
ATOM      4 C26  NAC L   1       3.229  -5.114 -15.066  1.00  0.00    +0.0004  A
ATOM      5 C27  NAC L   1       4.361  -4.716 -15.782  1.00  0.00    +0.0353  A
ATOM      6 N28  NAC L   1       5.633  -4.842 -15.338  1.00  0.00    -0.2626 NA
ATOM      7 C29  NAC L   1       5.792  -5.396 -14.118  1.00  0.00    +0.0281  A
ATOM      8 C30  NAC L   1       4.743  -5.826 -13.322  1.00  0.00    -0.0358  A
ATOM      9 C31  NAC L   1       3.431  -5.685 -13.796  1.00  0.00    -0.0131  A
ATOM     10 C32  NAC L   1       2.320  -6.100 -13.039  1.00  0.00    -0.0305  A
ATOM     11 H55  NAC L   1      -0.170  -5.258 -15.200  1.00  0.00    +0.0638  H
ATOM     12 H56  NAC L   1       1.748  -4.531 -16.539  1.00  0.00    +0.0625  H
ATOM     13 H57  NAC L   1       4.274  -4.269 -16.768  1.00  0.00    +0.0836  H
ATOM     14 H58  NAC L   1       6.820  -5.489 -13.782  1.00  0.00    +0.0830  H
ATOM     15 H59  NAC L   1       4.946  -6.262 -12.350  1.00  0.00    +0.0639  H
ATOM     16 H60  NAC L   1       2.497  -6.549 -12.065  1.00  0.00    +0.0644  H
ENDROOT
BRANCH 1 19
ATOM     17 C20  NAC L   1      -0.991  -5.549 -12.069  1.00  0.00    +0.2344  C
ATOM     18 O21  NAC L   1      -0.918  -4.327 -11.959  1.00  0.00    -0.2722 OA
ATOM     19 N22  NAC L   1      -0.136  -6.342 -12.825  1.00  0.00    -0.3256  N
ATOM     20 H54  NAC L   1      -0.421  -7.314 -12.942  1.00  0.00    +0.1686 HD
BRANCH 17 21
ATOM     21 C14  NAC L   1      -2.109  -6.365 -11.406  1.00  0.00    +0.0803  C
ATOM     22 H47  NAC L   1      -2.193  -6.037 -10.364  1.00  0.00    +0.0463  H
BRANCH 21 26
ATOM     23 C10  NAC L   1      -6.037  -5.643 -13.140  1.00  0.00    -0.0103  A
ATOM     24 C11  NAC L   1      -5.302  -6.775 -13.510  1.00  0.00    -0.0551  A
ATOM     25 C12  NAC L   1      -4.037  -7.010 -12.966  1.00  0.00    -0.0574  A
ATOM     26 C13  NAC L   1      -3.479  -6.123 -12.033  1.00  0.00    -0.0336  A
ATOM     27 C33  NAC L   1      -4.227  -4.996 -11.657  1.00  0.00    -0.0574  A
ATOM     28 C34  NAC L   1      -5.492  -4.760 -12.201  1.00  0.00    -0.0551  A
ATOM     29 H45  NAC L   1      -5.713  -7.485 -14.227  1.00  0.00    +0.0621  H
ATOM     30 H46  NAC L   1      -3.488  -7.891 -13.292  1.00  0.00    +0.0621  H
ATOM     31 H61  NAC L   1      -3.833  -4.288 -10.930  1.00  0.00    +0.0621  H
ATOM     32 H62  NAC L   1      -6.054  -3.885 -11.884  1.00  0.00    +0.0621  H
BRANCH 23 33
ATOM     33  C9  NAC L   1      -7.408  -5.399 -13.716  1.00  0.00    +0.1179  C
ATOM     34 H43  NAC L   1      -7.507  -4.382 -14.115  1.00  0.00    +0.0749  H
ATOM     35 H44  NAC L   1      -8.159  -5.484 -12.921  1.00  0.00    +0.0749  H
BRANCH 33 36
ATOM     36  O8  NAC L   1      -7.702  -6.403 -14.693  1.00  0.00    -0.4564 OA
BRANCH 36 37
ATOM     37  C6  NAC L   1      -8.909  -7.001 -14.570  1.00  0.00    +0.3398  C
ATOM     38  O7  NAC L   1      -9.906  -6.786 -15.241  1.00  0.00    -0.2449 OA
BRANCH 37 43
ATOM     39  C1  NAC L   1      -8.870 -10.967 -10.350  1.00  0.00    -0.0397  C
ATOM     40  C2  NAC L   1      -8.834  -9.939 -11.444  1.00  0.00    -0.0502  A
ATOM     41  C3  NAC L   1      -9.491  -8.716 -11.286  1.00  0.00    -0.0580  A
ATOM     42  C4  NAC L   1      -9.488  -7.779 -12.319  1.00  0.00    -0.0473  A
ATOM     43  C5  NAC L   1      -8.839  -8.058 -13.532  1.00  0.00    +0.0619  A
ATOM     44 C35  NAC L   1      -8.155  -9.277 -13.702  1.00  0.00    -0.0362  A
ATOM     45 C36  NAC L   1      -7.411  -9.626 -14.962  1.00  0.00    -0.0389  C
ATOM     46 C37  NAC L   1      -8.183 -10.216 -12.654  1.00  0.00    -0.0551  A
ATOM     47 H38  NAC L   1      -7.954 -11.567 -10.349  1.00  0.00    +0.0278  H
ATOM     48 H39  NAC L   1      -8.946 -10.490  -9.367  1.00  0.00    +0.0278  H
ATOM     49 H40  NAC L   1      -9.729 -11.630 -10.489  1.00  0.00    +0.0278  H
ATOM     50 H41  NAC L   1     -10.011  -8.484 -10.360  1.00  0.00    +0.0620  H
ATOM     51 H42  NAC L   1     -10.001  -6.830 -12.183  1.00  0.00    +0.0626  H
ATOM     52 H63  NAC L   1      -6.682 -10.425 -14.782  1.00  0.00    +0.0278  H
ATOM     53 H64  NAC L   1      -6.844  -8.766 -15.333  1.00  0.00    +0.0278  H
ATOM     54 H65  NAC L   1      -8.108  -9.969 -15.731  1.00  0.00    +0.0278  H
ATOM     55 H66  NAC L   1      -7.681 -11.174 -12.778  1.00  0.00    +0.0623  H
ENDBRANCH 37 43
ENDBRANCH 36 37
ENDBRANCH 33 36
ENDBRANCH 23 33
ENDBRANCH 21 26
BRANCH 21 56
ATOM     56 C15  NAC L   1      -1.742  -7.861 -11.408  1.00  0.00    +0.0334  C
ATOM     57 H48  NAC L   1      -0.991  -8.073 -12.178  1.00  0.00    +0.0497  H
ATOM     58 H49  NAC L   1      -2.629  -8.457 -11.656  1.00  0.00    +0.0497  H
BRANCH 56 59
ATOM     59 N16  NAC L   1      -1.200  -8.425 -10.174  1.00  0.00    -0.3551  N
ATOM     60 C17  NAC L   1       0.019  -8.105  -9.630  1.00  0.00    +0.2179  C
ATOM     61 C18  NAC L   1       0.280  -8.756  -8.299  1.00  0.00    +0.0143  C
ATOM     62 O19  NAC L   1       0.858  -7.407 -10.193  1.00  0.00    -0.2736 OA
ATOM     63 H50  NAC L   1      -1.813  -9.035  -9.646  1.00  0.00    +0.1623 HD
ATOM     64 H51  NAC L   1       0.687  -9.758  -8.464  1.00  0.00    +0.0325  H
ATOM     65 H52  NAC L   1      -0.640  -8.830  -7.714  1.00  0.00    +0.0325  H
ATOM     66 H53  NAC L   1       1.003  -8.157  -7.737  1.00  0.00    +0.0325  H
ENDBRANCH 56 59
ENDBRANCH 21 56
ENDBRANCH 17 21
ENDBRANCH 1 19
TORSDOF 9
ENDMDL
MODEL 9
REMARK VINA RESULT:    -6.522      3.669      9.371
REMARK INTER + INTRA:         -11.348
REMARK INTER:                  -9.989
REMARK INTRA:                  -1.359
REMARK UNBOUND:                -1.395
ROOT
ATOM      1 C23  NAC L   1      -1.490  -6.887 -12.992  1.00  0.00    +0.0423  A
ATOM      2 C24  NAC L   1      -2.069  -6.364 -11.831  1.00  0.00    -0.0377  A
ATOM      3 C25  NAC L   1      -3.128  -7.024 -11.202  1.00  0.00    -0.0506  A
ATOM      4 C26  NAC L   1      -3.624  -8.228 -11.727  1.00  0.00    +0.0004  A
ATOM      5 C27  NAC L   1      -4.679  -8.936 -11.145  1.00  0.00    +0.0353  A
ATOM      6 N28  NAC L   1      -5.180 -10.097 -11.624  1.00  0.00    -0.2626 NA
ATOM      7 C29  NAC L   1      -4.602 -10.587 -12.740  1.00  0.00    +0.0281  A
ATOM      8 C30  NAC L   1      -3.551  -9.971 -13.400  1.00  0.00    -0.0358  A
ATOM      9 C31  NAC L   1      -3.045  -8.767 -12.892  1.00  0.00    -0.0131  A
ATOM     10 C32  NAC L   1      -1.980  -8.088 -13.513  1.00  0.00    -0.0305  A
ATOM     11 H55  NAC L   1      -1.707  -5.433 -11.402  1.00  0.00    +0.0638  H
ATOM     12 H56  NAC L   1      -3.561  -6.596 -10.301  1.00  0.00    +0.0625  H
ATOM     13 H57  NAC L   1      -5.168  -8.574 -10.245  1.00  0.00    +0.0836  H
ATOM     14 H58  NAC L   1      -5.019 -11.520 -13.106  1.00  0.00    +0.0830  H
ATOM     15 H59  NAC L   1      -3.135 -10.423 -14.294  1.00  0.00    +0.0639  H
ATOM     16 H60  NAC L   1      -1.539  -8.525 -14.404  1.00  0.00    +0.0644  H
ENDROOT
BRANCH 1 19
ATOM     17 C20  NAC L   1       0.809  -5.869 -13.001  1.00  0.00    +0.2344  C
ATOM     18 O21  NAC L   1       1.220  -6.292 -11.923  1.00  0.00    -0.2722 OA
ATOM     19 N22  NAC L   1      -0.429  -6.156 -13.560  1.00  0.00    -0.3256  N
ATOM     20 H54  NAC L   1      -0.559  -5.860 -14.527  1.00  0.00    +0.1686 HD
BRANCH 17 21
ATOM     21 C14  NAC L   1       1.672  -4.988 -13.916  1.00  0.00    +0.0803  C
ATOM     22 H47  NAC L   1       1.557  -5.353 -14.942  1.00  0.00    +0.0463  H
BRANCH 21 26
ATOM     23 C10  NAC L   1       0.367  -0.834 -13.916  1.00  0.00    -0.0103  A
ATOM     24 C11  NAC L   1       0.544  -1.515 -15.126  1.00  0.00    -0.0551  A
ATOM     25 C12  NAC L   1       0.971  -2.846 -15.136  1.00  0.00    -0.0574  A
ATOM     26 C13  NAC L   1       1.225  -3.529 -13.937  1.00  0.00    -0.0336  A
ATOM     27 C33  NAC L   1       1.033  -2.843 -12.727  1.00  0.00    -0.0574  A
ATOM     28 C34  NAC L   1       0.606  -1.513 -12.716  1.00  0.00    -0.0551  A
ATOM     29 H45  NAC L   1       0.349  -1.013 -16.072  1.00  0.00    +0.0621  H
ATOM     30 H46  NAC L   1       1.116  -3.336 -16.096  1.00  0.00    +0.0621  H
ATOM     31 H61  NAC L   1       1.210  -3.340 -11.775  1.00  0.00    +0.0621  H
ATOM     32 H62  NAC L   1       0.456  -1.009 -11.764  1.00  0.00    +0.0621  H
BRANCH 23 33
ATOM     33  C9  NAC L   1      -0.109   0.595 -13.907  1.00  0.00    +0.1179  C
ATOM     34 H43  NAC L   1      -0.639   0.842 -12.978  1.00  0.00    +0.0749  H
ATOM     35 H44  NAC L   1      -0.836   0.744 -14.715  1.00  0.00    +0.0749  H
BRANCH 33 36
ATOM     36  O8  NAC L   1       0.997   1.470 -14.157  1.00  0.00    -0.4564 OA
BRANCH 36 37
ATOM     37  C6  NAC L   1       0.960   2.133 -15.336  1.00  0.00    +0.3398  C
ATOM     38  O7  NAC L   1       0.075   2.087 -16.175  1.00  0.00    -0.2449 OA
BRANCH 37 43
ATOM     39  C1  NAC L   1       5.739   5.364 -15.833  1.00  0.00    -0.0397  C
ATOM     40  C2  NAC L   1       4.490   4.548 -15.665  1.00  0.00    -0.0502  A
ATOM     41  C3  NAC L   1       4.554   3.153 -15.649  1.00  0.00    -0.0580  A
ATOM     42  C4  NAC L   1       3.388   2.398 -15.531  1.00  0.00    -0.0473  A
ATOM     43  C5  NAC L   1       2.138   3.028 -15.443  1.00  0.00    +0.0619  A
ATOM     44 C35  NAC L   1       2.054   4.434 -15.437  1.00  0.00    -0.0362  A
ATOM     45 C36  NAC L   1       0.751   5.173 -15.311  1.00  0.00    -0.0389  C
ATOM     46 C37  NAC L   1       3.240   5.178 -15.573  1.00  0.00    -0.0551  A
ATOM     47 H38  NAC L   1       5.651   6.323 -15.313  1.00  0.00    +0.0278  H
ATOM     48 H39  NAC L   1       6.606   4.845 -15.412  1.00  0.00    +0.0278  H
ATOM     49 H40  NAC L   1       5.922   5.553 -16.896  1.00  0.00    +0.0278  H
ATOM     50 H41  NAC L   1       5.512   2.643 -15.729  1.00  0.00    +0.0620  H
ATOM     51 H42  NAC L   1       3.452   1.312 -15.517  1.00  0.00    +0.0626  H
ATOM     52 H63  NAC L   1       0.913   6.207 -14.985  1.00  0.00    +0.0278  H
ATOM     53 H64  NAC L   1       0.107   4.707 -14.557  1.00  0.00    +0.0278  H
ATOM     54 H65  NAC L   1       0.233   5.198 -16.274  1.00  0.00    +0.0278  H
ATOM     55 H66  NAC L   1       3.192   6.266 -15.597  1.00  0.00    +0.0623  H
ENDBRANCH 37 43
ENDBRANCH 36 37
ENDBRANCH 33 36
ENDBRANCH 23 33
ENDBRANCH 21 26
BRANCH 21 56
ATOM     56 C15  NAC L   1       3.157  -5.119 -13.526  1.00  0.00    +0.0334  C
ATOM     57 H48  NAC L   1       3.340  -4.664 -12.545  1.00  0.00    +0.0497  H
ATOM     58 H49  NAC L   1       3.776  -4.575 -14.249  1.00  0.00    +0.0497  H
BRANCH 56 59
ATOM     59 N16  NAC L   1       3.715  -6.466 -13.438  1.00  0.00    -0.3551  N
ATOM     60 C17  NAC L   1       4.970  -6.771 -12.971  1.00  0.00    +0.2179  C
ATOM     61 C18  NAC L   1       5.247  -8.247 -12.892  1.00  0.00    +0.0143  C
ATOM     62 O19  NAC L   1       5.823  -5.929 -12.702  1.00  0.00    -0.2736 OA
ATOM     63 H50  NAC L   1       3.091  -7.232 -13.663  1.00  0.00    +0.1623 HD
ATOM     64 H51  NAC L   1       5.592  -8.600 -13.868  1.00  0.00    +0.0325  H
ATOM     65 H52  NAC L   1       4.348  -8.798 -12.604  1.00  0.00    +0.0325  H
ATOM     66 H53  NAC L   1       6.022  -8.432 -12.143  1.00  0.00    +0.0325  H
ENDBRANCH 56 59
ENDBRANCH 21 56
ENDBRANCH 17 21
ENDBRANCH 1 19
TORSDOF 9
ENDMDL
MODEL 10
REMARK VINA RESULT:    -6.467      3.625      8.684
REMARK INTER + INTRA:         -11.264
REMARK INTER:                  -9.925
REMARK INTRA:                  -1.339
REMARK UNBOUND:                -1.395
ROOT
ATOM      1 C23  NAC L   1      -1.591  -7.174 -12.873  1.00  0.00    +0.0423  A
ATOM      2 C24  NAC L   1      -2.225  -6.575 -11.778  1.00  0.00    -0.0377  A
ATOM      3 C25  NAC L   1      -3.396  -7.121 -11.246  1.00  0.00    -0.0506  A
ATOM      4 C26  NAC L   1      -3.952  -8.284 -11.804  1.00  0.00    +0.0004  A
ATOM      5 C27  NAC L   1      -5.120  -8.878 -11.318  1.00  0.00    +0.0353  A
ATOM      6 N28  NAC L   1      -5.682  -9.997 -11.829  1.00  0.00    -0.2626 NA
ATOM      7 C29  NAC L   1      -5.050 -10.560 -12.880  1.00  0.00    +0.0281  A
ATOM      8 C30  NAC L   1      -3.888 -10.058 -13.443  1.00  0.00    -0.0358  A
ATOM      9 C31  NAC L   1      -3.320  -8.897 -12.901  1.00  0.00    -0.0131  A
ATOM     10 C32  NAC L   1      -2.142  -8.333 -13.425  1.00  0.00    -0.0305  A
ATOM     11 H55  NAC L   1      -1.818  -5.674 -11.327  1.00  0.00    +0.0638  H
ATOM     12 H56  NAC L   1      -3.869  -6.636 -10.396  1.00  0.00    +0.0625  H
ATOM     13 H57  NAC L   1      -5.655  -8.455 -10.473  1.00  0.00    +0.0836  H
ATOM     14 H58  NAC L   1      -5.517 -11.458 -13.274  1.00  0.00    +0.0830  H
ATOM     15 H59  NAC L   1      -3.434 -10.565 -14.288  1.00  0.00    +0.0639  H
ATOM     16 H60  NAC L   1      -1.662  -8.827 -14.266  1.00  0.00    +0.0644  H
ENDROOT
BRANCH 1 19
ATOM     17 C20  NAC L   1       0.819  -6.472 -12.716  1.00  0.00    +0.2344  C
ATOM     18 O21  NAC L   1       1.116  -7.013 -11.653  1.00  0.00    -0.2722 OA
ATOM     19 N22  NAC L   1      -0.417  -6.557 -13.345  1.00  0.00    -0.3256  N
ATOM     20 H54  NAC L   1      -0.458  -6.186 -14.294  1.00  0.00    +0.1686 HD
BRANCH 17 21
ATOM     21 C14  NAC L   1       1.834  -5.659 -13.531  1.00  0.00    +0.0803  C
ATOM     22 H47  NAC L   1       2.003  -6.182 -14.479  1.00  0.00    +0.0463  H
BRANCH 21 26
ATOM     23 C10  NAC L   1       0.420  -1.696 -14.655  1.00  0.00    -0.0103  A
ATOM     24 C11  NAC L   1       0.524  -2.049 -13.305  1.00  0.00    -0.0551  A
ATOM     25 C12  NAC L   1       0.968  -3.321 -12.935  1.00  0.00    -0.0574  A
ATOM     26 C13  NAC L   1       1.325  -4.269 -13.905  1.00  0.00    -0.0336  A
ATOM     27 C33  NAC L   1       1.231  -3.905 -15.258  1.00  0.00    -0.0574  A
ATOM     28 C34  NAC L   1       0.787  -2.633 -15.628  1.00  0.00    -0.0551  A
ATOM     29 H45  NAC L   1       0.260  -1.332 -12.529  1.00  0.00    +0.0621  H
ATOM     30 H46  NAC L   1       1.018  -3.565 -11.875  1.00  0.00    +0.0621  H
ATOM     31 H61  NAC L   1       1.507  -4.608 -16.042  1.00  0.00    +0.0621  H
ATOM     32 H62  NAC L   1       0.733  -2.373 -16.683  1.00  0.00    +0.0621  H
BRANCH 23 33
ATOM     33  C9  NAC L   1      -0.043  -0.319 -15.052  1.00  0.00    +0.1179  C
ATOM     34 H43  NAC L   1      -0.869   0.031 -14.419  1.00  0.00    +0.0749  H
ATOM     35 H44  NAC L   1      -0.440  -0.347 -16.074  1.00  0.00    +0.0749  H
BRANCH 33 36
ATOM     36  O8  NAC L   1       1.071   0.580 -15.047  1.00  0.00    -0.4564 OA
BRANCH 36 37
ATOM     37  C6  NAC L   1       1.048   1.531 -14.085  1.00  0.00    +0.3398  C
ATOM     38  O7  NAC L   1       1.401   1.407 -12.923  1.00  0.00    -0.2449 OA
BRANCH 37 43
ATOM     39  C1  NAC L   1      -0.968   6.527 -16.208  1.00  0.00    -0.0397  C
ATOM     40  C2  NAC L   1      -0.429   5.222 -15.699  1.00  0.00    -0.0502  A
ATOM     41  C3  NAC L   1      -1.275   4.302 -15.075  1.00  0.00    -0.0580  A
ATOM     42  C4  NAC L   1      -0.764   3.108 -14.569  1.00  0.00    -0.0473  A
ATOM     43  C5  NAC L   1       0.606   2.821 -14.668  1.00  0.00    +0.0619  A
ATOM     44 C35  NAC L   1       1.472   3.726 -15.311  1.00  0.00    -0.0362  A
ATOM     45 C36  NAC L   1       2.943   3.466 -15.482  1.00  0.00    -0.0389  C
ATOM     46 C37  NAC L   1       0.940   4.933 -15.801  1.00  0.00    -0.0551  A
ATOM     47 H38  NAC L   1      -0.405   6.867 -17.083  1.00  0.00    +0.0278  H
ATOM     48 H39  NAC L   1      -2.014   6.426 -16.514  1.00  0.00    +0.0278  H
ATOM     49 H40  NAC L   1      -0.901   7.289 -15.425  1.00  0.00    +0.0278  H
ATOM     50 H41  NAC L   1      -2.339   4.510 -14.976  1.00  0.00    +0.0620  H
ATOM     51 H42  NAC L   1      -1.435   2.399 -14.088  1.00  0.00    +0.0626  H
ATOM     52 H63  NAC L   1       3.365   4.089 -16.279  1.00  0.00    +0.0278  H
ATOM     53 H64  NAC L   1       3.127   2.426 -15.771  1.00  0.00    +0.0278  H
ATOM     54 H65  NAC L   1       3.479   3.693 -14.556  1.00  0.00    +0.0278  H
ATOM     55 H66  NAC L   1       1.599   5.657 -16.278  1.00  0.00    +0.0623  H
ENDBRANCH 37 43
ENDBRANCH 36 37
ENDBRANCH 33 36
ENDBRANCH 23 33
ENDBRANCH 21 26
BRANCH 21 56
ATOM     56 C15  NAC L   1       3.177  -5.586 -12.779  1.00  0.00    +0.0334  C
ATOM     57 H48  NAC L   1       3.124  -6.151 -11.840  1.00  0.00    +0.0497  H
ATOM     58 H49  NAC L   1       3.393  -4.545 -12.512  1.00  0.00    +0.0497  H
BRANCH 56 59
ATOM     59 N16  NAC L   1       4.363  -6.089 -13.466  1.00  0.00    -0.3551  N
ATOM     60 C17  NAC L   1       4.676  -7.416 -13.633  1.00  0.00    +0.2179  C
ATOM     61 C18  NAC L   1       5.903  -7.650 -14.471  1.00  0.00    +0.0143  C
ATOM     62 O19  NAC L   1       4.061  -8.336 -13.101  1.00  0.00    -0.2736 OA
ATOM     63 H50  NAC L   1       4.951  -5.399 -13.922  1.00  0.00    +0.1623 HD
ATOM     64 H51  NAC L   1       6.790  -7.586 -13.834  1.00  0.00    +0.0325  H
ATOM     65 H52  NAC L   1       5.977  -6.909 -15.271  1.00  0.00    +0.0325  H
ATOM     66 H53  NAC L   1       5.850  -8.645 -14.922  1.00  0.00    +0.0325  H
ENDBRANCH 56 59
ENDBRANCH 21 56
ENDBRANCH 17 21
ENDBRANCH 1 19
TORSDOF 9
ENDMDL
MODEL 11
REMARK VINA RESULT:    -6.363      3.050      8.654
REMARK INTER + INTRA:         -11.106
REMARK INTER:                  -9.992
REMARK INTRA:                  -1.115
REMARK UNBOUND:                -1.395
ROOT
ATOM      1 C23  NAC L   1      -3.065  -8.039 -12.759  1.00  0.00    +0.0423  A
ATOM      2 C24  NAC L   1      -4.092  -7.279 -13.329  1.00  0.00    -0.0377  A
ATOM      3 C25  NAC L   1      -5.431  -7.577 -13.061  1.00  0.00    -0.0506  A
ATOM      4 C26  NAC L   1      -5.763  -8.644 -12.211  1.00  0.00    +0.0004  A
ATOM      5 C27  NAC L   1      -7.081  -8.991 -11.905  1.00  0.00    +0.0353  A
ATOM      6 N28  NAC L   1      -7.437 -10.011 -11.090  1.00  0.00    -0.2626 NA
ATOM      7 C29  NAC L   1      -6.429 -10.725 -10.547  1.00  0.00    +0.0281  A
ATOM      8 C30  NAC L   1      -5.088 -10.470 -10.780  1.00  0.00    -0.0358  A
ATOM      9 C31  NAC L   1      -4.737  -9.411 -11.628  1.00  0.00    -0.0131  A
ATOM     10 C32  NAC L   1      -3.395  -9.097 -11.909  1.00  0.00    -0.0305  A
ATOM     11 H55  NAC L   1      -3.866  -6.448 -13.992  1.00  0.00    +0.0638  H
ATOM     12 H56  NAC L   1      -6.212  -6.972 -13.518  1.00  0.00    +0.0625  H
ATOM     13 H57  NAC L   1      -7.919  -8.439 -12.321  1.00  0.00    +0.0836  H
ATOM     14 H58  NAC L   1      -6.736 -11.538  -9.895  1.00  0.00    +0.0830  H
ATOM     15 H59  NAC L   1      -4.330 -11.087 -10.308  1.00  0.00    +0.0639  H
ATOM     16 H60  NAC L   1      -2.616  -9.694 -11.441  1.00  0.00    +0.0644  H
ENDROOT
BRANCH 1 19
ATOM     17 C20  NAC L   1      -0.840  -6.955 -12.309  1.00  0.00    +0.2344  C
ATOM     18 O21  NAC L   1      -1.025  -6.594 -11.149  1.00  0.00    -0.2722 OA
ATOM     19 N22  NAC L   1      -1.745  -7.669 -13.083  1.00  0.00    -0.3256  N
ATOM     20 H54  NAC L   1      -1.386  -8.030 -13.967  1.00  0.00    +0.1686 HD
BRANCH 17 21
ATOM     21 C14  NAC L   1       0.482  -6.699 -13.044  1.00  0.00    +0.0803  C
ATOM     22 H47  NAC L   1       0.504  -7.339 -13.934  1.00  0.00    +0.0463  H
BRANCH 21 26
ATOM     23 C10  NAC L   1       0.821  -2.592 -14.453  1.00  0.00    -0.0103  A
ATOM     24 C11  NAC L   1       0.992  -3.658 -15.344  1.00  0.00    -0.0551  A
ATOM     25 C12  NAC L   1       0.894  -4.979 -14.900  1.00  0.00    -0.0574  A
ATOM     26 C13  NAC L   1       0.616  -5.267 -13.555  1.00  0.00    -0.0336  A
ATOM     27 C33  NAC L   1       0.434  -4.193 -12.668  1.00  0.00    -0.0574  A
ATOM     28 C34  NAC L   1       0.532  -2.872 -13.113  1.00  0.00    -0.0551  A
ATOM     29 H45  NAC L   1       1.202  -3.465 -16.395  1.00  0.00    +0.0621  H
ATOM     30 H46  NAC L   1       1.052  -5.781 -15.618  1.00  0.00    +0.0621  H
ATOM     31 H61  NAC L   1       0.208  -4.374 -11.619  1.00  0.00    +0.0621  H
ATOM     32 H62  NAC L   1       0.375  -2.059 -12.407  1.00  0.00    +0.0621  H
BRANCH 23 33
ATOM     33  C9  NAC L   1       0.911  -1.169 -14.937  1.00  0.00    +0.1179  C
ATOM     34 H43  NAC L   1       0.750  -1.096 -16.021  1.00  0.00    +0.0749  H
ATOM     35 H44  NAC L   1       1.923  -0.785 -14.759  1.00  0.00    +0.0749  H
BRANCH 33 36
ATOM     36  O8  NAC L   1       0.003  -0.351 -14.191  1.00  0.00    -0.4564 OA
BRANCH 36 37
ATOM     37  C6  NAC L   1       0.566   0.671 -13.508  1.00  0.00    +0.3398  C
ATOM     38  O7  NAC L   1       1.224   0.593 -12.483  1.00  0.00    -0.2449 OA
BRANCH 37 43
ATOM     39  C1  NAC L   1      -0.567   5.665 -16.211  1.00  0.00    -0.0397  C
ATOM     40  C2  NAC L   1      -0.261   4.352 -15.550  1.00  0.00    -0.0502  A
ATOM     41  C3  NAC L   1      -1.242   3.686 -14.812  1.00  0.00    -0.0580  A
ATOM     42  C4  NAC L   1      -0.942   2.486 -14.168  1.00  0.00    -0.0473  A
ATOM     43  C5  NAC L   1       0.349   1.942 -14.241  1.00  0.00    +0.0619  A
ATOM     44 C35  NAC L   1       1.346   2.588 -14.996  1.00  0.00    -0.0362  A
ATOM     45 C36  NAC L   1       2.740   2.043 -15.144  1.00  0.00    -0.0389  C
ATOM     46 C37  NAC L   1       1.029   3.806 -15.626  1.00  0.00    -0.0551  A
ATOM     47 H38  NAC L   1       0.022   5.788 -17.125  1.00  0.00    +0.0278  H
ATOM     48 H39  NAC L   1      -1.623   5.723 -16.496  1.00  0.00    +0.0278  H
ATOM     49 H40  NAC L   1      -0.339   6.489 -15.528  1.00  0.00    +0.0278  H
ATOM     50 H41  NAC L   1      -2.246   4.096 -14.732  1.00  0.00    +0.0620  H
ATOM     51 H42  NAC L   1      -1.716   1.976 -13.599  1.00  0.00    +0.0626  H
ATOM     52 H63  NAC L   1       3.244   2.479 -16.014  1.00  0.00    +0.0278  H
ATOM     53 H64  NAC L   1       2.722   0.960 -15.304  1.00  0.00    +0.0278  H
ATOM     54 H65  NAC L   1       3.335   2.276 -14.256  1.00  0.00    +0.0278  H
ATOM     55 H66  NAC L   1       1.795   4.333 -16.193  1.00  0.00    +0.0623  H
ENDBRANCH 37 43
ENDBRANCH 36 37
ENDBRANCH 33 36
ENDBRANCH 23 33
ENDBRANCH 21 26
BRANCH 21 56
ATOM     56 C15  NAC L   1       1.670  -7.092 -12.145  1.00  0.00    +0.0334  C
ATOM     57 H48  NAC L   1       1.864  -8.170 -12.211  1.00  0.00    +0.0497  H
ATOM     58 H49  NAC L   1       1.425  -6.877 -11.098  1.00  0.00    +0.0497  H
BRANCH 56 59
ATOM     59 N16  NAC L   1       2.956  -6.452 -12.407  1.00  0.00    -0.3551  N
ATOM     60 C17  NAC L   1       4.046  -7.070 -12.970  1.00  0.00    +0.2179  C
ATOM     61 C18  NAC L   1       5.206  -6.146 -13.222  1.00  0.00    +0.0143  C
ATOM     62 O19  NAC L   1       4.109  -8.276 -13.193  1.00  0.00    -0.2736 OA
ATOM     63 H50  NAC L   1       3.011  -5.455 -12.231  1.00  0.00    +0.1623 HD
ATOM     64 H51  NAC L   1       5.803  -6.063 -12.309  1.00  0.00    +0.0325  H
ATOM     65 H52  NAC L   1       4.857  -5.154 -13.518  1.00  0.00    +0.0325  H
ATOM     66 H53  NAC L   1       5.825  -6.552 -14.026  1.00  0.00    +0.0325  H
ENDBRANCH 56 59
ENDBRANCH 21 56
ENDBRANCH 17 21
ENDBRANCH 1 19
TORSDOF 9
ENDMDL
MODEL 12
REMARK VINA RESULT:    -6.353      4.068      6.859
REMARK INTER + INTRA:         -11.091
REMARK INTER:                  -8.436
REMARK INTRA:                  -2.654
REMARK UNBOUND:                -1.395
ROOT
ATOM      1 C23  NAC L   1      -2.839  -8.264 -12.368  1.00  0.00    +0.0423  A
ATOM      2 C24  NAC L   1      -2.830  -7.892 -11.019  1.00  0.00    -0.0377  A
ATOM      3 C25  NAC L   1      -1.892  -6.975 -10.539  1.00  0.00    -0.0506  A
ATOM      4 C26  NAC L   1      -0.944  -6.411 -11.407  1.00  0.00    +0.0004  A
ATOM      5 C27  NAC L   1       0.020  -5.489 -10.988  1.00  0.00    +0.0353  A
ATOM      6 N28  NAC L   1       0.946  -4.926 -11.797  1.00  0.00    -0.2626 NA
ATOM      7 C29  NAC L   1       0.915  -5.295 -13.094  1.00  0.00    +0.0281  A
ATOM      8 C30  NAC L   1       0.005  -6.198 -13.619  1.00  0.00    -0.0358  A
ATOM      9 C31  NAC L   1      -0.947  -6.774 -12.767  1.00  0.00    -0.0131  A
ATOM     10 C32  NAC L   1      -1.899  -7.699 -13.234  1.00  0.00    -0.0305  A
ATOM     11 H55  NAC L   1      -3.552  -8.313 -10.323  1.00  0.00    +0.0638  H
ATOM     12 H56  NAC L   1      -1.906  -6.703  -9.485  1.00  0.00    +0.0625  H
ATOM     13 H57  NAC L   1       0.075  -5.167  -9.952  1.00  0.00    +0.0836  H
ATOM     14 H58  NAC L   1       1.666  -4.830 -13.726  1.00  0.00    +0.0830  H
ATOM     15 H59  NAC L   1       0.039  -6.448 -14.675  1.00  0.00    +0.0639  H
ATOM     16 H60  NAC L   1      -1.892  -7.958 -14.289  1.00  0.00    +0.0644  H
ENDROOT
BRANCH 1 19
ATOM     17 C20  NAC L   1      -4.003 -10.493 -12.310  1.00  0.00    +0.2344  C
ATOM     18 O21  NAC L   1      -3.374 -11.024 -11.398  1.00  0.00    -0.2722 OA
ATOM     19 N22  NAC L   1      -3.819  -9.193 -12.766  1.00  0.00    -0.3256  N
ATOM     20 H54  NAC L   1      -4.522  -8.848 -13.419  1.00  0.00    +0.1686 HD
BRANCH 17 21
ATOM     21 C14  NAC L   1      -5.148 -11.210 -13.040  1.00  0.00    +0.0803  C
ATOM     22 H47  NAC L   1      -5.502 -12.022 -12.395  1.00  0.00    +0.0463  H
BRANCH 21 26
ATOM     23 C10  NAC L   1      -8.578  -8.638 -13.803  1.00  0.00    -0.0103  A
ATOM     24 C11  NAC L   1      -8.047  -8.738 -12.512  1.00  0.00    -0.0551  A
ATOM     25 C12  NAC L   1      -6.952  -9.567 -12.255  1.00  0.00    -0.0574  A
ATOM     26 C13  NAC L   1      -6.357 -10.312 -13.285  1.00  0.00    -0.0336  A
ATOM     27 C33  NAC L   1      -6.887 -10.198 -14.580  1.00  0.00    -0.0574  A
ATOM     28 C34  NAC L   1      -7.981  -9.369 -14.837  1.00  0.00    -0.0551  A
ATOM     29 H45  NAC L   1      -8.484  -8.166 -11.694  1.00  0.00    +0.0621  H
ATOM     30 H46  NAC L   1      -6.579  -9.633 -11.235  1.00  0.00    +0.0621  H
ATOM     31 H61  NAC L   1      -6.448 -10.752 -15.408  1.00  0.00    +0.0621  H
ATOM     32 H62  NAC L   1      -8.365  -9.291 -15.852  1.00  0.00    +0.0621  H
BRANCH 23 33
ATOM     33  C9  NAC L   1      -9.748  -7.731 -14.081  1.00  0.00    +0.1179  C
ATOM     34 H43  NAC L   1      -9.959  -7.067 -13.232  1.00  0.00    +0.0749  H
ATOM     35 H44  NAC L   1     -10.653  -8.334 -14.222  1.00  0.00    +0.0749  H
BRANCH 33 36
ATOM     36  O8  NAC L   1      -9.517  -7.010 -15.296  1.00  0.00    -0.4564 OA
BRANCH 36 37
ATOM     37  C6  NAC L   1      -9.266  -5.689 -15.151  1.00  0.00    +0.3398  C
ATOM     38  O7  NAC L   1      -9.901  -4.765 -15.634  1.00  0.00    -0.2449 OA
BRANCH 37 43
ATOM     39  C1  NAC L   1      -4.623  -4.999 -11.761  1.00  0.00    -0.0397  C
ATOM     40  C2  NAC L   1      -5.846  -5.202 -12.607  1.00  0.00    -0.0502  A
ATOM     41  C3  NAC L   1      -5.740  -5.766 -13.880  1.00  0.00    -0.0580  A
ATOM     42  C4  NAC L   1      -6.873  -5.918 -14.678  1.00  0.00    -0.0473  A
ATOM     43  C5  NAC L   1      -8.129  -5.495 -14.218  1.00  0.00    +0.0619  A
ATOM     44 C35  NAC L   1      -8.261  -4.943 -12.930  1.00  0.00    -0.0362  A
ATOM     45 C36  NAC L   1      -9.581  -4.502 -12.362  1.00  0.00    -0.0389  C
ATOM     46 C37  NAC L   1      -7.103  -4.783 -12.146  1.00  0.00    -0.0551  A
ATOM     47 H38  NAC L   1      -4.867  -5.081 -10.697  1.00  0.00    +0.0278  H
ATOM     48 H39  NAC L   1      -3.865  -5.758 -11.979  1.00  0.00    +0.0278  H
ATOM     49 H40  NAC L   1      -4.198  -4.009 -11.952  1.00  0.00    +0.0278  H
ATOM     50 H41  NAC L   1      -4.773  -6.089 -14.262  1.00  0.00    +0.0620  H
ATOM     51 H42  NAC L   1      -6.776  -6.361 -15.667  1.00  0.00    +0.0626  H
ATOM     52 H63  NAC L   1      -9.538  -4.431 -11.269  1.00  0.00    +0.0278  H
ATOM     53 H64  NAC L   1     -10.370  -5.224 -12.596  1.00  0.00    +0.0278  H
ATOM     54 H65  NAC L   1      -9.853  -3.518 -12.754  1.00  0.00    +0.0278  H
ATOM     55 H66  NAC L   1      -7.182  -4.335 -11.157  1.00  0.00    +0.0623  H
ENDBRANCH 37 43
ENDBRANCH 36 37
ENDBRANCH 33 36
ENDBRANCH 23 33
ENDBRANCH 21 26
BRANCH 21 56
ATOM     56 C15  NAC L   1      -4.629 -11.831 -14.351  1.00  0.00    +0.0334  C
ATOM     57 H48  NAC L   1      -5.118 -11.368 -15.217  1.00  0.00    +0.0497  H
ATOM     58 H49  NAC L   1      -4.881 -12.898 -14.377  1.00  0.00    +0.0497  H
BRANCH 56 59
ATOM     59 N16  NAC L   1      -3.197 -11.740 -14.621  1.00  0.00    -0.3551  N
ATOM     60 C17  NAC L   1      -2.588 -10.727 -15.321  1.00  0.00    +0.2179  C
ATOM     61 C18  NAC L   1      -1.088 -10.831 -15.359  1.00  0.00    +0.0143  C
ATOM     62 O19  NAC L   1      -3.199  -9.848 -15.922  1.00  0.00    -0.2736 OA
ATOM     63 H50  NAC L   1      -2.607 -12.439 -14.184  1.00  0.00    +0.1623 HD
ATOM     64 H51  NAC L   1      -0.795 -11.491 -16.180  1.00  0.00    +0.0325  H
ATOM     65 H52  NAC L   1      -0.701 -11.229 -14.418  1.00  0.00    +0.0325  H
ATOM     66 H53  NAC L   1      -0.660  -9.838 -15.519  1.00  0.00    +0.0325  H
ENDBRANCH 56 59
ENDBRANCH 21 56
ENDBRANCH 17 21
ENDBRANCH 1 19
TORSDOF 9
ENDMDL
MODEL 13
REMARK VINA RESULT:    -6.249      3.557      4.938
REMARK INTER + INTRA:         -10.932
REMARK INTER:                  -8.977
REMARK INTRA:                  -1.956
REMARK UNBOUND:                -1.395
ROOT
ATOM      1 C23  NAC L   1       0.741  -6.098 -13.622  1.00  0.00    +0.0423  A
ATOM      2 C24  NAC L   1       0.469  -5.681 -14.929  1.00  0.00    -0.0377  A
ATOM      3 C25  NAC L   1       1.496  -5.221 -15.759  1.00  0.00    -0.0506  A
ATOM      4 C26  NAC L   1       2.818  -5.175 -15.290  1.00  0.00    +0.0004  A
ATOM      5 C27  NAC L   1       3.887  -4.726 -16.069  1.00  0.00    +0.0353  A
ATOM      6 N28  NAC L   1       5.172  -4.669 -15.650  1.00  0.00    -0.2626 NA
ATOM      7 C29  NAC L   1       5.411  -5.083 -14.389  1.00  0.00    +0.0281  A
ATOM      8 C30  NAC L   1       4.430  -5.548 -13.528  1.00  0.00    -0.0358  A
ATOM      9 C31  NAC L   1       3.104  -5.598 -13.978  1.00  0.00    -0.0131  A
ATOM     10 C32  NAC L   1       2.058  -6.057 -13.157  1.00  0.00    -0.0305  A
ATOM     11 H55  NAC L   1      -0.545  -5.704 -15.320  1.00  0.00    +0.0638  H
ATOM     12 H56  NAC L   1       1.258  -4.901 -16.771  1.00  0.00    +0.0625  H
ATOM     13 H57  NAC L   1       3.735  -4.386 -17.090  1.00  0.00    +0.0836  H
ATOM     14 H58  NAC L   1       6.449  -5.030 -14.073  1.00  0.00    +0.0830  H
ATOM     15 H59  NAC L   1       4.696  -5.865 -12.525  1.00  0.00    +0.0639  H
ATOM     16 H60  NAC L   1       2.299  -6.390 -12.151  1.00  0.00    +0.0644  H
ENDROOT
BRANCH 1 19
ATOM     17 C20  NAC L   1      -1.240  -5.788 -12.103  1.00  0.00    +0.2344  C
ATOM     18 O21  NAC L   1      -1.263  -4.560 -12.053  1.00  0.00    -0.2722 OA
ATOM     19 N22  NAC L   1      -0.352  -6.546 -12.857  1.00  0.00    -0.3256  N
ATOM     20 H54  NAC L   1      -0.561  -7.543 -12.917  1.00  0.00    +0.1686 HD
BRANCH 17 21
ATOM     21 C14  NAC L   1      -2.263  -6.656 -11.359  1.00  0.00    +0.0803  C
ATOM     22 H47  NAC L   1      -2.379  -6.249 -10.348  1.00  0.00    +0.0463  H
BRANCH 21 26
ATOM     23 C10  NAC L   1      -6.246  -6.496 -13.111  1.00  0.00    -0.0103  A
ATOM     24 C11  NAC L   1      -5.521  -7.693 -13.120  1.00  0.00    -0.0551  A
ATOM     25 C12  NAC L   1      -4.239  -7.752 -12.568  1.00  0.00    -0.0574  A
ATOM     26 C13  NAC L   1      -3.653  -6.617 -11.988  1.00  0.00    -0.0336  A
ATOM     27 C33  NAC L   1      -4.390  -5.422 -11.972  1.00  0.00    -0.0574  A
ATOM     28 C34  NAC L   1      -5.672  -5.363 -12.524  1.00  0.00    -0.0551  A
ATOM     29 H45  NAC L   1      -5.954  -8.592 -13.557  1.00  0.00    +0.0621  H
ATOM     30 H46  NAC L   1      -3.699  -8.696 -12.610  1.00  0.00    +0.0621  H
ATOM     31 H61  NAC L   1      -3.974  -4.521 -11.523  1.00  0.00    +0.0621  H
ATOM     32 H62  NAC L   1      -6.225  -4.427 -12.488  1.00  0.00    +0.0621  H
BRANCH 23 33
ATOM     33  C9  NAC L   1      -7.634  -6.438 -13.692  1.00  0.00    +0.1179  C
ATOM     34 H43  NAC L   1      -8.351  -5.992 -12.991  1.00  0.00    +0.0749  H
ATOM     35 H44  NAC L   1      -7.994  -7.457 -13.881  1.00  0.00    +0.0749  H
BRANCH 33 36
ATOM     36  O8  NAC L   1      -7.599  -5.755 -14.950  1.00  0.00    -0.4564 OA
BRANCH 36 37
ATOM     37  C6  NAC L   1      -8.615  -4.890 -15.172  1.00  0.00    +0.3398  C
ATOM     38  O7  NAC L   1      -9.788  -5.170 -15.363  1.00  0.00    -0.2449 OA
BRANCH 37 43
ATOM     39  C1  NAC L   1      -6.648   0.555 -15.059  1.00  0.00    -0.0397  C
ATOM     40  C2  NAC L   1      -7.130  -0.867 -15.053  1.00  0.00    -0.0502  A
ATOM     41  C3  NAC L   1      -7.045  -1.647 -16.209  1.00  0.00    -0.0580  A
ATOM     42  C4  NAC L   1      -7.529  -2.955 -16.210  1.00  0.00    -0.0473  A
ATOM     43  C5  NAC L   1      -8.120  -3.497 -15.059  1.00  0.00    +0.0619  A
ATOM     44 C35  NAC L   1      -8.196  -2.733 -13.878  1.00  0.00    -0.0362  A
ATOM     45 C36  NAC L   1      -8.785  -3.263 -12.600  1.00  0.00    -0.0389  C
ATOM     46 C37  NAC L   1      -7.717  -1.410 -13.901  1.00  0.00    -0.0551  A
ATOM     47 H38  NAC L   1      -6.274   0.844 -14.071  1.00  0.00    +0.0278  H
ATOM     48 H39  NAC L   1      -5.823   0.686 -15.768  1.00  0.00    +0.0278  H
ATOM     49 H40  NAC L   1      -7.465   1.226 -15.339  1.00  0.00    +0.0278  H
ATOM     50 H41  NAC L   1      -6.603  -1.243 -17.117  1.00  0.00    +0.0620  H
ATOM     51 H42  NAC L   1      -7.455  -3.552 -17.116  1.00  0.00    +0.0626  H
ATOM     52 H63  NAC L   1      -8.451  -2.676 -11.737  1.00  0.00    +0.0278  H
ATOM     53 H64  NAC L   1      -8.462  -4.294 -12.418  1.00  0.00    +0.0278  H
ATOM     54 H65  NAC L   1      -9.877  -3.219 -12.638  1.00  0.00    +0.0278  H
ATOM     55 H66  NAC L   1      -7.791  -0.796 -13.005  1.00  0.00    +0.0623  H
ENDBRANCH 37 43
ENDBRANCH 36 37
ENDBRANCH 33 36
ENDBRANCH 23 33
ENDBRANCH 21 26
BRANCH 21 56
ATOM     56 C15  NAC L   1      -1.738  -8.099 -11.235  1.00  0.00    +0.0334  C
ATOM     57 H48  NAC L   1      -0.976  -8.299 -11.998  1.00  0.00    +0.0497  H
ATOM     58 H49  NAC L   1      -2.559  -8.805 -11.413  1.00  0.00    +0.0497  H
BRANCH 56 59
ATOM     59 N16  NAC L   1      -1.128  -8.489  -9.967  1.00  0.00    -0.3551  N
ATOM     60 C17  NAC L   1       0.116  -8.097  -9.536  1.00  0.00    +0.2179  C
ATOM     61 C18  NAC L   1       0.452  -8.561  -8.145  1.00  0.00    +0.0143  C
ATOM     62 O19  NAC L   1       0.919  -7.482 -10.233  1.00  0.00    -0.2736 OA
ATOM     63 H50  NAC L   1      -1.708  -9.022  -9.329  1.00  0.00    +0.1623 HD
ATOM     64 H51  NAC L   1       0.856  -9.576  -8.193  1.00  0.00    +0.0325  H
ATOM     65 H52  NAC L   1      -0.436  -8.555  -7.507  1.00  0.00    +0.0325  H
ATOM     66 H53  NAC L   1       1.197  -7.891  -7.709  1.00  0.00    +0.0325  H
ENDBRANCH 56 59
ENDBRANCH 21 56
ENDBRANCH 17 21
ENDBRANCH 1 19
TORSDOF 9
ENDMDL
MODEL 14
REMARK VINA RESULT:    -6.100      3.981      6.521
REMARK INTER + INTRA:         -10.705
REMARK INTER:                  -9.358
REMARK INTRA:                  -1.347
REMARK UNBOUND:                -1.395
ROOT
ATOM      1 C23  NAC L   1      -2.857  -7.484 -12.357  1.00  0.00    +0.0423  A
ATOM      2 C24  NAC L   1      -3.205  -6.300 -11.699  1.00  0.00    -0.0377  A
ATOM      3 C25  NAC L   1      -2.229  -5.360 -11.358  1.00  0.00    -0.0506  A
ATOM      4 C26  NAC L   1      -0.881  -5.593 -11.675  1.00  0.00    +0.0004  A
ATOM      5 C27  NAC L   1       0.141  -4.693 -11.361  1.00  0.00    +0.0353  A
ATOM      6 N28  NAC L   1       1.449  -4.885 -11.652  1.00  0.00    -0.2626 NA
ATOM      7 C29  NAC L   1       1.760  -6.031 -12.293  1.00  0.00    +0.0281  A
ATOM      8 C30  NAC L   1       0.829  -6.992 -12.653  1.00  0.00    -0.0358  A
ATOM      9 C31  NAC L   1      -0.520  -6.778 -12.342  1.00  0.00    -0.0131  A
ATOM     10 C32  NAC L   1      -1.517  -7.714 -12.677  1.00  0.00    -0.0305  A
ATOM     11 H55  NAC L   1      -4.240  -6.093 -11.439  1.00  0.00    +0.0638  H
ATOM     12 H56  NAC L   1      -2.525  -4.448 -10.845  1.00  0.00    +0.0625  H
ATOM     13 H57  NAC L   1      -0.070  -3.760 -10.848  1.00  0.00    +0.0836  H
ATOM     14 H58  NAC L   1       2.814  -6.164 -12.518  1.00  0.00    +0.0830  H
ATOM     15 H59  NAC L   1       1.152  -7.891 -13.167  1.00  0.00    +0.0639  H
ATOM     16 H60  NAC L   1      -1.220  -8.618 -13.202  1.00  0.00    +0.0644  H
ENDROOT
BRANCH 1 19
ATOM     17 C20  NAC L   1      -4.051  -9.696 -12.260  1.00  0.00    +0.2344  C
ATOM     18 O21  NAC L   1      -3.310 -10.289 -11.480  1.00  0.00    -0.2722 OA
ATOM     19 N22  NAC L   1      -3.904  -8.374 -12.662  1.00  0.00    -0.3256  N
ATOM     20 H54  NAC L   1      -4.686  -7.981 -13.186  1.00  0.00    +0.1686 HD
BRANCH 17 21
ATOM     21 C14  NAC L   1      -5.304 -10.352 -12.857  1.00  0.00    +0.0803  C
ATOM     22 H47  NAC L   1      -5.641 -11.130 -12.162  1.00  0.00    +0.0463  H
BRANCH 21 26
ATOM     23 C10  NAC L   1      -8.608  -7.553 -13.318  1.00  0.00    -0.0103  A
ATOM     24 C11  NAC L   1      -8.447  -8.261 -12.121  1.00  0.00    -0.0551  A
ATOM     25 C12  NAC L   1      -7.396  -9.168 -11.967  1.00  0.00    -0.0574  A
ATOM     26 C13  NAC L   1      -6.475  -9.384 -13.003  1.00  0.00    -0.0336  A
ATOM     27 C33  NAC L   1      -6.634  -8.662 -14.197  1.00  0.00    -0.0574  A
ATOM     28 C34  NAC L   1      -7.686  -7.755 -14.351  1.00  0.00    -0.0551  A
ATOM     29 H45  NAC L   1      -9.143  -8.109 -11.297  1.00  0.00    +0.0621  H
ATOM     30 H46  NAC L   1      -7.315  -9.714 -11.029  1.00  0.00    +0.0621  H
ATOM     31 H61  NAC L   1      -5.936  -8.794 -15.021  1.00  0.00    +0.0621  H
ATOM     32 H62  NAC L   1      -7.780  -7.201 -15.282  1.00  0.00    +0.0621  H
BRANCH 23 33
ATOM     33  C9  NAC L   1      -9.733  -6.564 -13.476  1.00  0.00    +0.1179  C
ATOM     34 H43  NAC L   1     -10.259  -6.390 -12.528  1.00  0.00    +0.0749  H
ATOM     35 H44  NAC L   1     -10.483  -6.970 -14.165  1.00  0.00    +0.0749  H
BRANCH 33 36
ATOM     36  O8  NAC L   1      -9.229  -5.354 -14.053  1.00  0.00    -0.4564 OA
BRANCH 36 37
ATOM     37  C6  NAC L   1      -8.497  -4.575 -13.224  1.00  0.00    +0.3398  C
ATOM     38  O7  NAC L   1      -8.166  -4.832 -12.078  1.00  0.00    -0.2449 OA
BRANCH 37 43
ATOM     39  C1  NAC L   1      -6.857   0.356 -15.778  1.00  0.00    -0.0397  C
ATOM     40  C2  NAC L   1      -7.302  -0.934 -15.155  1.00  0.00    -0.0502  A
ATOM     41  C3  NAC L   1      -8.064  -0.929 -13.984  1.00  0.00    -0.0580  A
ATOM     42  C4  NAC L   1      -8.443  -2.131 -13.388  1.00  0.00    -0.0473  A
ATOM     43  C5  NAC L   1      -8.053  -3.357 -13.946  1.00  0.00    +0.0619  A
ATOM     44 C35  NAC L   1      -7.302  -3.384 -15.136  1.00  0.00    -0.0362  A
ATOM     45 C36  NAC L   1      -6.880  -4.662 -15.806  1.00  0.00    -0.0389  C
ATOM     46 C37  NAC L   1      -6.916  -2.161 -15.715  1.00  0.00    -0.0551  A
ATOM     47 H38  NAC L   1      -6.776   0.257 -16.865  1.00  0.00    +0.0278  H
ATOM     48 H39  NAC L   1      -7.577   1.157 -15.579  1.00  0.00    +0.0278  H
ATOM     49 H40  NAC L   1      -5.882   0.649 -15.375  1.00  0.00    +0.0278  H
ATOM     50 H41  NAC L   1      -8.367   0.011 -13.527  1.00  0.00    +0.0620  H
ATOM     51 H42  NAC L   1      -9.039  -2.112 -12.477  1.00  0.00    +0.0626  H
ATOM     52 H63  NAC L   1      -6.621  -4.491 -16.857  1.00  0.00    +0.0278  H
ATOM     53 H64  NAC L   1      -7.695  -5.395 -15.802  1.00  0.00    +0.0278  H
ATOM     54 H65  NAC L   1      -6.004  -5.083 -15.305  1.00  0.00    +0.0278  H
ATOM     55 H66  NAC L   1      -6.313  -2.163 -16.622  1.00  0.00    +0.0623  H
ENDBRANCH 37 43
ENDBRANCH 36 37
ENDBRANCH 33 36
ENDBRANCH 23 33
ENDBRANCH 21 26
BRANCH 21 56
ATOM     56 C15  NAC L   1      -4.957 -11.027 -14.198  1.00  0.00    +0.0334  C
ATOM     57 H48  NAC L   1      -5.441 -10.502 -15.030  1.00  0.00    +0.0497  H
ATOM     58 H49  NAC L   1      -5.342 -12.054 -14.203  1.00  0.00    +0.0497  H
BRANCH 56 59
ATOM     59 N16  NAC L   1      -3.546 -11.114 -14.564  1.00  0.00    -0.3551  N
ATOM     60 C17  NAC L   1      -2.846 -10.148 -15.244  1.00  0.00    +0.2179  C
ATOM     61 C18  NAC L   1      -1.381 -10.453 -15.396  1.00  0.00    +0.0143  C
ATOM     62 O19  NAC L   1      -3.363  -9.153 -15.745  1.00  0.00    -0.2736 OA
ATOM     63 H50  NAC L   1      -3.035 -11.917 -14.214  1.00  0.00    +0.1623 HD
ATOM     64 H51  NAC L   1      -1.236 -11.088 -16.275  1.00  0.00    +0.0325  H
ATOM     65 H52  NAC L   1      -0.995 -10.966 -14.511  1.00  0.00    +0.0325  H
ATOM     66 H53  NAC L   1      -0.827  -9.519 -15.525  1.00  0.00    +0.0325  H
ENDBRANCH 56 59
ENDBRANCH 21 56
ENDBRANCH 17 21
ENDBRANCH 1 19
TORSDOF 9
ENDMDL
MODEL 15
REMARK VINA RESULT:    -6.019      2.942      8.709
REMARK INTER + INTRA:         -10.581
REMARK INTER:                  -9.841
REMARK INTRA:                  -0.740
REMARK UNBOUND:                -1.395
ROOT
ATOM      1 C23  NAC L   1      -2.941  -7.889 -12.717  1.00  0.00    +0.0423  A
ATOM      2 C24  NAC L   1      -3.158  -9.052 -11.969  1.00  0.00    -0.0377  A
ATOM      3 C25  NAC L   1      -4.456  -9.490 -11.694  1.00  0.00    -0.0506  A
ATOM      4 C26  NAC L   1      -5.563  -8.769 -12.169  1.00  0.00    +0.0004  A
ATOM      5 C27  NAC L   1      -6.884  -9.155 -11.927  1.00  0.00    +0.0353  A
ATOM      6 N28  NAC L   1      -7.973  -8.484 -12.369  1.00  0.00    -0.2626 NA
ATOM      7 C29  NAC L   1      -7.739  -7.370 -13.093  1.00  0.00    +0.0281  A
ATOM      8 C30  NAC L   1      -6.473  -6.895 -13.394  1.00  0.00    -0.0358  A
ATOM      9 C31  NAC L   1      -5.356  -7.601 -12.926  1.00  0.00    -0.0131  A
ATOM     10 C32  NAC L   1      -4.042  -7.174 -13.193  1.00  0.00    -0.0305  A
ATOM     11 H55  NAC L   1      -2.321  -9.631 -11.588  1.00  0.00    +0.0638  H
ATOM     12 H56  NAC L   1      -4.598 -10.397 -11.110  1.00  0.00    +0.0625  H
ATOM     13 H57  NAC L   1      -7.112 -10.046 -11.350  1.00  0.00    +0.0836  H
ATOM     14 H58  NAC L   1      -8.626  -6.848 -13.439  1.00  0.00    +0.0830  H
ATOM     15 H59  NAC L   1      -6.360  -5.991 -13.982  1.00  0.00    +0.0639  H
ATOM     16 H60  NAC L   1      -3.902  -6.276 -13.789  1.00  0.00    +0.0644  H
ENDROOT
BRANCH 1 19
ATOM     17 C20  NAC L   1      -0.788  -6.714 -12.162  1.00  0.00    +0.2344  C
ATOM     18 O21  NAC L   1      -1.091  -6.248 -11.065  1.00  0.00    -0.2722 OA
ATOM     19 N22  NAC L   1      -1.602  -7.521 -12.946  1.00  0.00    -0.3256  N
ATOM     20 H54  NAC L   1      -1.151  -7.956 -13.752  1.00  0.00    +0.1686 HD
BRANCH 17 21
ATOM     21 C14  NAC L   1       0.597  -6.498 -12.787  1.00  0.00    +0.0803  C
ATOM     22 H47  NAC L   1       0.772  -7.305 -13.507  1.00  0.00    +0.0463  H
BRANCH 21 26
ATOM     23 C10  NAC L   1       0.845  -2.762 -15.010  1.00  0.00    -0.0103  A
ATOM     24 C11  NAC L   1       1.027  -3.984 -15.667  1.00  0.00    -0.0551  A
ATOM     25 C12  NAC L   1       0.959  -5.188 -14.961  1.00  0.00    -0.0574  A
ATOM     26 C13  NAC L   1       0.699  -5.198 -13.582  1.00  0.00    -0.0336  A
ATOM     27 C33  NAC L   1       0.505  -3.969 -12.931  1.00  0.00    -0.0574  A
ATOM     28 C34  NAC L   1       0.574  -2.766 -13.638  1.00  0.00    -0.0551  A
ATOM     29 H45  NAC L   1       1.223  -4.007 -16.738  1.00  0.00    +0.0621  H
ATOM     30 H46  NAC L   1       1.124  -6.117 -15.502  1.00  0.00    +0.0621  H
ATOM     31 H61  NAC L   1       0.292  -3.935 -11.864  1.00  0.00    +0.0621  H
ATOM     32 H62  NAC L   1       0.409  -1.829 -13.111  1.00  0.00    +0.0621  H
BRANCH 23 33
ATOM     33  C9  NAC L   1       0.903  -1.466 -15.777  1.00  0.00    +0.1179  C
ATOM     34 H43  NAC L   1       0.150  -1.431 -16.575  1.00  0.00    +0.0749  H
ATOM     35 H44  NAC L   1       1.875  -1.381 -16.278  1.00  0.00    +0.0749  H
BRANCH 33 36
ATOM     36  O8  NAC L   1       0.791  -0.366 -14.867  1.00  0.00    -0.4564 OA
BRANCH 36 37
ATOM     37  C6  NAC L   1       0.069   0.687 -15.313  1.00  0.00    +0.3398  C
ATOM     38  O7  NAC L   1      -1.125   0.704 -15.564  1.00  0.00    -0.2449 OA
BRANCH 37 43
ATOM     39  C1  NAC L   1       3.670   5.206 -15.690  1.00  0.00    -0.0397  C
ATOM     40  C2  NAC L   1       2.726   4.047 -15.550  1.00  0.00    -0.0502  A
ATOM     41  C3  NAC L   1       3.177   2.740 -15.745  1.00  0.00    -0.0580  A
ATOM     42  C4  NAC L   1       2.288   1.669 -15.652  1.00  0.00    -0.0473  A
ATOM     43  C5  NAC L   1       0.931   1.893 -15.376  1.00  0.00    +0.0619  A
ATOM     44 C35  NAC L   1       0.461   3.202 -15.156  1.00  0.00    -0.0362  A
ATOM     45 C36  NAC L   1      -0.973   3.509 -14.823  1.00  0.00    -0.0389  C
ATOM     46 C37  NAC L   1       1.370   4.270 -15.270  1.00  0.00    -0.0551  A
ATOM     47 H38  NAC L   1       3.380   6.028 -15.028  1.00  0.00    +0.0278  H
ATOM     48 H39  NAC L   1       4.690   4.915 -15.417  1.00  0.00    +0.0278  H
ATOM     49 H40  NAC L   1       3.670   5.565 -16.723  1.00  0.00    +0.0278  H
ATOM     50 H41  NAC L   1       4.223   2.544 -15.973  1.00  0.00    +0.0620  H
ATOM     51 H42  NAC L   1       2.653   0.656 -15.804  1.00  0.00    +0.0626  H
ATOM     52 H63  NAC L   1      -1.068   4.498 -14.362  1.00  0.00    +0.0278  H
ATOM     53 H64  NAC L   1      -1.370   2.789 -14.099  1.00  0.00    +0.0278  H
ATOM     54 H65  NAC L   1      -1.584   3.497 -15.729  1.00  0.00    +0.0278  H
ATOM     55 H66  NAC L   1       1.019   5.291 -15.129  1.00  0.00    +0.0623  H
ENDBRANCH 37 43
ENDBRANCH 36 37
ENDBRANCH 33 36
ENDBRANCH 23 33
ENDBRANCH 21 26
BRANCH 21 56
ATOM     56 C15  NAC L   1       1.685  -6.583 -11.700  1.00  0.00    +0.0334  C
ATOM     57 H48  NAC L   1       1.769  -7.607 -11.318  1.00  0.00    +0.0497  H
ATOM     58 H49  NAC L   1       1.406  -5.949 -10.850  1.00  0.00    +0.0497  H
BRANCH 56 59
ATOM     59 N16  NAC L   1       3.044  -6.196 -12.073  1.00  0.00    -0.3551  N
ATOM     60 C17  NAC L   1       3.883  -6.935 -12.870  1.00  0.00    +0.2179  C
ATOM     61 C18  NAC L   1       5.187  -6.250 -13.178  1.00  0.00    +0.0143  C
ATOM     62 O19  NAC L   1       3.638  -8.076 -13.251  1.00  0.00    -0.2736 OA
ATOM     63 H50  NAC L   1       3.349  -5.274 -11.783  1.00  0.00    +0.1623 HD
ATOM     64 H51  NAC L   1       5.893  -6.441 -12.364  1.00  0.00    +0.0325  H
ATOM     65 H52  NAC L   1       5.045  -5.172 -13.288  1.00  0.00    +0.0325  H
ATOM     66 H53  NAC L   1       5.593  -6.645 -14.113  1.00  0.00    +0.0325  H
ENDBRANCH 56 59
ENDBRANCH 21 56
ENDBRANCH 17 21
ENDBRANCH 1 19
TORSDOF 9
ENDMDL
MODEL 16
REMARK VINA RESULT:    -5.929      3.009      4.526
REMARK INTER + INTRA:         -10.443
REMARK INTER:                  -8.967
REMARK INTRA:                  -1.476
REMARK UNBOUND:                -1.395
ROOT
ATOM      1 C23  NAC L   1       1.981  -5.175 -13.338  1.00  0.00    +0.0423  A
ATOM      2 C24  NAC L   1       1.888  -4.621 -14.619  1.00  0.00    -0.0377  A
ATOM      3 C25  NAC L   1       3.003  -4.581 -15.461  1.00  0.00    -0.0506  A
ATOM      4 C26  NAC L   1       4.234  -5.101 -15.031  1.00  0.00    +0.0004  A
ATOM      5 C27  NAC L   1       5.384  -5.091 -15.825  1.00  0.00    +0.0353  A
ATOM      6 N28  NAC L   1       6.585  -5.583 -15.443  1.00  0.00    -0.2626 NA
ATOM      7 C29  NAC L   1       6.649  -6.118 -14.207  1.00  0.00    +0.0281  A
ATOM      8 C30  NAC L   1       5.574  -6.182 -13.335  1.00  0.00    -0.0358  A
ATOM      9 C31  NAC L   1       4.337  -5.665 -13.746  1.00  0.00    -0.0131  A
ATOM     10 C32  NAC L   1       3.205  -5.697 -12.911  1.00  0.00    -0.0305  A
ATOM     11 H55  NAC L   1       0.948  -4.210 -14.979  1.00  0.00    +0.0638  H
ATOM     12 H56  NAC L   1       2.904  -4.144 -16.452  1.00  0.00    +0.0625  H
ATOM     13 H57  NAC L   1       5.371  -4.670 -16.827  1.00  0.00    +0.0836  H
ATOM     14 H58  NAC L   1       7.621  -6.508 -13.921  1.00  0.00    +0.0830  H
ATOM     15 H59  NAC L   1       5.699  -6.627 -12.354  1.00  0.00    +0.0639  H
ATOM     16 H60  NAC L   1       3.302  -6.147 -11.927  1.00  0.00    +0.0644  H
ENDROOT
BRANCH 1 19
ATOM     17 C20  NAC L   1      -0.156  -4.180 -12.461  1.00  0.00    +0.2344  C
ATOM     18 O21  NAC L   1      -0.184  -3.148 -13.127  1.00  0.00    -0.2722 OA
ATOM     19 N22  NAC L   1       0.810  -5.174 -12.557  1.00  0.00    -0.3256  N
ATOM     20 H54  NAC L   1       0.609  -6.037 -12.052  1.00  0.00    +0.1686 HD
BRANCH 17 21
ATOM     21 C14  NAC L   1      -1.255  -4.530 -11.449  1.00  0.00    +0.0803  C
ATOM     22 H47  NAC L   1      -1.810  -3.612 -11.222  1.00  0.00    +0.0463  H
BRANCH 21 26
ATOM     23 C10  NAC L   1      -4.228  -7.328 -12.963  1.00  0.00    -0.0103  A
ATOM     24 C11  NAC L   1      -2.869  -7.532 -13.230  1.00  0.00    -0.0551  A
ATOM     25 C12  NAC L   1      -1.909  -6.635 -12.756  1.00  0.00    -0.0574  A
ATOM     26 C13  NAC L   1      -2.283  -5.515 -11.998  1.00  0.00    -0.0336  A
ATOM     27 C33  NAC L   1      -3.647  -5.323 -11.723  1.00  0.00    -0.0574  A
ATOM     28 C34  NAC L   1      -4.607  -6.220 -12.197  1.00  0.00    -0.0551  A
ATOM     29 H45  NAC L   1      -2.549  -8.396 -13.810  1.00  0.00    +0.0621  H
ATOM     30 H46  NAC L   1      -0.864  -6.817 -13.000  1.00  0.00    +0.0621  H
ATOM     31 H61  NAC L   1      -3.977  -4.472 -11.131  1.00  0.00    +0.0621  H
ATOM     32 H62  NAC L   1      -5.655  -6.053 -11.960  1.00  0.00    +0.0621  H
BRANCH 23 33
ATOM     33  C9  NAC L   1      -5.260  -8.306 -13.461  1.00  0.00    +0.1179  C
ATOM     34 H43  NAC L   1      -4.942  -9.346 -13.312  1.00  0.00    +0.0749  H
ATOM     35 H44  NAC L   1      -5.387  -8.183 -14.544  1.00  0.00    +0.0749  H
BRANCH 33 36
ATOM     36  O8  NAC L   1      -6.522  -8.024 -12.845  1.00  0.00    -0.4564 OA
BRANCH 36 37
ATOM     37  C6  NAC L   1      -7.516  -7.669 -13.691  1.00  0.00    +0.3398  C
ATOM     38  O7  NAC L   1      -8.268  -8.418 -14.295  1.00  0.00    -0.2449 OA
BRANCH 37 43
ATOM     39  C1  NAC L   1      -8.076  -1.909 -13.495  1.00  0.00    -0.0397  C
ATOM     40  C2  NAC L   1      -7.955  -3.402 -13.584  1.00  0.00    -0.0502  A
ATOM     41  C3  NAC L   1      -8.375  -4.210 -12.525  1.00  0.00    -0.0580  A
ATOM     42  C4  NAC L   1      -8.226  -5.595 -12.596  1.00  0.00    -0.0473  A
ATOM     43  C5  NAC L   1      -7.641  -6.191 -13.723  1.00  0.00    +0.0619  A
ATOM     44 C35  NAC L   1      -7.230  -5.396 -14.810  1.00  0.00    -0.0362  A
ATOM     45 C36  NAC L   1      -6.627  -5.972 -16.061  1.00  0.00    -0.0389  C
ATOM     46 C37  NAC L   1      -7.374  -3.999 -14.712  1.00  0.00    -0.0551  A
ATOM     47 H38  NAC L   1      -8.237  -1.471 -14.485  1.00  0.00    +0.0278  H
ATOM     48 H39  NAC L   1      -8.928  -1.621 -12.870  1.00  0.00    +0.0278  H
ATOM     49 H40  NAC L   1      -7.163  -1.486 -13.064  1.00  0.00    +0.0278  H
ATOM     50 H41  NAC L   1      -8.819  -3.769 -11.635  1.00  0.00    +0.0620  H
ATOM     51 H42  NAC L   1      -8.559  -6.213 -11.765  1.00  0.00    +0.0626  H
ATOM     52 H63  NAC L   1      -6.695  -5.263 -16.895  1.00  0.00    +0.0278  H
ATOM     53 H64  NAC L   1      -7.164  -6.873 -16.375  1.00  0.00    +0.0278  H
ATOM     54 H65  NAC L   1      -5.572  -6.207 -15.901  1.00  0.00    +0.0278  H
ATOM     55 H66  NAC L   1      -7.037  -3.366 -15.532  1.00  0.00    +0.0623  H
ENDBRANCH 37 43
ENDBRANCH 36 37
ENDBRANCH 33 36
ENDBRANCH 23 33
ENDBRANCH 21 26
BRANCH 21 56
ATOM     56 C15  NAC L   1      -0.623  -5.042 -10.140  1.00  0.00    +0.0334  C
ATOM     57 H48  NAC L   1      -1.038  -4.508  -9.277  1.00  0.00    +0.0497  H
ATOM     58 H49  NAC L   1       0.455  -4.841 -10.150  1.00  0.00    +0.0497  H
BRANCH 56 59
ATOM     59 N16  NAC L   1      -0.775  -6.461  -9.827  1.00  0.00    -0.3551  N
ATOM     60 C17  NAC L   1       0.217  -7.404  -9.939  1.00  0.00    +0.2179  C
ATOM     61 C18  NAC L   1      -0.185  -8.769  -9.450  1.00  0.00    +0.0143  C
ATOM     62 O19  NAC L   1       1.312  -7.187 -10.449  1.00  0.00    -0.2736 OA
ATOM     63 H50  NAC L   1      -1.659  -6.743  -9.419  1.00  0.00    +0.1623 HD
ATOM     64 H51  NAC L   1      -0.697  -9.302 -10.256  1.00  0.00    +0.0325  H
ATOM     65 H52  NAC L   1      -0.850  -8.693  -8.585  1.00  0.00    +0.0325  H
ATOM     66 H53  NAC L   1       0.708  -9.326  -9.154  1.00  0.00    +0.0325  H
ENDBRANCH 56 59
ENDBRANCH 21 56
ENDBRANCH 17 21
ENDBRANCH 1 19
TORSDOF 9
ENDMDL
MODEL 17
REMARK VINA RESULT:    -5.879      2.805      8.195
REMARK INTER + INTRA:         -10.367
REMARK INTER:                  -9.523
REMARK INTRA:                  -0.844
REMARK UNBOUND:                -1.395
ROOT
ATOM      1 C23  NAC L   1      -3.453  -7.468 -12.938  1.00  0.00    +0.0423  A
ATOM      2 C24  NAC L   1      -3.871  -8.797 -12.806  1.00  0.00    -0.0377  A
ATOM      3 C25  NAC L   1      -5.229  -9.108 -12.690  1.00  0.00    -0.0506  A
ATOM      4 C26  NAC L   1      -6.194  -8.089 -12.708  1.00  0.00    +0.0004  A
ATOM      5 C27  NAC L   1      -7.564  -8.336 -12.596  1.00  0.00    +0.0353  A
ATOM      6 N28  NAC L   1      -8.520  -7.379 -12.610  1.00  0.00    -0.2626 NA
ATOM      7 C29  NAC L   1      -8.094  -6.106 -12.746  1.00  0.00    +0.0281  A
ATOM      8 C30  NAC L   1      -6.762  -5.745 -12.865  1.00  0.00    -0.0358  A
ATOM      9 C31  NAC L   1      -5.784  -6.750 -12.846  1.00  0.00    -0.0131  A
ATOM     10 C32  NAC L   1      -4.413  -6.454 -12.961  1.00  0.00    -0.0305  A
ATOM     11 H55  NAC L   1      -3.147  -9.607 -12.787  1.00  0.00    +0.0638  H
ATOM     12 H56  NAC L   1      -5.528 -10.149 -12.587  1.00  0.00    +0.0625  H
ATOM     13 H57  NAC L   1      -7.946  -9.347 -12.487  1.00  0.00    +0.0836  H
ATOM     14 H58  NAC L   1      -8.877  -5.354 -12.757  1.00  0.00    +0.0830  H
ATOM     15 H59  NAC L   1      -6.492  -4.700 -12.971  1.00  0.00    +0.0639  H
ATOM     16 H60  NAC L   1      -4.118  -5.415 -13.078  1.00  0.00    +0.0644  H
ENDROOT
BRANCH 1 19
ATOM     17 C20  NAC L   1      -1.229  -6.597 -12.151  1.00  0.00    +0.2344  C
ATOM     18 O21  NAC L   1      -1.559  -6.178 -11.044  1.00  0.00    -0.2722 OA
ATOM     19 N22  NAC L   1      -2.068  -7.245 -13.049  1.00  0.00    -0.3256  N
ATOM     20 H54  NAC L   1      -1.610  -7.672 -13.855  1.00  0.00    +0.1686 HD
BRANCH 17 21
ATOM     21 C14  NAC L   1       0.215  -6.502 -12.664  1.00  0.00    +0.0803  C
ATOM     22 H47  NAC L   1       0.394  -7.356 -13.326  1.00  0.00    +0.0463  H
BRANCH 21 26
ATOM     23 C10  NAC L   1       0.983  -2.984 -15.112  1.00  0.00    -0.0103  A
ATOM     24 C11  NAC L   1       0.631  -2.840 -13.765  1.00  0.00    -0.0551  A
ATOM     25 C12  NAC L   1       0.374  -3.963 -12.974  1.00  0.00    -0.0574  A
ATOM     26 C13  NAC L   1       0.469  -5.256 -13.509  1.00  0.00    -0.0336  A
ATOM     27 C33  NAC L   1       0.835  -5.394 -14.858  1.00  0.00    -0.0574  A
ATOM     28 C34  NAC L   1       1.092  -4.272 -15.649  1.00  0.00    -0.0551  A
ATOM     29 H45  NAC L   1       0.556  -1.849 -13.321  1.00  0.00    +0.0621  H
ATOM     30 H46  NAC L   1       0.084  -3.810 -11.936  1.00  0.00    +0.0621  H
ATOM     31 H61  NAC L   1       0.928  -6.381 -15.308  1.00  0.00    +0.0621  H
ATOM     32 H62  NAC L   1       1.384  -4.408 -16.688  1.00  0.00    +0.0621  H
BRANCH 23 33
ATOM     33  C9  NAC L   1       1.276  -1.773 -15.959  1.00  0.00    +0.1179  C
ATOM     34 H43  NAC L   1       0.868  -1.876 -16.973  1.00  0.00    +0.0749  H
ATOM     35 H44  NAC L   1       2.361  -1.666 -16.082  1.00  0.00    +0.0749  H
BRANCH 33 36
ATOM     36  O8  NAC L   1       0.800  -0.598 -15.294  1.00  0.00    -0.4564 OA
BRANCH 36 37
ATOM     37  C6  NAC L   1       1.321   0.571 -15.733  1.00  0.00    +0.3398  C
ATOM     38  O7  NAC L   1       2.477   0.779 -16.068  1.00  0.00    -0.2449 OA
BRANCH 37 43
ATOM     39  C1  NAC L   1      -3.096   4.290 -16.158  1.00  0.00    -0.0397  C
ATOM     40  C2  NAC L   1      -1.931   3.348 -16.082  1.00  0.00    -0.0502  A
ATOM     41  C3  NAC L   1      -2.124   1.971 -16.211  1.00  0.00    -0.0580  A
ATOM     42  C4  NAC L   1      -1.043   1.096 -16.101  1.00  0.00    -0.0473  A
ATOM     43  C5  NAC L   1       0.246   1.587 -15.846  1.00  0.00    +0.0619  A
ATOM     44 C35  NAC L   1       0.465   2.973 -15.733  1.00  0.00    -0.0362  A
ATOM     45 C36  NAC L   1       1.825   3.567 -15.494  1.00  0.00    -0.0389  C
ATOM     46 C37  NAC L   1      -0.640   3.838 -15.831  1.00  0.00    -0.0551  A
ATOM     47 H38  NAC L   1      -2.791   5.256 -16.574  1.00  0.00    +0.0278  H
ATOM     48 H39  NAC L   1      -3.881   3.890 -16.809  1.00  0.00    +0.0278  H
ATOM     49 H40  NAC L   1      -3.513   4.451 -15.159  1.00  0.00    +0.0278  H
ATOM     50 H41  NAC L   1      -3.118   1.568 -16.396  1.00  0.00    +0.0620  H
ATOM     51 H42  NAC L   1      -1.208   0.026 -16.206  1.00  0.00    +0.0626  H
ATOM     52 H63  NAC L   1       1.849   4.626 -15.775  1.00  0.00    +0.0278  H
ATOM     53 H64  NAC L   1       2.585   3.066 -16.104  1.00  0.00    +0.0278  H
ATOM     54 H65  NAC L   1       2.093   3.491 -14.436  1.00  0.00    +0.0278  H
ATOM     55 H66  NAC L   1      -0.494   4.912 -15.720  1.00  0.00    +0.0623  H
ENDBRANCH 37 43
ENDBRANCH 36 37
ENDBRANCH 33 36
ENDBRANCH 23 33
ENDBRANCH 21 26
BRANCH 21 56
ATOM     56 C15  NAC L   1       1.201  -6.596 -11.484  1.00  0.00    +0.0334  C
ATOM     57 H48  NAC L   1       1.152  -7.588 -11.019  1.00  0.00    +0.0497  H
ATOM     58 H49  NAC L   1       0.922  -5.869 -10.713  1.00  0.00    +0.0497  H
BRANCH 56 59
ATOM     59 N16  NAC L   1       2.616  -6.372 -11.768  1.00  0.00    -0.3551  N
ATOM     60 C17  NAC L   1       3.376  -7.122 -12.631  1.00  0.00    +0.2179  C
ATOM     61 C18  NAC L   1       4.777  -6.605 -12.813  1.00  0.00    +0.0143  C
ATOM     62 O19  NAC L   1       2.987  -8.158 -13.163  1.00  0.00    -0.2736 OA
ATOM     63 H50  NAC L   1       3.037  -5.548 -11.353  1.00  0.00    +0.1623 HD
ATOM     64 H51  NAC L   1       5.411  -6.997 -12.012  1.00  0.00    +0.0325  H
ATOM     65 H52  NAC L   1       4.796  -5.512 -12.787  1.00  0.00    +0.0325  H
ATOM     66 H53  NAC L   1       5.164  -6.937 -13.780  1.00  0.00    +0.0325  H
ENDBRANCH 56 59
ENDBRANCH 21 56
ENDBRANCH 17 21
ENDBRANCH 1 19
TORSDOF 9
ENDMDL
MODEL 18
REMARK VINA RESULT:    -5.760      3.287      5.583
REMARK INTER + INTRA:         -10.186
REMARK INTER:                  -7.956
REMARK INTRA:                  -2.230
REMARK UNBOUND:                -1.395
ROOT
ATOM      1 C23  NAC L   1      -1.108  -7.180 -13.055  1.00  0.00    +0.0423  A
ATOM      2 C24  NAC L   1      -1.313  -6.320 -11.971  1.00  0.00    -0.0377  A
ATOM      3 C25  NAC L   1      -0.578  -5.137 -11.851  1.00  0.00    -0.0506  A
ATOM      4 C26  NAC L   1       0.377  -4.795 -12.823  1.00  0.00    +0.0004  A
ATOM      5 C27  NAC L   1       1.142  -3.628 -12.759  1.00  0.00    +0.0353  A
ATOM      6 N28  NAC L   1       2.069  -3.267 -13.677  1.00  0.00    -0.2626 NA
ATOM      7 C29  NAC L   1       2.244  -4.109 -14.716  1.00  0.00    +0.0281  A
ATOM      8 C30  NAC L   1       1.541  -5.291 -14.881  1.00  0.00    -0.0358  A
ATOM      9 C31  NAC L   1       0.587  -5.651 -13.920  1.00  0.00    -0.0131  A
ATOM     10 C32  NAC L   1      -0.162  -6.838 -14.024  1.00  0.00    -0.0305  A
ATOM     11 H55  NAC L   1      -2.044  -6.559 -11.203  1.00  0.00    +0.0638  H
ATOM     12 H56  NAC L   1      -0.755  -4.485 -10.998  1.00  0.00    +0.0625  H
ATOM     13 H57  NAC L   1       1.028  -2.925 -11.939  1.00  0.00    +0.0836  H
ATOM     14 H58  NAC L   1       2.991  -3.800 -15.441  1.00  0.00    +0.0830  H
ATOM     15 H59  NAC L   1       1.735  -5.920 -15.743  1.00  0.00    +0.0639  H
ATOM     16 H60  NAC L   1       0.007  -7.480 -14.884  1.00  0.00    +0.0644  H
ENDROOT
BRANCH 1 19
ATOM     17 C20  NAC L   1      -3.042  -8.585 -13.838  1.00  0.00    +0.2344  C
ATOM     18 O21  NAC L   1      -3.526  -7.816 -14.665  1.00  0.00    -0.2722 OA
ATOM     19 N22  NAC L   1      -1.891  -8.349 -13.096  1.00  0.00    -0.3256  N
ATOM     20 H54  NAC L   1      -1.532  -9.146 -12.570  1.00  0.00    +0.1686 HD
BRANCH 17 21
ATOM     21 C14  NAC L   1      -3.643  -9.970 -13.559  1.00  0.00    +0.0803  C
ATOM     22 H47  NAC L   1      -3.099 -10.410 -12.716  1.00  0.00    +0.0463  H
BRANCH 21 26
ATOM     23 C10  NAC L   1      -7.837  -9.819 -12.400  1.00  0.00    -0.0103  A
ATOM     24 C11  NAC L   1      -6.886  -9.071 -11.698  1.00  0.00    -0.0551  A
ATOM     25 C12  NAC L   1      -5.537  -9.119 -12.056  1.00  0.00    -0.0574  A
ATOM     26 C13  NAC L   1      -5.106  -9.913 -13.131  1.00  0.00    -0.0336  A
ATOM     27 C33  NAC L   1      -6.067 -10.652 -13.839  1.00  0.00    -0.0574  A
ATOM     28 C34  NAC L   1      -7.417 -10.603 -13.481  1.00  0.00    -0.0551  A
ATOM     29 H45  NAC L   1      -7.192  -8.440 -10.864  1.00  0.00    +0.0621  H
ATOM     30 H46  NAC L   1      -4.824  -8.538 -11.475  1.00  0.00    +0.0621  H
ATOM     31 H61  NAC L   1      -5.776 -11.272 -14.684  1.00  0.00    +0.0621  H
ATOM     32 H62  NAC L   1      -8.141 -11.178 -14.053  1.00  0.00    +0.0621  H
BRANCH 23 33
ATOM     33  C9  NAC L   1      -9.294  -9.753 -12.022  1.00  0.00    +0.1179  C
ATOM     34 H43  NAC L   1      -9.457 -10.036 -10.974  1.00  0.00    +0.0749  H
ATOM     35 H44  NAC L   1      -9.860 -10.477 -12.620  1.00  0.00    +0.0749  H
BRANCH 33 36
ATOM     36  O8  NAC L   1      -9.807  -8.450 -12.324  1.00  0.00    -0.4564 OA
BRANCH 36 37
ATOM     37  C6  NAC L   1      -9.596  -8.019 -13.588  1.00  0.00    +0.3398  C
ATOM     38  O7  NAC L   1      -9.906  -8.593 -14.620  1.00  0.00    -0.2449 OA
BRANCH 37 43
ATOM     39  C1  NAC L   1      -7.464  -2.647 -13.237  1.00  0.00    -0.0397  C
ATOM     40  C2  NAC L   1      -8.017  -4.036 -13.373  1.00  0.00    -0.0502  A
ATOM     41  C3  NAC L   1      -9.207  -4.389 -12.733  1.00  0.00    -0.0580  A
ATOM     42  C4  NAC L   1      -9.697  -5.691 -12.831  1.00  0.00    -0.0473  A
ATOM     43  C5  NAC L   1      -8.996  -6.663 -13.560  1.00  0.00    +0.0619  A
ATOM     44 C35  NAC L   1      -7.805  -6.321 -14.229  1.00  0.00    -0.0362  A
ATOM     45 C36  NAC L   1      -7.023  -7.304 -15.055  1.00  0.00    -0.0389  C
ATOM     46 C37  NAC L   1      -7.318  -5.007 -14.106  1.00  0.00    -0.0551  A
ATOM     47 H38  NAC L   1      -6.913  -2.356 -14.137  1.00  0.00    +0.0278  H
ATOM     48 H39  NAC L   1      -8.269  -1.917 -13.100  1.00  0.00    +0.0278  H
ATOM     49 H40  NAC L   1      -6.790  -2.596 -12.376  1.00  0.00    +0.0278  H
ATOM     50 H41  NAC L   1      -9.760  -3.655 -12.151  1.00  0.00    +0.0620  H
ATOM     51 H42  NAC L   1     -10.626  -5.953 -12.329  1.00  0.00    +0.0626  H
ATOM     52 H63  NAC L   1      -6.351  -6.788 -15.752  1.00  0.00    +0.0278  H
ATOM     53 H64  NAC L   1      -7.690  -7.922 -15.666  1.00  0.00    +0.0278  H
ATOM     54 H65  NAC L   1      -6.414  -7.944 -14.410  1.00  0.00    +0.0278  H
ATOM     55 H66  NAC L   1      -6.385  -4.731 -14.595  1.00  0.00    +0.0623  H
ENDBRANCH 37 43
ENDBRANCH 36 37
ENDBRANCH 33 36
ENDBRANCH 23 33
ENDBRANCH 21 26
BRANCH 21 56
ATOM     56 C15  NAC L   1      -3.447 -10.885 -14.783  1.00  0.00    +0.0334  C
ATOM     57 H48  NAC L   1      -3.592 -10.321 -15.713  1.00  0.00    +0.0497  H
ATOM     58 H49  NAC L   1      -4.203 -11.679 -14.773  1.00  0.00    +0.0497  H
BRANCH 56 59
ATOM     59 N16  NAC L   1      -2.154 -11.548 -14.931  1.00  0.00    -0.3551  N
ATOM     60 C17  NAC L   1      -1.029 -10.974 -15.469  1.00  0.00    +0.2179  C
ATOM     61 C18  NAC L   1       0.192 -11.850 -15.402  1.00  0.00    +0.0143  C
ATOM     62 O19  NAC L   1      -1.018  -9.876 -16.018  1.00  0.00    -0.2736 OA
ATOM     63 H50  NAC L   1      -2.071 -12.474 -14.527  1.00  0.00    +0.1623 HD
ATOM     64 H51  NAC L   1       0.198 -12.523 -16.264  1.00  0.00    +0.0325  H
ATOM     65 H52  NAC L   1       0.198 -12.440 -14.482  1.00  0.00    +0.0325  H
ATOM     66 H53  NAC L   1       1.088 -11.225 -15.421  1.00  0.00    +0.0325  H
ENDBRANCH 56 59
ENDBRANCH 21 56
ENDBRANCH 17 21
ENDBRANCH 1 19
TORSDOF 9
ENDMDL
MODEL 19
REMARK VINA RESULT:    -5.751      3.809      9.211
REMARK INTER + INTRA:         -10.172
REMARK INTER:                  -9.468
REMARK INTRA:                  -0.704
REMARK UNBOUND:                -1.395
ROOT
ATOM      1 C23  NAC L   1      -1.333  -7.374 -13.524  1.00  0.00    +0.0423  A
ATOM      2 C24  NAC L   1      -1.608  -8.129 -14.669  1.00  0.00    -0.0377  A
ATOM      3 C25  NAC L   1      -2.729  -8.961 -14.722  1.00  0.00    -0.0506  A
ATOM      4 C26  NAC L   1      -3.600  -9.047 -13.623  1.00  0.00    +0.0004  A
ATOM      5 C27  NAC L   1      -4.736  -9.860 -13.614  1.00  0.00    +0.0353  A
ATOM      6 N28  NAC L   1      -5.596  -9.966 -12.575  1.00  0.00    -0.2626 NA
ATOM      7 C29  NAC L   1      -5.314  -9.223 -11.485  1.00  0.00    +0.0281  A
ATOM      8 C30  NAC L   1      -4.217  -8.383 -11.383  1.00  0.00    -0.0358  A
ATOM      9 C31  NAC L   1      -3.336  -8.287 -12.469  1.00  0.00    -0.0131  A
ATOM     10 C32  NAC L   1      -2.201  -7.455 -12.433  1.00  0.00    -0.0305  A
ATOM     11 H55  NAC L   1      -0.951  -8.084 -15.535  1.00  0.00    +0.0638  H
ATOM     12 H56  NAC L   1      -2.920  -9.539 -15.623  1.00  0.00    +0.0625  H
ATOM     13 H57  NAC L   1      -4.997 -10.471 -14.474  1.00  0.00    +0.0836  H
ATOM     14 H58  NAC L   1      -6.017  -9.322 -10.663  1.00  0.00    +0.0830  H
ATOM     15 H59  NAC L   1      -4.053  -7.815 -10.474  1.00  0.00    +0.0639  H
ATOM     16 H60  NAC L   1      -2.020  -6.868 -11.537  1.00  0.00    +0.0644  H
ENDROOT
BRANCH 1 19
ATOM     17 C20  NAC L   1       1.121  -6.936 -13.862  1.00  0.00    +0.2344  C
ATOM     18 O21  NAC L   1       1.472  -8.050 -14.245  1.00  0.00    -0.2722 OA
ATOM     19 N22  NAC L   1      -0.182  -6.563 -13.558  1.00  0.00    -0.3256  N
ATOM     20 H54  NAC L   1      -0.334  -5.566 -13.407  1.00  0.00    +0.1686 HD
BRANCH 17 21
ATOM     21 C14  NAC L   1       2.109  -5.769 -13.726  1.00  0.00    +0.0803  C
ATOM     22 H47  NAC L   1       2.959  -5.968 -14.388  1.00  0.00    +0.0463  H
BRANCH 21 26
ATOM     23 C10  NAC L   1       0.482  -1.964 -15.081  1.00  0.00    -0.0103  A
ATOM     24 C11  NAC L   1       0.590  -2.235 -13.713  1.00  0.00    -0.0551  A
ATOM     25 C12  NAC L   1       1.103  -3.457 -13.268  1.00  0.00    -0.0574  A
ATOM     26 C13  NAC L   1       1.525  -4.434 -14.181  1.00  0.00    -0.0336  A
ATOM     27 C33  NAC L   1       1.425  -4.151 -15.553  1.00  0.00    -0.0574  A
ATOM     28 C34  NAC L   1       0.913  -2.930 -15.998  1.00  0.00    -0.0551  A
ATOM     29 H45  NAC L   1       0.277  -1.493 -12.980  1.00  0.00    +0.0621  H
ATOM     30 H46  NAC L   1       1.154  -3.638 -12.196  1.00  0.00    +0.0621  H
ATOM     31 H61  NAC L   1       1.751  -4.880 -16.294  1.00  0.00    +0.0621  H
ATOM     32 H62  NAC L   1       0.857  -2.733 -17.066  1.00  0.00    +0.0621  H
BRANCH 23 33
ATOM     33  C9  NAC L   1      -0.055  -0.640 -15.558  1.00  0.00    +0.1179  C
ATOM     34 H43  NAC L   1      -0.964  -0.350 -15.015  1.00  0.00    +0.0749  H
ATOM     35 H44  NAC L   1      -0.349  -0.723 -16.611  1.00  0.00    +0.0749  H
BRANCH 33 36
ATOM     36  O8  NAC L   1       0.974   0.352 -15.475  1.00  0.00    -0.4564 OA
BRANCH 36 37
ATOM     37  C6  NAC L   1       0.596   1.611 -15.793  1.00  0.00    +0.3398  C
ATOM     38  O7  NAC L   1      -0.539   2.001 -16.017  1.00  0.00    -0.2449 OA
BRANCH 37 43
ATOM     39  C1  NAC L   1       5.369   4.888 -15.732  1.00  0.00    -0.0397  C
ATOM     40  C2  NAC L   1       4.123   4.053 -15.706  1.00  0.00    -0.0502  A
ATOM     41  C3  NAC L   1       4.188   2.678 -15.940  1.00  0.00    -0.0580  A
ATOM     42  C4  NAC L   1       3.023   1.911 -15.953  1.00  0.00    -0.0473  A
ATOM     43  C5  NAC L   1       1.772   2.513 -15.745  1.00  0.00    +0.0619  A
ATOM     44 C35  NAC L   1       1.688   3.895 -15.487  1.00  0.00    -0.0362  A
ATOM     45 C36  NAC L   1       0.385   4.597 -15.222  1.00  0.00    -0.0389  C
ATOM     46 C37  NAC L   1       2.873   4.654 -15.494  1.00  0.00    -0.0551  A
ATOM     47 H38  NAC L   1       5.284   5.738 -15.047  1.00  0.00    +0.0278  H
ATOM     48 H39  NAC L   1       6.240   4.303 -15.416  1.00  0.00    +0.0278  H
ATOM     49 H40  NAC L   1       5.545   5.265 -16.745  1.00  0.00    +0.0278  H
ATOM     50 H41  NAC L   1       5.145   2.192 -16.117  1.00  0.00    +0.0620  H
ATOM     51 H42  NAC L   1       3.088   0.841 -16.134  1.00  0.00    +0.0626  H
ATOM     52 H63  NAC L   1       0.548   5.556 -14.717  1.00  0.00    +0.0278  H
ATOM     53 H64  NAC L   1      -0.253   4.002 -14.560  1.00  0.00    +0.0278  H
ATOM     54 H65  NAC L   1      -0.139   4.793 -16.162  1.00  0.00    +0.0278  H
ATOM     55 H66  NAC L   1       2.824   5.728 -15.322  1.00  0.00    +0.0623  H
ENDBRANCH 37 43
ENDBRANCH 36 37
ENDBRANCH 33 36
ENDBRANCH 23 33
ENDBRANCH 21 26
BRANCH 21 56
ATOM     56 C15  NAC L   1       2.637  -5.692 -12.281  1.00  0.00    +0.0334  C
ATOM     57 H48  NAC L   1       2.496  -4.684 -11.872  1.00  0.00    +0.0497  H
ATOM     58 H49  NAC L   1       3.716  -5.890 -12.273  1.00  0.00    +0.0497  H
BRANCH 56 59
ATOM     59 N16  NAC L   1       2.046  -6.595 -11.297  1.00  0.00    -0.3551  N
ATOM     60 C17  NAC L   1       0.904  -6.341 -10.578  1.00  0.00    +0.2179  C
ATOM     61 C18  NAC L   1       0.463  -7.489  -9.712  1.00  0.00    +0.0143  C
ATOM     62 O19  NAC L   1       0.321  -5.261 -10.580  1.00  0.00    -0.2736 OA
ATOM     63 H50  NAC L   1       2.474  -7.510 -11.205  1.00  0.00    +0.1623 HD
ATOM     64 H51  NAC L   1       0.998  -7.445  -8.759  1.00  0.00    +0.0325  H
ATOM     65 H52  NAC L   1       0.668  -8.446 -10.198  1.00  0.00    +0.0325  H
ATOM     66 H53  NAC L   1      -0.612  -7.415  -9.530  1.00  0.00    +0.0325  H
ENDBRANCH 56 59
ENDBRANCH 21 56
ENDBRANCH 17 21
ENDBRANCH 1 19
TORSDOF 9
ENDMDL
MODEL 20
REMARK VINA RESULT:    -5.383      3.739      8.670
REMARK INTER + INTRA:          -9.610
REMARK INTER:                  -8.809
REMARK INTRA:                  -0.801
REMARK UNBOUND:                -1.395
ROOT
ATOM      1 C23  NAC L   1      -1.133  -7.501 -13.891  1.00  0.00    +0.0423  A
ATOM      2 C24  NAC L   1      -1.455  -8.436 -14.880  1.00  0.00    -0.0377  A
ATOM      3 C25  NAC L   1      -2.604  -9.223 -14.769  1.00  0.00    -0.0506  A
ATOM      4 C26  NAC L   1      -3.455  -9.082 -13.662  1.00  0.00    +0.0004  A
ATOM      5 C27  NAC L   1      -4.618  -9.839 -13.494  1.00  0.00    +0.0353  A
ATOM      6 N28  NAC L   1      -5.460  -9.729 -12.440  1.00  0.00    -0.2626 NA
ATOM      7 C29  NAC L   1      -5.133  -8.816 -11.503  1.00  0.00    +0.0281  A
ATOM      8 C30  NAC L   1      -4.006  -8.012 -11.567  1.00  0.00    -0.0358  A
ATOM      9 C31  NAC L   1      -3.144  -8.141 -12.664  1.00  0.00    -0.0131  A
ATOM     10 C32  NAC L   1      -1.982  -7.357 -12.791  1.00  0.00    -0.0305  A
ATOM     11 H55  NAC L   1      -0.814  -8.568 -15.748  1.00  0.00    +0.0638  H
ATOM     12 H56  NAC L   1      -2.832  -9.944 -15.552  1.00  0.00    +0.0625  H
ATOM     13 H57  NAC L   1      -4.915 -10.582 -14.228  1.00  0.00    +0.0836  H
ATOM     14 H58  NAC L   1      -5.823  -8.743 -10.667  1.00  0.00    +0.0830  H
ATOM     15 H59  NAC L   1      -3.806  -7.298 -10.775  1.00  0.00    +0.0639  H
ATOM     16 H60  NAC L   1      -1.764  -6.627 -12.015  1.00  0.00    +0.0644  H
ENDROOT
BRANCH 1 19
ATOM     17 C20  NAC L   1       1.357  -7.145 -13.862  1.00  0.00    +0.2344  C
ATOM     18 O21  NAC L   1       1.717  -8.274 -13.535  1.00  0.00    -0.2722 OA
ATOM     19 N22  NAC L   1       0.043  -6.751 -14.082  1.00  0.00    -0.3256  N
ATOM     20 H54  NAC L   1      -0.079  -5.828 -14.500  1.00  0.00    +0.1686 HD
BRANCH 17 21
ATOM     21 C14  NAC L   1       2.359  -6.013 -14.130  1.00  0.00    +0.0803  C
ATOM     22 H47  NAC L   1       2.946  -6.285 -15.015  1.00  0.00    +0.0463  H
BRANCH 21 26
ATOM     23 C10  NAC L   1       0.470  -2.223 -15.145  1.00  0.00    -0.0103  A
ATOM     24 C11  NAC L   1       0.750  -2.535 -13.810  1.00  0.00    -0.0551  A
ATOM     25 C12  NAC L   1       1.347  -3.752 -13.473  1.00  0.00    -0.0574  A
ATOM     26 C13  NAC L   1       1.686  -4.685 -14.465  1.00  0.00    -0.0336  A
ATOM     27 C33  NAC L   1       1.415  -4.361 -15.804  1.00  0.00    -0.0574  A
ATOM     28 C34  NAC L   1       0.817  -3.144 -16.140  1.00  0.00    -0.0551  A
ATOM     29 H45  NAC L   1       0.504  -1.827 -13.019  1.00  0.00    +0.0621  H
ATOM     30 H46  NAC L   1       1.532  -3.966 -12.422  1.00  0.00    +0.0621  H
ATOM     31 H61  NAC L   1       1.670  -5.054 -16.604  1.00  0.00    +0.0621  H
ATOM     32 H62  NAC L   1       0.628  -2.915 -17.186  1.00  0.00    +0.0621  H
BRANCH 23 33
ATOM     33  C9  NAC L   1      -0.159  -0.904 -15.507  1.00  0.00    +0.1179  C
ATOM     34 H43  NAC L   1      -1.004  -0.661 -14.850  1.00  0.00    +0.0749  H
ATOM     35 H44  NAC L   1      -0.574  -0.962 -16.520  1.00  0.00    +0.0749  H
BRANCH 33 36
ATOM     36  O8  NAC L   1       0.843   0.119 -15.511  1.00  0.00    -0.4564 OA
BRANCH 36 37
ATOM     37  C6  NAC L   1       0.780   1.001 -14.487  1.00  0.00    +0.3398  C
ATOM     38  O7  NAC L   1       0.389   0.779 -13.352  1.00  0.00    -0.2449 OA
BRANCH 37 43
ATOM     39  C1  NAC L   1       3.299   5.921 -16.211  1.00  0.00    -0.0397  C
ATOM     40  C2  NAC L   1       2.630   4.668 -15.728  1.00  0.00    -0.0502  A
ATOM     41  C3  NAC L   1       3.374   3.506 -15.512  1.00  0.00    -0.0580  A
ATOM     42  C4  NAC L   1       2.743   2.333 -15.100  1.00  0.00    -0.0473  A
ATOM     43  C5  NAC L   1       1.353   2.302 -14.911  1.00  0.00    +0.0619  A
ATOM     44 C35  NAC L   1       0.587   3.467 -15.104  1.00  0.00    -0.0362  A
ATOM     45 C36  NAC L   1      -0.900   3.512 -14.887  1.00  0.00    -0.0389  C
ATOM     46 C37  NAC L   1       1.241   4.637 -15.535  1.00  0.00    -0.0551  A
ATOM     47 H38  NAC L   1       2.783   6.810 -15.833  1.00  0.00    +0.0278  H
ATOM     48 H39  NAC L   1       4.335   5.973 -15.858  1.00  0.00    +0.0278  H
ATOM     49 H40  NAC L   1       3.297   5.948 -17.305  1.00  0.00    +0.0278  H
ATOM     50 H41  NAC L   1       4.452   3.504 -15.664  1.00  0.00    +0.0620  H
ATOM     51 H42  NAC L   1       3.335   1.436 -14.933  1.00  0.00    +0.0626  H
ATOM     52 H63  NAC L   1      -1.248   4.542 -14.750  1.00  0.00    +0.0278  H
ATOM     53 H64  NAC L   1      -1.180   2.966 -13.980  1.00  0.00    +0.0278  H
ATOM     54 H65  NAC L   1      -1.423   3.089 -15.749  1.00  0.00    +0.0278  H
ATOM     55 H66  NAC L   1       0.661   5.541 -15.714  1.00  0.00    +0.0623  H
ENDBRANCH 37 43
ENDBRANCH 36 37
ENDBRANCH 33 36
ENDBRANCH 23 33
ENDBRANCH 21 26
BRANCH 21 56
ATOM     56 C15  NAC L   1       3.327  -5.873 -12.940  1.00  0.00    +0.0334  C
ATOM     57 H48  NAC L   1       3.192  -6.702 -12.233  1.00  0.00    +0.0497  H
ATOM     58 H49  NAC L   1       3.104  -4.950 -12.392  1.00  0.00    +0.0497  H
BRANCH 56 59
ATOM     59 N16  NAC L   1       4.757  -5.844 -13.232  1.00  0.00    -0.3551  N
ATOM     60 C17  NAC L   1       5.403  -6.690 -14.100  1.00  0.00    +0.2179  C
ATOM     61 C18  NAC L   1       6.860  -6.369 -14.291  1.00  0.00    +0.0143  C
ATOM     62 O19  NAC L   1       4.873  -7.664 -14.627  1.00  0.00    -0.2736 OA
ATOM     63 H50  NAC L   1       5.289  -5.085 -12.822  1.00  0.00    +0.1623 HD
ATOM     64 H51  NAC L   1       7.440  -6.843 -13.494  1.00  0.00    +0.0325  H
ATOM     65 H52  NAC L   1       7.027  -5.289 -14.267  1.00  0.00    +0.0325  H
ATOM     66 H53  NAC L   1       7.192  -6.750 -15.260  1.00  0.00    +0.0325  H
ENDBRANCH 56 59
ENDBRANCH 21 56
ENDBRANCH 17 21
ENDBRANCH 1 19
TORSDOF 9
ENDMDL
