MODEL 1
REMARK VINA RESULT:    -6.476      0.000      0.000
REMARK INTER + INTRA:          -9.184
REMARK INTER:                  -8.370
REMARK INTRA:                  -0.814
REMARK UNBOUND:                -0.814
ROOT
ATOM      1 C13  AR1 L   1      10.860  -5.435   3.299  1.00  0.00    +0.0423  A
ATOM      2 C14  AR1 L   1      11.933  -4.542   3.384  1.00  0.00    -0.0377  A
ATOM      3 C15  AR1 L   1      12.764  -4.316   2.283  1.00  0.00    -0.0506  A
ATOM      4 C16  AR1 L   1      12.530  -4.986   1.072  1.00  0.00    +0.0004  A
ATOM      5 C17  AR1 L   1      13.323  -4.803  -0.064  1.00  0.00    +0.0353  A
ATOM      6 N18  AR1 L   1      13.128  -5.431  -1.247  1.00  0.00    -0.2626 NA
ATOM      7 C19  AR1 L   1      12.089  -6.288  -1.305  1.00  0.00    +0.0281  A
ATOM      8 C20  AR1 L   1      11.237  -6.546  -0.243  1.00  0.00    -0.0358  A
ATOM      9 C21  AR1 L   1      11.454  -5.887   0.973  1.00  0.00    -0.0131  A
ATOM     10 C22  AR1 L   1      10.628  -6.103   2.093  1.00  0.00    -0.0305  A
ATOM     11 H36  AR1 L   1      12.138  -4.009   4.310  1.00  0.00    +0.0638  H
ATOM     12 H37  AR1 L   1      13.590  -3.615   2.377  1.00  0.00    +0.0625  H
ATOM     13 H38  AR1 L   1      14.170  -4.121  -0.054  1.00  0.00    +0.0836  H
ATOM     14 H39  AR1 L   1      11.949  -6.782  -2.263  1.00  0.00    +0.0830  H
ATOM     15 H40  AR1 L   1      10.420  -7.251  -0.364  1.00  0.00    +0.0639  H
ATOM     16 H41  AR1 L   1       9.804  -6.804   1.998  1.00  0.00    +0.0644  H
ENDROOT
BRANCH 1 19
ATOM     17 C10  AR1 L   1       8.711  -5.445   4.604  1.00  0.00    +0.2339  C
ATOM     18 O11  AR1 L   1       7.927  -5.120   3.713  1.00  0.00    -0.2722 OA
ATOM     19 N12  AR1 L   1      10.079  -5.604   4.457  1.00  0.00    -0.3256  N
ATOM     20 H35  AR1 L   1      10.577  -5.872   5.310  1.00  0.00    +0.1686 HD
BRANCH 17 21
ATOM     21  C7  AR1 L   1       8.191  -5.766   6.016  1.00  0.00    +0.0752  C
ATOM     22 H30  AR1 L   1       7.150  -5.407   5.993  1.00  0.00    +0.0458  H
BRANCH 21 26
ATOM     23  C3  AR1 L   1       7.935 -10.028   6.871  1.00  0.00    -0.0222  A
ATOM     24  C4  AR1 L   1       8.549  -9.167   7.788  1.00  0.00    -0.0561  A
ATOM     25  C5  AR1 L   1       8.647  -7.797   7.523  1.00  0.00    -0.0575  A
ATOM     26  C6  AR1 L   1       8.129  -7.256   6.337  1.00  0.00    -0.0341  A
ATOM     27 C23  AR1 L   1       7.498  -8.124   5.431  1.00  0.00    -0.0575  A
ATOM     28 C24  AR1 L   1       7.400  -9.493   5.695  1.00  0.00    -0.0561  A
ATOM     29 H28  AR1 L   1       8.964  -9.558   8.715  1.00  0.00    +0.0621  H
ATOM     30 H29  AR1 L   1       9.142  -7.168   8.260  1.00  0.00    +0.0621  H
ATOM     31 H42  AR1 L   1       7.081  -7.741   4.502  1.00  0.00    +0.0621  H
ATOM     32 H43  AR1 L   1       6.906 -10.141   4.974  1.00  0.00    +0.0621  H
BRANCH 23 34
ATOM     33  O1  AR1 L   1       6.486 -11.815   7.574  1.00  0.00    -0.3904 OA
ATOM     34  C2  AR1 L   1       7.810 -11.498   7.166  1.00  0.00    +0.0692  C
ATOM     35 H25  AR1 L   1       5.997 -10.980   7.670  1.00  0.00    +0.2098 HD
ATOM     36 H26  AR1 L   1       8.499 -11.797   7.961  1.00  0.00    +0.0607  H
ATOM     37 H27  AR1 L   1       8.056 -12.094   6.280  1.00  0.00    +0.0607  H
ENDBRANCH 23 34
ENDBRANCH 21 26
BRANCH 21 38
ATOM     38  C8  AR1 L   1       8.888  -4.949   7.128  1.00  0.00    +0.0085  C
ATOM     39  N9  AR1 L   1       9.380  -3.628   6.692  1.00  0.00    -0.3289 NA
ATOM     40 H31  AR1 L   1       8.185  -4.788   7.955  1.00  0.00    +0.0432  H
ATOM     41 H32  AR1 L   1       9.736  -5.514   7.532  1.00  0.00    +0.0432  H
ATOM     42 H33  AR1 L   1       9.849  -3.183   7.486  1.00  0.00    +0.1182 HD
ATOM     43 H34  AR1 L   1      10.125  -3.778   6.004  1.00  0.00    +0.1182 HD
ENDBRANCH 21 38
ENDBRANCH 17 21
ENDBRANCH 1 19
TORSDOF 5
ENDMDL
MODEL 2
REMARK VINA RESULT:    -6.425      3.466      7.745
REMARK INTER + INTRA:          -9.117
REMARK INTER:                  -8.116
REMARK INTRA:                  -1.001
REMARK UNBOUND:                -0.814
ROOT
ATOM      1 C13  AR1 L   1      11.330  -4.511   3.623  1.00  0.00    +0.0423  A
ATOM      2 C14  AR1 L   1      10.914  -3.305   4.198  1.00  0.00    -0.0377  A
ATOM      3 C15  AR1 L   1       9.829  -3.270   5.079  1.00  0.00    -0.0506  A
ATOM      4 C16  AR1 L   1       9.139  -4.450   5.398  1.00  0.00    +0.0004  A
ATOM      5 C17  AR1 L   1       8.048  -4.481   6.271  1.00  0.00    +0.0353  A
ATOM      6 N18  AR1 L   1       7.360  -5.598   6.601  1.00  0.00    -0.2626 NA
ATOM      7 C19  AR1 L   1       7.779  -6.749   6.035  1.00  0.00    +0.0281  A
ATOM      8 C20  AR1 L   1       8.848  -6.836   5.157  1.00  0.00    -0.0358  A
ATOM      9 C21  AR1 L   1       9.548  -5.669   4.826  1.00  0.00    -0.0131  A
ATOM     10 C22  AR1 L   1      10.643  -5.685   3.942  1.00  0.00    -0.0305  A
ATOM     11 H36  AR1 L   1      11.430  -2.375   3.968  1.00  0.00    +0.0638  H
ATOM     12 H37  AR1 L   1       9.528  -2.319   5.512  1.00  0.00    +0.0625  H
ATOM     13 H38  AR1 L   1       7.683  -3.574   6.746  1.00  0.00    +0.0836  H
ATOM     14 H39  AR1 L   1       7.214  -7.634   6.313  1.00  0.00    +0.0830  H
ATOM     15 H40  AR1 L   1       9.127  -7.799   4.739  1.00  0.00    +0.0639  H
ATOM     16 H41  AR1 L   1      10.941  -6.636   3.509  1.00  0.00    +0.0644  H
ENDROOT
BRANCH 1 19
ATOM     17 C10  AR1 L   1      13.778  -4.472   3.054  1.00  0.00    +0.2339  C
ATOM     18 O11  AR1 L   1      14.254  -4.548   4.186  1.00  0.00    -0.2722 OA
ATOM     19 N12  AR1 L   1      12.429  -4.452   2.746  1.00  0.00    -0.3256  N
ATOM     20 H35  AR1 L   1      12.213  -4.378   1.748  1.00  0.00    +0.1686 HD
BRANCH 17 21
ATOM     21  C7  AR1 L   1      14.703  -4.442   1.824  1.00  0.00    +0.0752  C
ATOM     22 H30  AR1 L   1      15.626  -4.923   2.186  1.00  0.00    +0.0458  H
BRANCH 21 26
ATOM     23  C3  AR1 L   1      13.229  -6.757  -1.556  1.00  0.00    -0.0222  A
ATOM     24  C4  AR1 L   1      13.790  -7.411  -0.453  1.00  0.00    -0.0561  A
ATOM     25  C5  AR1 L   1      14.276  -6.681   0.636  1.00  0.00    -0.0575  A
ATOM     26  C6  AR1 L   1      14.208  -5.280   0.649  1.00  0.00    -0.0341  A
ATOM     27 C23  AR1 L   1      13.627  -4.632  -0.454  1.00  0.00    -0.0575  A
ATOM     28 C24  AR1 L   1      13.141  -5.362  -1.542  1.00  0.00    -0.0561  A
ATOM     29 H28  AR1 L   1      13.859  -8.497  -0.436  1.00  0.00    +0.0621  H
ATOM     30 H29  AR1 L   1      14.712  -7.231   1.467  1.00  0.00    +0.0621  H
ATOM     31 H42  AR1 L   1      13.554  -3.546  -0.479  1.00  0.00    +0.0621  H
ATOM     32 H43  AR1 L   1      12.696  -4.833  -2.383  1.00  0.00    +0.0621  H
BRANCH 23 34
ATOM     33  O1  AR1 L   1      11.279  -7.709  -2.596  1.00  0.00    -0.3904 OA
ATOM     34  C2  AR1 L   1      12.686  -7.544  -2.719  1.00  0.00    +0.0692  C
ATOM     35 H25  AR1 L   1      11.015  -7.364  -1.727  1.00  0.00    +0.2098 HD
ATOM     36 H26  AR1 L   1      13.149  -8.534  -2.771  1.00  0.00    +0.0607  H
ATOM     37 H27  AR1 L   1      12.898  -7.035  -3.665  1.00  0.00    +0.0607  H
ENDBRANCH 23 34
ENDBRANCH 21 26
BRANCH 21 38
ATOM     38  C8  AR1 L   1      15.116  -3.013   1.401  1.00  0.00    +0.0085  C
ATOM     39  N9  AR1 L   1      14.534  -1.943   2.233  1.00  0.00    -0.3289 NA
ATOM     40 H31  AR1 L   1      16.208  -2.922   1.452  1.00  0.00    +0.0432  H
ATOM     41 H32  AR1 L   1      14.827  -2.834   0.359  1.00  0.00    +0.0432  H
ATOM     42 H33  AR1 L   1      14.840  -1.042   1.854  1.00  0.00    +0.1182 HD
ATOM     43 H34  AR1 L   1      13.518  -1.948   2.092  1.00  0.00    +0.1182 HD
ENDBRANCH 21 38
ENDBRANCH 17 21
ENDBRANCH 1 19
TORSDOF 5
ENDMDL
MODEL 3
REMARK VINA RESULT:    -6.420      0.969      1.859
REMARK INTER + INTRA:          -9.111
REMARK INTER:                  -8.378
REMARK INTRA:                  -0.733
REMARK UNBOUND:                -0.814
ROOT
ATOM      1 C13  AR1 L   1      11.045  -5.169   3.378  1.00  0.00    +0.0423  A
ATOM      2 C14  AR1 L   1      10.691  -5.858   2.213  1.00  0.00    -0.0377  A
ATOM      3 C15  AR1 L   1      11.487  -5.781   1.067  1.00  0.00    -0.0506  A
ATOM      4 C16  AR1 L   1      12.659  -5.008   1.071  1.00  0.00    +0.0004  A
ATOM      5 C17  AR1 L   1      13.497  -4.891  -0.041  1.00  0.00    +0.0353  A
ATOM      6 N18  AR1 L   1      14.632  -4.155  -0.074  1.00  0.00    -0.2626 NA
ATOM      7 C19  AR1 L   1      14.953  -3.499   1.060  1.00  0.00    +0.0281  A
ATOM      8 C20  AR1 L   1      14.198  -3.543   2.221  1.00  0.00    -0.0358  A
ATOM      9 C21  AR1 L   1      13.026  -4.310   2.236  1.00  0.00    -0.0131  A
ATOM     10 C22  AR1 L   1      12.211  -4.398   3.381  1.00  0.00    -0.0305  A
ATOM     11 H36  AR1 L   1       9.788  -6.465   2.182  1.00  0.00    +0.0638  H
ATOM     12 H37  AR1 L   1      11.189  -6.328   0.176  1.00  0.00    +0.0625  H
ATOM     13 H38  AR1 L   1      13.270  -5.405  -0.972  1.00  0.00    +0.0836  H
ATOM     14 H39  AR1 L   1      15.868  -2.915   1.013  1.00  0.00    +0.0830  H
ATOM     15 H40  AR1 L   1      14.520  -2.987   3.096  1.00  0.00    +0.0639  H
ATOM     16 H41  AR1 L   1      12.510  -3.851   4.269  1.00  0.00    +0.0644  H
ENDROOT
BRANCH 1 19
ATOM     17 C10  AR1 L   1       8.818  -5.078   4.540  1.00  0.00    +0.2339  C
ATOM     18 O11  AR1 L   1       8.110  -4.718   3.602  1.00  0.00    -0.2722 OA
ATOM     19 N12  AR1 L   1      10.184  -5.300   4.482  1.00  0.00    -0.3256  N
ATOM     20 H35  AR1 L   1      10.613  -5.591   5.365  1.00  0.00    +0.1686 HD
BRANCH 17 21
ATOM     21  C7  AR1 L   1       8.193  -5.374   5.915  1.00  0.00    +0.0752  C
ATOM     22 H30  AR1 L   1       7.156  -5.019   5.806  1.00  0.00    +0.0458  H
BRANCH 21 26
ATOM     23  C3  AR1 L   1       7.883  -9.620   6.827  1.00  0.00    -0.0222  A
ATOM     24  C4  AR1 L   1       8.380  -8.734   7.789  1.00  0.00    -0.0561  A
ATOM     25  C5  AR1 L   1       8.494  -7.369   7.508  1.00  0.00    -0.0575  A
ATOM     26  C6  AR1 L   1       8.110  -6.858   6.259  1.00  0.00    -0.0341  A
ATOM     27 C23  AR1 L   1       7.594  -7.751   5.306  1.00  0.00    -0.0575  A
ATOM     28 C24  AR1 L   1       7.479  -9.115   5.587  1.00  0.00    -0.0561  A
ATOM     29 H28  AR1 L   1       8.690  -9.101   8.765  1.00  0.00    +0.0621  H
ATOM     30 H29  AR1 L   1       8.896  -6.719   8.282  1.00  0.00    +0.0621  H
ATOM     31 H42  AR1 L   1       7.281  -7.392   4.327  1.00  0.00    +0.0621  H
ATOM     32 H43  AR1 L   1       7.077  -9.784   4.828  1.00  0.00    +0.0621  H
BRANCH 23 34
ATOM     33  O1  AR1 L   1       8.742 -11.839   6.468  1.00  0.00    -0.3904 OA
ATOM     34  C2  AR1 L   1       7.739 -11.086   7.137  1.00  0.00    +0.0692  C
ATOM     35 H25  AR1 L   1       9.223 -11.234   5.877  1.00  0.00    +0.2098 HD
ATOM     36 H26  AR1 L   1       6.758 -11.457   6.822  1.00  0.00    +0.0607  H
ATOM     37 H27  AR1 L   1       7.825 -11.266   8.213  1.00  0.00    +0.0607  H
ENDBRANCH 23 34
ENDBRANCH 21 26
BRANCH 21 38
ATOM     38  C8  AR1 L   1       8.803  -4.533   7.061  1.00  0.00    +0.0085  C
ATOM     39  N9  AR1 L   1       9.281  -3.201   6.647  1.00  0.00    -0.3289 NA
ATOM     40 H31  AR1 L   1       8.049  -4.390   7.846  1.00  0.00    +0.0432  H
ATOM     41 H32  AR1 L   1       9.641  -5.074   7.516  1.00  0.00    +0.0432  H
ATOM     42 H33  AR1 L   1       9.692  -2.741   7.464  1.00  0.00    +0.1182 HD
ATOM     43 H34  AR1 L   1      10.069  -3.333   6.003  1.00  0.00    +0.1182 HD
ENDBRANCH 21 38
ENDBRANCH 17 21
ENDBRANCH 1 19
TORSDOF 5
ENDMDL
MODEL 4
REMARK VINA RESULT:    -6.417      2.842      4.249
REMARK INTER + INTRA:          -9.107
REMARK INTER:                  -8.364
REMARK INTRA:                  -0.743
REMARK UNBOUND:                -0.814
ROOT
ATOM      1 C13  AR1 L   1      11.741  -5.503   0.203  1.00  0.00    +0.0423  A
ATOM      2 C14  AR1 L   1      12.884  -5.076  -0.481  1.00  0.00    -0.0377  A
ATOM      3 C15  AR1 L   1      13.370  -5.792  -1.578  1.00  0.00    -0.0506  A
ATOM      4 C16  AR1 L   1      12.714  -6.956  -2.009  1.00  0.00    +0.0004  A
ATOM      5 C17  AR1 L   1      13.150  -7.716  -3.098  1.00  0.00    +0.0353  A
ATOM      6 N18  AR1 L   1      12.544  -8.842  -3.540  1.00  0.00    -0.2626 NA
ATOM      7 C19  AR1 L   1      11.444  -9.235  -2.866  1.00  0.00    +0.0281  A
ATOM      8 C20  AR1 L   1      10.923  -8.560  -1.774  1.00  0.00    -0.0358  A
ATOM      9 C21  AR1 L   1      11.564  -7.397  -1.329  1.00  0.00    -0.0131  A
ATOM     10 C22  AR1 L   1      11.089  -6.662  -0.226  1.00  0.00    -0.0305  A
ATOM     11 H36  AR1 L   1      13.413  -4.178  -0.168  1.00  0.00    +0.0638  H
ATOM     12 H37  AR1 L   1      14.260  -5.437  -2.092  1.00  0.00    +0.0625  H
ATOM     13 H38  AR1 L   1      14.032  -7.430  -3.665  1.00  0.00    +0.0836  H
ATOM     14 H39  AR1 L   1      10.972 -10.141  -3.237  1.00  0.00    +0.0830  H
ATOM     15 H40  AR1 L   1      10.033  -8.937  -1.279  1.00  0.00    +0.0639  H
ATOM     16 H41  AR1 L   1      10.201  -7.020   0.287  1.00  0.00    +0.0644  H
ENDROOT
BRANCH 1 19
ATOM     17 C10  AR1 L   1      11.923  -4.592   2.539  1.00  0.00    +0.2339  C
ATOM     18 O11  AR1 L   1      12.954  -5.156   2.901  1.00  0.00    -0.2722 OA
ATOM     19 N12  AR1 L   1      11.325  -4.723   1.298  1.00  0.00    -0.3256  N
ATOM     20 H35  AR1 L   1      10.464  -4.183   1.173  1.00  0.00    +0.1686 HD
BRANCH 17 21
ATOM     21  C7  AR1 L   1      11.210  -3.603   3.478  1.00  0.00    +0.0752  C
ATOM     22 H30  AR1 L   1      10.565  -3.024   2.798  1.00  0.00    +0.0458  H
BRANCH 21 26
ATOM     23  C3  AR1 L   1       8.598  -5.417   6.452  1.00  0.00    -0.0222  A
ATOM     24  C4  AR1 L   1       9.085  -6.186   5.389  1.00  0.00    -0.0561  A
ATOM     25  C5  AR1 L   1       9.917  -5.615   4.421  1.00  0.00    -0.0575  A
ATOM     26  C6  AR1 L   1      10.285  -4.263   4.496  1.00  0.00    -0.0341  A
ATOM     27 C23  AR1 L   1       9.806  -3.504   5.577  1.00  0.00    -0.0575  A
ATOM     28 C24  AR1 L   1       8.975  -4.074   6.544  1.00  0.00    -0.0561  A
ATOM     29 H28  AR1 L   1       8.815  -7.236   5.301  1.00  0.00    +0.0621  H
ATOM     30 H29  AR1 L   1      10.264  -6.248   3.607  1.00  0.00    +0.0621  H
ATOM     31 H42  AR1 L   1      10.073  -2.453   5.671  1.00  0.00    +0.0621  H
ATOM     32 H43  AR1 L   1       8.619  -3.461   7.370  1.00  0.00    +0.0621  H
BRANCH 23 34
ATOM     33  O1  AR1 L   1       8.090  -7.391   7.732  1.00  0.00    -0.3904 OA
ATOM     34  C2  AR1 L   1       7.720  -6.037   7.506  1.00  0.00    +0.0692  C
ATOM     35 H25  AR1 L   1       8.759  -7.630   7.068  1.00  0.00    +0.2098 HD
ATOM     36 H26  AR1 L   1       6.668  -6.009   7.204  1.00  0.00    +0.0607  H
ATOM     37 H27  AR1 L   1       7.802  -5.489   8.451  1.00  0.00    +0.0607  H
ENDBRANCH 23 34
ENDBRANCH 21 26
BRANCH 21 38
ATOM     38  C8  AR1 L   1      12.164  -2.572   4.126  1.00  0.00    +0.0085  C
ATOM     39  N9  AR1 L   1      13.364  -2.271   3.323  1.00  0.00    -0.3289 NA
ATOM     40 H31  AR1 L   1      11.624  -1.631   4.288  1.00  0.00    +0.0432  H
ATOM     41 H32  AR1 L   1      12.489  -2.931   5.109  1.00  0.00    +0.0432  H
ATOM     42 H33  AR1 L   1      13.942  -1.608   3.848  1.00  0.00    +0.1182 HD
ATOM     43 H34  AR1 L   1      13.934  -3.122   3.271  1.00  0.00    +0.1182 HD
ENDBRANCH 21 38
ENDBRANCH 17 21
ENDBRANCH 1 19
TORSDOF 5
ENDMDL
MODEL 5
REMARK VINA RESULT:    -6.237     11.865     14.723
REMARK INTER + INTRA:          -8.874
REMARK INTER:                  -8.336
REMARK INTRA:                  -0.538
REMARK UNBOUND:                -0.814
ROOT
ATOM      1 C13  AR1 L   1      12.055  -7.772 -10.473  1.00  0.00    +0.0423  A
ATOM      2 C14  AR1 L   1      13.361  -7.535 -10.031  1.00  0.00    -0.0377  A
ATOM      3 C15  AR1 L   1      14.386  -7.266 -10.943  1.00  0.00    -0.0506  A
ATOM      4 C16  AR1 L   1      14.115  -7.229 -12.320  1.00  0.00    +0.0004  A
ATOM      5 C17  AR1 L   1      15.094  -6.964 -13.282  1.00  0.00    +0.0353  A
ATOM      6 N18  AR1 L   1      14.870  -6.921 -14.615  1.00  0.00    -0.2626 NA
ATOM      7 C19  AR1 L   1      13.604  -7.153 -15.017  1.00  0.00    +0.0281  A
ATOM      8 C20  AR1 L   1      12.554  -7.425 -14.154  1.00  0.00    -0.0358  A
ATOM      9 C21  AR1 L   1      12.805  -7.466 -12.777  1.00  0.00    -0.0131  A
ATOM     10 C22  AR1 L   1      11.787  -7.736 -11.844  1.00  0.00    -0.0305  A
ATOM     11 H36  AR1 L   1      13.600  -7.558  -8.970  1.00  0.00    +0.0638  H
ATOM     12 H37  AR1 L   1      15.392  -7.085 -10.573  1.00  0.00    +0.0625  H
ATOM     13 H38  AR1 L   1      16.125  -6.773 -12.995  1.00  0.00    +0.0836  H
ATOM     14 H39  AR1 L   1      13.444  -7.114 -16.091  1.00  0.00    +0.0830  H
ATOM     15 H40  AR1 L   1      11.559  -7.602 -14.551  1.00  0.00    +0.0639  H
ATOM     16 H41  AR1 L   1      10.782  -7.918 -12.215  1.00  0.00    +0.0644  H
ENDROOT
BRANCH 1 19
ATOM     17 C10  AR1 L   1      10.319  -7.138  -8.768  1.00  0.00    +0.2339  C
ATOM     18 O11  AR1 L   1      10.356  -5.914  -8.882  1.00  0.00    -0.2722 OA
ATOM     19 N12  AR1 L   1      11.088  -8.039  -9.485  1.00  0.00    -0.3256  N
ATOM     20 H35  AR1 L   1      10.930  -9.023  -9.255  1.00  0.00    +0.1686 HD
BRANCH 17 21
ATOM     21  C7  AR1 L   1       9.322  -7.798  -7.799  1.00  0.00    +0.0752  C
ATOM     22 H30  AR1 L   1       8.916  -6.946  -7.231  1.00  0.00    +0.0458  H
BRANCH 21 26
ATOM     23  C3  AR1 L   1       5.930  -9.779  -9.677  1.00  0.00    -0.0222  A
ATOM     24  C4  AR1 L   1       6.814  -9.022 -10.454  1.00  0.00    -0.0561  A
ATOM     25  C5  AR1 L   1       7.903  -8.373  -9.864  1.00  0.00    -0.0575  A
ATOM     26  C6  AR1 L   1       8.135  -8.469  -8.484  1.00  0.00    -0.0341  A
ATOM     27 C23  AR1 L   1       7.253  -9.245  -7.714  1.00  0.00    -0.0575  A
ATOM     28 C24  AR1 L   1       6.165  -9.895  -8.303  1.00  0.00    -0.0561  A
ATOM     29 H28  AR1 L   1       6.658  -8.927 -11.526  1.00  0.00    +0.0621  H
ATOM     30 H29  AR1 L   1       8.558  -7.788 -10.505  1.00  0.00    +0.0621  H
ATOM     31 H42  AR1 L   1       7.402  -9.346  -6.640  1.00  0.00    +0.0621  H
ATOM     32 H43  AR1 L   1       5.498 -10.490  -7.682  1.00  0.00    +0.0621  H
BRANCH 23 34
ATOM     33  O1  AR1 L   1       3.700  -9.596 -10.564  1.00  0.00    -0.3904 OA
ATOM     34  C2  AR1 L   1       4.771 -10.497 -10.315  1.00  0.00    +0.0692  C
ATOM     35 H25  AR1 L   1       3.932  -8.741 -10.161  1.00  0.00    +0.2098 HD
ATOM     36 H26  AR1 L   1       4.405 -11.300  -9.667  1.00  0.00    +0.0607  H
ATOM     37 H27  AR1 L   1       5.071 -10.955 -11.263  1.00  0.00    +0.0607  H
ENDBRANCH 23 34
ENDBRANCH 21 26
BRANCH 21 38
ATOM     38  C8  AR1 L   1       9.997  -8.715  -6.752  1.00  0.00    +0.0085  C
ATOM     39  N9  AR1 L   1      10.715  -7.990  -5.686  1.00  0.00    -0.3289 NA
ATOM     40 H31  AR1 L   1       9.234  -9.343  -6.276  1.00  0.00    +0.0432  H
ATOM     41 H32  AR1 L   1      10.705  -9.388  -7.247  1.00  0.00    +0.0432  H
ATOM     42 H33  AR1 L   1      11.149  -8.680  -5.068  1.00  0.00    +0.1182 HD
ATOM     43 H34  AR1 L   1      11.505  -7.496  -6.114  1.00  0.00    +0.1182 HD
ENDBRANCH 21 38
ENDBRANCH 17 21
ENDBRANCH 1 19
TORSDOF 5
ENDMDL
MODEL 6
REMARK VINA RESULT:    -6.070     12.109     15.023
REMARK INTER + INTRA:          -8.658
REMARK INTER:                  -8.107
REMARK INTRA:                  -0.551
REMARK UNBOUND:                -0.814
ROOT
ATOM      1 C13  AR1 L   1      11.382  -7.797 -11.183  1.00  0.00    +0.0423  A
ATOM      2 C14  AR1 L   1      10.718  -7.656 -12.407  1.00  0.00    -0.0377  A
ATOM      3 C15  AR1 L   1      11.433  -7.413 -13.583  1.00  0.00    -0.0506  A
ATOM      4 C16  AR1 L   1      12.833  -7.307 -13.551  1.00  0.00    +0.0004  A
ATOM      5 C17  AR1 L   1      13.604  -7.067 -14.691  1.00  0.00    +0.0353  A
ATOM      6 N18  AR1 L   1      14.952  -6.959 -14.698  1.00  0.00    -0.2626 NA
ATOM      7 C19  AR1 L   1      15.570  -7.098 -13.507  1.00  0.00    +0.0281  A
ATOM      8 C20  AR1 L   1      14.907  -7.339 -12.314  1.00  0.00    -0.0358  A
ATOM      9 C21  AR1 L   1      13.511  -7.447 -12.326  1.00  0.00    -0.0131  A
ATOM     10 C22  AR1 L   1      12.775  -7.691 -11.152  1.00  0.00    -0.0305  A
ATOM     11 H36  AR1 L   1       9.634  -7.732 -12.461  1.00  0.00    +0.0638  H
ATOM     12 H37  AR1 L   1      10.892  -7.308 -14.521  1.00  0.00    +0.0625  H
ATOM     13 H38  AR1 L   1      13.141  -6.949 -15.668  1.00  0.00    +0.0836  H
ATOM     14 H39  AR1 L   1      16.653  -7.008 -13.534  1.00  0.00    +0.0830  H
ATOM     15 H40  AR1 L   1      15.473  -7.439 -11.392  1.00  0.00    +0.0639  H
ATOM     16 H41  AR1 L   1      13.316  -7.793 -10.216  1.00  0.00    +0.0644  H
ENDROOT
BRANCH 1 19
ATOM     17 C10  AR1 L   1      10.188  -7.140  -9.070  1.00  0.00    +0.2339  C
ATOM     18 O11  AR1 L   1      10.482  -5.947  -9.029  1.00  0.00    -0.2722 OA
ATOM     19 N12  AR1 L   1      10.583  -8.035 -10.050  1.00  0.00    -0.3256  N
ATOM     20 H35  AR1 L   1      10.250  -8.995  -9.919  1.00  0.00    +0.1686 HD
BRANCH 17 21
ATOM     21  C7  AR1 L   1       9.266  -7.749  -7.998  1.00  0.00    +0.0752  C
ATOM     22 H30  AR1 L   1       8.846  -6.866  -7.491  1.00  0.00    +0.0458  H
BRANCH 21 26
ATOM     23  C3  AR1 L   1       5.882  -9.912  -9.680  1.00  0.00    -0.0222  A
ATOM     24  C4  AR1 L   1       6.204 -10.062  -8.326  1.00  0.00    -0.0561  A
ATOM     25  C5  AR1 L   1       7.294  -9.382  -7.774  1.00  0.00    -0.0575  A
ATOM     26  C6  AR1 L   1       8.083  -8.531  -8.561  1.00  0.00    -0.0341  A
ATOM     27 C23  AR1 L   1       7.742  -8.371  -9.915  1.00  0.00    -0.0575  A
ATOM     28 C24  AR1 L   1       6.653  -9.051 -10.467  1.00  0.00    -0.0561  A
ATOM     29 H28  AR1 L   1       5.612 -10.718  -7.691  1.00  0.00    +0.0621  H
ATOM     30 H29  AR1 L   1       7.513  -9.537  -6.720  1.00  0.00    +0.0621  H
ATOM     31 H42  AR1 L   1       8.329  -7.717 -10.557  1.00  0.00    +0.0621  H
ATOM     32 H43  AR1 L   1       6.412  -8.907 -11.519  1.00  0.00    +0.0621  H
BRANCH 23 34
ATOM     33  O1  AR1 L   1       3.686  -9.698 -10.640  1.00  0.00    -0.3904 OA
ATOM     34  C2  AR1 L   1       4.696 -10.627 -10.269  1.00  0.00    +0.0692  C
ATOM     35 H25  AR1 L   1       3.959  -8.820 -10.323  1.00  0.00    +0.2098 HD
ATOM     36 H26  AR1 L   1       4.270 -11.335  -9.551  1.00  0.00    +0.0607  H
ATOM     37 H27  AR1 L   1       4.988 -11.199 -11.156  1.00  0.00    +0.0607  H
ENDBRANCH 23 34
ENDBRANCH 21 26
BRANCH 21 38
ATOM     38  C8  AR1 L   1      10.029  -8.534  -6.905  1.00  0.00    +0.0085  C
ATOM     39  N9  AR1 L   1      11.491  -8.340  -6.929  1.00  0.00    -0.3289 NA
ATOM     40 H31  AR1 L   1       9.665  -8.224  -5.918  1.00  0.00    +0.0432  H
ATOM     41 H32  AR1 L   1       9.822  -9.606  -7.003  1.00  0.00    +0.0432  H
ATOM     42 H33  AR1 L   1      11.902  -8.922  -6.194  1.00  0.00    +0.1182 HD
ATOM     43 H34  AR1 L   1      11.850  -8.740  -7.803  1.00  0.00    +0.1182 HD
ENDBRANCH 21 38
ENDBRANCH 17 21
ENDBRANCH 1 19
TORSDOF 5
ENDMDL
MODEL 7
REMARK VINA RESULT:    -6.049      1.414      1.976
REMARK INTER + INTRA:          -8.631
REMARK INTER:                  -7.644
REMARK INTRA:                  -0.987
REMARK UNBOUND:                -0.814
ROOT
ATOM      1 C13  AR1 L   1      11.518  -5.383   2.323  1.00  0.00    +0.0423  A
ATOM      2 C14  AR1 L   1      12.675  -4.626   2.108  1.00  0.00    -0.0377  A
ATOM      3 C15  AR1 L   1      13.377  -4.721   0.903  1.00  0.00    -0.0506  A
ATOM      4 C16  AR1 L   1      12.929  -5.583  -0.110  1.00  0.00    +0.0004  A
ATOM      5 C17  AR1 L   1      13.585  -5.723  -1.336  1.00  0.00    +0.0353  A
ATOM      6 N18  AR1 L   1      13.183  -6.543  -2.334  1.00  0.00    -0.2626 NA
ATOM      7 C19  AR1 L   1      12.066  -7.263  -2.104  1.00  0.00    +0.0281  A
ATOM      8 C20  AR1 L   1      11.335  -7.204  -0.928  1.00  0.00    -0.0358  A
ATOM      9 C21  AR1 L   1      11.767  -6.350   0.095  1.00  0.00    -0.0131  A
ATOM     10 C22  AR1 L   1      11.073  -6.241   1.314  1.00  0.00    -0.0305  A
ATOM     11 H36  AR1 L   1      13.046  -3.950   2.876  1.00  0.00    +0.0638  H
ATOM     12 H37  AR1 L   1      14.273  -4.121   0.762  1.00  0.00    +0.0625  H
ATOM     13 H38  AR1 L   1      14.488  -5.159  -1.557  1.00  0.00    +0.0836  H
ATOM     14 H39  AR1 L   1      11.759  -7.915  -2.917  1.00  0.00    +0.0830  H
ATOM     15 H40  AR1 L   1      10.445  -7.815  -0.814  1.00  0.00    +0.0639  H
ATOM     16 H41  AR1 L   1      10.179  -6.842   1.454  1.00  0.00    +0.0644  H
ENDROOT
BRANCH 1 19
ATOM     17 C10  AR1 L   1      10.007  -4.226   3.966  1.00  0.00    +0.2339  C
ATOM     18 O11  AR1 L   1       9.638  -3.278   3.274  1.00  0.00    -0.2722 OA
ATOM     19 N12  AR1 L   1      10.877  -5.226   3.566  1.00  0.00    -0.3256  N
ATOM     20 H35  AR1 L   1      11.079  -5.934   4.277  1.00  0.00    +0.1686 HD
BRANCH 17 21
ATOM     21  C7  AR1 L   1       9.457  -4.406   5.392  1.00  0.00    +0.0752  C
ATOM     22 H30  AR1 L   1       8.578  -3.742   5.413  1.00  0.00    +0.0458  H
BRANCH 21 26
ATOM     23  C3  AR1 L   1       8.082  -8.436   6.304  1.00  0.00    -0.0222  A
ATOM     24  C4  AR1 L   1       7.613  -7.780   5.161  1.00  0.00    -0.0561  A
ATOM     25  C5  AR1 L   1       8.038  -6.482   4.859  1.00  0.00    -0.0575  A
ATOM     26  C6  AR1 L   1       8.946  -5.812   5.692  1.00  0.00    -0.0341  A
ATOM     27 C23  AR1 L   1       9.427  -6.484   6.828  1.00  0.00    -0.0575  A
ATOM     28 C24  AR1 L   1       9.002  -7.781   7.130  1.00  0.00    -0.0561  A
ATOM     29 H28  AR1 L   1       6.905  -8.272   4.497  1.00  0.00    +0.0621  H
ATOM     30 H29  AR1 L   1       7.639  -6.008   3.965  1.00  0.00    +0.0621  H
ATOM     31 H42  AR1 L   1      10.135  -5.998   7.497  1.00  0.00    +0.0621  H
ATOM     32 H43  AR1 L   1       9.392  -8.277   8.017  1.00  0.00    +0.0621  H
BRANCH 23 34
ATOM     33  O1  AR1 L   1       8.714 -10.755   6.425  1.00  0.00    -0.3904 OA
ATOM     34  C2  AR1 L   1       7.642  -9.840   6.617  1.00  0.00    +0.0692  C
ATOM     35 H25  AR1 L   1       9.455 -10.264   6.029  1.00  0.00    +0.2098 HD
ATOM     36 H26  AR1 L   1       6.809 -10.141   5.974  1.00  0.00    +0.0607  H
ATOM     37 H27  AR1 L   1       7.298  -9.918   7.654  1.00  0.00    +0.0607  H
ENDBRANCH 23 34
ENDBRANCH 21 26
BRANCH 21 38
ATOM     38  C8  AR1 L   1      10.408  -3.875   6.489  1.00  0.00    +0.0085  C
ATOM     39  N9  AR1 L   1      11.612  -3.197   5.971  1.00  0.00    -0.3289 NA
ATOM     40 H31  AR1 L   1       9.867  -3.160   7.122  1.00  0.00    +0.0432  H
ATOM     41 H32  AR1 L   1      10.729  -4.699   7.136  1.00  0.00    +0.0432  H
ATOM     42 H33  AR1 L   1      12.186  -2.912   6.769  1.00  0.00    +0.1182 HD
ATOM     43 H34  AR1 L   1      12.182  -3.893   5.480  1.00  0.00    +0.1182 HD
ENDBRANCH 21 38
ENDBRANCH 17 21
ENDBRANCH 1 19
TORSDOF 5
ENDMDL
MODEL 8
REMARK VINA RESULT:    -6.042      2.459      4.168
REMARK INTER + INTRA:          -8.622
REMARK INTER:                  -8.202
REMARK INTRA:                  -0.420
REMARK UNBOUND:                -0.814
ROOT
ATOM      1 C13  AR1 L   1      12.043  -5.567   0.404  1.00  0.00    +0.0423  A
ATOM      2 C14  AR1 L   1      11.124  -6.176  -0.458  1.00  0.00    -0.0377  A
ATOM      3 C15  AR1 L   1      11.555  -6.833  -1.614  1.00  0.00    -0.0506  A
ATOM      4 C16  AR1 L   1      12.923  -6.890  -1.926  1.00  0.00    +0.0004  A
ATOM      5 C17  AR1 L   1      13.417  -7.531  -3.065  1.00  0.00    +0.0353  A
ATOM      6 N18  AR1 L   1      14.726  -7.606  -3.398  1.00  0.00    -0.2626 NA
ATOM      7 C19  AR1 L   1      15.594  -7.012  -2.553  1.00  0.00    +0.0281  A
ATOM      8 C20  AR1 L   1      15.217  -6.349  -1.396  1.00  0.00    -0.0358  A
ATOM      9 C21  AR1 L   1      13.857  -6.281  -1.068  1.00  0.00    -0.0131  A
ATOM     10 C22  AR1 L   1      13.404  -5.624   0.092  1.00  0.00    -0.0305  A
ATOM     11 H36  AR1 L   1      10.058  -6.147  -0.241  1.00  0.00    +0.0638  H
ATOM     12 H37  AR1 L   1      10.820  -7.298  -2.266  1.00  0.00    +0.0625  H
ATOM     13 H38  AR1 L   1      12.748  -8.021  -3.769  1.00  0.00    +0.0836  H
ATOM     14 H39  AR1 L   1      16.640  -7.083  -2.837  1.00  0.00    +0.0830  H
ATOM     15 H40  AR1 L   1      15.973  -5.893  -0.763  1.00  0.00    +0.0639  H
ATOM     16 H41  AR1 L   1      14.140  -5.159   0.741  1.00  0.00    +0.0644  H
ENDROOT
BRANCH 1 19
ATOM     17 C10  AR1 L   1      12.194  -4.190   2.501  1.00  0.00    +0.2339  C
ATOM     18 O11  AR1 L   1      13.403  -3.967   2.515  1.00  0.00    -0.2722 OA
ATOM     19 N12  AR1 L   1      11.520  -4.926   1.542  1.00  0.00    -0.3256  N
ATOM     20 H35  AR1 L   1      10.512  -5.015   1.693  1.00  0.00    +0.1686 HD
BRANCH 17 21
ATOM     21  C7  AR1 L   1      11.282  -3.589   3.586  1.00  0.00    +0.0752  C
ATOM     22 H30  AR1 L   1      10.641  -2.891   3.023  1.00  0.00    +0.0458  H
BRANCH 21 26
ATOM     23  C3  AR1 L   1       8.697  -6.529   5.492  1.00  0.00    -0.0222  A
ATOM     24  C4  AR1 L   1       8.161  -5.618   4.574  1.00  0.00    -0.0561  A
ATOM     25  C5  AR1 L   1       8.977  -4.662   3.961  1.00  0.00    -0.0575  A
ATOM     26  C6  AR1 L   1      10.348  -4.598   4.247  1.00  0.00    -0.0341  A
ATOM     27 C23  AR1 L   1      10.882  -5.527   5.155  1.00  0.00    -0.0575  A
ATOM     28 C24  AR1 L   1      10.067  -6.483   5.768  1.00  0.00    -0.0561  A
ATOM     29 H28  AR1 L   1       7.100  -5.641   4.334  1.00  0.00    +0.0621  H
ATOM     30 H29  AR1 L   1       8.515  -3.968   3.262  1.00  0.00    +0.0621  H
ATOM     31 H42  AR1 L   1      11.942  -5.511   5.401  1.00  0.00    +0.0621  H
ATOM     32 H43  AR1 L   1      10.508  -7.191   6.468  1.00  0.00    +0.0621  H
BRANCH 23 34
ATOM     33  O1  AR1 L   1       7.229  -8.405   5.148  1.00  0.00    -0.3904 OA
ATOM     34  C2  AR1 L   1       7.824  -7.572   6.135  1.00  0.00    +0.0692  C
ATOM     35 H25  AR1 L   1       7.445  -8.031   4.276  1.00  0.00    +0.2098 HD
ATOM     36 H26  AR1 L   1       7.027  -7.106   6.723  1.00  0.00    +0.0607  H
ATOM     37 H27  AR1 L   1       8.407  -8.200   6.817  1.00  0.00    +0.0607  H
ENDBRANCH 23 34
ENDBRANCH 21 26
BRANCH 21 38
ATOM     38  C8  AR1 L   1      12.041  -2.720   4.615  1.00  0.00    +0.0085  C
ATOM     39  N9  AR1 L   1      12.644  -1.498   4.049  1.00  0.00    -0.3289 NA
ATOM     40 H31  AR1 L   1      11.350  -2.416   5.411  1.00  0.00    +0.0432  H
ATOM     41 H32  AR1 L   1      12.836  -3.309   5.087  1.00  0.00    +0.0432  H
ATOM     42 H33  AR1 L   1      13.146  -1.013   4.799  1.00  0.00    +0.1182 HD
ATOM     43 H34  AR1 L   1      13.377  -1.781   3.391  1.00  0.00    +0.1182 HD
ENDBRANCH 21 38
ENDBRANCH 17 21
ENDBRANCH 1 19
TORSDOF 5
ENDMDL
MODEL 9
REMARK VINA RESULT:    -6.036      3.241      7.775
REMARK INTER + INTRA:          -8.614
REMARK INTER:                  -7.948
REMARK INTRA:                  -0.666
REMARK UNBOUND:                -0.814
ROOT
ATOM      1 C13  AR1 L   1      11.017  -4.825   2.695  1.00  0.00    +0.0423  A
ATOM      2 C14  AR1 L   1      10.951  -3.558   3.285  1.00  0.00    -0.0377  A
ATOM      3 C15  AR1 L   1      10.117  -3.323   4.382  1.00  0.00    -0.0506  A
ATOM      4 C16  AR1 L   1       9.332  -4.361   4.908  1.00  0.00    +0.0004  A
ATOM      5 C17  AR1 L   1       8.479  -4.191   6.002  1.00  0.00    +0.0353  A
ATOM      6 N18  AR1 L   1       7.709  -5.166   6.535  1.00  0.00    -0.2626 NA
ATOM      7 C19  AR1 L   1       7.788  -6.379   5.950  1.00  0.00    +0.0281  A
ATOM      8 C20  AR1 L   1       8.599  -6.662   4.862  1.00  0.00    -0.0358  A
ATOM      9 C21  AR1 L   1       9.389  -5.640   4.324  1.00  0.00    -0.0131  A
ATOM     10 C22  AR1 L   1      10.235  -5.857   3.220  1.00  0.00    -0.0305  A
ATOM     11 H36  AR1 L   1      11.548  -2.735   2.898  1.00  0.00    +0.0638  H
ATOM     12 H37  AR1 L   1      10.085  -2.329   4.821  1.00  0.00    +0.0625  H
ATOM     13 H38  AR1 L   1       8.389  -3.228   6.499  1.00  0.00    +0.0836  H
ATOM     14 H39  AR1 L   1       7.162  -7.149   6.393  1.00  0.00    +0.0830  H
ATOM     15 H40  AR1 L   1       8.610  -7.664   4.444  1.00  0.00    +0.0639  H
ATOM     16 H41  AR1 L   1      10.264  -6.851   2.781  1.00  0.00    +0.0644  H
ENDROOT
BRANCH 1 19
ATOM     17 C10  AR1 L   1      13.005  -5.769   1.481  1.00  0.00    +0.2339  C
ATOM     18 O11  AR1 L   1      13.449  -6.510   2.356  1.00  0.00    -0.2722 OA
ATOM     19 N12  AR1 L   1      11.880  -4.970   1.594  1.00  0.00    -0.3256  N
ATOM     20 H35  AR1 L   1      11.662  -4.410   0.765  1.00  0.00    +0.1686 HD
BRANCH 17 21
ATOM     21  C7  AR1 L   1      13.680  -5.710   0.098  1.00  0.00    +0.0752  C
ATOM     22 H30  AR1 L   1      14.681  -6.131   0.284  1.00  0.00    +0.0458  H
BRANCH 21 26
ATOM     23  C3  AR1 L   1      11.764  -8.294  -2.836  1.00  0.00    -0.0222  A
ATOM     24  C4  AR1 L   1      12.955  -7.634  -3.159  1.00  0.00    -0.0561  A
ATOM     25  C5  AR1 L   1      13.577  -6.794  -2.230  1.00  0.00    -0.0575  A
ATOM     26  C6  AR1 L   1      13.025  -6.597  -0.956  1.00  0.00    -0.0341  A
ATOM     27 C23  AR1 L   1      11.839  -7.278  -0.633  1.00  0.00    -0.0575  A
ATOM     28 C24  AR1 L   1      11.217  -8.118  -1.561  1.00  0.00    -0.0561  A
ATOM     29 H28  AR1 L   1      13.405  -7.763  -4.141  1.00  0.00    +0.0621  H
ATOM     30 H29  AR1 L   1      14.496  -6.293  -2.529  1.00  0.00    +0.0621  H
ATOM     31 H42  AR1 L   1      11.382  -7.154   0.347  1.00  0.00    +0.0621  H
ATOM     32 H43  AR1 L   1      10.299  -8.633  -1.283  1.00  0.00    +0.0621  H
BRANCH 23 34
ATOM     33  O1  AR1 L   1       9.723  -9.365  -3.530  1.00  0.00    -0.3904 OA
ATOM     34  C2  AR1 L   1      11.106  -9.215  -3.827  1.00  0.00    +0.0692  C
ATOM     35 H25  AR1 L   1       9.552  -8.915  -2.685  1.00  0.00    +0.2098 HD
ATOM     36 H26  AR1 L   1      11.573 -10.205  -3.810  1.00  0.00    +0.0607  H
ATOM     37 H27  AR1 L   1      11.205  -8.826  -4.846  1.00  0.00    +0.0607  H
ENDBRANCH 23 34
ENDBRANCH 21 26
BRANCH 21 38
ATOM     38  C8  AR1 L   1      13.921  -4.269  -0.407  1.00  0.00    +0.0085  C
ATOM     39  N9  AR1 L   1      14.447  -3.347   0.618  1.00  0.00    -0.3289 NA
ATOM     40 H31  AR1 L   1      14.637  -4.291  -1.237  1.00  0.00    +0.0432  H
ATOM     41 H32  AR1 L   1      12.987  -3.850  -0.800  1.00  0.00    +0.0432  H
ATOM     42 H33  AR1 L   1      14.541  -2.420   0.195  1.00  0.00    +0.1182 HD
ATOM     43 H34  AR1 L   1      13.726  -3.229   1.338  1.00  0.00    +0.1182 HD
ENDBRANCH 21 38
ENDBRANCH 17 21
ENDBRANCH 1 19
TORSDOF 5
ENDMDL
MODEL 10
REMARK VINA RESULT:    -6.016      7.746     12.615
REMARK INTER + INTRA:          -8.589
REMARK INTER:                  -7.702
REMARK INTRA:                  -0.887
REMARK UNBOUND:                -0.814
ROOT
ATOM      1 C13  AR1 L   1      11.576  -8.590  -4.923  1.00  0.00    +0.0423  A
ATOM      2 C14  AR1 L   1      10.729  -9.339  -4.098  1.00  0.00    -0.0377  A
ATOM      3 C15  AR1 L   1      10.844  -9.273  -2.707  1.00  0.00    -0.0506  A
ATOM      4 C16  AR1 L   1      11.817  -8.450  -2.116  1.00  0.00    +0.0004  A
ATOM      5 C17  AR1 L   1      11.982  -8.340  -0.733  1.00  0.00    +0.0353  A
ATOM      6 N18  AR1 L   1      12.907  -7.558  -0.130  1.00  0.00    -0.2626 NA
ATOM      7 C19  AR1 L   1      13.713  -6.846  -0.944  1.00  0.00    +0.0281  A
ATOM      8 C20  AR1 L   1      13.638  -6.878  -2.328  1.00  0.00    -0.0358  A
ATOM      9 C21  AR1 L   1      12.675  -7.692  -2.935  1.00  0.00    -0.0131  A
ATOM     10 C22  AR1 L   1      12.544  -7.772  -4.334  1.00  0.00    -0.0305  A
ATOM     11 H36  AR1 L   1       9.967  -9.985  -4.528  1.00  0.00    +0.0638  H
ATOM     12 H37  AR1 L   1      10.173  -9.865  -2.089  1.00  0.00    +0.0625  H
ATOM     13 H38  AR1 L   1      11.352  -8.898  -0.046  1.00  0.00    +0.0836  H
ATOM     14 H39  AR1 L   1      14.449  -6.225  -0.441  1.00  0.00    +0.0830  H
ATOM     15 H40  AR1 L   1      14.322  -6.276  -2.919  1.00  0.00    +0.0639  H
ATOM     16 H41  AR1 L   1      13.217  -7.181  -4.949  1.00  0.00    +0.0644  H
ENDROOT
BRANCH 1 19
ATOM     17 C10  AR1 L   1      10.554  -7.995  -7.140  1.00  0.00    +0.2339  C
ATOM     18 O11  AR1 L   1       9.808  -7.083  -6.786  1.00  0.00    -0.2722 OA
ATOM     19 N12  AR1 L   1      11.391  -8.721  -6.311  1.00  0.00    -0.3256  N
ATOM     20 H35  AR1 L   1      11.937  -9.451  -6.778  1.00  0.00    +0.1686 HD
BRANCH 17 21
ATOM     21  C7  AR1 L   1      10.651  -8.384  -8.626  1.00  0.00    +0.0752  C
ATOM     22 H30  AR1 L   1      11.222  -9.325  -8.607  1.00  0.00    +0.0458  H
BRANCH 21 26
ATOM     23  C3  AR1 L   1       6.816  -9.378 -10.432  1.00  0.00    -0.0222  A
ATOM     24  C4  AR1 L   1       7.724  -8.568 -11.123  1.00  0.00    -0.0561  A
ATOM     25  C5  AR1 L   1       8.956  -8.233 -10.553  1.00  0.00    -0.0575  A
ATOM     26  C6  AR1 L   1       9.310  -8.703  -9.279  1.00  0.00    -0.0341  A
ATOM     27 C23  AR1 L   1       8.400  -9.530  -8.600  1.00  0.00    -0.0575  A
ATOM     28 C24  AR1 L   1       7.169  -9.866  -9.170  1.00  0.00    -0.0561  A
ATOM     29 H28  AR1 L   1       7.477  -8.185 -12.111  1.00  0.00    +0.0621  H
ATOM     30 H29  AR1 L   1       9.626  -7.592 -11.122  1.00  0.00    +0.0621  H
ATOM     31 H42  AR1 L   1       8.640  -9.917  -7.611  1.00  0.00    +0.0621  H
ATOM     32 H43  AR1 L   1       6.484 -10.509  -8.620  1.00  0.00    +0.0621  H
BRANCH 23 34
ATOM     33  O1  AR1 L   1       4.417  -9.283 -10.264  1.00  0.00    -0.3904 OA
ATOM     34  C2  AR1 L   1       5.499  -9.757 -11.055  1.00  0.00    +0.0692  C
ATOM     35 H25  AR1 L   1       4.788  -8.914  -9.444  1.00  0.00    +0.2098 HD
ATOM     36 H26  AR1 L   1       5.411 -10.844 -11.148  1.00  0.00    +0.0607  H
ATOM     37 H27  AR1 L   1       5.409  -9.335 -12.061  1.00  0.00    +0.0607  H
ENDBRANCH 23 34
ENDBRANCH 21 26
BRANCH 21 38
ATOM     38  C8  AR1 L   1      11.499  -7.399  -9.465  1.00  0.00    +0.0085  C
ATOM     39  N9  AR1 L   1      12.044  -6.263  -8.697  1.00  0.00    -0.3289 NA
ATOM     40 H31  AR1 L   1      12.343  -7.938  -9.912  1.00  0.00    +0.0432  H
ATOM     41 H32  AR1 L   1      10.899  -6.999 -10.291  1.00  0.00    +0.0432  H
ATOM     42 H33  AR1 L   1      12.558  -5.658  -9.344  1.00  0.00    +0.1182 HD
ATOM     43 H34  AR1 L   1      11.257  -5.688  -8.379  1.00  0.00    +0.1182 HD
ENDBRANCH 21 38
ENDBRANCH 17 21
ENDBRANCH 1 19
TORSDOF 5
ENDMDL
MODEL 11
REMARK VINA RESULT:    -5.934      3.735      7.727
REMARK INTER + INTRA:          -8.483
REMARK INTER:                  -7.652
REMARK INTRA:                  -0.831
REMARK UNBOUND:                -0.814
ROOT
ATOM      1 C13  AR1 L   1      11.109  -4.846   2.699  1.00  0.00    +0.0423  A
ATOM      2 C14  AR1 L   1      10.383  -5.902   3.261  1.00  0.00    -0.0377  A
ATOM      3 C15  AR1 L   1       9.560  -5.692   4.370  1.00  0.00    -0.0506  A
ATOM      4 C16  AR1 L   1       9.450  -4.413   4.939  1.00  0.00    +0.0004  A
ATOM      5 C17  AR1 L   1       8.645  -4.139   6.047  1.00  0.00    +0.0353  A
ATOM      6 N18  AR1 L   1       8.516  -2.921   6.620  1.00  0.00    -0.2626 NA
ATOM      7 C19  AR1 L   1       9.225  -1.918   6.063  1.00  0.00    +0.0281  A
ATOM      8 C20  AR1 L   1      10.054  -2.074   4.963  1.00  0.00    -0.0358  A
ATOM      9 C21  AR1 L   1      10.176  -3.343   4.383  1.00  0.00    -0.0131  A
ATOM     10 C22  AR1 L   1      11.000  -3.573   3.266  1.00  0.00    -0.0305  A
ATOM     11 H36  AR1 L   1      10.449  -6.904   2.841  1.00  0.00    +0.0638  H
ATOM     12 H37  AR1 L   1       9.006  -6.531   4.786  1.00  0.00    +0.0625  H
ATOM     13 H38  AR1 L   1       8.059  -4.922   6.523  1.00  0.00    +0.0836  H
ATOM     14 H39  AR1 L   1       9.108  -0.948   6.538  1.00  0.00    +0.0830  H
ATOM     15 H40  AR1 L   1      10.596  -1.220   4.569  1.00  0.00    +0.0639  H
ATOM     16 H41  AR1 L   1      11.554  -2.734   2.853  1.00  0.00    +0.0644  H
ENDROOT
BRANCH 1 19
ATOM     17 C10  AR1 L   1      13.065  -5.917   1.539  1.00  0.00    +0.2339  C
ATOM     18 O11  AR1 L   1      13.589  -6.482   2.497  1.00  0.00    -0.2722 OA
ATOM     19 N12  AR1 L   1      11.915  -5.148   1.586  1.00  0.00    -0.3256  N
ATOM     20 H35  AR1 L   1      11.625  -4.747   0.690  1.00  0.00    +0.1686 HD
BRANCH 17 21
ATOM     21  C7  AR1 L   1      13.657  -6.074   0.127  1.00  0.00    +0.0752  C
ATOM     22 H30  AR1 L   1      14.659  -6.492   0.315  1.00  0.00    +0.0458  H
BRANCH 21 26
ATOM     23  C3  AR1 L   1      11.558  -8.882  -2.454  1.00  0.00    -0.0222  A
ATOM     24  C4  AR1 L   1      11.501  -9.034  -1.064  1.00  0.00    -0.0561  A
ATOM     25  C5  AR1 L   1      12.177  -8.146  -0.223  1.00  0.00    -0.0575  A
ATOM     26  C6  AR1 L   1      12.923  -7.082  -0.752  1.00  0.00    -0.0341  A
ATOM     27 C23  AR1 L   1      12.961  -6.926  -2.147  1.00  0.00    -0.0575  A
ATOM     28 C24  AR1 L   1      12.284  -7.813  -2.988  1.00  0.00    -0.0561  A
ATOM     29 H28  AR1 L   1      10.933  -9.851  -0.625  1.00  0.00    +0.0621  H
ATOM     30 H29  AR1 L   1      12.112  -8.309   0.851  1.00  0.00    +0.0621  H
ATOM     31 H42  AR1 L   1      13.526  -6.110  -2.595  1.00  0.00    +0.0621  H
ATOM     32 H43  AR1 L   1      12.331  -7.667  -4.066  1.00  0.00    +0.0621  H
BRANCH 23 34
ATOM     33  O1  AR1 L   1       9.501  -9.338  -3.618  1.00  0.00    -0.3904 OA
ATOM     34  C2  AR1 L   1      10.812  -9.825  -3.360  1.00  0.00    +0.0692  C
ATOM     35 H25  AR1 L   1       9.359  -8.557  -3.056  1.00  0.00    +0.2098 HD
ATOM     36 H26  AR1 L   1      10.731 -10.818  -2.908  1.00  0.00    +0.0607  H
ATOM     37 H27  AR1 L   1      11.336  -9.943  -4.314  1.00  0.00    +0.0607  H
ENDBRANCH 23 34
ENDBRANCH 21 26
BRANCH 21 38
ATOM     38  C8  AR1 L   1      13.897  -4.726  -0.592  1.00  0.00    +0.0085  C
ATOM     39  N9  AR1 L   1      14.412  -3.655   0.283  1.00  0.00    -0.3289 NA
ATOM     40 H31  AR1 L   1      14.620  -4.872  -1.404  1.00  0.00    +0.0432  H
ATOM     41 H32  AR1 L   1      12.965  -4.376  -1.050  1.00  0.00    +0.0432  H
ATOM     42 H33  AR1 L   1      14.506  -2.803  -0.276  1.00  0.00    +0.1182 HD
ATOM     43 H34  AR1 L   1      13.686  -3.432   0.972  1.00  0.00    +0.1182 HD
ENDBRANCH 21 38
ENDBRANCH 17 21
ENDBRANCH 1 19
TORSDOF 5
ENDMDL
MODEL 12
REMARK VINA RESULT:    -5.831     12.390     17.440
REMARK INTER + INTRA:          -8.350
REMARK INTER:                  -7.538
REMARK INTRA:                  -0.813
REMARK UNBOUND:                -0.814
ROOT
ATOM      1 C13  AR1 L   1       8.766  -8.688 -10.931  1.00  0.00    +0.0423  A
ATOM      2 C14  AR1 L   1       7.408  -8.873 -11.216  1.00  0.00    -0.0377  A
ATOM      3 C15  AR1 L   1       6.496  -9.154 -10.195  1.00  0.00    -0.0506  A
ATOM      4 C16  AR1 L   1       6.933  -9.256  -8.865  1.00  0.00    +0.0004  A
ATOM      5 C17  AR1 L   1       6.072  -9.534  -7.800  1.00  0.00    +0.0353  A
ATOM      6 N18  AR1 L   1       6.457  -9.639  -6.507  1.00  0.00    -0.2626 NA
ATOM      7 C19  AR1 L   1       7.770  -9.457  -6.257  1.00  0.00    +0.0281  A
ATOM      8 C20  AR1 L   1       8.713  -9.176  -7.233  1.00  0.00    -0.0358  A
ATOM      9 C21  AR1 L   1       8.296  -9.072  -8.566  1.00  0.00    -0.0131  A
ATOM     10 C22  AR1 L   1       9.200  -8.789  -9.607  1.00  0.00    -0.0305  A
ATOM     11 H36  AR1 L   1       7.042  -8.801 -12.238  1.00  0.00    +0.0638  H
ATOM     12 H37  AR1 L   1       5.447  -9.293 -10.444  1.00  0.00    +0.0625  H
ATOM     13 H38  AR1 L   1       5.008  -9.687  -7.964  1.00  0.00    +0.0836  H
ATOM     14 H39  AR1 L   1       8.059  -9.545  -5.213  1.00  0.00    +0.0830  H
ATOM     15 H40  AR1 L   1       9.754  -9.043  -6.956  1.00  0.00    +0.0639  H
ATOM     16 H41  AR1 L   1      10.248  -8.652  -9.356  1.00  0.00    +0.0644  H
ENDROOT
BRANCH 1 19
ATOM     17 C10  AR1 L   1      10.440  -9.281 -12.710  1.00  0.00    +0.2339  C
ATOM     18 O11  AR1 L   1      10.575 -10.480 -12.475  1.00  0.00    -0.2722 OA
ATOM     19 N12  AR1 L   1       9.612  -8.411 -12.021  1.00  0.00    -0.3256  N
ATOM     20 H35  AR1 L   1       9.632  -7.442 -12.350  1.00  0.00    +0.1686 HD
BRANCH 17 21
ATOM     21  C7  AR1 L   1      11.189  -8.632 -13.888  1.00  0.00    +0.0752  C
ATOM     22 H30  AR1 L   1      10.428  -7.981 -14.347  1.00  0.00    +0.0458  H
BRANCH 21 26
ATOM     23  C3  AR1 L   1      14.476  -6.080 -12.609  1.00  0.00    -0.0222  A
ATOM     24  C4  AR1 L   1      13.752  -5.761 -13.764  1.00  0.00    -0.0561  A
ATOM     25  C5  AR1 L   1      12.700  -6.576 -14.192  1.00  0.00    -0.0575  A
ATOM     26  C6  AR1 L   1      12.344  -7.727 -13.474  1.00  0.00    -0.0341  A
ATOM     27 C23  AR1 L   1      13.063  -8.030 -12.305  1.00  0.00    -0.0575  A
ATOM     28 C24  AR1 L   1      14.114  -7.215 -11.876  1.00  0.00    -0.0561  A
ATOM     29 H28  AR1 L   1      14.008  -4.877 -14.345  1.00  0.00    +0.0621  H
ATOM     30 H29  AR1 L   1      12.173  -6.295 -15.101  1.00  0.00    +0.0621  H
ATOM     31 H42  AR1 L   1      12.813  -8.912 -11.719  1.00  0.00    +0.0621  H
ATOM     32 H43  AR1 L   1      14.654  -7.475 -10.967  1.00  0.00    +0.0621  H
BRANCH 23 34
ATOM     33  O1  AR1 L   1      15.151  -4.353 -11.076  1.00  0.00    -0.3904 OA
ATOM     34  C2  AR1 L   1      15.594  -5.191 -12.135  1.00  0.00    +0.0692  C
ATOM     35 H25  AR1 L   1      14.191  -4.478 -10.980  1.00  0.00    +0.2098 HD
ATOM     36 H26  AR1 L   1      15.961  -4.558 -12.949  1.00  0.00    +0.0607  H
ATOM     37 H27  AR1 L   1      16.440  -5.788 -11.779  1.00  0.00    +0.0607  H
ENDBRANCH 23 34
ENDBRANCH 21 26
BRANCH 21 38
ATOM     38  C8  AR1 L   1      11.592  -9.641 -14.989  1.00  0.00    +0.0085  C
ATOM     39  N9  AR1 L   1      10.461 -10.391 -15.567  1.00  0.00    -0.3289 NA
ATOM     40 H31  AR1 L   1      12.091  -9.104 -15.806  1.00  0.00    +0.0432  H
ATOM     41 H32  AR1 L   1      12.314 -10.361 -14.589  1.00  0.00    +0.0432  H
ATOM     42 H33  AR1 L   1      10.834 -11.049 -16.258  1.00  0.00    +0.1182 HD
ATOM     43 H34  AR1 L   1      10.067 -10.988 -14.832  1.00  0.00    +0.1182 HD
ENDBRANCH 21 38
ENDBRANCH 17 21
ENDBRANCH 1 19
TORSDOF 5
ENDMDL
MODEL 13
REMARK VINA RESULT:    -5.829      7.019     10.981
REMARK INTER + INTRA:          -8.347
REMARK INTER:                  -7.674
REMARK INTRA:                  -0.674
REMARK UNBOUND:                -0.814
ROOT
ATOM      1 C13  AR1 L   1       8.919  -9.532  -6.446  1.00  0.00    +0.0423  A
ATOM      2 C14  AR1 L   1       7.579  -9.619  -6.053  1.00  0.00    -0.0377  A
ATOM      3 C15  AR1 L   1       6.550  -9.495  -6.991  1.00  0.00    -0.0506  A
ATOM      4 C16  AR1 L   1       6.850  -9.280  -8.346  1.00  0.00    +0.0004  A
ATOM      5 C17  AR1 L   1       5.869  -9.148  -9.331  1.00  0.00    +0.0353  A
ATOM      6 N18  AR1 L   1       6.121  -8.940 -10.644  1.00  0.00    -0.2626 NA
ATOM      7 C19  AR1 L   1       7.419  -8.859 -10.999  1.00  0.00    +0.0281  A
ATOM      8 C20  AR1 L   1       8.474  -8.975 -10.108  1.00  0.00    -0.0358  A
ATOM      9 C21  AR1 L   1       8.195  -9.190  -8.753  1.00  0.00    -0.0131  A
ATOM     10 C22  AR1 L   1       9.217  -9.317  -7.794  1.00  0.00    -0.0305  A
ATOM     11 H36  AR1 L   1       7.317  -9.785  -5.010  1.00  0.00    +0.0638  H
ATOM     12 H37  AR1 L   1       5.517  -9.568  -6.659  1.00  0.00    +0.0625  H
ATOM     13 H38  AR1 L   1       4.812  -9.208  -9.082  1.00  0.00    +0.0836  H
ATOM     14 H39  AR1 L   1       7.601  -8.691 -12.057  1.00  0.00    +0.0830  H
ATOM     15 H40  AR1 L   1       9.496  -8.898 -10.467  1.00  0.00    +0.0639  H
ATOM     16 H41  AR1 L   1      10.248  -9.242  -8.127  1.00  0.00    +0.0644  H
ENDROOT
BRANCH 1 19
ATOM     17 C10  AR1 L   1      10.935  -8.812  -5.127  1.00  0.00    +0.2339  C
ATOM     18 O11  AR1 L   1      11.198  -7.761  -5.709  1.00  0.00    -0.2722 OA
ATOM     19 N12  AR1 L   1       9.889  -9.665  -5.434  1.00  0.00    -0.3256  N
ATOM     20 H35  AR1 L   1       9.825 -10.501  -4.847  1.00  0.00    +0.1686 HD
BRANCH 17 21
ATOM     21  C7  AR1 L   1      11.771  -9.257  -3.914  1.00  0.00    +0.0752  C
ATOM     22 H30  AR1 L   1      12.782  -9.384  -4.332  1.00  0.00    +0.0458  H
BRANCH 21 26
ATOM     23  C3  AR1 L   1      12.195  -6.255  -0.789  1.00  0.00    -0.0222  A
ATOM     24  C4  AR1 L   1      11.101  -7.127  -0.775  1.00  0.00    -0.0561  A
ATOM     25  C5  AR1 L   1      10.946  -8.090  -1.777  1.00  0.00    -0.0575  A
ATOM     26  C6  AR1 L   1      11.884  -8.207  -2.813  1.00  0.00    -0.0341  A
ATOM     27 C23  AR1 L   1      12.990  -7.340  -2.809  1.00  0.00    -0.0575  A
ATOM     28 C24  AR1 L   1      13.145  -6.377  -1.808  1.00  0.00    -0.0561  A
ATOM     29 H28  AR1 L   1      10.354  -7.059   0.013  1.00  0.00    +0.0621  H
ATOM     30 H29  AR1 L   1      10.075  -8.740  -1.731  1.00  0.00    +0.0621  H
ATOM     31 H42  AR1 L   1      13.741  -7.402  -3.594  1.00  0.00    +0.0621  H
ATOM     32 H43  AR1 L   1      14.012  -5.719  -1.831  1.00  0.00    +0.0621  H
BRANCH 23 34
ATOM     33  O1  AR1 L   1      11.115  -4.729   0.726  1.00  0.00    -0.3904 OA
ATOM     34  C2  AR1 L   1      12.374  -5.233   0.301  1.00  0.00    +0.0692  C
ATOM     35 H25  AR1 L   1      10.435  -5.090   0.131  1.00  0.00    +0.2098 HD
ATOM     36 H26  AR1 L   1      12.984  -4.393  -0.047  1.00  0.00    +0.0607  H
ATOM     37 H27  AR1 L   1      12.886  -5.671   1.165  1.00  0.00    +0.0607  H
ENDBRANCH 23 34
ENDBRANCH 21 26
BRANCH 21 38
ATOM     38  C8  AR1 L   1      11.369 -10.647  -3.367  1.00  0.00    +0.0085  C
ATOM     39  N9  AR1 L   1      11.757 -11.775  -4.235  1.00  0.00    -0.3289 NA
ATOM     40 H31  AR1 L   1      11.839 -10.800  -2.387  1.00  0.00    +0.0432  H
ATOM     41 H32  AR1 L   1      10.285 -10.688  -3.213  1.00  0.00    +0.0432  H
ATOM     42 H33  AR1 L   1      11.421 -12.640  -3.803  1.00  0.00    +0.1182 HD
ATOM     43 H34  AR1 L   1      11.226 -11.701  -5.109  1.00  0.00    +0.1182 HD
ENDBRANCH 21 38
ENDBRANCH 17 21
ENDBRANCH 1 19
TORSDOF 5
ENDMDL
MODEL 14
REMARK VINA RESULT:    -5.743     11.269     14.770
REMARK INTER + INTRA:          -8.236
REMARK INTER:                  -7.611
REMARK INTRA:                  -0.625
REMARK UNBOUND:                -0.814
ROOT
ATOM      1 C13  AR1 L   1      10.555  -8.419 -11.989  1.00  0.00    +0.0423  A
ATOM      2 C14  AR1 L   1      10.285  -7.825 -13.227  1.00  0.00    -0.0377  A
ATOM      3 C15  AR1 L   1      11.257  -7.063 -13.882  1.00  0.00    -0.0506  A
ATOM      4 C16  AR1 L   1      12.523  -6.883 -13.302  1.00  0.00    +0.0004  A
ATOM      5 C17  AR1 L   1      13.537  -6.134 -13.905  1.00  0.00    +0.0353  A
ATOM      6 N18  AR1 L   1      14.767  -5.939 -13.376  1.00  0.00    -0.2626 NA
ATOM      7 C19  AR1 L   1      15.004  -6.520 -12.182  1.00  0.00    +0.0281  A
ATOM      8 C20  AR1 L   1      14.075  -7.284 -11.494  1.00  0.00    -0.0358  A
ATOM      9 C21  AR1 L   1      12.807  -7.475 -12.057  1.00  0.00    -0.0131  A
ATOM     10 C22  AR1 L   1      11.815  -8.238 -11.413  1.00  0.00    -0.0305  A
ATOM     11 H36  AR1 L   1       9.313  -7.947 -13.700  1.00  0.00    +0.0638  H
ATOM     12 H37  AR1 L   1      11.021  -6.613 -14.843  1.00  0.00    +0.0625  H
ATOM     13 H38  AR1 L   1      13.382  -5.651 -14.867  1.00  0.00    +0.0836  H
ATOM     14 H39  AR1 L   1      15.997  -6.352 -11.775  1.00  0.00    +0.0830  H
ATOM     15 H40  AR1 L   1      14.338  -7.721 -10.536  1.00  0.00    +0.0639  H
ATOM     16 H41  AR1 L   1      12.053  -8.685 -10.452  1.00  0.00    +0.0644  H
ENDROOT
BRANCH 1 19
ATOM     17 C10  AR1 L   1       8.250  -8.741 -11.042  1.00  0.00    +0.2339  C
ATOM     18 O11  AR1 L   1       7.807  -7.603 -11.182  1.00  0.00    -0.2722 OA
ATOM     19 N12  AR1 L   1       9.517  -9.165 -11.402  1.00  0.00    -0.3256  N
ATOM     20 H35  AR1 L   1       9.718 -10.149 -11.204  1.00  0.00    +0.1686 HD
BRANCH 17 21
ATOM     21  C7  AR1 L   1       7.356  -9.855 -10.467  1.00  0.00    +0.0752  C
ATOM     22 H30  AR1 L   1       7.692 -10.756 -11.005  1.00  0.00    +0.0458  H
BRANCH 21 26
ATOM     23  C3  AR1 L   1       8.051 -10.565  -6.227  1.00  0.00    -0.0222  A
ATOM     24  C4  AR1 L   1       7.513 -11.580  -7.026  1.00  0.00    -0.0561  A
ATOM     25  C5  AR1 L   1       7.275 -11.364  -8.387  1.00  0.00    -0.0575  A
ATOM     26  C6  AR1 L   1       7.575 -10.129  -8.982  1.00  0.00    -0.0341  A
ATOM     27 C23  AR1 L   1       8.133  -9.122  -8.177  1.00  0.00    -0.0575  A
ATOM     28 C24  AR1 L   1       8.371  -9.338  -6.817  1.00  0.00    -0.0561  A
ATOM     29 H28  AR1 L   1       7.267 -12.547  -6.593  1.00  0.00    +0.0621  H
ATOM     30 H29  AR1 L   1       6.846 -12.178  -8.967  1.00  0.00    +0.0621  H
ATOM     31 H42  AR1 L   1       8.382  -8.152  -8.603  1.00  0.00    +0.0621  H
ATOM     32 H43  AR1 L   1       8.804  -8.538  -6.218  1.00  0.00    +0.0621  H
BRANCH 23 34
ATOM     33  O1  AR1 L   1       8.527  -9.571  -4.088  1.00  0.00    -0.3904 OA
ATOM     34  C2  AR1 L   1       8.328 -10.804  -4.768  1.00  0.00    +0.0692  C
ATOM     35 H25  AR1 L   1       8.544  -8.864  -4.755  1.00  0.00    +0.2098 HD
ATOM     36 H26  AR1 L   1       9.222 -11.421  -4.636  1.00  0.00    +0.0607  H
ATOM     37 H27  AR1 L   1       7.494 -11.333  -4.296  1.00  0.00    +0.0607  H
ENDBRANCH 23 34
ENDBRANCH 21 26
BRANCH 21 38
ATOM     38  C8  AR1 L   1       5.861  -9.689 -10.824  1.00  0.00    +0.0085  C
ATOM     39  N9  AR1 L   1       5.124  -8.768  -9.938  1.00  0.00    -0.3289 NA
ATOM     40 H31  AR1 L   1       5.774  -9.310 -11.850  1.00  0.00    +0.0432  H
ATOM     41 H32  AR1 L   1       5.360 -10.664 -10.799  1.00  0.00    +0.0432  H
ATOM     42 H33  AR1 L   1       4.145  -8.752 -10.237  1.00  0.00    +0.1182 HD
ATOM     43 H34  AR1 L   1       5.100  -9.181  -9.000  1.00  0.00    +0.1182 HD
ENDBRANCH 21 38
ENDBRANCH 17 21
ENDBRANCH 1 19
TORSDOF 5
ENDMDL
MODEL 15
REMARK VINA RESULT:    -5.626      8.078     12.631
REMARK INTER + INTRA:          -8.085
REMARK INTER:                  -7.288
REMARK INTRA:                  -0.797
REMARK UNBOUND:                -0.814
ROOT
ATOM      1 C13  AR1 L   1      11.689  -8.810  -5.423  1.00  0.00    +0.0423  A
ATOM      2 C14  AR1 L   1      12.703  -7.887  -5.145  1.00  0.00    -0.0377  A
ATOM      3 C15  AR1 L   1      13.206  -7.747  -3.849  1.00  0.00    -0.0506  A
ATOM      4 C16  AR1 L   1      12.699  -8.536  -2.804  1.00  0.00    +0.0004  A
ATOM      5 C17  AR1 L   1      13.160  -8.444  -1.488  1.00  0.00    +0.0353  A
ATOM      6 N18  AR1 L   1      12.695  -9.186  -0.458  1.00  0.00    -0.2626 NA
ATOM      7 C19  AR1 L   1      11.718 -10.070  -0.749  1.00  0.00    +0.0281  A
ATOM      8 C20  AR1 L   1      11.185 -10.246  -2.016  1.00  0.00    -0.0358  A
ATOM      9 C21  AR1 L   1      11.679  -9.468  -3.071  1.00  0.00    -0.0131  A
ATOM     10 C22  AR1 L   1      11.184  -9.595  -4.382  1.00  0.00    -0.0305  A
ATOM     11 H36  AR1 L   1      13.115  -7.262  -5.935  1.00  0.00    +0.0638  H
ATOM     12 H37  AR1 L   1      13.995  -7.022  -3.661  1.00  0.00    +0.0625  H
ATOM     13 H38  AR1 L   1      13.946  -7.744  -1.216  1.00  0.00    +0.0836  H
ATOM     14 H39  AR1 L   1      11.358 -10.656   0.092  1.00  0.00    +0.0830  H
ATOM     15 H40  AR1 L   1      10.399 -10.977  -2.175  1.00  0.00    +0.0639  H
ATOM     16 H41  AR1 L   1      10.395 -10.318  -4.567  1.00  0.00    +0.0644  H
ENDROOT
BRANCH 1 19
ATOM     17 C10  AR1 L   1      10.269  -8.117  -7.377  1.00  0.00    +0.2339  C
ATOM     18 O11  AR1 L   1       9.616  -7.218  -6.850  1.00  0.00    -0.2722 OA
ATOM     19 N12  AR1 L   1      11.240  -8.881  -6.754  1.00  0.00    -0.3256  N
ATOM     20 H35  AR1 L   1      11.678  -9.592  -7.347  1.00  0.00    +0.1686 HD
BRANCH 17 21
ATOM     21  C7  AR1 L   1      10.075  -8.443  -8.869  1.00  0.00    +0.0752  C
ATOM     22 H30  AR1 L   1      10.812  -9.240  -9.054  1.00  0.00    +0.0458  H
BRANCH 21 26
ATOM     23  C3  AR1 L   1       6.153 -10.029  -9.898  1.00  0.00    -0.0222  A
ATOM     24  C4  AR1 L   1       6.792 -10.451  -8.727  1.00  0.00    -0.0561  A
ATOM     25  C5  AR1 L   1       8.056  -9.958  -8.388  1.00  0.00    -0.0575  A
ATOM     26  C6  AR1 L   1       8.708  -9.027  -9.210  1.00  0.00    -0.0341  A
ATOM     27 C23  AR1 L   1       8.052  -8.595 -10.374  1.00  0.00    -0.0575  A
ATOM     28 C24  AR1 L   1       6.789  -9.088 -10.713  1.00  0.00    -0.0561  A
ATOM     29 H28  AR1 L   1       6.313 -11.175  -8.071  1.00  0.00    +0.0621  H
ATOM     30 H29  AR1 L   1       8.518 -10.322  -7.473  1.00  0.00    +0.0621  H
ATOM     31 H42  AR1 L   1       8.525  -7.871 -11.036  1.00  0.00    +0.0621  H
ATOM     32 H43  AR1 L   1       6.305  -8.734 -11.622  1.00  0.00    +0.0621  H
BRANCH 23 34
ATOM     33  O1  AR1 L   1       3.906  -9.465 -10.547  1.00  0.00    -0.3904 OA
ATOM     34  C2  AR1 L   1       4.784 -10.543 -10.252  1.00  0.00    +0.0692  C
ATOM     35 H25  AR1 L   1       4.374  -8.637 -10.344  1.00  0.00    +0.2098 HD
ATOM     36 H26  AR1 L   1       4.358 -11.122  -9.426  1.00  0.00    +0.0607  H
ATOM     37 H27  AR1 L   1       4.831 -11.205 -11.124  1.00  0.00    +0.0607  H
ENDBRANCH 23 34
ENDBRANCH 21 26
BRANCH 21 38
ATOM     38  C8  AR1 L   1      10.473  -7.280  -9.809  1.00  0.00    +0.0085  C
ATOM     39  N9  AR1 L   1      10.569  -5.968  -9.141  1.00  0.00    -0.3289 NA
ATOM     40 H31  AR1 L   1      11.448  -7.498 -10.261  1.00  0.00    +0.0432  H
ATOM     41 H32  AR1 L   1       9.750  -7.197 -10.627  1.00  0.00    +0.0432  H
ATOM     42 H33  AR1 L   1      10.805  -5.267  -9.849  1.00  0.00    +0.1182 HD
ATOM     43 H34  AR1 L   1       9.631  -5.705  -8.822  1.00  0.00    +0.1182 HD
ENDBRANCH 21 38
ENDBRANCH 17 21
ENDBRANCH 1 19
TORSDOF 5
ENDMDL
MODEL 16
REMARK VINA RESULT:    -5.607      6.630     10.887
REMARK INTER + INTRA:          -8.061
REMARK INTER:                  -7.184
REMARK INTRA:                  -0.877
REMARK UNBOUND:                -0.814
ROOT
ATOM      1 C13  AR1 L   1      11.638  -8.278  -2.766  1.00  0.00    +0.0423  A
ATOM      2 C14  AR1 L   1      12.890  -7.799  -3.167  1.00  0.00    -0.0377  A
ATOM      3 C15  AR1 L   1      13.545  -6.808  -2.430  1.00  0.00    -0.0506  A
ATOM      4 C16  AR1 L   1      12.952  -6.278  -1.274  1.00  0.00    +0.0004  A
ATOM      5 C17  AR1 L   1      13.556  -5.287  -0.495  1.00  0.00    +0.0353  A
ATOM      6 N18  AR1 L   1      13.014  -4.753   0.624  1.00  0.00    -0.2626 NA
ATOM      7 C19  AR1 L   1      11.806  -5.229   0.990  1.00  0.00    +0.0281  A
ATOM      8 C20  AR1 L   1      11.117  -6.210   0.295  1.00  0.00    -0.0358  A
ATOM      9 C21  AR1 L   1      11.693  -6.750  -0.861  1.00  0.00    -0.0131  A
ATOM     10 C22  AR1 L   1      11.048  -7.749  -1.615  1.00  0.00    -0.0305  A
ATOM     11 H36  AR1 L   1      13.374  -8.192  -4.059  1.00  0.00    +0.0638  H
ATOM     12 H37  AR1 L   1      14.518  -6.455  -2.764  1.00  0.00    +0.0625  H
ATOM     13 H38  AR1 L   1      14.528  -4.879  -0.760  1.00  0.00    +0.0836  H
ATOM     14 H39  AR1 L   1      11.389  -4.788   1.891  1.00  0.00    +0.0830  H
ATOM     15 H40  AR1 L   1      10.147  -6.543   0.651  1.00  0.00    +0.0639  H
ATOM     16 H41  AR1 L   1      10.075  -8.099  -1.281  1.00  0.00    +0.0644  H
ENDROOT
BRANCH 1 19
ATOM     17 C10  AR1 L   1      10.560  -9.161  -4.858  1.00  0.00    +0.2339  C
ATOM     18 O11  AR1 L   1      10.558  -8.136  -5.538  1.00  0.00    -0.2722 OA
ATOM     19 N12  AR1 L   1      11.050  -9.273  -3.568  1.00  0.00    -0.3256  N
ATOM     20 H35  AR1 L   1      10.963 -10.204  -3.151  1.00  0.00    +0.1686 HD
BRANCH 17 21
ATOM     21  C7  AR1 L   1      10.031 -10.482  -5.445  1.00  0.00    +0.0752  C
ATOM     22 H30  AR1 L   1       9.623 -11.007  -4.566  1.00  0.00    +0.0458  H
BRANCH 21 26
ATOM     23  C3  AR1 L   1       6.795  -9.998  -8.318  1.00  0.00    -0.0222  A
ATOM     24  C4  AR1 L   1       6.622  -9.578  -6.994  1.00  0.00    -0.0561  A
ATOM     25  C5  AR1 L   1       7.649  -9.735  -6.058  1.00  0.00    -0.0575  A
ATOM     26  C6  AR1 L   1       8.874 -10.312  -6.425  1.00  0.00    -0.0341  A
ATOM     27 C23  AR1 L   1       9.045 -10.714  -7.759  1.00  0.00    -0.0575  A
ATOM     28 C24  AR1 L   1       8.020 -10.557  -8.696  1.00  0.00    -0.0561  A
ATOM     29 H28  AR1 L   1       5.682  -9.130  -6.679  1.00  0.00    +0.0621  H
ATOM     30 H29  AR1 L   1       7.466  -9.403  -5.038  1.00  0.00    +0.0621  H
ATOM     31 H42  AR1 L   1       9.983 -11.163  -8.083  1.00  0.00    +0.0621  H
ATOM     32 H43  AR1 L   1       8.181 -10.878  -9.723  1.00  0.00    +0.0621  H
BRANCH 23 34
ATOM     33  O1  AR1 L   1       5.360  -8.433  -9.451  1.00  0.00    -0.3904 OA
ATOM     34  C2  AR1 L   1       5.698  -9.809  -9.331  1.00  0.00    +0.0692  C
ATOM     35 H25  AR1 L   1       5.848  -7.947  -8.765  1.00  0.00    +0.2098 HD
ATOM     36 H26  AR1 L   1       4.800 -10.363  -9.042  1.00  0.00    +0.0607  H
ATOM     37 H27  AR1 L   1       6.009 -10.180 -10.313  1.00  0.00    +0.0607  H
ENDBRANCH 23 34
ENDBRANCH 21 26
BRANCH 21 38
ATOM     38  C8  AR1 L   1      11.146 -11.399  -5.999  1.00  0.00    +0.0085  C
ATOM     39  N9  AR1 L   1      12.478 -10.766  -6.056  1.00  0.00    -0.3289 NA
ATOM     40 H31  AR1 L   1      11.226 -12.292  -5.368  1.00  0.00    +0.0432  H
ATOM     41 H32  AR1 L   1      10.883 -11.739  -7.007  1.00  0.00    +0.0432  H
ATOM     42 H33  AR1 L   1      13.133 -11.439  -6.463  1.00  0.00    +0.1182 HD
ATOM     43 H34  AR1 L   1      12.437 -10.002  -6.739  1.00  0.00    +0.1182 HD
ENDBRANCH 21 38
ENDBRANCH 17 21
ENDBRANCH 1 19
TORSDOF 5
ENDMDL
MODEL 17
REMARK VINA RESULT:    -5.590      7.105     10.752
REMARK INTER + INTRA:          -8.039
REMARK INTER:                  -7.200
REMARK INTRA:                  -0.839
REMARK UNBOUND:                -0.814
ROOT
ATOM      1 C13  AR1 L   1       9.813  -9.106  -6.239  1.00  0.00    +0.0423  A
ATOM      2 C14  AR1 L   1      10.524  -8.354  -7.181  1.00  0.00    -0.0377  A
ATOM      3 C15  AR1 L   1       9.938  -7.993  -8.397  1.00  0.00    -0.0506  A
ATOM      4 C16  AR1 L   1       8.621  -8.383  -8.691  1.00  0.00    +0.0004  A
ATOM      5 C17  AR1 L   1       7.979  -8.054  -9.887  1.00  0.00    +0.0353  A
ATOM      6 N18  AR1 L   1       6.714  -8.412 -10.204  1.00  0.00    -0.2626 NA
ATOM      7 C19  AR1 L   1       6.048  -9.137  -9.281  1.00  0.00    +0.0281  A
ATOM      8 C20  AR1 L   1       6.585  -9.520  -8.062  1.00  0.00    -0.0358  A
ATOM      9 C21  AR1 L   1       7.896  -9.140  -7.752  1.00  0.00    -0.0131  A
ATOM     10 C22  AR1 L   1       8.503  -9.494  -6.532  1.00  0.00    -0.0305  A
ATOM     11 H36  AR1 L   1      11.546  -8.039  -6.980  1.00  0.00    +0.0638  H
ATOM     12 H37  AR1 L   1      10.513  -7.408  -9.111  1.00  0.00    +0.0625  H
ATOM     13 H38  AR1 L   1       8.484  -7.471 -10.654  1.00  0.00    +0.0836  H
ATOM     14 H39  AR1 L   1       5.033  -9.415  -9.554  1.00  0.00    +0.0830  H
ATOM     15 H40  AR1 L   1       5.988 -10.104  -7.369  1.00  0.00    +0.0639  H
ATOM     16 H41  AR1 L   1       7.928 -10.081  -5.822  1.00  0.00    +0.0644  H
ENDROOT
BRANCH 1 19
ATOM     17 C10  AR1 L   1      11.597 -10.230  -4.870  1.00  0.00    +0.2339  C
ATOM     18 O11  AR1 L   1      12.206 -10.814  -5.765  1.00  0.00    -0.2722 OA
ATOM     19 N12  AR1 L   1      10.483  -9.427  -5.044  1.00  0.00    -0.3256  N
ATOM     20 H35  AR1 L   1      10.101  -9.025  -4.184  1.00  0.00    +0.1686 HD
BRANCH 17 21
ATOM     21  C7  AR1 L   1      12.089 -10.314  -3.414  1.00  0.00    +0.0752  C
ATOM     22 H30  AR1 L   1      13.140 -10.626  -3.517  1.00  0.00    +0.0458  H
BRANCH 21 26
ATOM     23  C3  AR1 L   1      12.229  -6.491  -1.334  1.00  0.00    -0.0222  A
ATOM     24  C4  AR1 L   1      11.190  -7.392  -1.072  1.00  0.00    -0.0561  A
ATOM     25  C5  AR1 L   1      11.127  -8.619  -1.738  1.00  0.00    -0.0575  A
ATOM     26  C6  AR1 L   1      12.103  -8.977  -2.680  1.00  0.00    -0.0341  A
ATOM     27 C23  AR1 L   1      13.152  -8.075  -2.924  1.00  0.00    -0.0575  A
ATOM     28 C24  AR1 L   1      13.217  -6.849  -2.257  1.00  0.00    -0.0561  A
ATOM     29 H28  AR1 L   1      10.416  -7.141  -0.349  1.00  0.00    +0.0621  H
ATOM     30 H29  AR1 L   1      10.295  -9.283  -1.510  1.00  0.00    +0.0621  H
ATOM     31 H42  AR1 L   1      13.931  -8.319  -3.645  1.00  0.00    +0.0621  H
ATOM     32 H43  AR1 L   1      14.042  -6.170  -2.467  1.00  0.00    +0.0621  H
BRANCH 23 34
ATOM     33  O1  AR1 L   1      11.140  -4.969   0.179  1.00  0.00    -0.3904 OA
ATOM     34  C2  AR1 L   1      12.311  -5.180  -0.600  1.00  0.00    +0.0692  C
ATOM     35 H25  AR1 L   1      10.511  -5.680  -0.033  1.00  0.00    +0.2098 HD
ATOM     36 H26  AR1 L   1      12.416  -4.346  -1.302  1.00  0.00    +0.0607  H
ATOM     37 H27  AR1 L   1      13.181  -5.160   0.064  1.00  0.00    +0.0607  H
ENDBRANCH 23 34
ENDBRANCH 21 26
BRANCH 21 38
ATOM     38  C8  AR1 L   1      11.400 -11.431  -2.597  1.00  0.00    +0.0085  C
ATOM     39  N9  AR1 L   1      10.086 -11.845  -3.125  1.00  0.00    -0.3289 NA
ATOM     40 H31  AR1 L   1      12.047 -12.316  -2.576  1.00  0.00    +0.0432  H
ATOM     41 H32  AR1 L   1      11.266 -11.106  -1.558  1.00  0.00    +0.0432  H
ATOM     42 H33  AR1 L   1       9.702 -12.560  -2.500  1.00  0.00    +0.1182 HD
ATOM     43 H34  AR1 L   1       9.442 -11.052  -3.032  1.00  0.00    +0.1182 HD
ENDBRANCH 21 38
ENDBRANCH 17 21
ENDBRANCH 1 19
TORSDOF 5
ENDMDL
MODEL 18
REMARK VINA RESULT:    -5.556      4.675      5.977
REMARK INTER + INTRA:          -7.994
REMARK INTER:                  -6.965
REMARK INTRA:                  -1.029
REMARK UNBOUND:                -0.814
ROOT
ATOM      1 C13  AR1 L   1      12.355  -6.415   1.405  1.00  0.00    +0.0423  A
ATOM      2 C14  AR1 L   1      11.566  -5.754   0.457  1.00  0.00    -0.0377  A
ATOM      3 C15  AR1 L   1      11.103  -6.423  -0.679  1.00  0.00    -0.0506  A
ATOM      4 C16  AR1 L   1      11.425  -7.774  -0.884  1.00  0.00    +0.0004  A
ATOM      5 C17  AR1 L   1      10.992  -8.498  -1.998  1.00  0.00    +0.0353  A
ATOM      6 N18  AR1 L   1      11.283  -9.799  -2.229  1.00  0.00    -0.2626 NA
ATOM      7 C19  AR1 L   1      12.044 -10.416  -1.302  1.00  0.00    +0.0281  A
ATOM      8 C20  AR1 L   1      12.527  -9.798  -0.160  1.00  0.00    -0.0358  A
ATOM      9 C21  AR1 L   1      12.217  -8.450   0.062  1.00  0.00    -0.0131  A
ATOM     10 C22  AR1 L   1      12.675  -7.760   1.200  1.00  0.00    -0.0305  A
ATOM     11 H36  AR1 L   1      11.302  -4.707   0.590  1.00  0.00    +0.0638  H
ATOM     12 H37  AR1 L   1      10.492  -5.885  -1.400  1.00  0.00    +0.0625  H
ATOM     13 H38  AR1 L   1      10.378  -8.034  -2.766  1.00  0.00    +0.0836  H
ATOM     14 H39  AR1 L   1      12.266 -11.461  -1.505  1.00  0.00    +0.0830  H
ATOM     15 H40  AR1 L   1      13.136 -10.359   0.542  1.00  0.00    +0.0639  H
ATOM     16 H41  AR1 L   1      13.287  -8.299   1.917  1.00  0.00    +0.0644  H
ENDROOT
BRANCH 1 19
ATOM     17 C10  AR1 L   1      13.876  -4.825   2.620  1.00  0.00    +0.2339  C
ATOM     18 O11  AR1 L   1      14.687  -4.591   1.725  1.00  0.00    -0.2722 OA
ATOM     19 N12  AR1 L   1      12.779  -5.663   2.516  1.00  0.00    -0.3256  N
ATOM     20 H35  AR1 L   1      12.215  -5.745   3.366  1.00  0.00    +0.1686 HD
BRANCH 17 21
ATOM     21  C7  AR1 L   1      14.002  -4.122   3.983  1.00  0.00    +0.0752  C
ATOM     22 H30  AR1 L   1      14.600  -3.226   3.755  1.00  0.00    +0.0458  H
BRANCH 21 26
ATOM     23  C3  AR1 L   1      10.207  -2.799   5.660  1.00  0.00    -0.0222  A
ATOM     24  C4  AR1 L   1      10.738  -2.154   4.537  1.00  0.00    -0.0561  A
ATOM     25  C5  AR1 L   1      11.959  -2.562   3.992  1.00  0.00    -0.0575  A
ATOM     26  C6  AR1 L   1      12.678  -3.627   4.556  1.00  0.00    -0.0341  A
ATOM     27 C23  AR1 L   1      12.129  -4.281   5.672  1.00  0.00    -0.0575  A
ATOM     28 C24  AR1 L   1      10.908  -3.874   6.216  1.00  0.00    -0.0561  A
ATOM     29 H28  AR1 L   1      10.206  -1.323   4.079  1.00  0.00    +0.0621  H
ATOM     30 H29  AR1 L   1      12.338  -2.024   3.125  1.00  0.00    +0.0621  H
ATOM     31 H42  AR1 L   1      12.655  -5.114   6.135  1.00  0.00    +0.0621  H
ATOM     32 H43  AR1 L   1      10.508  -4.400   7.081  1.00  0.00    +0.0621  H
BRANCH 23 34
ATOM     33  O1  AR1 L   1       8.731  -0.964   6.155  1.00  0.00    -0.3904 OA
ATOM     34  C2  AR1 L   1       8.882  -2.376   6.232  1.00  0.00    +0.0692  C
ATOM     35 H25  AR1 L   1       9.575  -0.593   5.845  1.00  0.00    +0.2098 HD
ATOM     36 H26  AR1 L   1       8.795  -2.677   7.281  1.00  0.00    +0.0607  H
ATOM     37 H27  AR1 L   1       8.056  -2.846   5.689  1.00  0.00    +0.0607  H
ENDBRANCH 23 34
ENDBRANCH 21 26
BRANCH 21 38
ATOM     38  C8  AR1 L   1      14.830  -4.924   5.014  1.00  0.00    +0.0085  C
ATOM     39  N9  AR1 L   1      15.267  -6.251   4.539  1.00  0.00    -0.3289 NA
ATOM     40 H31  AR1 L   1      15.727  -4.352   5.282  1.00  0.00    +0.0432  H
ATOM     41 H32  AR1 L   1      14.249  -5.062   5.933  1.00  0.00    +0.0432  H
ATOM     42 H33  AR1 L   1      15.776  -6.710   5.300  1.00  0.00    +0.1182 HD
ATOM     43 H34  AR1 L   1      14.432  -6.830   4.403  1.00  0.00    +0.1182 HD
ENDBRANCH 21 38
ENDBRANCH 17 21
ENDBRANCH 1 19
TORSDOF 5
ENDMDL
MODEL 19
REMARK VINA RESULT:    -5.540      4.062      6.059
REMARK INTER + INTRA:          -7.974
REMARK INTER:                  -7.365
REMARK INTRA:                  -0.609
REMARK UNBOUND:                -0.814
ROOT
ATOM      1 C13  AR1 L   1      12.314  -6.274  -0.829  1.00  0.00    +0.0423  A
ATOM      2 C14  AR1 L   1      11.164  -7.070  -0.771  1.00  0.00    -0.0377  A
ATOM      3 C15  AR1 L   1      10.967  -8.108  -1.686  1.00  0.00    -0.0506  A
ATOM      4 C16  AR1 L   1      11.925  -8.367  -2.678  1.00  0.00    +0.0004  A
ATOM      5 C17  AR1 L   1      11.788  -9.390  -3.621  1.00  0.00    +0.0353  A
ATOM      6 N18  AR1 L   1      12.689  -9.668  -4.590  1.00  0.00    -0.2626 NA
ATOM      7 C19  AR1 L   1      13.789  -8.888  -4.627  1.00  0.00    +0.0281  A
ATOM      8 C20  AR1 L   1      14.030  -7.848  -3.744  1.00  0.00    -0.0358  A
ATOM      9 C21  AR1 L   1      13.086  -7.574  -2.747  1.00  0.00    -0.0131  A
ATOM     10 C22  AR1 L   1      13.267  -6.532  -1.818  1.00  0.00    -0.0305  A
ATOM     11 H36  AR1 L   1      10.404  -6.891  -0.013  1.00  0.00    +0.0638  H
ATOM     12 H37  AR1 L   1      10.065  -8.711  -1.618  1.00  0.00    +0.0625  H
ATOM     13 H38  AR1 L   1      10.915 -10.038  -3.622  1.00  0.00    +0.0836  H
ATOM     14 H39  AR1 L   1      14.501  -9.127  -5.412  1.00  0.00    +0.0830  H
ATOM     15 H40  AR1 L   1      14.940  -7.261  -3.835  1.00  0.00    +0.0639  H
ATOM     16 H41  AR1 L   1      14.168  -5.930  -1.888  1.00  0.00    +0.0644  H
ENDROOT
BRANCH 1 19
ATOM     17 C10  AR1 L   1      13.033  -5.297   1.373  1.00  0.00    +0.2339  C
ATOM     18 O11  AR1 L   1      13.592  -6.278   1.861  1.00  0.00    -0.2722 OA
ATOM     19 N12  AR1 L   1      12.427  -5.250   0.129  1.00  0.00    -0.3256  N
ATOM     20 H35  AR1 L   1      12.004  -4.349  -0.112  1.00  0.00    +0.1686 HD
BRANCH 17 21
ATOM     21  C7  AR1 L   1      13.009  -3.959   2.134  1.00  0.00    +0.0752  C
ATOM     22 H30  AR1 L   1      12.801  -3.220   1.344  1.00  0.00    +0.0458  H
BRANCH 21 26
ATOM     23  C3  AR1 L   1       9.848  -3.571   5.103  1.00  0.00    -0.0222  A
ATOM     24  C4  AR1 L   1       9.755  -4.551   4.108  1.00  0.00    -0.0561  A
ATOM     25  C5  AR1 L   1      10.757  -4.682   3.142  1.00  0.00    -0.0575  A
ATOM     26  C6  AR1 L   1      11.879  -3.839   3.151  1.00  0.00    -0.0341  A
ATOM     27 C23  AR1 L   1      11.973  -2.870   4.164  1.00  0.00    -0.0575  A
ATOM     28 C24  AR1 L   1      10.972  -2.739   5.130  1.00  0.00    -0.0561  A
ATOM     29 H28  AR1 L   1       8.896  -5.217   4.072  1.00  0.00    +0.0621  H
ATOM     30 H29  AR1 L   1      10.638  -5.450   2.382  1.00  0.00    +0.0621  H
ATOM     31 H42  AR1 L   1      12.830  -2.200   4.207  1.00  0.00    +0.0621  H
ATOM     32 H43  AR1 L   1      11.072  -1.980   5.903  1.00  0.00    +0.0621  H
BRANCH 23 34
ATOM     33  O1  AR1 L   1       7.684  -4.300   5.862  1.00  0.00    -0.3904 OA
ATOM     34  C2  AR1 L   1       8.780  -3.444   6.156  1.00  0.00    +0.0692  C
ATOM     35 H25  AR1 L   1       7.838  -4.690   4.984  1.00  0.00    +0.2098 HD
ATOM     36 H26  AR1 L   1       8.411  -2.416   6.216  1.00  0.00    +0.0607  H
ATOM     37 H27  AR1 L   1       9.175  -3.707   7.143  1.00  0.00    +0.0607  H
ENDBRANCH 23 34
ENDBRANCH 21 26
BRANCH 21 38
ATOM     38  C8  AR1 L   1      14.382  -3.563   2.724  1.00  0.00    +0.0085  C
ATOM     39  N9  AR1 L   1      15.032  -2.430   2.038  1.00  0.00    -0.3289 NA
ATOM     40 H31  AR1 L   1      14.257  -3.289   3.779  1.00  0.00    +0.0432  H
ATOM     41 H32  AR1 L   1      15.064  -4.421   2.693  1.00  0.00    +0.0432  H
ATOM     42 H33  AR1 L   1      15.941  -2.268   2.480  1.00  0.00    +0.1182 HD
ATOM     43 H34  AR1 L   1      15.260  -2.726   1.083  1.00  0.00    +0.1182 HD
ENDBRANCH 21 38
ENDBRANCH 17 21
ENDBRANCH 1 19
TORSDOF 5
ENDMDL
MODEL 20
REMARK VINA RESULT:    -5.433      6.543     10.832
REMARK INTER + INTRA:          -7.835
REMARK INTER:                  -7.073
REMARK INTRA:                  -0.762
REMARK UNBOUND:                -0.814
ROOT
ATOM      1 C13  AR1 L   1      10.415  -8.016  -6.864  1.00  0.00    +0.0423  A
ATOM      2 C14  AR1 L   1      10.614  -7.401  -8.105  1.00  0.00    -0.0377  A
ATOM      3 C15  AR1 L   1       9.666  -7.525  -9.124  1.00  0.00    -0.0506  A
ATOM      4 C16  AR1 L   1       8.496  -8.271  -8.914  1.00  0.00    +0.0004  A
ATOM      5 C17  AR1 L   1       7.510  -8.432  -9.892  1.00  0.00    +0.0353  A
ATOM      6 N18  AR1 L   1       6.372  -9.144  -9.725  1.00  0.00    -0.2626 NA
ATOM      7 C19  AR1 L   1       6.201  -9.728  -8.522  1.00  0.00    +0.0281  A
ATOM      8 C20  AR1 L   1       7.111  -9.635  -7.480  1.00  0.00    -0.0358  A
ATOM      9 C21  AR1 L   1       8.284  -8.895  -7.671  1.00  0.00    -0.0131  A
ATOM     10 C22  AR1 L   1       9.250  -8.759  -6.656  1.00  0.00    -0.0305  A
ATOM     11 H36  AR1 L   1      11.512  -6.817  -8.296  1.00  0.00    +0.0638  H
ATOM     12 H37  AR1 L   1       9.846  -7.036 -10.079  1.00  0.00    +0.0625  H
ATOM     13 H38  AR1 L   1       7.613  -7.976 -10.874  1.00  0.00    +0.0836  H
ATOM     14 H39  AR1 L   1       5.281 -10.294  -8.408  1.00  0.00    +0.0830  H
ATOM     15 H40  AR1 L   1       6.906 -10.134  -6.537  1.00  0.00    +0.0639  H
ATOM     16 H41  AR1 L   1       9.069  -9.250  -5.704  1.00  0.00    +0.0644  H
ENDROOT
BRANCH 1 19
ATOM     17 C10  AR1 L   1      12.222  -8.802  -5.304  1.00  0.00    +0.2339  C
ATOM     18 O11  AR1 L   1      12.181 -10.010  -5.532  1.00  0.00    -0.2722 OA
ATOM     19 N12  AR1 L   1      11.423  -7.841  -5.898  1.00  0.00    -0.3256  N
ATOM     20 H35  AR1 L   1      11.591  -6.882  -5.581  1.00  0.00    +0.1686 HD
BRANCH 17 21
ATOM     21  C7  AR1 L   1      13.260  -8.234  -4.319  1.00  0.00    +0.0752  C
ATOM     22 H30  AR1 L   1      13.663  -7.357  -4.851  1.00  0.00    +0.0458  H
BRANCH 21 26
ATOM     23  C3  AR1 L   1      11.655  -6.714  -0.568  1.00  0.00    -0.0222  A
ATOM     24  C4  AR1 L   1      11.048  -7.809  -1.195  1.00  0.00    -0.0561  A
ATOM     25  C5  AR1 L   1      11.547  -8.302  -2.405  1.00  0.00    -0.0575  A
ATOM     26  C6  AR1 L   1      12.666  -7.716  -3.014  1.00  0.00    -0.0341  A
ATOM     27 C23  AR1 L   1      13.280  -6.629  -2.368  1.00  0.00    -0.0575  A
ATOM     28 C24  AR1 L   1      12.783  -6.136  -1.159  1.00  0.00    -0.0561  A
ATOM     29 H28  AR1 L   1      10.176  -8.283  -0.749  1.00  0.00    +0.0621  H
ATOM     30 H29  AR1 L   1      11.037  -9.148  -2.861  1.00  0.00    +0.0621  H
ATOM     31 H42  AR1 L   1      14.153  -6.150  -2.808  1.00  0.00    +0.0621  H
ATOM     32 H43  AR1 L   1      13.279  -5.293  -0.682  1.00  0.00    +0.0621  H
BRANCH 23 34
ATOM     33  O1  AR1 L   1      11.029  -4.779   0.718  1.00  0.00    -0.3904 OA
ATOM     34  C2  AR1 L   1      11.133  -6.197   0.745  1.00  0.00    +0.0692  C
ATOM     35 H25  AR1 L   1      11.426  -4.469  -0.114  1.00  0.00    +0.2098 HD
ATOM     36 H26  AR1 L   1      11.796  -6.481   1.568  1.00  0.00    +0.0607  H
ATOM     37 H27  AR1 L   1      10.145  -6.616   0.962  1.00  0.00    +0.0607  H
ENDBRANCH 23 34
ENDBRANCH 21 26
BRANCH 21 38
ATOM     38  C8  AR1 L   1      14.467  -9.173  -4.089  1.00  0.00    +0.0085  C
ATOM     39  N9  AR1 L   1      15.170  -9.570  -5.325  1.00  0.00    -0.3289 NA
ATOM     40 H31  AR1 L   1      15.194  -8.675  -3.436  1.00  0.00    +0.0432  H
ATOM     41 H32  AR1 L   1      14.140 -10.083  -3.573  1.00  0.00    +0.0432  H
ATOM     42 H33  AR1 L   1      15.926 -10.211  -5.069  1.00  0.00    +0.1182 HD
ATOM     43 H34  AR1 L   1      14.528 -10.141  -5.885  1.00  0.00    +0.1182 HD
ENDBRANCH 21 38
ENDBRANCH 17 21
ENDBRANCH 1 19
TORSDOF 5
ENDMDL
