MODEL 1
REMARK VINA RESULT:    -6.561      0.000      0.000
REMARK INTER + INTRA:          -9.230
REMARK INTER:                  -8.479
REMARK INTRA:                  -0.751
REMARK UNBOUND:                -0.751
ROOT
ATOM      1 C13  AR1 L   1      11.743  -5.367   0.324  1.00  0.00    +0.0423  A
ATOM      2 C14  AR1 L   1      12.891  -4.908  -0.333  1.00  0.00    -0.0377  A
ATOM      3 C15  AR1 L   1      13.415  -5.605  -1.425  1.00  0.00    -0.0506  A
ATOM      4 C16  AR1 L   1      12.794  -6.779  -1.880  1.00  0.00    +0.0004  A
ATOM      5 C17  AR1 L   1      13.268  -7.520  -2.965  1.00  0.00    +0.0353  A
ATOM      6 N18  AR1 L   1      12.696  -8.655  -3.429  1.00  0.00    -0.2626 NA
ATOM      7 C19  AR1 L   1      11.592  -9.078  -2.781  1.00  0.00    +0.0281  A
ATOM      8 C20  AR1 L   1      11.034  -8.423  -1.694  1.00  0.00    -0.0358  A
ATOM      9 C21  AR1 L   1      11.639  -7.251  -1.227  1.00  0.00    -0.0131  A
ATOM     10 C22  AR1 L   1      11.126  -6.536  -0.128  1.00  0.00    -0.0305  A
ATOM     11 H36  AR1 L   1      13.393  -4.001  -0.003  1.00  0.00    +0.0638  H
ATOM     12 H37  AR1 L   1      14.307  -5.226  -1.918  1.00  0.00    +0.0625  H
ATOM     13 H38  AR1 L   1      14.155  -7.210  -3.512  1.00  0.00    +0.0836  H
ATOM     14 H39  AR1 L   1      11.148  -9.990  -3.169  1.00  0.00    +0.0830  H
ATOM     15 H40  AR1 L   1      10.142  -8.824  -1.221  1.00  0.00    +0.0639  H
ATOM     16 H41  AR1 L   1      10.236  -6.917   0.363  1.00  0.00    +0.0644  H
ENDROOT
BRANCH 1 19
ATOM     17 C10  AR1 L   1      11.868  -4.456   2.664  1.00  0.00    +0.2339  C
ATOM     18 O11  AR1 L   1      12.914  -4.985   3.035  1.00  0.00    -0.2722 OA
ATOM     19 N12  AR1 L   1      11.288  -4.605   1.415  1.00  0.00    -0.3256  N
ATOM     20 H35  AR1 L   1      10.410  -4.095   1.283  1.00  0.00    +0.1686 HD
BRANCH 17 21
ATOM     21  C7  AR1 L   1      11.109  -3.496   3.598  1.00  0.00    +0.0752  C
ATOM     22 H30  AR1 L   1      10.457  -2.934   2.911  1.00  0.00    +0.0458  H
BRANCH 21 26
ATOM     23  C3  AR1 L   1       8.524  -5.421   6.525  1.00  0.00    -0.0222  A
ATOM     24  C4  AR1 L   1       8.882  -6.101   5.355  1.00  0.00    -0.0561  A
ATOM     25  C5  AR1 L   1       9.704  -5.493   4.401  1.00  0.00    -0.0575  A
ATOM     26  C6  AR1 L   1      10.191  -4.192   4.598  1.00  0.00    -0.0341  A
ATOM     27 C23  AR1 L   1       9.842  -3.524   5.783  1.00  0.00    -0.0575  A
ATOM     28 C24  AR1 L   1       9.021  -4.132   6.737  1.00  0.00    -0.0561  A
ATOM     29 H28  AR1 L   1       8.517  -7.110   5.173  1.00  0.00    +0.0621  H
ATOM     30 H29  AR1 L   1       9.947  -6.055   3.503  1.00  0.00    +0.0621  H
ATOM     31 H42  AR1 L   1      10.204  -2.515   5.973  1.00  0.00    +0.0621  H
ATOM     32 H43  AR1 L   1       8.768  -3.589   7.646  1.00  0.00    +0.0621  H
BRANCH 23 34
ATOM     33  O1  AR1 L   1       8.079  -7.424   7.784  1.00  0.00    -0.3904 OA
ATOM     34  C2  AR1 L   1       7.658  -6.084   7.562  1.00  0.00    +0.0692  C
ATOM     35 H25  AR1 L   1       8.767  -7.630   7.128  1.00  0.00    +0.2098 HD
ATOM     36 H26  AR1 L   1       6.610  -6.097   7.245  1.00  0.00    +0.0607  H
ATOM     37 H27  AR1 L   1       7.704  -5.541   8.512  1.00  0.00    +0.0607  H
ENDBRANCH 23 34
ENDBRANCH 21 26
BRANCH 21 38
ATOM     38  C8  AR1 L   1      12.021  -2.441   4.266  1.00  0.00    +0.0085  C
ATOM     39  N9  AR1 L   1      13.197  -2.060   3.461  1.00  0.00    -0.3289 NA
ATOM     40 H31  AR1 L   1      11.439  -1.531   4.460  1.00  0.00    +0.0432  H
ATOM     41 H32  AR1 L   1      12.373  -2.811   5.235  1.00  0.00    +0.0432  H
ATOM     42 H33  AR1 L   1      13.748  -1.386   4.000  1.00  0.00    +0.1182 HD
ATOM     43 H34  AR1 L   1      13.806  -2.882   3.379  1.00  0.00    +0.1182 HD
ENDBRANCH 21 38
ENDBRANCH 17 21
ENDBRANCH 1 19
TORSDOF 5
ENDMDL
MODEL 2
REMARK VINA RESULT:    -6.470      2.576      7.366
REMARK INTER + INTRA:          -9.113
REMARK INTER:                  -8.117
REMARK INTRA:                  -0.996
REMARK UNBOUND:                -0.751
ROOT
ATOM      1 C13  AR1 L   1      11.321  -4.529   3.602  1.00  0.00    +0.0423  A
ATOM      2 C14  AR1 L   1      10.897  -3.320   4.164  1.00  0.00    -0.0377  A
ATOM      3 C15  AR1 L   1       9.812  -3.282   5.044  1.00  0.00    -0.0506  A
ATOM      4 C16  AR1 L   1       9.130  -4.463   5.378  1.00  0.00    +0.0004  A
ATOM      5 C17  AR1 L   1       8.040  -4.492   6.251  1.00  0.00    +0.0353  A
ATOM      6 N18  AR1 L   1       7.360  -5.609   6.594  1.00  0.00    -0.2626 NA
ATOM      7 C19  AR1 L   1       7.786  -6.763   6.041  1.00  0.00    +0.0281  A
ATOM      8 C20  AR1 L   1       8.855  -6.853   5.164  1.00  0.00    -0.0358  A
ATOM      9 C21  AR1 L   1       9.547  -5.686   4.819  1.00  0.00    -0.0131  A
ATOM     10 C22  AR1 L   1      10.641  -5.704   3.934  1.00  0.00    -0.0305  A
ATOM     11 H36  AR1 L   1      11.406  -2.389   3.923  1.00  0.00    +0.0638  H
ATOM     12 H37  AR1 L   1       9.504  -2.328   5.466  1.00  0.00    +0.0625  H
ATOM     13 H38  AR1 L   1       7.669  -3.581   6.716  1.00  0.00    +0.0836  H
ATOM     14 H39  AR1 L   1       7.227  -7.650   6.329  1.00  0.00    +0.0830  H
ATOM     15 H40  AR1 L   1       9.141  -7.819   4.757  1.00  0.00    +0.0639  H
ATOM     16 H41  AR1 L   1      10.946  -6.657   3.512  1.00  0.00    +0.0644  H
ENDROOT
BRANCH 1 19
ATOM     17 C10  AR1 L   1      13.768  -4.484   3.031  1.00  0.00    +0.2339  C
ATOM     18 O11  AR1 L   1      14.245  -4.548   4.163  1.00  0.00    -0.2722 OA
ATOM     19 N12  AR1 L   1      12.419  -4.473   2.724  1.00  0.00    -0.3256  N
ATOM     20 H35  AR1 L   1      12.202  -4.408   1.725  1.00  0.00    +0.1686 HD
BRANCH 17 21
ATOM     21  C7  AR1 L   1      14.692  -4.460   1.800  1.00  0.00    +0.0752  C
ATOM     22 H30  AR1 L   1      15.613  -4.945   2.162  1.00  0.00    +0.0458  H
BRANCH 21 26
ATOM     23  C3  AR1 L   1      13.204  -6.774  -1.575  1.00  0.00    -0.0222  A
ATOM     24  C4  AR1 L   1      13.768  -7.428  -0.474  1.00  0.00    -0.0561  A
ATOM     25  C5  AR1 L   1      14.258  -6.698   0.613  1.00  0.00    -0.0575  A
ATOM     26  C6  AR1 L   1      14.193  -5.297   0.627  1.00  0.00    -0.0341  A
ATOM     27 C23  AR1 L   1      13.608  -4.649  -0.474  1.00  0.00    -0.0575  A
ATOM     28 C24  AR1 L   1      13.118  -5.378  -1.561  1.00  0.00    -0.0561  A
ATOM     29 H28  AR1 L   1      13.836  -8.514  -0.456  1.00  0.00    +0.0621  H
ATOM     30 H29  AR1 L   1      14.697  -7.249   1.443  1.00  0.00    +0.0621  H
ATOM     31 H42  AR1 L   1      13.536  -3.563  -0.499  1.00  0.00    +0.0621  H
ATOM     32 H43  AR1 L   1      12.670  -4.848  -2.400  1.00  0.00    +0.0621  H
BRANCH 23 34
ATOM     33  O1  AR1 L   1      11.258  -7.769  -2.582  1.00  0.00    -0.3904 OA
ATOM     34  C2  AR1 L   1      12.656  -7.559  -2.735  1.00  0.00    +0.0692  C
ATOM     35 H25  AR1 L   1      11.005  -7.443  -1.701  1.00  0.00    +0.2098 HD
ATOM     36 H26  AR1 L   1      13.147  -8.535  -2.813  1.00  0.00    +0.0607  H
ATOM     37 H27  AR1 L   1      12.829  -7.031  -3.679  1.00  0.00    +0.0607  H
ENDBRANCH 23 34
ENDBRANCH 21 26
BRANCH 21 38
ATOM     38  C8  AR1 L   1      15.111  -3.034   1.374  1.00  0.00    +0.0085  C
ATOM     39  N9  AR1 L   1      14.539  -1.959   2.208  1.00  0.00    -0.3289 NA
ATOM     40 H31  AR1 L   1      16.204  -2.949   1.421  1.00  0.00    +0.0432  H
ATOM     41 H32  AR1 L   1      14.819  -2.854   0.333  1.00  0.00    +0.0432  H
ATOM     42 H33  AR1 L   1      14.849  -1.061   1.828  1.00  0.00    +0.1182 HD
ATOM     43 H34  AR1 L   1      13.523  -1.959   2.072  1.00  0.00    +0.1182 HD
ENDBRANCH 21 38
ENDBRANCH 17 21
ENDBRANCH 1 19
TORSDOF 5
ENDMDL
MODEL 3
REMARK VINA RESULT:    -6.429      2.986      4.679
REMARK INTER + INTRA:          -9.060
REMARK INTER:                  -8.274
REMARK INTRA:                  -0.786
REMARK UNBOUND:                -0.751
ROOT
ATOM      1 C13  AR1 L   1      11.169  -5.080   3.456  1.00  0.00    +0.0423  A
ATOM      2 C14  AR1 L   1      10.914  -5.859   2.321  1.00  0.00    -0.0377  A
ATOM      3 C15  AR1 L   1      11.752  -5.790   1.205  1.00  0.00    -0.0506  A
ATOM      4 C16  AR1 L   1      12.865  -4.934   1.207  1.00  0.00    +0.0004  A
ATOM      5 C17  AR1 L   1      13.739  -4.820   0.123  1.00  0.00    +0.0353  A
ATOM      6 N18  AR1 L   1      14.820  -4.007   0.091  1.00  0.00    -0.2626 NA
ATOM      7 C19  AR1 L   1      15.045  -3.266   1.195  1.00  0.00    +0.0281  A
ATOM      8 C20  AR1 L   1      14.246  -3.298   2.326  1.00  0.00    -0.0358  A
ATOM      9 C21  AR1 L   1      13.131  -4.146   2.342  1.00  0.00    -0.0131  A
ATOM     10 C22  AR1 L   1      12.277  -4.228   3.457  1.00  0.00    -0.0305  A
ATOM     11 H36  AR1 L   1      10.059  -6.531   2.291  1.00  0.00    +0.0638  H
ATOM     12 H37  AR1 L   1      11.531  -6.406   0.336  1.00  0.00    +0.0625  H
ATOM     13 H38  AR1 L   1      13.589  -5.401  -0.783  1.00  0.00    +0.0836  H
ATOM     14 H39  AR1 L   1      15.918  -2.619   1.149  1.00  0.00    +0.0830  H
ATOM     15 H40  AR1 L   1      14.490  -2.672   3.179  1.00  0.00    +0.0639  H
ATOM     16 H41  AR1 L   1      12.498  -3.611   4.323  1.00  0.00    +0.0644  H
ENDROOT
BRANCH 1 19
ATOM     17 C10  AR1 L   1       8.904  -4.998   4.544  1.00  0.00    +0.2339  C
ATOM     18 O11  AR1 L   1       8.225  -4.648   3.580  1.00  0.00    -0.2722 OA
ATOM     19 N12  AR1 L   1      10.272  -5.211   4.532  1.00  0.00    -0.3256  N
ATOM     20 H35  AR1 L   1      10.674  -5.494   5.430  1.00  0.00    +0.1686 HD
BRANCH 17 21
ATOM     21  C7  AR1 L   1       8.236  -5.290   5.899  1.00  0.00    +0.0752  C
ATOM     22 H30  AR1 L   1       7.203  -4.933   5.757  1.00  0.00    +0.0458  H
BRANCH 21 26
ATOM     23  C3  AR1 L   1       7.892  -9.535   6.807  1.00  0.00    -0.0222  A
ATOM     24  C4  AR1 L   1       8.343  -8.644   7.789  1.00  0.00    -0.0561  A
ATOM     25  C5  AR1 L   1       8.467  -7.280   7.509  1.00  0.00    -0.0575  A
ATOM     26  C6  AR1 L   1       8.140  -6.773   6.243  1.00  0.00    -0.0341  A
ATOM     27 C23  AR1 L   1       7.670  -7.670   5.269  1.00  0.00    -0.0575  A
ATOM     28 C24  AR1 L   1       7.545  -9.034   5.549  1.00  0.00    -0.0561  A
ATOM     29 H28  AR1 L   1       8.608  -9.008   8.779  1.00  0.00    +0.0621  H
ATOM     30 H29  AR1 L   1       8.831  -6.627   8.300  1.00  0.00    +0.0621  H
ATOM     31 H42  AR1 L   1       7.403  -7.314   4.276  1.00  0.00    +0.0621  H
ATOM     32 H43  AR1 L   1       7.179  -9.706   4.774  1.00  0.00    +0.0621  H
BRANCH 23 34
ATOM     33  O1  AR1 L   1       7.998 -11.783   5.957  1.00  0.00    -0.3904 OA
ATOM     34  C2  AR1 L   1       7.737 -10.999   7.114  1.00  0.00    +0.0692  C
ATOM     35 H25  AR1 L   1       8.111 -11.175   5.207  1.00  0.00    +0.2098 HD
ATOM     36 H26  AR1 L   1       6.723 -11.220   7.462  1.00  0.00    +0.0607  H
ATOM     37 H27  AR1 L   1       8.427 -11.306   7.908  1.00  0.00    +0.0607  H
ENDBRANCH 23 34
ENDBRANCH 21 26
BRANCH 21 38
ATOM     38  C8  AR1 L   1       8.811  -4.448   7.062  1.00  0.00    +0.0085  C
ATOM     39  N9  AR1 L   1       9.232  -3.088   6.675  1.00  0.00    -0.3289 NA
ATOM     40 H31  AR1 L   1       8.053  -4.354   7.850  1.00  0.00    +0.0432  H
ATOM     41 H32  AR1 L   1       9.672  -4.962   7.504  1.00  0.00    +0.0432  H
ATOM     42 H33  AR1 L   1       9.624  -2.628   7.501  1.00  0.00    +0.1182 HD
ATOM     43 H34  AR1 L   1      10.023  -3.173   6.029  1.00  0.00    +0.1182 HD
ENDBRANCH 21 38
ENDBRANCH 17 21
ENDBRANCH 1 19
TORSDOF 5
ENDMDL
MODEL 4
REMARK VINA RESULT:    -6.274     10.497     13.347
REMARK INTER + INTRA:          -8.859
REMARK INTER:                  -8.321
REMARK INTRA:                  -0.537
REMARK UNBOUND:                -0.751
ROOT
ATOM      1 C13  AR1 L   1      12.048  -7.724 -10.510  1.00  0.00    +0.0423  A
ATOM      2 C14  AR1 L   1      13.339  -7.393 -10.086  1.00  0.00    -0.0377  A
ATOM      3 C15  AR1 L   1      14.344  -7.104 -11.013  1.00  0.00    -0.0506  A
ATOM      4 C16  AR1 L   1      14.069  -7.143 -12.389  1.00  0.00    +0.0004  A
ATOM      5 C17  AR1 L   1      15.029  -6.864 -13.365  1.00  0.00    +0.0353  A
ATOM      6 N18  AR1 L   1      14.800  -6.892 -14.698  1.00  0.00    -0.2626 NA
ATOM      7 C19  AR1 L   1      13.549  -7.214 -15.084  1.00  0.00    +0.0281  A
ATOM      8 C20  AR1 L   1      12.519  -7.508 -14.205  1.00  0.00    -0.0358  A
ATOM      9 C21  AR1 L   1      12.774  -7.475 -12.829  1.00  0.00    -0.0131  A
ATOM     10 C22  AR1 L   1      11.775  -7.763 -11.880  1.00  0.00    -0.0305  A
ATOM     11 H36  AR1 L   1      13.581  -7.356  -9.026  1.00  0.00    +0.0638  H
ATOM     12 H37  AR1 L   1      15.339  -6.849 -10.655  1.00  0.00    +0.0625  H
ATOM     13 H38  AR1 L   1      16.048  -6.600 -13.092  1.00  0.00    +0.0836  H
ATOM     14 H39  AR1 L   1      13.385  -7.230 -16.159  1.00  0.00    +0.0830  H
ATOM     15 H40  AR1 L   1      11.535  -7.760 -14.590  1.00  0.00    +0.0639  H
ATOM     16 H41  AR1 L   1      10.783  -8.019 -12.240  1.00  0.00    +0.0644  H
ENDROOT
BRANCH 1 19
ATOM     17 C10  AR1 L   1      10.333  -7.114  -8.777  1.00  0.00    +0.2339  C
ATOM     18 O11  AR1 L   1      10.354  -5.889  -8.888  1.00  0.00    -0.2722 OA
ATOM     19 N12  AR1 L   1      11.101  -8.004  -9.508  1.00  0.00    -0.3256  N
ATOM     20 H35  AR1 L   1      10.957  -8.991  -9.277  1.00  0.00    +0.1686 HD
BRANCH 17 21
ATOM     21  C7  AR1 L   1       9.359  -7.786  -7.793  1.00  0.00    +0.0752  C
ATOM     22 H30  AR1 L   1       8.954  -6.940  -7.215  1.00  0.00    +0.0458  H
BRANCH 21 26
ATOM     23  C3  AR1 L   1       5.956  -9.797  -9.620  1.00  0.00    -0.0222  A
ATOM     24  C4  AR1 L   1       6.815  -9.021 -10.408  1.00  0.00    -0.0561  A
ATOM     25  C5  AR1 L   1       7.906  -8.363  -9.834  1.00  0.00    -0.0575  A
ATOM     26  C6  AR1 L   1       8.167  -8.467  -8.460  1.00  0.00    -0.0341  A
ATOM     27 C23  AR1 L   1       7.312  -9.262  -7.679  1.00  0.00    -0.0575  A
ATOM     28 C24  AR1 L   1       6.221  -9.922  -8.253  1.00  0.00    -0.0561  A
ATOM     29 H28  AR1 L   1       6.636  -8.918 -11.476  1.00  0.00    +0.0621  H
ATOM     30 H29  AR1 L   1       8.541  -7.763 -10.483  1.00  0.00    +0.0621  H
ATOM     31 H42  AR1 L   1       7.484  -9.371  -6.610  1.00  0.00    +0.0621  H
ATOM     32 H43  AR1 L   1       5.575 -10.531  -7.623  1.00  0.00    +0.0621  H
BRANCH 23 34
ATOM     33  O1  AR1 L   1       3.694  -9.644 -10.425  1.00  0.00    -0.3904 OA
ATOM     34  C2  AR1 L   1       4.795 -10.525 -10.241  1.00  0.00    +0.0692  C
ATOM     35 H25  AR1 L   1       3.918  -8.797 -10.004  1.00  0.00    +0.2098 HD
ATOM     36 H26  AR1 L   1       4.472 -11.357  -9.607  1.00  0.00    +0.0607  H
ATOM     37 H27  AR1 L   1       5.074 -10.945 -11.213  1.00  0.00    +0.0607  H
ENDBRANCH 23 34
ENDBRANCH 21 26
BRANCH 21 38
ATOM     38  C8  AR1 L   1      10.061  -8.699  -6.760  1.00  0.00    +0.0085  C
ATOM     39  N9  AR1 L   1      10.793  -7.970  -5.707  1.00  0.00    -0.3289 NA
ATOM     40 H31  AR1 L   1       9.312  -9.334  -6.271  1.00  0.00    +0.0432  H
ATOM     41 H32  AR1 L   1      10.765  -9.367  -7.270  1.00  0.00    +0.0432  H
ATOM     42 H33  AR1 L   1      11.244  -8.658  -5.098  1.00  0.00    +0.1182 HD
ATOM     43 H34  AR1 L   1      11.571  -7.470  -6.150  1.00  0.00    +0.1182 HD
ENDBRANCH 21 38
ENDBRANCH 17 21
ENDBRANCH 1 19
TORSDOF 5
ENDMDL
MODEL 5
REMARK VINA RESULT:    -6.252      2.307      3.216
REMARK INTER + INTRA:          -8.830
REMARK INTER:                  -8.156
REMARK INTRA:                  -0.674
REMARK UNBOUND:                -0.751
ROOT
ATOM      1 C13  AR1 L   1      10.970  -5.470   2.566  1.00  0.00    +0.0423  A
ATOM      2 C14  AR1 L   1      12.220  -4.844   2.637  1.00  0.00    -0.0377  A
ATOM      3 C15  AR1 L   1      13.118  -4.918   1.569  1.00  0.00    -0.0506  A
ATOM      4 C16  AR1 L   1      12.776  -5.625   0.405  1.00  0.00    +0.0004  A
ATOM      5 C17  AR1 L   1      13.628  -5.735  -0.697  1.00  0.00    +0.0353  A
ATOM      6 N18  AR1 L   1      13.332  -6.407  -1.833  1.00  0.00    -0.2626 NA
ATOM      7 C19  AR1 L   1      12.122  -7.002  -1.879  1.00  0.00    +0.0281  A
ATOM      8 C20  AR1 L   1      11.198  -6.958  -0.847  1.00  0.00    -0.0358  A
ATOM      9 C21  AR1 L   1      11.522  -6.258   0.321  1.00  0.00    -0.0131  A
ATOM     10 C22  AR1 L   1      10.631  -6.173   1.407  1.00  0.00    -0.0305  A
ATOM     11 H36  AR1 L   1      12.513  -4.290   3.527  1.00  0.00    +0.0638  H
ATOM     12 H37  AR1 L   1      14.083  -4.422   1.650  1.00  0.00    +0.0625  H
ATOM     13 H38  AR1 L   1      14.610  -5.269  -0.696  1.00  0.00    +0.0836  H
ATOM     14 H39  AR1 L   1      11.903  -7.537  -2.800  1.00  0.00    +0.0830  H
ATOM     15 H40  AR1 L   1      10.242  -7.463  -0.956  1.00  0.00    +0.0639  H
ATOM     16 H41  AR1 L   1       9.669  -6.670   1.325  1.00  0.00    +0.0644  H
ENDROOT
BRANCH 1 19
ATOM     17 C10  AR1 L   1       9.324  -4.280   4.047  1.00  0.00    +0.2339  C
ATOM     18 O11  AR1 L   1       9.202  -3.230   3.419  1.00  0.00    -0.2722 OA
ATOM     19 N12  AR1 L   1      10.132  -5.346   3.689  1.00  0.00    -0.3256  N
ATOM     20 H35  AR1 L   1      10.115  -6.139   4.337  1.00  0.00    +0.1686 HD
BRANCH 17 21
ATOM     21  C7  AR1 L   1       8.502  -4.519   5.326  1.00  0.00    +0.0752  C
ATOM     22 H30  AR1 L   1       7.472  -4.280   5.016  1.00  0.00    +0.0458  H
BRANCH 21 26
ATOM     23  C3  AR1 L   1       8.371  -8.672   6.630  1.00  0.00    -0.0222  A
ATOM     24  C4  AR1 L   1       9.133  -7.739   7.343  1.00  0.00    -0.0561  A
ATOM     25  C5  AR1 L   1       9.192  -6.404   6.932  1.00  0.00    -0.0575  A
ATOM     26  C6  AR1 L   1       8.487  -5.969   5.799  1.00  0.00    -0.0341  A
ATOM     27 C23  AR1 L   1       7.710  -6.908   5.100  1.00  0.00    -0.0575  A
ATOM     28 C24  AR1 L   1       7.650  -8.242   5.511  1.00  0.00    -0.0561  A
ATOM     29 H28  AR1 L   1       9.693  -8.047   8.224  1.00  0.00    +0.0621  H
ATOM     30 H29  AR1 L   1       9.805  -5.717   7.511  1.00  0.00    +0.0621  H
ATOM     31 H42  AR1 L   1       7.146  -6.607   4.219  1.00  0.00    +0.0621  H
ATOM     32 H43  AR1 L   1       7.040  -8.947   4.950  1.00  0.00    +0.0621  H
BRANCH 23 34
ATOM     33  O1  AR1 L   1       9.503 -10.788   6.806  1.00  0.00    -0.3904 OA
ATOM     34  C2  AR1 L   1       8.289 -10.103   7.086  1.00  0.00    +0.0692  C
ATOM     35 H25  AR1 L   1      10.067 -10.191   6.285  1.00  0.00    +0.2098 HD
ATOM     36 H26  AR1 L   1       7.471 -10.627   6.581  1.00  0.00    +0.0607  H
ATOM     37 H27  AR1 L   1       8.095 -10.158   8.162  1.00  0.00    +0.0607  H
ENDBRANCH 23 34
ENDBRANCH 21 26
BRANCH 21 38
ATOM     38  C8  AR1 L   1       8.835  -3.528   6.466  1.00  0.00    +0.0085  C
ATOM     39  N9  AR1 L   1       8.737  -2.107   6.080  1.00  0.00    -0.3289 NA
ATOM     40 H31  AR1 L   1       8.148  -3.696   7.304  1.00  0.00    +0.0432  H
ATOM     41 H32  AR1 L   1       9.849  -3.714   6.838  1.00  0.00    +0.0432  H
ATOM     42 H33  AR1 L   1       9.005  -1.538   6.888  1.00  0.00    +0.1182 HD
ATOM     43 H34  AR1 L   1       9.462  -1.917   5.380  1.00  0.00    +0.1182 HD
ENDBRANCH 21 38
ENDBRANCH 17 21
ENDBRANCH 1 19
TORSDOF 5
ENDMDL
MODEL 6
REMARK VINA RESULT:    -6.118      1.991      2.865
REMARK INTER + INTRA:          -8.658
REMARK INTER:                  -8.273
REMARK INTRA:                  -0.385
REMARK UNBOUND:                -0.751
ROOT
ATOM      1 C13  AR1 L   1      11.291  -5.472   1.520  1.00  0.00    +0.0423  A
ATOM      2 C14  AR1 L   1      10.750  -6.177   0.440  1.00  0.00    -0.0377  A
ATOM      3 C15  AR1 L   1      11.553  -6.558  -0.639  1.00  0.00    -0.0506  A
ATOM      4 C16  AR1 L   1      12.919  -6.236  -0.652  1.00  0.00    +0.0004  A
ATOM      5 C17  AR1 L   1      13.774  -6.588  -1.700  1.00  0.00    +0.0353  A
ATOM      6 N18  AR1 L   1      15.094  -6.295  -1.746  1.00  0.00    -0.2626 NA
ATOM      7 C19  AR1 L   1      15.594  -5.615  -0.694  1.00  0.00    +0.0281  A
ATOM      8 C20  AR1 L   1      14.840  -5.215   0.398  1.00  0.00    -0.0358  A
ATOM      9 C21  AR1 L   1      13.476  -5.527   0.429  1.00  0.00    -0.0131  A
ATOM     10 C22  AR1 L   1      12.652  -5.152   1.506  1.00  0.00    -0.0305  A
ATOM     11 H36  AR1 L   1       9.694  -6.439   0.422  1.00  0.00    +0.0638  H
ATOM     12 H37  AR1 L   1      11.106  -7.105  -1.466  1.00  0.00    +0.0625  H
ATOM     13 H38  AR1 L   1      13.407  -7.136  -2.564  1.00  0.00    +0.0836  H
ATOM     14 H39  AR1 L   1      16.655  -5.389  -0.750  1.00  0.00    +0.0830  H
ATOM     15 H40  AR1 L   1      15.312  -4.669   1.210  1.00  0.00    +0.0639  H
ATOM     16 H41  AR1 L   1      13.099  -4.603   2.330  1.00  0.00    +0.0644  H
ENDROOT
BRANCH 1 19
ATOM     17 C10  AR1 L   1      10.454  -4.025   3.397  1.00  0.00    +0.2339  C
ATOM     18 O11  AR1 L   1      11.302  -3.134   3.365  1.00  0.00    -0.2722 OA
ATOM     19 N12  AR1 L   1      10.409  -5.127   2.561  1.00  0.00    -0.3256  N
ATOM     20 H35  AR1 L   1       9.634  -5.772   2.735  1.00  0.00    +0.1686 HD
BRANCH 17 21
ATOM     21  C7  AR1 L   1       9.284  -3.947   4.395  1.00  0.00    +0.0752  C
ATOM     22 H30  AR1 L   1       8.421  -3.695   3.758  1.00  0.00    +0.0458  H
BRANCH 21 26
ATOM     23  C3  AR1 L   1       8.422  -7.723   6.384  1.00  0.00    -0.0222  A
ATOM     24  C4  AR1 L   1       7.839  -7.437   5.144  1.00  0.00    -0.0561  A
ATOM     25  C5  AR1 L   1       8.099  -6.225   4.497  1.00  0.00    -0.0575  A
ATOM     26  C6  AR1 L   1       8.952  -5.272   5.073  1.00  0.00    -0.0341  A
ATOM     27 C23  AR1 L   1       9.547  -5.574   6.309  1.00  0.00    -0.0575  A
ATOM     28 C24  AR1 L   1       9.288  -6.786   6.955  1.00  0.00    -0.0561  A
ATOM     29 H28  AR1 L   1       7.170  -8.155   4.673  1.00  0.00    +0.0621  H
ATOM     30 H29  AR1 L   1       7.616  -6.042   3.540  1.00  0.00    +0.0621  H
ATOM     31 H42  AR1 L   1      10.218  -4.861   6.786  1.00  0.00    +0.0621  H
ATOM     32 H43  AR1 L   1       9.764  -6.992   7.913  1.00  0.00    +0.0621  H
BRANCH 23 34
ATOM     33  O1  AR1 L   1       8.628 -10.118   6.274  1.00  0.00    -0.3904 OA
ATOM     34  C2  AR1 L   1       8.160  -9.036   7.069  1.00  0.00    +0.0692  C
ATOM     35 H25  AR1 L   1       8.913  -9.755   5.418  1.00  0.00    +0.2098 HD
ATOM     36 H26  AR1 L   1       7.089  -9.176   7.250  1.00  0.00    +0.0607  H
ATOM     37 H27  AR1 L   1       8.662  -9.074   8.042  1.00  0.00    +0.0607  H
ENDBRANCH 23 34
ENDBRANCH 21 26
BRANCH 21 38
ATOM     38  C8  AR1 L   1       9.413  -2.781   5.403  1.00  0.00    +0.0085  C
ATOM     39  N9  AR1 L   1       9.142  -1.450   4.827  1.00  0.00    -0.3289 NA
ATOM     40 H31  AR1 L   1       8.710  -2.938   6.230  1.00  0.00    +0.0432  H
ATOM     41 H32  AR1 L   1      10.420  -2.770   5.835  1.00  0.00    +0.0432  H
ATOM     42 H33  AR1 L   1       9.284  -0.750   5.561  1.00  0.00    +0.1182 HD
ATOM     43 H34  AR1 L   1       9.872  -1.248   4.136  1.00  0.00    +0.1182 HD
ENDBRANCH 21 38
ENDBRANCH 17 21
ENDBRANCH 1 19
TORSDOF 5
ENDMDL
MODEL 7
REMARK VINA RESULT:    -6.087      2.487      7.674
REMARK INTER + INTRA:          -8.617
REMARK INTER:                  -7.965
REMARK INTRA:                  -0.652
REMARK UNBOUND:                -0.751
ROOT
ATOM      1 C13  AR1 L   1      10.966  -4.840   2.697  1.00  0.00    +0.0423  A
ATOM      2 C14  AR1 L   1      10.925  -3.573   3.288  1.00  0.00    -0.0377  A
ATOM      3 C15  AR1 L   1      10.104  -3.326   4.392  1.00  0.00    -0.0506  A
ATOM      4 C16  AR1 L   1       9.307  -4.351   4.925  1.00  0.00    +0.0004  A
ATOM      5 C17  AR1 L   1       8.467  -4.169   6.026  1.00  0.00    +0.0353  A
ATOM      6 N18  AR1 L   1       7.685  -5.132   6.565  1.00  0.00    -0.2626 NA
ATOM      7 C19  AR1 L   1       7.741  -6.346   5.978  1.00  0.00    +0.0281  A
ATOM      8 C20  AR1 L   1       8.537  -6.641   4.883  1.00  0.00    -0.0358  A
ATOM      9 C21  AR1 L   1       9.339  -5.630   4.338  1.00  0.00    -0.0131  A
ATOM     10 C22  AR1 L   1      10.171  -5.861   3.227  1.00  0.00    -0.0305  A
ATOM     11 H36  AR1 L   1      11.531  -2.759   2.897  1.00  0.00    +0.0638  H
ATOM     12 H37  AR1 L   1      10.092  -2.331   4.833  1.00  0.00    +0.0625  H
ATOM     13 H38  AR1 L   1       8.396  -3.205   6.524  1.00  0.00    +0.0836  H
ATOM     14 H39  AR1 L   1       7.106  -7.106   6.426  1.00  0.00    +0.0830  H
ATOM     15 H40  AR1 L   1       8.529  -7.642   4.463  1.00  0.00    +0.0639  H
ATOM     16 H41  AR1 L   1      10.181  -6.854   2.787  1.00  0.00    +0.0644  H
ENDROOT
BRANCH 1 19
ATOM     17 C10  AR1 L   1      12.897  -5.852   1.446  1.00  0.00    +0.2339  C
ATOM     18 O11  AR1 L   1      13.304  -6.641   2.297  1.00  0.00    -0.2722 OA
ATOM     19 N12  AR1 L   1      11.817  -4.998   1.588  1.00  0.00    -0.3256  N
ATOM     20 H35  AR1 L   1      11.626  -4.403   0.777  1.00  0.00    +0.1686 HD
BRANCH 17 21
ATOM     21  C7  AR1 L   1      13.570  -5.787   0.063  1.00  0.00    +0.0752  C
ATOM     22 H30  AR1 L   1      14.573  -6.204   0.247  1.00  0.00    +0.0458  H
BRANCH 21 26
ATOM     23  C3  AR1 L   1      11.663  -8.374  -2.875  1.00  0.00    -0.0222  A
ATOM     24  C4  AR1 L   1      12.840  -7.692  -3.204  1.00  0.00    -0.0561  A
ATOM     25  C5  AR1 L   1      13.459  -6.851  -2.274  1.00  0.00    -0.0575  A
ATOM     26  C6  AR1 L   1      12.918  -6.675  -0.992  1.00  0.00    -0.0341  A
ATOM     27 C23  AR1 L   1      11.747  -7.378  -0.663  1.00  0.00    -0.0575  A
ATOM     28 C24  AR1 L   1      11.128  -8.220  -1.592  1.00  0.00    -0.0561  A
ATOM     29 H28  AR1 L   1      13.282  -7.805  -4.192  1.00  0.00    +0.0621  H
ATOM     30 H29  AR1 L   1      14.366  -6.333  -2.578  1.00  0.00    +0.0621  H
ATOM     31 H42  AR1 L   1      11.299  -7.271   0.323  1.00  0.00    +0.0621  H
ATOM     32 H43  AR1 L   1      10.221  -8.751  -1.309  1.00  0.00    +0.0621  H
BRANCH 23 34
ATOM     33  O1  AR1 L   1       9.595  -9.263  -3.725  1.00  0.00    -0.3904 OA
ATOM     34  C2  AR1 L   1      11.009  -9.297  -3.867  1.00  0.00    +0.0692  C
ATOM     35 H25  AR1 L   1       9.388  -8.726  -2.941  1.00  0.00    +0.2098 HD
ATOM     36 H26  AR1 L   1      11.347 -10.328  -3.723  1.00  0.00    +0.0607  H
ATOM     37 H27  AR1 L   1      11.265  -9.011  -4.892  1.00  0.00    +0.0607  H
ENDBRANCH 23 34
ENDBRANCH 21 26
BRANCH 21 38
ATOM     38  C8  AR1 L   1      13.805  -4.344  -0.440  1.00  0.00    +0.0085  C
ATOM     39  N9  AR1 L   1      14.500  -3.472   0.526  1.00  0.00    -0.3289 NA
ATOM     40 H31  AR1 L   1      14.405  -4.374  -1.358  1.00  0.00    +0.0432  H
ATOM     41 H32  AR1 L   1      12.847  -3.878  -0.697  1.00  0.00    +0.0432  H
ATOM     42 H33  AR1 L   1      14.578  -2.538   0.113  1.00  0.00    +0.1182 HD
ATOM     43 H34  AR1 L   1      13.886  -3.344   1.337  1.00  0.00    +0.1182 HD
ENDBRANCH 21 38
ENDBRANCH 17 21
ENDBRANCH 1 19
TORSDOF 5
ENDMDL
MODEL 8
REMARK VINA RESULT:    -6.067      6.587     11.691
REMARK INTER + INTRA:          -8.591
REMARK INTER:                  -7.702
REMARK INTRA:                  -0.889
REMARK UNBOUND:                -0.751
ROOT
ATOM      1 C13  AR1 L   1      11.560  -8.564  -4.892  1.00  0.00    +0.0423  A
ATOM      2 C14  AR1 L   1      10.714  -9.315  -4.068  1.00  0.00    -0.0377  A
ATOM      3 C15  AR1 L   1      10.828  -9.248  -2.677  1.00  0.00    -0.0506  A
ATOM      4 C16  AR1 L   1      11.797  -8.424  -2.085  1.00  0.00    +0.0004  A
ATOM      5 C17  AR1 L   1      11.961  -8.313  -0.702  1.00  0.00    +0.0353  A
ATOM      6 N18  AR1 L   1      12.884  -7.530  -0.098  1.00  0.00    -0.2626 NA
ATOM      7 C19  AR1 L   1      13.689  -6.816  -0.911  1.00  0.00    +0.0281  A
ATOM      8 C20  AR1 L   1      13.616  -6.847  -2.295  1.00  0.00    -0.0358  A
ATOM      9 C21  AR1 L   1      12.655  -7.664  -2.903  1.00  0.00    -0.0131  A
ATOM     10 C22  AR1 L   1      12.525  -7.744  -4.302  1.00  0.00    -0.0305  A
ATOM     11 H36  AR1 L   1       9.953  -9.963  -4.499  1.00  0.00    +0.0638  H
ATOM     12 H37  AR1 L   1      10.156  -9.842  -2.061  1.00  0.00    +0.0625  H
ATOM     13 H38  AR1 L   1      11.331  -8.873  -0.016  1.00  0.00    +0.0836  H
ATOM     14 H39  AR1 L   1      14.423  -6.193  -0.407  1.00  0.00    +0.0830  H
ATOM     15 H40  AR1 L   1      14.299  -6.244  -2.886  1.00  0.00    +0.0639  H
ATOM     16 H41  AR1 L   1      13.198  -7.152  -4.916  1.00  0.00    +0.0644  H
ENDROOT
BRANCH 1 19
ATOM     17 C10  AR1 L   1      10.534  -7.975  -7.110  1.00  0.00    +0.2339  C
ATOM     18 O11  AR1 L   1       9.782  -7.069  -6.755  1.00  0.00    -0.2722 OA
ATOM     19 N12  AR1 L   1      11.377  -8.695  -6.281  1.00  0.00    -0.3256  N
ATOM     20 H35  AR1 L   1      11.928  -9.420  -6.748  1.00  0.00    +0.1686 HD
BRANCH 17 21
ATOM     21  C7  AR1 L   1      10.635  -8.362  -8.596  1.00  0.00    +0.0752  C
ATOM     22 H30  AR1 L   1      11.212  -9.300  -8.578  1.00  0.00    +0.0458  H
BRANCH 21 26
ATOM     23  C3  AR1 L   1       6.807  -9.373 -10.408  1.00  0.00    -0.0222  A
ATOM     24  C4  AR1 L   1       7.712  -8.557 -11.096  1.00  0.00    -0.0561  A
ATOM     25  C5  AR1 L   1       8.941  -8.216 -10.524  1.00  0.00    -0.0575  A
ATOM     26  C6  AR1 L   1       9.296  -8.687  -9.251  1.00  0.00    -0.0341  A
ATOM     27 C23  AR1 L   1       8.391  -9.520  -8.574  1.00  0.00    -0.0575  A
ATOM     28 C24  AR1 L   1       7.162  -9.862  -9.146  1.00  0.00    -0.0561  A
ATOM     29 H28  AR1 L   1       7.464  -8.174 -12.084  1.00  0.00    +0.0621  H
ATOM     30 H29  AR1 L   1       9.609  -7.571 -11.092  1.00  0.00    +0.0621  H
ATOM     31 H42  AR1 L   1       8.632  -9.908  -7.586  1.00  0.00    +0.0621  H
ATOM     32 H43  AR1 L   1       6.480 -10.509  -8.598  1.00  0.00    +0.0621  H
BRANCH 23 34
ATOM     33  O1  AR1 L   1       4.408  -9.276 -10.253  1.00  0.00    -0.3904 OA
ATOM     34  C2  AR1 L   1       5.494  -9.759 -11.032  1.00  0.00    +0.0692  C
ATOM     35 H25  AR1 L   1       4.775  -8.898  -9.435  1.00  0.00    +0.2098 HD
ATOM     36 H26  AR1 L   1       5.405 -10.847 -11.115  1.00  0.00    +0.0607  H
ATOM     37 H27  AR1 L   1       5.409  -9.348 -12.044  1.00  0.00    +0.0607  H
ENDBRANCH 23 34
ENDBRANCH 21 26
BRANCH 21 38
ATOM     38  C8  AR1 L   1      11.479  -7.372  -9.433  1.00  0.00    +0.0085  C
ATOM     39  N9  AR1 L   1      12.015  -6.232  -8.664  1.00  0.00    -0.3289 NA
ATOM     40 H31  AR1 L   1      12.328  -7.905  -9.877  1.00  0.00    +0.0432  H
ATOM     41 H32  AR1 L   1      10.879  -6.976 -10.260  1.00  0.00    +0.0432  H
ATOM     42 H33  AR1 L   1      12.527  -5.624  -9.309  1.00  0.00    +0.1182 HD
ATOM     43 H34  AR1 L   1      11.223  -5.662  -8.348  1.00  0.00    +0.1182 HD
ENDBRANCH 21 38
ENDBRANCH 17 21
ENDBRANCH 1 19
TORSDOF 5
ENDMDL
MODEL 9
REMARK VINA RESULT:    -5.977      2.473      7.885
REMARK INTER + INTRA:          -8.475
REMARK INTER:                  -7.694
REMARK INTRA:                  -0.782
REMARK UNBOUND:                -0.751
ROOT
ATOM      1 C13  AR1 L   1      11.227  -4.830   2.647  1.00  0.00    +0.0423  A
ATOM      2 C14  AR1 L   1      10.470  -5.889   3.162  1.00  0.00    -0.0377  A
ATOM      3 C15  AR1 L   1       9.620  -5.695   4.254  1.00  0.00    -0.0506  A
ATOM      4 C16  AR1 L   1       9.513  -4.429   4.852  1.00  0.00    +0.0004  A
ATOM      5 C17  AR1 L   1       8.682  -4.170   5.944  1.00  0.00    +0.0353  A
ATOM      6 N18  AR1 L   1       8.555  -2.965   6.545  1.00  0.00    -0.2626 NA
ATOM      7 C19  AR1 L   1       9.293  -1.960   6.032  1.00  0.00    +0.0281  A
ATOM      8 C20  AR1 L   1      10.150  -2.101   4.952  1.00  0.00    -0.0358  A
ATOM      9 C21  AR1 L   1      10.269  -3.356   4.343  1.00  0.00    -0.0131  A
ATOM     10 C22  AR1 L   1      11.120  -3.570   3.243  1.00  0.00    -0.0305  A
ATOM     11 H36  AR1 L   1      10.533  -6.881   2.719  1.00  0.00    +0.0638  H
ATOM     12 H37  AR1 L   1       9.043  -6.535   4.634  1.00  0.00    +0.0625  H
ATOM     13 H38  AR1 L   1       8.072  -4.956   6.384  1.00  0.00    +0.0836  H
ATOM     14 H39  AR1 L   1       9.177  -1.000   6.528  1.00  0.00    +0.0830  H
ATOM     15 H40  AR1 L   1      10.714  -1.245   4.594  1.00  0.00    +0.0639  H
ATOM     16 H41  AR1 L   1      11.697  -2.730   2.867  1.00  0.00    +0.0644  H
ENDROOT
BRANCH 1 19
ATOM     17 C10  AR1 L   1      13.192  -5.910   1.512  1.00  0.00    +0.2339  C
ATOM     18 O11  AR1 L   1      13.674  -6.517   2.466  1.00  0.00    -0.2722 OA
ATOM     19 N12  AR1 L   1      12.058  -5.117   1.549  1.00  0.00    -0.3256  N
ATOM     20 H35  AR1 L   1      11.805  -4.681   0.658  1.00  0.00    +0.1686 HD
BRANCH 17 21
ATOM     21  C7  AR1 L   1      13.822  -6.037   0.113  1.00  0.00    +0.0752  C
ATOM     22 H30  AR1 L   1      14.786  -6.532   0.311  1.00  0.00    +0.0458  H
BRANCH 21 26
ATOM     23  C3  AR1 L   1      11.648  -8.570  -2.682  1.00  0.00    -0.0222  A
ATOM     24  C4  AR1 L   1      11.373  -8.645  -1.312  1.00  0.00    -0.0561  A
ATOM     25  C5  AR1 L   1      12.069  -7.845  -0.401  1.00  0.00    -0.0575  A
ATOM     26  C6  AR1 L   1      13.054  -6.947  -0.840  1.00  0.00    -0.0341  A
ATOM     27 C23  AR1 L   1      13.311  -6.865  -2.218  1.00  0.00    -0.0575  A
ATOM     28 C24  AR1 L   1      12.615  -7.664  -3.129  1.00  0.00    -0.0561  A
ATOM     29 H28  AR1 L   1      10.617  -9.334  -0.941  1.00  0.00    +0.0621  H
ATOM     30 H29  AR1 L   1      11.829  -7.944   0.655  1.00  0.00    +0.0621  H
ATOM     31 H42  AR1 L   1      14.066  -6.178  -2.597  1.00  0.00    +0.0621  H
ATOM     32 H43  AR1 L   1      12.836  -7.579  -4.191  1.00  0.00    +0.0621  H
BRANCH 23 34
ATOM     33  O1  AR1 L   1       9.483  -9.282  -3.456  1.00  0.00    -0.3904 OA
ATOM     34  C2  AR1 L   1      10.883  -9.415  -3.665  1.00  0.00    +0.0692  C
ATOM     35 H25  AR1 L   1       9.353  -8.753  -2.650  1.00  0.00    +0.2098 HD
ATOM     36 H26  AR1 L   1      11.151 -10.472  -3.562  1.00  0.00    +0.0607  H
ATOM     37 H27  AR1 L   1      11.114  -9.119  -4.694  1.00  0.00    +0.0607  H
ENDBRANCH 23 34
ENDBRANCH 21 26
BRANCH 21 38
ATOM     38  C8  AR1 L   1      14.177  -4.674  -0.527  1.00  0.00    +0.0085  C
ATOM     39  N9  AR1 L   1      14.504  -3.615   0.447  1.00  0.00    -0.3289 NA
ATOM     40 H31  AR1 L   1      15.043  -4.800  -1.188  1.00  0.00    +0.0432  H
ATOM     41 H32  AR1 L   1      13.345  -4.326  -1.148  1.00  0.00    +0.0432  H
ATOM     42 H33  AR1 L   1      14.692  -2.752  -0.071  1.00  0.00    +0.1182 HD
ATOM     43 H34  AR1 L   1      13.657  -3.410   0.988  1.00  0.00    +0.1182 HD
ENDBRANCH 21 38
ENDBRANCH 17 21
ENDBRANCH 1 19
TORSDOF 5
ENDMDL
MODEL 10
REMARK VINA RESULT:    -5.908      5.233      9.073
REMARK INTER + INTRA:          -8.386
REMARK INTER:                  -7.717
REMARK INTRA:                  -0.669
REMARK UNBOUND:                -0.751
ROOT
ATOM      1 C13  AR1 L   1       8.971  -9.524  -6.351  1.00  0.00    +0.0423  A
ATOM      2 C14  AR1 L   1       7.641  -9.692  -5.951  1.00  0.00    -0.0377  A
ATOM      3 C15  AR1 L   1       6.596  -9.569  -6.871  1.00  0.00    -0.0506  A
ATOM      4 C16  AR1 L   1       6.870  -9.274  -8.216  1.00  0.00    +0.0004  A
ATOM      5 C17  AR1 L   1       5.871  -9.139  -9.184  1.00  0.00    +0.0353  A
ATOM      6 N18  AR1 L   1       6.098  -8.855 -10.487  1.00  0.00    -0.2626 NA
ATOM      7 C19  AR1 L   1       7.387  -8.696 -10.850  1.00  0.00    +0.0281  A
ATOM      8 C20  AR1 L   1       8.457  -8.808  -9.976  1.00  0.00    -0.0358  A
ATOM      9 C21  AR1 L   1       8.204  -9.102  -8.631  1.00  0.00    -0.0131  A
ATOM     10 C22  AR1 L   1       9.242  -9.229  -7.690  1.00  0.00    -0.0305  A
ATOM     11 H36  AR1 L   1       7.399  -9.921  -4.915  1.00  0.00    +0.0638  H
ATOM     12 H37  AR1 L   1       5.572  -9.706  -6.533  1.00  0.00    +0.0625  H
ATOM     13 H38  AR1 L   1       4.821  -9.259  -8.928  1.00  0.00    +0.0836  H
ATOM     14 H39  AR1 L   1       7.548  -8.469 -11.901  1.00  0.00    +0.0830  H
ATOM     15 H40  AR1 L   1       9.470  -8.666 -10.341  1.00  0.00    +0.0639  H
ATOM     16 H41  AR1 L   1      10.265  -9.091  -8.029  1.00  0.00    +0.0644  H
ENDROOT
BRANCH 1 19
ATOM     17 C10  AR1 L   1      10.987  -8.794  -5.040  1.00  0.00    +0.2339  C
ATOM     18 O11  AR1 L   1      11.217  -7.721  -5.594  1.00  0.00    -0.2722 OA
ATOM     19 N12  AR1 L   1       9.957  -9.662  -5.357  1.00  0.00    -0.3256  N
ATOM     20 H35  AR1 L   1       9.922 -10.516  -4.794  1.00  0.00    +0.1686 HD
BRANCH 17 21
ATOM     21  C7  AR1 L   1      11.850  -9.253  -3.851  1.00  0.00    +0.0752  C
ATOM     22 H30  AR1 L   1      12.849  -9.387  -4.296  1.00  0.00    +0.0458  H
BRANCH 21 26
ATOM     23  C3  AR1 L   1      12.186  -6.279  -0.688  1.00  0.00    -0.0222  A
ATOM     24  C4  AR1 L   1      13.143  -6.325  -1.708  1.00  0.00    -0.0561  A
ATOM     25  C5  AR1 L   1      13.054  -7.280  -2.725  1.00  0.00    -0.0575  A
ATOM     26  C6  AR1 L   1      12.003  -8.209  -2.749  1.00  0.00    -0.0341  A
ATOM     27 C23  AR1 L   1      11.036  -8.144  -1.732  1.00  0.00    -0.0575  A
ATOM     28 C24  AR1 L   1      11.124  -7.190  -0.715  1.00  0.00    -0.0561  A
ATOM     29 H28  AR1 L   1      13.972  -5.620  -1.714  1.00  0.00    +0.0621  H
ATOM     30 H29  AR1 L   1      13.826  -7.285  -3.491  1.00  0.00    +0.0621  H
ATOM     31 H42  AR1 L   1      10.204  -8.846  -1.718  1.00  0.00    +0.0621  H
ATOM     32 H43  AR1 L   1      10.361  -7.163   0.060  1.00  0.00    +0.0621  H
BRANCH 23 34
ATOM     33  O1  AR1 L   1      10.974  -4.745   0.715  1.00  0.00    -0.3904 OA
ATOM     34  C2  AR1 L   1      12.269  -5.238   0.395  1.00  0.00    +0.0692  C
ATOM     35 H25  AR1 L   1      10.346  -5.125   0.077  1.00  0.00    +0.2098 HD
ATOM     36 H26  AR1 L   1      12.893  -4.395   0.080  1.00  0.00    +0.0607  H
ATOM     37 H27  AR1 L   1      12.719  -5.655   1.302  1.00  0.00    +0.0607  H
ENDBRANCH 23 34
ENDBRANCH 21 26
BRANCH 21 38
ATOM     38  C8  AR1 L   1      11.450 -10.641  -3.300  1.00  0.00    +0.0085  C
ATOM     39  N9  AR1 L   1      11.894 -11.775  -4.134  1.00  0.00    -0.3289 NA
ATOM     40 H31  AR1 L   1      11.880 -10.772  -2.300  1.00  0.00    +0.0432  H
ATOM     41 H32  AR1 L   1      10.361 -10.700  -3.192  1.00  0.00    +0.0432  H
ATOM     42 H33  AR1 L   1      11.555 -12.639  -3.703  1.00  0.00    +0.1182 HD
ATOM     43 H34  AR1 L   1      11.399 -11.723  -5.030  1.00  0.00    +0.1182 HD
ENDBRANCH 21 38
ENDBRANCH 17 21
ENDBRANCH 1 19
TORSDOF 5
ENDMDL
MODEL 11
REMARK VINA RESULT:    -5.798     10.551     13.583
REMARK INTER + INTRA:          -8.243
REMARK INTER:                  -7.628
REMARK INTRA:                  -0.616
REMARK UNBOUND:                -0.751
ROOT
ATOM      1 C13  AR1 L   1      10.554  -8.456 -12.011  1.00  0.00    +0.0423  A
ATOM      2 C14  AR1 L   1      10.288  -7.864 -13.250  1.00  0.00    -0.0377  A
ATOM      3 C15  AR1 L   1      11.257  -7.092 -13.897  1.00  0.00    -0.0506  A
ATOM      4 C16  AR1 L   1      12.517  -6.901 -13.308  1.00  0.00    +0.0004  A
ATOM      5 C17  AR1 L   1      13.528  -6.142 -13.903  1.00  0.00    +0.0353  A
ATOM      6 N18  AR1 L   1      14.752  -5.936 -13.365  1.00  0.00    -0.2626 NA
ATOM      7 C19  AR1 L   1      14.986  -6.516 -12.171  1.00  0.00    +0.0281  A
ATOM      8 C20  AR1 L   1      14.059  -7.289 -11.490  1.00  0.00    -0.0358  A
ATOM      9 C21  AR1 L   1      12.797  -7.491 -12.061  1.00  0.00    -0.0131  A
ATOM     10 C22  AR1 L   1      11.809  -8.264 -11.425  1.00  0.00    -0.0305  A
ATOM     11 H36  AR1 L   1       9.320  -7.995 -13.730  1.00  0.00    +0.0638  H
ATOM     12 H37  AR1 L   1      11.023  -6.644 -14.860  1.00  0.00    +0.0625  H
ATOM     13 H38  AR1 L   1      13.375  -5.659 -14.866  1.00  0.00    +0.0836  H
ATOM     14 H39  AR1 L   1      15.975  -6.339 -11.756  1.00  0.00    +0.0830  H
ATOM     15 H40  AR1 L   1      14.320  -7.724 -10.530  1.00  0.00    +0.0639  H
ATOM     16 H41  AR1 L   1      12.043  -8.710 -10.463  1.00  0.00    +0.0644  H
ENDROOT
BRANCH 1 19
ATOM     17 C10  AR1 L   1       8.244  -8.802 -11.083  1.00  0.00    +0.2339  C
ATOM     18 O11  AR1 L   1       7.791  -7.668 -11.229  1.00  0.00    -0.2722 OA
ATOM     19 N12  AR1 L   1       9.519  -9.213 -11.431  1.00  0.00    -0.3256  N
ATOM     20 H35  AR1 L   1       9.728 -10.195 -11.230  1.00  0.00    +0.1686 HD
BRANCH 17 21
ATOM     21  C7  AR1 L   1       7.358  -9.925 -10.514  1.00  0.00    +0.0752  C
ATOM     22 H30  AR1 L   1       7.713 -10.824 -11.042  1.00  0.00    +0.0458  H
BRANCH 21 26
ATOM     23  C3  AR1 L   1       8.000 -10.599  -6.260  1.00  0.00    -0.0222  A
ATOM     24  C4  AR1 L   1       7.551 -11.646  -7.074  1.00  0.00    -0.0561  A
ATOM     25  C5  AR1 L   1       7.332 -11.442  -8.439  1.00  0.00    -0.0575  A
ATOM     26  C6  AR1 L   1       7.560 -10.188  -9.025  1.00  0.00    -0.0341  A
ATOM     27 C23  AR1 L   1       8.028  -9.147  -8.205  1.00  0.00    -0.0575  A
ATOM     28 C24  AR1 L   1       8.248  -9.350  -6.840  1.00  0.00    -0.0561  A
ATOM     29 H28  AR1 L   1       7.362 -12.629  -6.648  1.00  0.00    +0.0621  H
ATOM     30 H29  AR1 L   1       6.973 -12.282  -9.030  1.00  0.00    +0.0621  H
ATOM     31 H42  AR1 L   1       8.220  -8.161  -8.624  1.00  0.00    +0.0621  H
ATOM     32 H43  AR1 L   1       8.611  -8.525  -6.230  1.00  0.00    +0.0621  H
BRANCH 23 34
ATOM     33  O1  AR1 L   1       8.665  -9.613  -4.168  1.00  0.00    -0.3904 OA
ATOM     34  C2  AR1 L   1       8.258 -10.823  -4.795  1.00  0.00    +0.0692  C
ATOM     35 H25  AR1 L   1       8.784  -8.944  -4.864  1.00  0.00    +0.2098 HD
ATOM     36 H26  AR1 L   1       9.043 -11.571  -4.647  1.00  0.00    +0.0607  H
ATOM     37 H27  AR1 L   1       7.357 -11.192  -4.293  1.00  0.00    +0.0607  H
ENDBRANCH 23 34
ENDBRANCH 21 26
BRANCH 21 38
ATOM     38  C8  AR1 L   1       5.865  -9.781 -10.892  1.00  0.00    +0.0085  C
ATOM     39  N9  AR1 L   1       5.107  -8.855 -10.028  1.00  0.00    -0.3289 NA
ATOM     40 H31  AR1 L   1       5.787  -9.416 -11.924  1.00  0.00    +0.0432  H
ATOM     41 H32  AR1 L   1       5.375 -10.761 -10.860  1.00  0.00    +0.0432  H
ATOM     42 H33  AR1 L   1       4.132  -8.855 -10.340  1.00  0.00    +0.1182 HD
ATOM     43 H34  AR1 L   1       5.076  -9.256  -9.085  1.00  0.00    +0.1182 HD
ENDBRANCH 21 38
ENDBRANCH 17 21
ENDBRANCH 1 19
TORSDOF 5
ENDMDL
MODEL 12
REMARK VINA RESULT:    -5.646      3.834      7.475
REMARK INTER + INTRA:          -8.047
REMARK INTER:                  -7.466
REMARK INTRA:                  -0.581
REMARK UNBOUND:                -0.751
ROOT
ATOM      1 C13  AR1 L   1       9.517  -6.809   6.284  1.00  0.00    +0.0423  A
ATOM      2 C14  AR1 L   1      10.312  -7.393   7.276  1.00  0.00    -0.0377  A
ATOM      3 C15  AR1 L   1      10.002  -8.656   7.788  1.00  0.00    -0.0506  A
ATOM      4 C16  AR1 L   1       8.883  -9.358   7.312  1.00  0.00    +0.0004  A
ATOM      5 C17  AR1 L   1       8.520 -10.622   7.782  1.00  0.00    +0.0353  A
ATOM      6 N18  AR1 L   1       7.450 -11.326   7.347  1.00  0.00    -0.2626 NA
ATOM      7 C19  AR1 L   1       6.698 -10.743   6.391  1.00  0.00    +0.0281  A
ATOM      8 C20  AR1 L   1       6.964  -9.494   5.851  1.00  0.00    -0.0358  A
ATOM      9 C21  AR1 L   1       8.075  -8.780   6.314  1.00  0.00    -0.0131  A
ATOM     10 C22  AR1 L   1       8.403  -7.507   5.811  1.00  0.00    -0.0305  A
ATOM     11 H36  AR1 L   1      11.185  -6.873   7.665  1.00  0.00    +0.0638  H
ATOM     12 H37  AR1 L   1      10.637  -9.087   8.559  1.00  0.00    +0.0625  H
ATOM     13 H38  AR1 L   1       9.102 -11.123   8.552  1.00  0.00    +0.0836  H
ATOM     14 H39  AR1 L   1       5.844 -11.324   6.055  1.00  0.00    +0.0830  H
ATOM     15 H40  AR1 L   1       6.312  -9.088   5.083  1.00  0.00    +0.0639  H
ATOM     16 H41  AR1 L   1       7.767  -7.077   5.043  1.00  0.00    +0.0644  H
ENDROOT
BRANCH 1 19
ATOM     17 C10  AR1 L   1       9.661  -4.303   6.414  1.00  0.00    +0.2339  C
ATOM     18 O11  AR1 L   1       9.051  -4.115   7.465  1.00  0.00    -0.2722 OA
ATOM     19 N12  AR1 L   1       9.902  -5.534   5.829  1.00  0.00    -0.3256  N
ATOM     20 H35  AR1 L   1      10.422  -5.501   4.948  1.00  0.00    +0.1686 HD
BRANCH 17 21
ATOM     21  C7  AR1 L   1      10.281  -3.116   5.655  1.00  0.00    +0.0752  C
ATOM     22 H30  AR1 L   1      10.885  -2.608   6.423  1.00  0.00    +0.0458  H
BRANCH 21 26
ATOM     23  C3  AR1 L   1      12.953  -4.319   2.434  1.00  0.00    -0.0222  A
ATOM     24  C4  AR1 L   1      13.479  -3.951   3.677  1.00  0.00    -0.0561  A
ATOM     25  C5  AR1 L   1      12.635  -3.554   4.718  1.00  0.00    -0.0575  A
ATOM     26  C6  AR1 L   1      11.243  -3.519   4.542  1.00  0.00    -0.0341  A
ATOM     27 C23  AR1 L   1      10.722  -3.908   3.297  1.00  0.00    -0.0575  A
ATOM     28 C24  AR1 L   1      11.566  -4.306   2.256  1.00  0.00    -0.0561  A
ATOM     29 H28  AR1 L   1      14.554  -3.964   3.844  1.00  0.00    +0.0621  H
ATOM     30 H29  AR1 L   1      13.089  -3.266   5.664  1.00  0.00    +0.0621  H
ATOM     31 H42  AR1 L   1       9.647  -3.898   3.122  1.00  0.00    +0.0621  H
ATOM     32 H43  AR1 L   1      11.133  -4.602   1.302  1.00  0.00    +0.0621  H
BRANCH 23 34
ATOM     33  O1  AR1 L   1      14.873  -3.802   1.080  1.00  0.00    -0.3904 OA
ATOM     34  C2  AR1 L   1      13.859  -4.769   1.320  1.00  0.00    +0.0692  C
ATOM     35 H25  AR1 L   1      14.675  -3.022   1.626  1.00  0.00    +0.2098 HD
ATOM     36 H26  AR1 L   1      13.296  -4.918   0.394  1.00  0.00    +0.0607  H
ATOM     37 H27  AR1 L   1      14.337  -5.722   1.569  1.00  0.00    +0.0607  H
ENDBRANCH 23 34
ENDBRANCH 21 26
BRANCH 21 38
ATOM     38  C8  AR1 L   1       9.239  -2.073   5.188  1.00  0.00    +0.0085  C
ATOM     39  N9  AR1 L   1       8.739  -1.193   6.262  1.00  0.00    -0.3289 NA
ATOM     40 H31  AR1 L   1       9.685  -1.437   4.414  1.00  0.00    +0.0432  H
ATOM     41 H32  AR1 L   1       8.381  -2.581   4.732  1.00  0.00    +0.0432  H
ATOM     42 H33  AR1 L   1       8.037  -0.566   5.860  1.00  0.00    +0.1182 HD
ATOM     43 H34  AR1 L   1       8.215  -1.771   6.928  1.00  0.00    +0.1182 HD
ENDBRANCH 21 38
ENDBRANCH 17 21
ENDBRANCH 1 19
TORSDOF 5
ENDMDL
MODEL 13
REMARK VINA RESULT:    -5.640      5.397     10.669
REMARK INTER + INTRA:          -8.039
REMARK INTER:                  -7.110
REMARK INTRA:                  -0.929
REMARK UNBOUND:                -0.751
ROOT
ATOM      1 C13  AR1 L   1      11.741  -8.189  -2.940  1.00  0.00    +0.0423  A
ATOM      2 C14  AR1 L   1      13.038  -7.743  -3.220  1.00  0.00    -0.0377  A
ATOM      3 C15  AR1 L   1      13.669  -6.813  -2.389  1.00  0.00    -0.0506  A
ATOM      4 C16  AR1 L   1      13.006  -6.312  -1.258  1.00  0.00    +0.0004  A
ATOM      5 C17  AR1 L   1      13.582  -5.382  -0.388  1.00  0.00    +0.0353  A
ATOM      6 N18  AR1 L   1      12.974  -4.878   0.710  1.00  0.00    -0.2626 NA
ATOM      7 C19  AR1 L   1      11.725  -5.321   0.960  1.00  0.00    +0.0281  A
ATOM      8 C20  AR1 L   1      11.057  -6.241   0.167  1.00  0.00    -0.0358  A
ATOM      9 C21  AR1 L   1      11.702  -6.752  -0.965  1.00  0.00    -0.0131  A
ATOM     10 C22  AR1 L   1      11.082  -7.689  -1.814  1.00  0.00    -0.0305  A
ATOM     11 H36  AR1 L   1      13.575  -8.114  -4.091  1.00  0.00    +0.0638  H
ATOM     12 H37  AR1 L   1      14.677  -6.485  -2.630  1.00  0.00    +0.0625  H
ATOM     13 H38  AR1 L   1      14.587  -5.002  -0.558  1.00  0.00    +0.0836  H
ATOM     14 H39  AR1 L   1      11.254  -4.904   1.846  1.00  0.00    +0.0830  H
ATOM     15 H40  AR1 L   1      10.050  -6.551   0.431  1.00  0.00    +0.0639  H
ATOM     16 H41  AR1 L   1      10.074  -8.014  -1.573  1.00  0.00    +0.0644  H
ENDROOT
BRANCH 1 19
ATOM     17 C10  AR1 L   1      10.722  -8.913  -5.121  1.00  0.00    +0.2339  C
ATOM     18 O11  AR1 L   1      10.727  -7.839  -5.718  1.00  0.00    -0.2722 OA
ATOM     19 N12  AR1 L   1      11.183  -9.122  -3.832  1.00  0.00    -0.3256  N
ATOM     20 H35  AR1 L   1      11.094 -10.084  -3.491  1.00  0.00    +0.1686 HD
BRANCH 17 21
ATOM     21  C7  AR1 L   1      10.220 -10.188  -5.822  1.00  0.00    +0.0752  C
ATOM     22 H30  AR1 L   1       9.722 -10.746  -5.013  1.00  0.00    +0.0458  H
BRANCH 21 26
ATOM     23  C3  AR1 L   1       7.275  -9.450  -8.943  1.00  0.00    -0.0222  A
ATOM     24  C4  AR1 L   1       6.902  -9.366  -7.596  1.00  0.00    -0.0561  A
ATOM     25  C5  AR1 L   1       7.834  -9.610  -6.583  1.00  0.00    -0.0575  A
ATOM     26  C6  AR1 L   1       9.162  -9.938  -6.893  1.00  0.00    -0.0341  A
ATOM     27 C23  AR1 L   1       9.533 -10.002  -8.246  1.00  0.00    -0.0575  A
ATOM     28 C24  AR1 L   1       8.602  -9.758  -9.259  1.00  0.00    -0.0561  A
ATOM     29 H28  AR1 L   1       5.878  -9.117  -7.325  1.00  0.00    +0.0621  H
ATOM     30 H29  AR1 L   1       7.496  -9.543  -5.551  1.00  0.00    +0.0621  H
ATOM     31 H42  AR1 L   1      10.555 -10.251  -8.525  1.00  0.00    +0.0621  H
ATOM     32 H43  AR1 L   1       8.918  -9.815 -10.299  1.00  0.00    +0.0621  H
BRANCH 23 34
ATOM     33  O1  AR1 L   1       5.141  -8.493  -9.509  1.00  0.00    -0.3904 OA
ATOM     34  C2  AR1 L   1       6.278  -9.166 -10.034  1.00  0.00    +0.0692  C
ATOM     35 H25  AR1 L   1       5.230  -8.471  -8.541  1.00  0.00    +0.2098 HD
ATOM     36 H26  AR1 L   1       5.944 -10.094 -10.508  1.00  0.00    +0.0607  H
ATOM     37 H27  AR1 L   1       6.724  -8.543 -10.815  1.00  0.00    +0.0607  H
ENDBRANCH 23 34
ENDBRANCH 21 26
BRANCH 21 38
ATOM     38  C8  AR1 L   1      11.361 -11.106  -6.319  1.00  0.00    +0.0085  C
ATOM     39  N9  AR1 L   1      12.698 -10.484  -6.286  1.00  0.00    -0.3289 NA
ATOM     40 H31  AR1 L   1      11.396 -12.009  -5.697  1.00  0.00    +0.0432  H
ATOM     41 H32  AR1 L   1      11.158 -11.431  -7.346  1.00  0.00    +0.0432  H
ATOM     42 H33  AR1 L   1      13.372 -11.156  -6.661  1.00  0.00    +0.1182 HD
ATOM     43 H34  AR1 L   1      12.704  -9.710  -6.960  1.00  0.00    +0.1182 HD
ENDBRANCH 21 38
ENDBRANCH 17 21
ENDBRANCH 1 19
TORSDOF 5
ENDMDL
MODEL 14
REMARK VINA RESULT:    -5.635      5.062      8.676
REMARK INTER + INTRA:          -8.033
REMARK INTER:                  -7.244
REMARK INTRA:                  -0.789
REMARK UNBOUND:                -0.751
ROOT
ATOM      1 C13  AR1 L   1      10.769  -7.818  -7.046  1.00  0.00    +0.0423  A
ATOM      2 C14  AR1 L   1      11.115  -7.247  -8.276  1.00  0.00    -0.0377  A
ATOM      3 C15  AR1 L   1      10.238  -7.305  -9.363  1.00  0.00    -0.0506  A
ATOM      4 C16  AR1 L   1       8.993  -7.940  -9.234  1.00  0.00    +0.0004  A
ATOM      5 C17  AR1 L   1       8.073  -8.031 -10.282  1.00  0.00    +0.0353  A
ATOM      6 N18  AR1 L   1       6.866  -8.635 -10.194  1.00  0.00    -0.2626 NA
ATOM      7 C19  AR1 L   1       6.554  -9.179  -9.000  1.00  0.00    +0.0281  A
ATOM      8 C20  AR1 L   1       7.387  -9.148  -7.894  1.00  0.00    -0.0358  A
ATOM      9 C21  AR1 L   1       8.633  -8.519  -8.003  1.00  0.00    -0.0131  A
ATOM     10 C22  AR1 L   1       9.529  -8.451  -6.919  1.00  0.00    -0.0305  A
ATOM     11 H36  AR1 L   1      12.073  -6.749  -8.405  1.00  0.00    +0.0638  H
ATOM     12 H37  AR1 L   1      10.533  -6.852 -10.307  1.00  0.00    +0.0625  H
ATOM     13 H38  AR1 L   1       8.290  -7.605 -11.258  1.00  0.00    +0.0836  H
ATOM     14 H39  AR1 L   1       5.580  -9.659  -8.950  1.00  0.00    +0.0830  H
ATOM     15 H40  AR1 L   1       7.068  -9.609  -6.963  1.00  0.00    +0.0639  H
ATOM     16 H41  AR1 L   1       9.234  -8.906  -5.978  1.00  0.00    +0.0644  H
ENDROOT
BRANCH 1 19
ATOM     17 C10  AR1 L   1      12.405  -8.731  -5.371  1.00  0.00    +0.2339  C
ATOM     18 O11  AR1 L   1      12.304  -9.932  -5.617  1.00  0.00    -0.2722 OA
ATOM     19 N12  AR1 L   1      11.713  -7.716  -6.009  1.00  0.00    -0.3256  N
ATOM     20 H35  AR1 L   1      11.918  -6.772  -5.668  1.00  0.00    +0.1686 HD
BRANCH 17 21
ATOM     21  C7  AR1 L   1      13.403  -8.239  -4.308  1.00  0.00    +0.0752  C
ATOM     22 H30  AR1 L   1      13.882  -7.371  -4.789  1.00  0.00    +0.0458  H
BRANCH 21 26
ATOM     23  C3  AR1 L   1      11.630  -6.721  -0.631  1.00  0.00    -0.0222  A
ATOM     24  C4  AR1 L   1      11.055  -7.818  -1.284  1.00  0.00    -0.0561  A
ATOM     25  C5  AR1 L   1      11.607  -8.310  -2.470  1.00  0.00    -0.0575  A
ATOM     26  C6  AR1 L   1      12.751  -7.721  -3.029  1.00  0.00    -0.0341  A
ATOM     27 C23  AR1 L   1      13.333  -6.633  -2.359  1.00  0.00    -0.0575  A
ATOM     28 C24  AR1 L   1      12.782  -6.140  -1.173  1.00  0.00    -0.0561  A
ATOM     29 H28  AR1 L   1      10.166  -8.294  -0.876  1.00  0.00    +0.0621  H
ATOM     30 H29  AR1 L   1      11.120  -9.158  -2.947  1.00  0.00    +0.0621  H
ATOM     31 H42  AR1 L   1      14.223  -6.151  -2.760  1.00  0.00    +0.0621  H
ATOM     32 H43  AR1 L   1      13.254  -5.295  -0.675  1.00  0.00    +0.0621  H
BRANCH 23 34
ATOM     33  O1  AR1 L   1      11.029  -4.783   0.662  1.00  0.00    -0.3904 OA
ATOM     34  C2  AR1 L   1      11.050  -6.204   0.657  1.00  0.00    +0.0692  C
ATOM     35 H25  AR1 L   1      11.499  -4.477  -0.133  1.00  0.00    +0.2098 HD
ATOM     36 H26  AR1 L   1      11.638  -6.546   1.515  1.00  0.00    +0.0607  H
ATOM     37 H27  AR1 L   1      10.027  -6.570   0.797  1.00  0.00    +0.0607  H
ENDBRANCH 23 34
ENDBRANCH 21 26
BRANCH 21 38
ATOM     38  C8  AR1 L   1      14.545  -9.242  -4.025  1.00  0.00    +0.0085  C
ATOM     39  N9  AR1 L   1      15.287  -9.669  -5.227  1.00  0.00    -0.3289 NA
ATOM     40 H31  AR1 L   1      15.263  -8.787  -3.332  1.00  0.00    +0.0432  H
ATOM     41 H32  AR1 L   1      14.144 -10.136  -3.533  1.00  0.00    +0.0432  H
ATOM     42 H33  AR1 L   1      15.995 -10.350  -4.940  1.00  0.00    +0.1182 HD
ATOM     43 H34  AR1 L   1      14.646 -10.201  -5.824  1.00  0.00    +0.1182 HD
ENDBRANCH 21 38
ENDBRANCH 17 21
ENDBRANCH 1 19
TORSDOF 5
ENDMDL
MODEL 15
REMARK VINA RESULT:    -5.611      1.563      2.696
REMARK INTER + INTRA:          -8.002
REMARK INTER:                  -7.419
REMARK INTRA:                  -0.583
REMARK UNBOUND:                -0.751
ROOT
ATOM      1 C13  AR1 L   1      12.231  -6.239  -0.775  1.00  0.00    +0.0423  A
ATOM      2 C14  AR1 L   1      11.095  -7.049  -0.670  1.00  0.00    -0.0377  A
ATOM      3 C15  AR1 L   1      10.869  -8.086  -1.580  1.00  0.00    -0.0506  A
ATOM      4 C16  AR1 L   1      11.784  -8.329  -2.616  1.00  0.00    +0.0004  A
ATOM      5 C17  AR1 L   1      11.616  -9.348  -3.557  1.00  0.00    +0.0353  A
ATOM      6 N18  AR1 L   1      12.476  -9.611  -4.568  1.00  0.00    -0.2626 NA
ATOM      7 C19  AR1 L   1      13.563  -8.817  -4.650  1.00  0.00    +0.0281  A
ATOM      8 C20  AR1 L   1      13.832  -7.778  -3.774  1.00  0.00    -0.0358  A
ATOM      9 C21  AR1 L   1      12.931  -7.521  -2.734  1.00  0.00    -0.0131  A
ATOM     10 C22  AR1 L   1      13.141  -6.481  -1.808  1.00  0.00    -0.0305  A
ATOM     11 H36  AR1 L   1      10.369  -6.884   0.124  1.00  0.00    +0.0638  H
ATOM     12 H37  AR1 L   1       9.978  -8.701  -1.474  1.00  0.00    +0.0625  H
ATOM     13 H38  AR1 L   1      10.752 -10.008  -3.521  1.00  0.00    +0.0836  H
ATOM     14 H39  AR1 L   1      14.241  -9.044  -5.469  1.00  0.00    +0.0830  H
ATOM     15 H40  AR1 L   1      14.729  -7.180  -3.904  1.00  0.00    +0.0639  H
ATOM     16 H41  AR1 L   1      14.030  -5.867  -1.917  1.00  0.00    +0.0644  H
ENDROOT
BRANCH 1 19
ATOM     17 C10  AR1 L   1      12.963  -5.288   1.433  1.00  0.00    +0.2339  C
ATOM     18 O11  AR1 L   1      13.474  -6.290   1.931  1.00  0.00    -0.2722 OA
ATOM     19 N12  AR1 L   1      12.376  -5.218   0.181  1.00  0.00    -0.3256  N
ATOM     20 H35  AR1 L   1      11.994  -4.301  -0.067  1.00  0.00    +0.1686 HD
BRANCH 17 21
ATOM     21  C7  AR1 L   1      12.986  -3.948   2.191  1.00  0.00    +0.0752  C
ATOM     22 H30  AR1 L   1      12.737  -3.210   1.412  1.00  0.00    +0.0458  H
BRANCH 21 26
ATOM     23  C3  AR1 L   1       9.858  -3.614   5.200  1.00  0.00    -0.0222  A
ATOM     24  C4  AR1 L   1      11.037  -2.872   5.334  1.00  0.00    -0.0561  A
ATOM     25  C5  AR1 L   1      12.054  -2.976   4.380  1.00  0.00    -0.0575  A
ATOM     26  C6  AR1 L   1      11.914  -3.820   3.269  1.00  0.00    -0.0341  A
ATOM     27 C23  AR1 L   1      10.720  -4.547   3.133  1.00  0.00    -0.0575  A
ATOM     28 C24  AR1 L   1       9.702  -4.443   4.085  1.00  0.00    -0.0561  A
ATOM     29 H28  AR1 L   1      11.176  -2.211   6.187  1.00  0.00    +0.0621  H
ATOM     30 H29  AR1 L   1      12.958  -2.388   4.530  1.00  0.00    +0.0621  H
ATOM     31 H42  AR1 L   1      10.573  -5.210   2.282  1.00  0.00    +0.0621  H
ATOM     32 H43  AR1 L   1       8.788  -5.018   3.954  1.00  0.00    +0.0621  H
BRANCH 23 34
ATOM     33  O1  AR1 L   1       7.682  -4.366   5.901  1.00  0.00    -0.3904 OA
ATOM     34  C2  AR1 L   1       8.753  -3.485   6.214  1.00  0.00    +0.0692  C
ATOM     35 H25  AR1 L   1       7.873  -4.769   5.037  1.00  0.00    +0.2098 HD
ATOM     36 H26  AR1 L   1       8.365  -2.462   6.242  1.00  0.00    +0.0607  H
ATOM     37 H27  AR1 L   1       9.118  -3.722   7.219  1.00  0.00    +0.0607  H
ENDBRANCH 23 34
ENDBRANCH 21 26
BRANCH 21 38
ATOM     38  C8  AR1 L   1      14.391  -3.555   2.703  1.00  0.00    +0.0085  C
ATOM     39  N9  AR1 L   1      15.002  -2.419   1.987  1.00  0.00    -0.3289 NA
ATOM     40 H31  AR1 L   1      14.328  -3.288   3.765  1.00  0.00    +0.0432  H
ATOM     41 H32  AR1 L   1      15.069  -4.413   2.627  1.00  0.00    +0.0432  H
ATOM     42 H33  AR1 L   1      15.935  -2.260   2.377  1.00  0.00    +0.1182 HD
ATOM     43 H34  AR1 L   1      15.174  -2.709   1.019  1.00  0.00    +0.1182 HD
ENDBRANCH 21 38
ENDBRANCH 17 21
ENDBRANCH 1 19
TORSDOF 5
ENDMDL
MODEL 16
REMARK VINA RESULT:    -5.587     11.015     13.834
REMARK INTER + INTRA:          -7.971
REMARK INTER:                  -7.383
REMARK INTRA:                  -0.588
REMARK UNBOUND:                -0.751
ROOT
ATOM      1 C13  AR1 L   1      10.425  -8.217 -10.969  1.00  0.00    +0.0423  A
ATOM      2 C14  AR1 L   1       9.894  -8.090 -12.257  1.00  0.00    -0.0377  A
ATOM      3 C15  AR1 L   1      10.694  -7.666 -13.321  1.00  0.00    -0.0506  A
ATOM      4 C16  AR1 L   1      12.047  -7.360 -13.111  1.00  0.00    +0.0004  A
ATOM      5 C17  AR1 L   1      12.899  -6.932 -14.133  1.00  0.00    +0.0353  A
ATOM      6 N18  AR1 L   1      14.207  -6.629 -13.966  1.00  0.00    -0.2626 NA
ATOM      7 C19  AR1 L   1      14.697  -6.758 -12.716  1.00  0.00    +0.0281  A
ATOM      8 C20  AR1 L   1      13.946  -7.174 -11.629  1.00  0.00    -0.0358  A
ATOM      9 C21  AR1 L   1      12.594  -7.483 -11.820  1.00  0.00    -0.0131  A
ATOM     10 C22  AR1 L   1      11.773  -7.912 -10.760  1.00  0.00    -0.0305  A
ATOM     11 H36  AR1 L   1       8.848  -8.320 -12.449  1.00  0.00    +0.0638  H
ATOM     12 H37  AR1 L   1      10.255  -7.577 -14.313  1.00  0.00    +0.0625  H
ATOM     13 H38  AR1 L   1      12.539  -6.817 -15.152  1.00  0.00    +0.0836  H
ATOM     14 H39  AR1 L   1      15.749  -6.510 -12.604  1.00  0.00    +0.0830  H
ATOM     15 H40  AR1 L   1      14.410  -7.254 -10.650  1.00  0.00    +0.0639  H
ATOM     16 H41  AR1 L   1      12.212  -7.998  -9.770  1.00  0.00    +0.0644  H
ENDROOT
BRANCH 1 19
ATOM     17 C10  AR1 L   1       9.174  -7.982  -8.801  1.00  0.00    +0.2339  C
ATOM     18 O11  AR1 L   1       9.563  -6.867  -8.458  1.00  0.00    -0.2722 OA
ATOM     19 N12  AR1 L   1       9.547  -8.646  -9.957  1.00  0.00    -0.3256  N
ATOM     20 H35  AR1 L   1       9.128  -9.573 -10.078  1.00  0.00    +0.1686 HD
BRANCH 17 21
ATOM     21  C7  AR1 L   1       8.146  -8.743  -7.945  1.00  0.00    +0.0752  C
ATOM     22 H30  AR1 L   1       7.644  -7.943  -7.378  1.00  0.00    +0.0458  H
BRANCH 21 26
ATOM     23  C3  AR1 L   1       5.010 -10.673 -10.269  1.00  0.00    -0.0222  A
ATOM     24  C4  AR1 L   1       5.655 -11.377  -9.245  1.00  0.00    -0.0561  A
ATOM     25  C5  AR1 L   1       6.670 -10.774  -8.496  1.00  0.00    -0.0575  A
ATOM     26  C6  AR1 L   1       7.061  -9.451  -8.751  1.00  0.00    -0.0341  A
ATOM     27 C23  AR1 L   1       6.396  -8.745  -9.767  1.00  0.00    -0.0575  A
ATOM     28 C24  AR1 L   1       5.381  -9.347 -10.515  1.00  0.00    -0.0561  A
ATOM     29 H28  AR1 L   1       5.376 -12.405  -9.027  1.00  0.00    +0.0621  H
ATOM     30 H29  AR1 L   1       7.150 -11.363  -7.718  1.00  0.00    +0.0621  H
ATOM     31 H42  AR1 L   1       6.669  -7.715  -9.991  1.00  0.00    +0.0621  H
ATOM     32 H43  AR1 L   1       4.884  -8.776 -11.297  1.00  0.00    +0.0621  H
BRANCH 23 34
ATOM     33  O1  AR1 L   1       2.813 -11.653 -10.211  1.00  0.00    -0.3904 OA
ATOM     34  C2  AR1 L   1       3.902 -11.314 -11.060  1.00  0.00    +0.0692  C
ATOM     35 H25  AR1 L   1       3.089 -11.487  -9.294  1.00  0.00    +0.2098 HD
ATOM     36 H26  AR1 L   1       4.253 -12.224 -11.556  1.00  0.00    +0.0607  H
ATOM     37 H27  AR1 L   1       3.539 -10.636 -11.840  1.00  0.00    +0.0607  H
ENDBRANCH 23 34
ENDBRANCH 21 26
BRANCH 21 38
ATOM     38  C8  AR1 L   1       8.791  -9.664  -6.883  1.00  0.00    +0.0085  C
ATOM     39  N9  AR1 L   1       9.662  -8.962  -5.921  1.00  0.00    -0.3289 NA
ATOM     40 H31  AR1 L   1       8.001 -10.169  -6.314  1.00  0.00    +0.0432  H
ATOM     41 H32  AR1 L   1       9.382 -10.445  -7.376  1.00  0.00    +0.0432  H
ATOM     42 H33  AR1 L   1      10.063  -9.658  -5.286  1.00  0.00    +0.1182 HD
ATOM     43 H34  AR1 L   1      10.468  -8.591  -6.435  1.00  0.00    +0.1182 HD
ENDBRANCH 21 38
ENDBRANCH 17 21
ENDBRANCH 1 19
TORSDOF 5
ENDMDL
MODEL 17
REMARK VINA RESULT:    -5.579      5.406      8.837
REMARK INTER + INTRA:          -7.961
REMARK INTER:                  -7.043
REMARK INTRA:                  -0.917
REMARK UNBOUND:                -0.751
ROOT
ATOM      1 C13  AR1 L   1       9.997  -8.909  -6.257  1.00  0.00    +0.0423  A
ATOM      2 C14  AR1 L   1      10.712  -7.984  -7.025  1.00  0.00    -0.0377  A
ATOM      3 C15  AR1 L   1      10.231  -7.564  -8.268  1.00  0.00    -0.0506  A
ATOM      4 C16  AR1 L   1       9.019  -8.068  -8.765  1.00  0.00    +0.0004  A
ATOM      5 C17  AR1 L   1       8.485  -7.689  -9.999  1.00  0.00    +0.0353  A
ATOM      6 N18  AR1 L   1       7.322  -8.154 -10.509  1.00  0.00    -0.2626 NA
ATOM      7 C19  AR1 L   1       6.650  -9.045  -9.752  1.00  0.00    +0.0281  A
ATOM      8 C20  AR1 L   1       7.084  -9.492  -8.514  1.00  0.00    -0.0358  A
ATOM      9 C21  AR1 L   1       8.291  -9.000  -8.002  1.00  0.00    -0.0131  A
ATOM     10 C22  AR1 L   1       8.790  -9.411  -6.752  1.00  0.00    -0.0305  A
ATOM     11 H36  AR1 L   1      11.654  -7.576  -6.665  1.00  0.00    +0.0638  H
ATOM     12 H37  AR1 L   1      10.807  -6.843  -8.844  1.00  0.00    +0.0625  H
ATOM     13 H38  AR1 L   1       8.999  -6.973 -10.637  1.00  0.00    +0.0836  H
ATOM     14 H39  AR1 L   1       5.718  -9.407 -10.179  1.00  0.00    +0.0830  H
ATOM     15 H40  AR1 L   1       6.489 -10.213  -7.961  1.00  0.00    +0.0639  H
ATOM     16 H41  AR1 L   1       8.215 -10.133  -6.179  1.00  0.00    +0.0644  H
ENDROOT
BRANCH 1 19
ATOM     17 C10  AR1 L   1      11.698 -10.023  -4.779  1.00  0.00    +0.2339  C
ATOM     18 O11  AR1 L   1      12.436 -10.501  -5.638  1.00  0.00    -0.2722 OA
ATOM     19 N12  AR1 L   1      10.556  -9.277  -5.019  1.00  0.00    -0.3256  N
ATOM     20 H35  AR1 L   1      10.059  -8.964  -4.181  1.00  0.00    +0.1686 HD
BRANCH 17 21
ATOM     21  C7  AR1 L   1      12.037 -10.185  -3.286  1.00  0.00    +0.0752  C
ATOM     22 H30  AR1 L   1      13.070 -10.568  -3.299  1.00  0.00    +0.0458  H
BRANCH 21 26
ATOM     23  C3  AR1 L   1      12.228  -6.444  -1.067  1.00  0.00    -0.0222  A
ATOM     24  C4  AR1 L   1      11.145  -7.311  -0.883  1.00  0.00    -0.0561  A
ATOM     25  C5  AR1 L   1      11.065  -8.512  -1.595  1.00  0.00    -0.0575  A
ATOM     26  C6  AR1 L   1      12.069  -8.875  -2.505  1.00  0.00    -0.0341  A
ATOM     27 C23  AR1 L   1      13.162  -8.009  -2.670  1.00  0.00    -0.0575  A
ATOM     28 C24  AR1 L   1      13.242  -6.809  -1.958  1.00  0.00    -0.0561  A
ATOM     29 H28  AR1 L   1      10.349  -7.055  -0.186  1.00  0.00    +0.0621  H
ATOM     30 H29  AR1 L   1      10.200  -9.149  -1.427  1.00  0.00    +0.0621  H
ATOM     31 H42  AR1 L   1      13.962  -8.258  -3.364  1.00  0.00    +0.0621  H
ATOM     32 H43  AR1 L   1      14.101  -6.157  -2.107  1.00  0.00    +0.0621  H
BRANCH 23 34
ATOM     33  O1  AR1 L   1      11.079  -4.850   0.323  1.00  0.00    -0.3904 OA
ATOM     34  C2  AR1 L   1      12.326  -5.163  -0.284  1.00  0.00    +0.0692  C
ATOM     35 H25  AR1 L   1      10.423  -5.490  -0.003  1.00  0.00    +0.2098 HD
ATOM     36 H26  AR1 L   1      12.615  -4.330  -0.933  1.00  0.00    +0.0607  H
ATOM     37 H27  AR1 L   1      13.087  -5.243   0.500  1.00  0.00    +0.0607  H
ENDBRANCH 23 34
ENDBRANCH 21 26
BRANCH 21 38
ATOM     38  C8  AR1 L   1      11.198 -11.276  -2.580  1.00  0.00    +0.0085  C
ATOM     39  N9  AR1 L   1      10.123 -11.847  -3.414  1.00  0.00    -0.3289 NA
ATOM     40 H31  AR1 L   1      11.856 -12.097  -2.273  1.00  0.00    +0.0432  H
ATOM     41 H32  AR1 L   1      10.746 -10.868  -1.669  1.00  0.00    +0.0432  H
ATOM     42 H33  AR1 L   1       9.610 -12.531  -2.850  1.00  0.00    +0.1182 HD
ATOM     43 H34  AR1 L   1       9.439 -11.106  -3.603  1.00  0.00    +0.1182 HD
ENDBRANCH 21 38
ENDBRANCH 17 21
ENDBRANCH 1 19
TORSDOF 5
ENDMDL
MODEL 18
REMARK VINA RESULT:    -5.522      7.134     11.788
REMARK INTER + INTRA:          -7.887
REMARK INTER:                  -6.974
REMARK INTRA:                  -0.913
REMARK UNBOUND:                -0.751
ROOT
ATOM      1 C13  AR1 L   1      11.753  -8.884  -5.523  1.00  0.00    +0.0423  A
ATOM      2 C14  AR1 L   1      12.865  -8.070  -5.284  1.00  0.00    -0.0377  A
ATOM      3 C15  AR1 L   1      13.401  -7.950  -3.999  1.00  0.00    -0.0506  A
ATOM      4 C16  AR1 L   1      12.825  -8.649  -2.925  1.00  0.00    +0.0004  A
ATOM      5 C17  AR1 L   1      13.313  -8.572  -1.618  1.00  0.00    +0.0353  A
ATOM      6 N18  AR1 L   1      12.785  -9.230  -0.561  1.00  0.00    -0.2626 NA
ATOM      7 C19  AR1 L   1      11.713 -10.008  -0.815  1.00  0.00    +0.0281  A
ATOM      8 C20  AR1 L   1      11.146 -10.160  -2.070  1.00  0.00    -0.0358  A
ATOM      9 C21  AR1 L   1      11.706  -9.471  -3.153  1.00  0.00    -0.0131  A
ATOM     10 C22  AR1 L   1      11.180  -9.578  -4.454  1.00  0.00    -0.0305  A
ATOM     11 H36  AR1 L   1      13.332  -7.516  -6.097  1.00  0.00    +0.0638  H
ATOM     12 H37  AR1 L   1      14.266  -7.311  -3.841  1.00  0.00    +0.0625  H
ATOM     13 H38  AR1 L   1      14.175  -7.955  -1.376  1.00  0.00    +0.0836  H
ATOM     14 H39  AR1 L   1      11.303 -10.528   0.047  1.00  0.00    +0.0830  H
ATOM     15 H40  AR1 L   1      10.281 -10.804  -2.199  1.00  0.00    +0.0639  H
ATOM     16 H41  AR1 L   1      10.315 -10.216  -4.609  1.00  0.00    +0.0644  H
ENDROOT
BRANCH 1 19
ATOM     17 C10  AR1 L   1      10.198  -8.281  -7.404  1.00  0.00    +0.2339  C
ATOM     18 O11  AR1 L   1       9.448  -7.506  -6.812  1.00  0.00    -0.2722 OA
ATOM     19 N12  AR1 L   1      11.279  -8.942  -6.847  1.00  0.00    -0.3256  N
ATOM     20 H35  AR1 L   1      11.789  -9.555  -7.488  1.00  0.00    +0.1686 HD
BRANCH 17 21
ATOM     21  C7  AR1 L   1      10.007  -8.549  -8.908  1.00  0.00    +0.0752  C
ATOM     22 H30  AR1 L   1      10.759  -9.323  -9.127  1.00  0.00    +0.0458  H
BRANCH 21 26
ATOM     23  C3  AR1 L   1       6.105 -10.159  -9.974  1.00  0.00    -0.0222  A
ATOM     24  C4  AR1 L   1       6.876 -10.790  -8.991  1.00  0.00    -0.0561  A
ATOM     25  C5  AR1 L   1       8.135 -10.290  -8.645  1.00  0.00    -0.0575  A
ATOM     26  C6  AR1 L   1       8.650  -9.145  -9.270  1.00  0.00    -0.0341  A
ATOM     27 C23  AR1 L   1       7.862  -8.507 -10.242  1.00  0.00    -0.0575  A
ATOM     28 C24  AR1 L   1       6.603  -9.006 -10.588  1.00  0.00    -0.0561  A
ATOM     29 H28  AR1 L   1       6.505 -11.682  -8.491  1.00  0.00    +0.0621  H
ATOM     30 H29  AR1 L   1       8.703 -10.819  -7.882  1.00  0.00    +0.0621  H
ATOM     31 H42  AR1 L   1       8.226  -7.614 -10.747  1.00  0.00    +0.0621  H
ATOM     32 H43  AR1 L   1       6.015  -8.491 -11.346  1.00  0.00    +0.0621  H
BRANCH 23 34
ATOM     33  O1  AR1 L   1       3.848  -9.612 -10.607  1.00  0.00    -0.3904 OA
ATOM     34  C2  AR1 L   1       4.740 -10.684 -10.332  1.00  0.00    +0.0692  C
ATOM     35 H25  AR1 L   1       4.308  -8.781 -10.392  1.00  0.00    +0.2098 HD
ATOM     36 H26  AR1 L   1       4.324 -11.280  -9.513  1.00  0.00    +0.0607  H
ATOM     37 H27  AR1 L   1       4.792 -11.332 -11.213  1.00  0.00    +0.0607  H
ENDBRANCH 23 34
ENDBRANCH 21 26
BRANCH 21 38
ATOM     38  C8  AR1 L   1      10.380  -7.341  -9.799  1.00  0.00    +0.0085  C
ATOM     39  N9  AR1 L   1      10.961  -6.202  -9.064  1.00  0.00    -0.3289 NA
ATOM     40 H31  AR1 L   1      11.110  -7.660 -10.554  1.00  0.00    +0.0432  H
ATOM     41 H32  AR1 L   1       9.494  -6.987 -10.338  1.00  0.00    +0.0432  H
ATOM     42 H33  AR1 L   1      11.142  -5.449  -9.733  1.00  0.00    +0.1182 HD
ATOM     43 H34  AR1 L   1      10.238  -5.824  -8.442  1.00  0.00    +0.1182 HD
ENDBRANCH 21 38
ENDBRANCH 17 21
ENDBRANCH 1 19
TORSDOF 5
ENDMDL
MODEL 19
REMARK VINA RESULT:    -5.440      4.761      7.070
REMARK INTER + INTRA:          -7.781
REMARK INTER:                  -6.820
REMARK INTRA:                  -0.961
REMARK UNBOUND:                -0.751
ROOT
ATOM      1 C13  AR1 L   1      11.409  -8.538  -4.556  1.00  0.00    +0.0423  A
ATOM      2 C14  AR1 L   1      10.419  -9.524  -4.472  1.00  0.00    -0.0377  A
ATOM      3 C15  AR1 L   1       9.494  -9.697  -5.504  1.00  0.00    -0.0506  A
ATOM      4 C16  AR1 L   1       9.545  -8.880  -6.645  1.00  0.00    +0.0004  A
ATOM      5 C17  AR1 L   1       8.650  -9.003  -7.710  1.00  0.00    +0.0353  A
ATOM      6 N18  AR1 L   1       8.670  -8.234  -8.823  1.00  0.00    -0.2626 NA
ATOM      7 C19  AR1 L   1       9.631  -7.290  -8.882  1.00  0.00    +0.0281  A
ATOM      8 C20  AR1 L   1      10.571  -7.079  -7.886  1.00  0.00    -0.0358  A
ATOM      9 C21  AR1 L   1      10.535  -7.884  -6.741  1.00  0.00    -0.0131  A
ATOM     10 C22  AR1 L   1      11.459  -7.725  -5.691  1.00  0.00    -0.0305  A
ATOM     11 H36  AR1 L   1      10.355 -10.172  -3.600  1.00  0.00    +0.0638  H
ATOM     12 H37  AR1 L   1       8.736 -10.472  -5.413  1.00  0.00    +0.0625  H
ATOM     13 H38  AR1 L   1       7.862  -9.752  -7.698  1.00  0.00    +0.0836  H
ATOM     14 H39  AR1 L   1       9.630  -6.683  -9.783  1.00  0.00    +0.0830  H
ATOM     15 H40  AR1 L   1      11.317  -6.298  -8.003  1.00  0.00    +0.0639  H
ATOM     16 H41  AR1 L   1      12.214  -6.949  -5.783  1.00  0.00    +0.0644  H
ENDROOT
BRANCH 1 19
ATOM     17 C10  AR1 L   1      12.109  -7.772  -2.266  1.00  0.00    +0.2339  C
ATOM     18 O11  AR1 L   1      11.101  -7.148  -1.940  1.00  0.00    -0.2722 OA
ATOM     19 N12  AR1 L   1      12.296  -8.433  -3.469  1.00  0.00    -0.3256  N
ATOM     20 H35  AR1 L   1      13.203  -8.895  -3.572  1.00  0.00    +0.1686 HD
BRANCH 17 21
ATOM     21  C7  AR1 L   1      13.286  -7.914  -1.284  1.00  0.00    +0.0752  C
ATOM     22 H30  AR1 L   1      14.162  -8.004  -1.946  1.00  0.00    +0.0458  H
BRANCH 21 26
ATOM     23  C3  AR1 L   1      13.905  -4.445   1.274  1.00  0.00    -0.0222  A
ATOM     24  C4  AR1 L   1      14.115  -4.342  -0.106  1.00  0.00    -0.0561  A
ATOM     25  C5  AR1 L   1      13.930  -5.449  -0.939  1.00  0.00    -0.0575  A
ATOM     26  C6  AR1 L   1      13.525  -6.685  -0.412  1.00  0.00    -0.0341  A
ATOM     27 C23  AR1 L   1      13.297  -6.775   0.971  1.00  0.00    -0.0575  A
ATOM     28 C24  AR1 L   1      13.482  -5.668   1.804  1.00  0.00    -0.0561  A
ATOM     29 H28  AR1 L   1      14.433  -3.398  -0.544  1.00  0.00    +0.0621  H
ATOM     30 H29  AR1 L   1      14.115  -5.325  -2.004  1.00  0.00    +0.0621  H
ATOM     31 H42  AR1 L   1      12.979  -7.716   1.416  1.00  0.00    +0.0621  H
ATOM     32 H43  AR1 L   1      13.299  -5.768   2.872  1.00  0.00    +0.0621  H
BRANCH 23 34
ATOM     33  O1  AR1 L   1      15.172  -2.450   1.725  1.00  0.00    -0.3904 OA
ATOM     34  C2  AR1 L   1      14.082  -3.248   2.168  1.00  0.00    +0.0692  C
ATOM     35 H25  AR1 L   1      15.617  -2.929   1.005  1.00  0.00    +0.2098 HD
ATOM     36 H26  AR1 L   1      14.275  -3.556   3.200  1.00  0.00    +0.0607  H
ATOM     37 H27  AR1 L   1      13.177  -2.631   2.176  1.00  0.00    +0.0607  H
ENDBRANCH 23 34
ENDBRANCH 21 26
BRANCH 21 38
ATOM     38  C8  AR1 L   1      13.247  -9.224  -0.463  1.00  0.00    +0.0085  C
ATOM     39  N9  AR1 L   1      11.954  -9.932  -0.514  1.00  0.00    -0.3289 NA
ATOM     40 H31  AR1 L   1      14.019  -9.908  -0.837  1.00  0.00    +0.0432  H
ATOM     41 H32  AR1 L   1      13.483  -9.014   0.586  1.00  0.00    +0.0432  H
ATOM     42 H33  AR1 L   1      12.021 -10.762   0.082  1.00  0.00    +0.1182 HD
ATOM     43 H34  AR1 L   1      11.251  -9.343  -0.055  1.00  0.00    +0.1182 HD
ENDBRANCH 21 38
ENDBRANCH 17 21
ENDBRANCH 1 19
TORSDOF 5
ENDMDL
