MODEL 1
REMARK VINA RESULT:    -7.729      0.000      0.000
REMARK INTER + INTRA:         -12.308
REMARK INTER:                 -11.343
REMARK INTRA:                  -0.965
REMARK UNBOUND:                -0.965
ROOT
ATOM      1 C20  BRA L   1      10.451  -4.481   2.898  1.00  0.00    +0.0423  A
ATOM      2 C21  BRA L   1      10.319  -3.334   3.677  1.00  0.00    -0.0377  A
ATOM      3 C22  BRA L   1       9.564  -3.363   4.854  1.00  0.00    -0.0506  A
ATOM      4 C23  BRA L   1       8.928  -4.545   5.269  1.00  0.00    +0.0004  A
ATOM      5 C24  BRA L   1       8.150  -4.627   6.427  1.00  0.00    +0.0353  A
ATOM      6 N25  BRA L   1       7.520  -5.749   6.850  1.00  0.00    -0.2626 NA
ATOM      7 C26  BRA L   1       7.676  -6.850   6.088  1.00  0.00    +0.0281  A
ATOM      8 C27  BRA L   1       8.425  -6.884   4.922  1.00  0.00    -0.0358  A
ATOM      9 C28  BRA L   1       9.064  -5.712   4.497  1.00  0.00    -0.0131  A
ATOM     10 C29  BRA L   1       9.829  -5.666   3.318  1.00  0.00    -0.0305  A
ATOM     11 H50  BRA L   1      10.782  -2.393   3.394  1.00  0.00    +0.0638  H
ATOM     12 H51  BRA L   1       9.472  -2.451   5.442  1.00  0.00    +0.0625  H
ATOM     13 H52  BRA L   1       8.005  -3.762   7.069  1.00  0.00    +0.0836  H
ATOM     14 H53  BRA L   1       7.166  -7.739   6.449  1.00  0.00    +0.0830  H
ATOM     15 H54  BRA L   1       8.502  -7.809   4.360  1.00  0.00    +0.0639  H
ATOM     16 H55  BRA L   1       9.927  -6.569   2.719  1.00  0.00    +0.0644  H
ENDROOT
BRANCH 1 19
ATOM     17 C17  BRA L   1      12.438  -5.008   1.447  1.00  0.00    +0.2339  C
ATOM     18 O18  BRA L   1      13.154  -5.577   2.269  1.00  0.00    -0.2722 OA
ATOM     19 N19  BRA L   1      11.156  -4.532   1.680  1.00  0.00    -0.3256  N
ATOM     20 H49  BRA L   1      10.687  -4.101   0.890  1.00  0.00    +0.1686 HD
BRANCH 17 21
ATOM     21 C14  BRA L   1      12.925  -4.819  -0.005  1.00  0.00    +0.0752  C
ATOM     22 H44  BRA L   1      12.342  -3.987  -0.426  1.00  0.00    +0.0458  H
BRANCH 21 26
ATOM     23 C10  BRA L   1      11.921  -8.067  -2.709  1.00  0.00    -0.0103  A
ATOM     24 C11  BRA L   1      13.100  -7.331  -2.866  1.00  0.00    -0.0551  A
ATOM     25 C12  BRA L   1      13.438  -6.333  -1.952  1.00  0.00    -0.0574  A
ATOM     26 C13  BRA L   1      12.605  -6.048  -0.856  1.00  0.00    -0.0341  A
ATOM     27 C30  BRA L   1      11.460  -6.834  -0.667  1.00  0.00    -0.0574  A
ATOM     28 C31  BRA L   1      11.121  -7.830  -1.587  1.00  0.00    -0.0551  A
ATOM     29 H42  BRA L   1      13.741  -7.501  -3.730  1.00  0.00    +0.0621  H
ATOM     30 H43  BRA L   1      14.337  -5.744  -2.127  1.00  0.00    +0.0621  H
ATOM     31 H56  BRA L   1      10.795  -6.669   0.177  1.00  0.00    +0.0621  H
ATOM     32 H57  BRA L   1      10.201  -8.393  -1.439  1.00  0.00    +0.0621  H
BRANCH 23 33
ATOM     33  C9  BRA L   1      11.495  -9.060  -3.761  1.00  0.00    +0.1179  C
ATOM     34 H40  BRA L   1      11.000  -9.941  -3.332  1.00  0.00    +0.0749  H
ATOM     35 H41  BRA L   1      12.381  -9.423  -4.293  1.00  0.00    +0.0749  H
BRANCH 33 36
ATOM     36  O8  BRA L   1      10.643  -8.420  -4.722  1.00  0.00    -0.4564 OA
BRANCH 36 37
ATOM     37  C6  BRA L   1      11.159  -8.322  -5.971  1.00  0.00    +0.3398  C
ATOM     38  O7  BRA L   1      12.336  -8.262  -6.282  1.00  0.00    -0.2449 OA
BRANCH 37 43
ATOM     39  C1  BRA L   1       6.731  -8.932  -9.640  1.00  0.00    -0.0397  C
ATOM     40  C2  BRA L   1       7.880  -8.747  -8.692  1.00  0.00    -0.0502  A
ATOM     41  C3  BRA L   1       8.068  -9.635  -7.629  1.00  0.00    -0.0580  A
ATOM     42  C4  BRA L   1       9.149  -9.473  -6.765  1.00  0.00    -0.0473  A
ATOM     43  C5  BRA L   1      10.059  -8.424  -6.956  1.00  0.00    +0.0619  A
ATOM     44 C32  BRA L   1       9.913  -7.545  -8.044  1.00  0.00    -0.0362  A
ATOM     45 C33  BRA L   1      10.876  -6.423  -8.311  1.00  0.00    -0.0389  C
ATOM     46 C34  BRA L   1       8.810  -7.716  -8.898  1.00  0.00    -0.0551  A
ATOM     47 H35  BRA L   1       6.398  -7.970 -10.042  1.00  0.00    +0.0278  H
ATOM     48 H36  BRA L   1       5.874  -9.386  -9.131  1.00  0.00    +0.0278  H
ATOM     49 H37  BRA L   1       7.032  -9.578 -10.470  1.00  0.00    +0.0278  H
ATOM     50 H38  BRA L   1       7.367 -10.452  -7.463  1.00  0.00    +0.0620  H
ATOM     51 H39  BRA L   1       9.277 -10.160  -5.932  1.00  0.00    +0.0626  H
ATOM     52 H58  BRA L   1      10.812  -6.087  -9.352  1.00  0.00    +0.0278  H
ATOM     53 H59  BRA L   1      11.910  -6.746  -8.148  1.00  0.00    +0.0278  H
ATOM     54 H60  BRA L   1      10.653  -5.569  -7.663  1.00  0.00    +0.0278  H
ATOM     55 H61  BRA L   1       8.672  -7.039  -9.741  1.00  0.00    +0.0623  H
ENDBRANCH 37 43
ENDBRANCH 36 37
ENDBRANCH 33 36
ENDBRANCH 23 33
ENDBRANCH 21 26
BRANCH 21 56
ATOM     56 C15  BRA L   1      14.398  -4.355   0.078  1.00  0.00    +0.0085  C
ATOM     57 N16  BRA L   1      14.598  -3.150   0.889  1.00  0.00    -0.3289 NA
ATOM     58 H45  BRA L   1      15.005  -5.159   0.512  1.00  0.00    +0.0432  H
ATOM     59 H46  BRA L   1      14.803  -4.173  -0.925  1.00  0.00    +0.0432  H
ATOM     60 H47  BRA L   1      15.598  -2.986   1.011  1.00  0.00    +0.1182 HD
ATOM     61 H48  BRA L   1      14.220  -3.298   1.825  1.00  0.00    +0.1182 HD
ENDBRANCH 21 56
ENDBRANCH 17 21
ENDBRANCH 1 19
TORSDOF 8
ENDMDL
MODEL 2
REMARK VINA RESULT:    -7.705      3.135     10.361
REMARK INTER + INTRA:         -12.274
REMARK INTER:                  -9.926
REMARK INTRA:                  -2.348
REMARK UNBOUND:                -0.965
ROOT
ATOM      1 C20  BRA L   1      12.413  -8.238  -1.361  1.00  0.00    +0.0423  A
ATOM      2 C21  BRA L   1      11.777  -9.440  -1.062  1.00  0.00    -0.0377  A
ATOM      3 C22  BRA L   1      11.158 -10.183  -2.074  1.00  0.00    -0.0506  A
ATOM      4 C23  BRA L   1      11.167  -9.729  -3.403  1.00  0.00    +0.0004  A
ATOM      5 C24  BRA L   1      10.553 -10.421  -4.450  1.00  0.00    +0.0353  A
ATOM      6 N25  BRA L   1      10.538 -10.008  -5.740  1.00  0.00    -0.2626 NA
ATOM      7 C26  BRA L   1      11.175  -8.849  -6.007  1.00  0.00    +0.0281  A
ATOM      8 C27  BRA L   1      11.818  -8.081  -5.049  1.00  0.00    -0.0358  A
ATOM      9 C28  BRA L   1      11.816  -8.522  -3.719  1.00  0.00    -0.0131  A
ATOM     10 C29  BRA L   1      12.436  -7.791  -2.691  1.00  0.00    -0.0305  A
ATOM     11 H50  BRA L   1      11.733  -9.828  -0.049  1.00  0.00    +0.0638  H
ATOM     12 H51  BRA L   1      10.663 -11.116  -1.813  1.00  0.00    +0.0625  H
ATOM     13 H52  BRA L   1      10.034 -11.360  -4.275  1.00  0.00    +0.0836  H
ATOM     14 H53  BRA L   1      11.155  -8.539  -7.048  1.00  0.00    +0.0830  H
ATOM     15 H54  BRA L   1      12.307  -7.157  -5.340  1.00  0.00    +0.0639  H
ATOM     16 H55  BRA L   1      12.932  -6.854  -2.937  1.00  0.00    +0.0644  H
ENDROOT
BRANCH 1 19
ATOM     17 C17  BRA L   1      12.430  -6.466   0.426  1.00  0.00    +0.2339  C
ATOM     18 O18  BRA L   1      11.222  -6.269   0.538  1.00  0.00    -0.2722 OA
ATOM     19 N19  BRA L   1      13.025  -7.408  -0.403  1.00  0.00    -0.3256  N
ATOM     20 H49  BRA L   1      14.037  -7.460  -0.368  1.00  0.00    +0.1686 HD
BRANCH 17 21
ATOM     21 C14  BRA L   1      13.430  -5.668   1.289  1.00  0.00    +0.0752  C
ATOM     22 H44  BRA L   1      14.234  -6.366   1.566  1.00  0.00    +0.0458  H
BRANCH 21 26
ATOM     23 C10  BRA L   1      11.914  -4.167   5.073  1.00  0.00    -0.0103  A
ATOM     24 C11  BRA L   1      11.981  -3.346   3.942  1.00  0.00    -0.0551  A
ATOM     25 C12  BRA L   1      12.410  -3.862   2.719  1.00  0.00    -0.0574  A
ATOM     26 C13  BRA L   1      12.783  -5.213   2.597  1.00  0.00    -0.0341  A
ATOM     27 C30  BRA L   1      12.649  -6.044   3.717  1.00  0.00    -0.0574  A
ATOM     28 C31  BRA L   1      12.223  -5.525   4.943  1.00  0.00    -0.0551  A
ATOM     29 H42  BRA L   1      11.740  -2.287   4.019  1.00  0.00    +0.0621  H
ATOM     30 H43  BRA L   1      12.498  -3.188   1.868  1.00  0.00    +0.0621  H
ATOM     31 H56  BRA L   1      12.902  -7.100   3.669  1.00  0.00    +0.0621  H
ATOM     32 H57  BRA L   1      12.174  -6.185   5.807  1.00  0.00    +0.0621  H
BRANCH 23 33
ATOM     33  C9  BRA L   1      11.566  -3.584   6.420  1.00  0.00    +0.1179  C
ATOM     34 H40  BRA L   1      11.069  -2.609   6.341  1.00  0.00    +0.0749  H
ATOM     35 H41  BRA L   1      12.488  -3.424   6.992  1.00  0.00    +0.0749  H
BRANCH 33 36
ATOM     36  O8  BRA L   1      10.753  -4.509   7.158  1.00  0.00    -0.4564 OA
BRANCH 36 37
ATOM     37  C6  BRA L   1       9.418  -4.386   6.957  1.00  0.00    +0.3398  C
ATOM     38  O7  BRA L   1       8.758  -3.360   6.984  1.00  0.00    -0.2449 OA
BRANCH 37 43
ATOM     39  C1  BRA L   1       7.249  -9.605   5.734  1.00  0.00    -0.0397  C
ATOM     40  C2  BRA L   1       7.797  -8.239   6.032  1.00  0.00    -0.0502  A
ATOM     41  C3  BRA L   1       8.242  -7.923   7.319  1.00  0.00    -0.0580  A
ATOM     42  C4  BRA L   1       8.771  -6.662   7.586  1.00  0.00    -0.0473  A
ATOM     43  C5  BRA L   1       8.865  -5.702   6.568  1.00  0.00    +0.0619  A
ATOM     44 C32  BRA L   1       8.464  -6.014   5.257  1.00  0.00    -0.0362  A
ATOM     45 C33  BRA L   1       8.572  -5.032   4.124  1.00  0.00    -0.0389  C
ATOM     46 C34  BRA L   1       7.922  -7.286   5.009  1.00  0.00    -0.0551  A
ATOM     47 H35  BRA L   1       6.500  -9.559   4.937  1.00  0.00    +0.0278  H
ATOM     48 H36  BRA L   1       6.761 -10.031   6.616  1.00  0.00    +0.0278  H
ATOM     49 H37  BRA L   1       8.059 -10.272   5.421  1.00  0.00    +0.0278  H
ATOM     50 H38  BRA L   1       8.170  -8.654   8.122  1.00  0.00    +0.0620  H
ATOM     51 H39  BRA L   1       9.099  -6.420   8.594  1.00  0.00    +0.0626  H
ATOM     52 H58  BRA L   1       8.553  -5.544   3.156  1.00  0.00    +0.0278  H
ATOM     53 H59  BRA L   1       9.518  -4.482   4.171  1.00  0.00    +0.0278  H
ATOM     54 H60  BRA L   1       7.736  -4.326   4.154  1.00  0.00    +0.0278  H
ATOM     55 H61  BRA L   1       7.594  -7.544   4.002  1.00  0.00    +0.0623  H
ENDBRANCH 37 43
ENDBRANCH 36 37
ENDBRANCH 33 36
ENDBRANCH 23 33
ENDBRANCH 21 26
BRANCH 21 56
ATOM     56 C15  BRA L   1      14.049  -4.591   0.370  1.00  0.00    +0.0085  C
ATOM     57 N16  BRA L   1      13.279  -4.335  -0.852  1.00  0.00    -0.3289 NA
ATOM     58 H45  BRA L   1      14.128  -3.647   0.924  1.00  0.00    +0.0432  H
ATOM     59 H46  BRA L   1      15.073  -4.866   0.086  1.00  0.00    +0.0432  H
ATOM     60 H47  BRA L   1      13.667  -3.525  -1.334  1.00  0.00    +0.1182 HD
ATOM     61 H48  BRA L   1      12.319  -4.084  -0.607  1.00  0.00    +0.1182 HD
ENDBRANCH 21 56
ENDBRANCH 17 21
ENDBRANCH 1 19
TORSDOF 8
ENDMDL
MODEL 3
REMARK VINA RESULT:    -7.622      3.558     11.136
REMARK INTER + INTRA:         -12.152
REMARK INTER:                 -10.702
REMARK INTRA:                  -1.451
REMARK UNBOUND:                -0.965
ROOT
ATOM      1 C20  BRA L   1       8.827  -9.657  -6.358  1.00  0.00    +0.0423  A
ATOM      2 C21  BRA L   1       7.485  -9.676  -5.986  1.00  0.00    -0.0377  A
ATOM      3 C22  BRA L   1       6.483  -9.488  -6.945  1.00  0.00    -0.0506  A
ATOM      4 C23  BRA L   1       6.814  -9.279  -8.294  1.00  0.00    +0.0004  A
ATOM      5 C24  BRA L   1       5.858  -9.072  -9.291  1.00  0.00    +0.0353  A
ATOM      6 N25  BRA L   1       6.143  -8.862 -10.599  1.00  0.00    -0.2626 NA
ATOM      7 C26  BRA L   1       7.449  -8.865 -10.936  1.00  0.00    +0.0281  A
ATOM      8 C27  BRA L   1       8.481  -9.061 -10.032  1.00  0.00    -0.0358  A
ATOM      9 C28  BRA L   1       8.165  -9.270  -8.683  1.00  0.00    -0.0131  A
ATOM     10 C29  BRA L   1       9.158  -9.463  -7.708  1.00  0.00    -0.0305  A
ATOM     11 H50  BRA L   1       7.179  -9.823  -4.955  1.00  0.00    +0.0638  H
ATOM     12 H51  BRA L   1       5.443  -9.501  -6.628  1.00  0.00    +0.0625  H
ATOM     13 H52  BRA L   1       4.795  -9.067  -9.059  1.00  0.00    +0.0836  H
ATOM     14 H53  BRA L   1       7.655  -8.699 -11.990  1.00  0.00    +0.0830  H
ATOM     15 H54  BRA L   1       9.509  -9.047 -10.379  1.00  0.00    +0.0639  H
ATOM     16 H55  BRA L   1      10.204  -9.449  -8.010  1.00  0.00    +0.0644  H
ENDROOT
BRANCH 1 19
ATOM     17 C17  BRA L   1      10.898  -8.880  -5.158  1.00  0.00    +0.2339  C
ATOM     18 O18  BRA L   1      10.955  -7.722  -5.567  1.00  0.00    -0.2722 OA
ATOM     19 N19  BRA L   1       9.899  -9.796  -5.455  1.00  0.00    -0.3256  N
ATOM     20 H49  BRA L   1       9.985 -10.710  -5.023  1.00  0.00    +0.1686 HD
BRANCH 17 21
ATOM     21 C14  BRA L   1      11.970  -9.413  -4.185  1.00  0.00    +0.0752  C
ATOM     22 H44  BRA L   1      11.591 -10.368  -3.792  1.00  0.00    +0.0458  H
BRANCH 21 26
ATOM     23 C10  BRA L   1      12.120  -6.568  -0.904  1.00  0.00    -0.0103  A
ATOM     24 C11  BRA L   1      11.125  -7.550  -0.968  1.00  0.00    -0.0551  A
ATOM     25 C12  BRA L   1      11.129  -8.495  -1.994  1.00  0.00    -0.0574  A
ATOM     26 C13  BRA L   1      12.130  -8.482  -2.982  1.00  0.00    -0.0341  A
ATOM     27 C30  BRA L   1      13.160  -7.538  -2.874  1.00  0.00    -0.0574  A
ATOM     28 C31  BRA L   1      13.151  -6.589  -1.848  1.00  0.00    -0.0551  A
ATOM     29 H42  BRA L   1      10.315  -7.557  -0.241  1.00  0.00    +0.0621  H
ATOM     30 H43  BRA L   1      10.315  -9.217  -2.045  1.00  0.00    +0.0621  H
ATOM     31 H56  BRA L   1      13.968  -7.501  -3.599  1.00  0.00    +0.0621  H
ATOM     32 H57  BRA L   1      13.939  -5.839  -1.817  1.00  0.00    +0.0621  H
BRANCH 23 33
ATOM     33  C9  BRA L   1      12.049  -5.475   0.132  1.00  0.00    +0.1179  C
ATOM     34 H40  BRA L   1      11.869  -4.487  -0.310  1.00  0.00    +0.0749  H
ATOM     35 H41  BRA L   1      13.008  -5.416   0.659  1.00  0.00    +0.0749  H
BRANCH 33 36
ATOM     36  O8  BRA L   1      11.039  -5.787   1.103  1.00  0.00    -0.4564 OA
BRANCH 36 37
ATOM     37  C6  BRA L   1      11.491  -5.954   2.370  1.00  0.00    +0.3398  C
ATOM     38  O7  BRA L   1      12.277  -6.798   2.768  1.00  0.00    -0.2449 OA
BRANCH 37 43
ATOM     39  C1  BRA L   1       9.229  -1.833   5.736  1.00  0.00    -0.0397  C
ATOM     40  C2  BRA L   1       9.841  -2.897   4.872  1.00  0.00    -0.0502  A
ATOM     41  C3  BRA L   1       9.094  -4.017   4.497  1.00  0.00    -0.0580  A
ATOM     42  C4  BRA L   1       9.658  -4.992   3.676  1.00  0.00    -0.0473  A
ATOM     43  C5  BRA L   1      10.975  -4.855   3.215  1.00  0.00    +0.0619  A
ATOM     44 C32  BRA L   1      11.730  -3.715   3.544  1.00  0.00    -0.0362  A
ATOM     45 C33  BRA L   1      13.134  -3.506   3.052  1.00  0.00    -0.0389  C
ATOM     46 C34  BRA L   1      11.149  -2.749   4.383  1.00  0.00    -0.0551  A
ATOM     47 H35  BRA L   1       9.991  -1.347   6.355  1.00  0.00    +0.0278  H
ATOM     48 H36  BRA L   1       8.484  -2.261   6.414  1.00  0.00    +0.0278  H
ATOM     49 H37  BRA L   1       8.746  -1.076   5.111  1.00  0.00    +0.0278  H
ATOM     50 H38  BRA L   1       8.073  -4.142   4.851  1.00  0.00    +0.0620  H
ATOM     51 H39  BRA L   1       9.075  -5.868   3.404  1.00  0.00    +0.0626  H
ATOM     52 H58  BRA L   1      13.418  -2.449   3.107  1.00  0.00    +0.0278  H
ATOM     53 H59  BRA L   1      13.231  -3.803   2.003  1.00  0.00    +0.0278  H
ATOM     54 H60  BRA L   1      13.839  -4.080   3.662  1.00  0.00    +0.0278  H
ATOM     55 H61  BRA L   1      11.720  -1.863   4.660  1.00  0.00    +0.0623  H
ENDBRANCH 37 43
ENDBRANCH 36 37
ENDBRANCH 33 36
ENDBRANCH 23 33
ENDBRANCH 21 26
BRANCH 21 56
ATOM     56 C15  BRA L   1      13.223  -9.726  -5.033  1.00  0.00    +0.0085  C
ATOM     57 N16  BRA L   1      12.954  -9.856  -6.469  1.00  0.00    -0.3289 NA
ATOM     58 H45  BRA L   1      13.960  -8.924  -4.898  1.00  0.00    +0.0432  H
ATOM     59 H46  BRA L   1      13.707 -10.647  -4.683  1.00  0.00    +0.0432  H
ATOM     60 H47  BRA L   1      13.837  -9.924  -6.975  1.00  0.00    +0.1182 HD
ATOM     61 H48  BRA L   1      12.496  -9.010  -6.811  1.00  0.00    +0.1182 HD
ENDBRANCH 21 56
ENDBRANCH 17 21
ENDBRANCH 1 19
TORSDOF 8
ENDMDL
MODEL 4
REMARK VINA RESULT:    -7.583      0.861      1.599
REMARK INTER + INTRA:         -12.094
REMARK INTER:                 -11.126
REMARK INTRA:                  -0.968
REMARK UNBOUND:                -0.965
ROOT
ATOM      1 C20  BRA L   1      10.719  -4.722   2.751  1.00  0.00    +0.0423  A
ATOM      2 C21  BRA L   1      10.412  -5.842   3.519  1.00  0.00    -0.0377  A
ATOM      3 C22  BRA L   1       9.808  -5.696   4.772  1.00  0.00    -0.0506  A
ATOM      4 C23  BRA L   1       9.502  -4.420   5.275  1.00  0.00    +0.0004  A
ATOM      5 C24  BRA L   1       8.913  -4.214   6.525  1.00  0.00    +0.0353  A
ATOM      6 N25  BRA L   1       8.612  -2.998   7.042  1.00  0.00    -0.2626 NA
ATOM      7 C26  BRA L   1       8.904  -1.930   6.273  1.00  0.00    +0.0281  A
ATOM      8 C27  BRA L   1       9.487  -2.016   5.018  1.00  0.00    -0.0358  A
ATOM      9 C28  BRA L   1       9.798  -3.282   4.504  1.00  0.00    -0.0131  A
ATOM     10 C29  BRA L   1      10.402  -3.447   3.246  1.00  0.00    -0.0305  A
ATOM     11 H50  BRA L   1      10.637  -6.848   3.178  1.00  0.00    +0.0638  H
ATOM     12 H51  BRA L   1       9.583  -6.587   5.355  1.00  0.00    +0.0625  H
ATOM     13 H52  BRA L   1       8.659  -5.050   7.172  1.00  0.00    +0.0836  H
ATOM     14 H53  BRA L   1       8.650  -0.966   6.704  1.00  0.00    +0.0830  H
ATOM     15 H54  BRA L   1       9.696  -1.110   4.459  1.00  0.00    +0.0639  H
ATOM     16 H55  BRA L   1      10.635  -2.565   2.654  1.00  0.00    +0.0644  H
ENDROOT
BRANCH 1 19
ATOM     17 C17  BRA L   1      12.644  -5.220   1.209  1.00  0.00    +0.2339  C
ATOM     18 O18  BRA L   1      13.414  -5.760   2.001  1.00  0.00    -0.2722 OA
ATOM     19 N19  BRA L   1      11.363  -4.773   1.500  1.00  0.00    -0.3256  N
ATOM     20 H49  BRA L   1      10.845  -4.365   0.729  1.00  0.00    +0.1686 HD
BRANCH 17 21
ATOM     21 C14  BRA L   1      13.053  -5.040  -0.268  1.00  0.00    +0.0752  C
ATOM     22 H44  BRA L   1      12.471  -4.190  -0.654  1.00  0.00    +0.0458  H
BRANCH 21 26
ATOM     23 C10  BRA L   1      11.804  -8.246  -2.921  1.00  0.00    -0.0103  A
ATOM     24 C11  BRA L   1      13.005  -7.558  -3.129  1.00  0.00    -0.0551  A
ATOM     25 C12  BRA L   1      13.421  -6.575  -2.232  1.00  0.00    -0.0574  A
ATOM     26 C13  BRA L   1      12.647  -6.256  -1.102  1.00  0.00    -0.0341  A
ATOM     27 C30  BRA L   1      11.480  -6.994  -0.864  1.00  0.00    -0.0574  A
ATOM     28 C31  BRA L   1      11.062  -7.976  -1.767  1.00  0.00    -0.0551  A
ATOM     29 H42  BRA L   1      13.602  -7.755  -4.018  1.00  0.00    +0.0621  H
ATOM     30 H43  BRA L   1      14.336  -6.023  -2.446  1.00  0.00    +0.0621  H
ATOM     31 H56  BRA L   1      10.859  -6.802   0.007  1.00  0.00    +0.0621  H
ATOM     32 H57  BRA L   1      10.127  -8.501  -1.580  1.00  0.00    +0.0621  H
BRANCH 23 33
ATOM     33  C9  BRA L   1      11.294  -9.221  -3.952  1.00  0.00    +0.1179  C
ATOM     34 H40  BRA L   1      10.706 -10.034  -3.507  1.00  0.00    +0.0749  H
ATOM     35 H41  BRA L   1      12.147  -9.688  -4.458  1.00  0.00    +0.0749  H
BRANCH 33 36
ATOM     36  O8  BRA L   1      10.527  -8.526  -4.945  1.00  0.00    -0.4564 OA
BRANCH 36 37
ATOM     37  C6  BRA L   1      11.058  -8.538  -6.193  1.00  0.00    +0.3398  C
ATOM     38  O7  BRA L   1      12.238  -8.592  -6.493  1.00  0.00    -0.2449 OA
BRANCH 37 43
ATOM     39  C1  BRA L   1       6.649  -9.012  -9.904  1.00  0.00    -0.0397  C
ATOM     40  C2  BRA L   1       7.792  -8.862  -8.942  1.00  0.00    -0.0502  A
ATOM     41  C3  BRA L   1       8.028  -9.837  -7.970  1.00  0.00    -0.0580  A
ATOM     42  C4  BRA L   1       9.103  -9.706  -7.093  1.00  0.00    -0.0473  A
ATOM     43  C5  BRA L   1       9.960  -8.599  -7.183  1.00  0.00    +0.0619  A
ATOM     44 C32  BRA L   1       9.767  -7.629  -8.182  1.00  0.00    -0.0362  A
ATOM     45 C33  BRA L   1      10.672  -6.440  -8.340  1.00  0.00    -0.0389  C
ATOM     46 C34  BRA L   1       8.670  -7.772  -9.049  1.00  0.00    -0.0551  A
ATOM     47 H35  BRA L   1       6.267  -8.034 -10.212  1.00  0.00    +0.0278  H
ATOM     48 H36  BRA L   1       5.818  -9.554  -9.441  1.00  0.00    +0.0278  H
ATOM     49 H37  BRA L   1       6.978  -9.560 -10.792  1.00  0.00    +0.0278  H
ATOM     50 H38  BRA L   1       7.369 -10.699  -7.882  1.00  0.00    +0.0620  H
ATOM     51 H39  BRA L   1       9.269 -10.461  -6.329  1.00  0.00    +0.0626  H
ATOM     52 H58  BRA L   1      10.587  -6.010  -9.344  1.00  0.00    +0.0278  H
ATOM     53 H59  BRA L   1      11.721  -6.726  -8.208  1.00  0.00    +0.0278  H
ATOM     54 H60  BRA L   1      10.410  -5.665  -7.614  1.00  0.00    +0.0278  H
ATOM     55 H61  BRA L   1       8.495  -7.025  -9.823  1.00  0.00    +0.0623  H
ENDBRANCH 37 43
ENDBRANCH 36 37
ENDBRANCH 33 36
ENDBRANCH 23 33
ENDBRANCH 21 26
BRANCH 21 56
ATOM     56 C15  BRA L   1      14.541  -4.621  -0.269  1.00  0.00    +0.0085  C
ATOM     57 N16  BRA L   1      14.835  -3.464   0.582  1.00  0.00    -0.3289 NA
ATOM     58 H45  BRA L   1      15.152  -5.462   0.081  1.00  0.00    +0.0432  H
ATOM     59 H46  BRA L   1      14.880  -4.400  -1.289  1.00  0.00    +0.0432  H
ATOM     60 H47  BRA L   1      15.845  -3.333   0.641  1.00  0.00    +0.1182 HD
ATOM     61 H48  BRA L   1      14.519  -3.648   1.536  1.00  0.00    +0.1182 HD
ENDBRANCH 21 56
ENDBRANCH 17 21
ENDBRANCH 1 19
TORSDOF 8
ENDMDL
MODEL 5
REMARK VINA RESULT:    -7.523      3.339     11.169
REMARK INTER + INTRA:         -12.006
REMARK INTER:                 -11.081
REMARK INTRA:                  -0.926
REMARK UNBOUND:                -0.965
ROOT
ATOM      1 C20  BRA L   1      10.215  -8.544  -6.730  1.00  0.00    +0.0423  A
ATOM      2 C21  BRA L   1      10.844  -7.958  -7.826  1.00  0.00    -0.0377  A
ATOM      3 C22  BRA L   1      10.159  -7.810  -9.037  1.00  0.00    -0.0506  A
ATOM      4 C23  BRA L   1       8.830  -8.247  -9.167  1.00  0.00    +0.0004  A
ATOM      5 C24  BRA L   1       8.103  -8.137 -10.354  1.00  0.00    +0.0353  A
ATOM      6 N25  BRA L   1       6.824  -8.554 -10.514  1.00  0.00    -0.2626 NA
ATOM      7 C26  BRA L   1       6.232  -9.102  -9.434  1.00  0.00    +0.0281  A
ATOM      8 C27  BRA L   1       6.856  -9.260  -8.206  1.00  0.00    -0.0358  A
ATOM      9 C28  BRA L   1       8.181  -8.829  -8.063  1.00  0.00    -0.0131  A
ATOM     10 C29  BRA L   1       8.883  -8.968  -6.853  1.00  0.00    -0.0305  A
ATOM     11 H50  BRA L   1      11.873  -7.614  -7.779  1.00  0.00    +0.0638  H
ATOM     12 H51  BRA L   1      10.674  -7.354  -9.880  1.00  0.00    +0.0625  H
ATOM     13 H52  BRA L   1       8.545  -7.697 -11.245  1.00  0.00    +0.0836  H
ATOM     14 H53  BRA L   1       5.205  -9.425  -9.583  1.00  0.00    +0.0830  H
ATOM     15 H54  BRA L   1       6.314  -9.713  -7.382  1.00  0.00    +0.0639  H
ATOM     16 H55  BRA L   1       8.381  -9.424  -6.003  1.00  0.00    +0.0644  H
ENDROOT
BRANCH 1 19
ATOM     17 C17  BRA L   1      12.020  -8.222  -5.006  1.00  0.00    +0.2339  C
ATOM     18 O18  BRA L   1      12.681  -7.343  -5.555  1.00  0.00    -0.2722 OA
ATOM     19 N19  BRA L   1      10.840  -8.770  -5.488  1.00  0.00    -0.3256  N
ATOM     20 H49  BRA L   1      10.403  -9.477  -4.907  1.00  0.00    +0.1686 HD
BRANCH 17 21
ATOM     21 C14  BRA L   1      12.455  -8.776  -3.633  1.00  0.00    +0.0752  C
ATOM     22 H44  BRA L   1      11.769  -9.601  -3.395  1.00  0.00    +0.0458  H
BRANCH 21 26
ATOM     23 C10  BRA L   1      12.205  -5.981  -0.316  1.00  0.00    -0.0103  A
ATOM     24 C11  BRA L   1      13.276  -5.945  -1.215  1.00  0.00    -0.0551  A
ATOM     25 C12  BRA L   1      13.308  -6.807  -2.311  1.00  0.00    -0.0574  A
ATOM     26 C13  BRA L   1      12.268  -7.727  -2.535  1.00  0.00    -0.0341  A
ATOM     27 C30  BRA L   1      11.167  -7.712  -1.668  1.00  0.00    -0.0574  A
ATOM     28 C31  BRA L   1      11.139  -6.850  -0.568  1.00  0.00    -0.0551  A
ATOM     29 H42  BRA L   1      14.114  -5.272  -1.042  1.00  0.00    +0.0621  H
ATOM     30 H43  BRA L   1      14.177  -6.789  -2.967  1.00  0.00    +0.0621  H
ATOM     31 H56  BRA L   1      10.328  -8.388  -1.811  1.00  0.00    +0.0621  H
ATOM     32 H57  BRA L   1      10.292  -6.894   0.114  1.00  0.00    +0.0621  H
BRANCH 23 33
ATOM     33  C9  BRA L   1      12.227  -5.135   0.933  1.00  0.00    +0.1179  C
ATOM     34 H40  BRA L   1      12.348  -4.066   0.715  1.00  0.00    +0.0749  H
ATOM     35 H41  BRA L   1      13.082  -5.430   1.552  1.00  0.00    +0.0749  H
BRANCH 33 36
ATOM     36  O8  BRA L   1      11.036  -5.364   1.700  1.00  0.00    -0.4564 OA
BRANCH 36 37
ATOM     37  C6  BRA L   1      11.243  -5.660   3.006  1.00  0.00    +0.3398  C
ATOM     38  O7  BRA L   1      11.956  -6.539   3.461  1.00  0.00    -0.2449 OA
BRANCH 37 43
ATOM     39  C1  BRA L   1       8.760  -1.526   6.198  1.00  0.00    -0.0397  C
ATOM     40  C2  BRA L   1       9.380  -2.608   5.362  1.00  0.00    -0.0502  A
ATOM     41  C3  BRA L   1      10.652  -2.432   4.811  1.00  0.00    -0.0580  A
ATOM     42  C4  BRA L   1      11.234  -3.447   4.055  1.00  0.00    -0.0473  A
ATOM     43  C5  BRA L   1      10.552  -4.654   3.843  1.00  0.00    +0.0619  A
ATOM     44 C32  BRA L   1       9.290  -4.869   4.425  1.00  0.00    -0.0362  A
ATOM     45 C33  BRA L   1       8.530  -6.154   4.254  1.00  0.00    -0.0389  C
ATOM     46 C34  BRA L   1       8.713  -3.829   5.174  1.00  0.00    -0.0551  A
ATOM     47 H35  BRA L   1       7.669  -1.544   6.112  1.00  0.00    +0.0278  H
ATOM     48 H36  BRA L   1       9.096  -0.538   5.869  1.00  0.00    +0.0278  H
ATOM     49 H37  BRA L   1       9.035  -1.662   7.248  1.00  0.00    +0.0278  H
ATOM     50 H38  BRA L   1      11.193  -1.499   4.960  1.00  0.00    +0.0620  H
ATOM     51 H39  BRA L   1      12.217  -3.294   3.617  1.00  0.00    +0.0626  H
ATOM     52 H58  BRA L   1       7.772  -6.271   5.036  1.00  0.00    +0.0278  H
ATOM     53 H59  BRA L   1       9.198  -7.018   4.333  1.00  0.00    +0.0278  H
ATOM     54 H60  BRA L   1       8.025  -6.170   3.283  1.00  0.00    +0.0278  H
ATOM     55 H61  BRA L   1       7.731  -3.971   5.624  1.00  0.00    +0.0623  H
ENDBRANCH 37 43
ENDBRANCH 36 37
ENDBRANCH 33 36
ENDBRANCH 23 33
ENDBRANCH 21 26
BRANCH 21 56
ATOM     56 C15  BRA L   1      13.862  -9.385  -3.825  1.00  0.00    +0.0085  C
ATOM     57 N16  BRA L   1      14.109  -9.901  -5.175  1.00  0.00    -0.3289 NA
ATOM     58 H45  BRA L   1      14.619  -8.619  -3.612  1.00  0.00    +0.0432  H
ATOM     59 H46  BRA L   1      14.035 -10.194  -3.104  1.00  0.00    +0.0432  H
ATOM     60 H47  BRA L   1      15.092 -10.157  -5.266  1.00  0.00    +0.1182 HD
ATOM     61 H48  BRA L   1      13.945  -9.163  -5.861  1.00  0.00    +0.1182 HD
ENDBRANCH 21 56
ENDBRANCH 17 21
ENDBRANCH 1 19
TORSDOF 8
ENDMDL
MODEL 6
REMARK VINA RESULT:    -7.438      1.397      2.067
REMARK INTER + INTRA:         -11.882
REMARK INTER:                  -9.898
REMARK INTRA:                  -1.984
REMARK UNBOUND:                -0.965
ROOT
ATOM      1 C20  BRA L   1      10.598  -4.557   2.935  1.00  0.00    +0.0423  A
ATOM      2 C21  BRA L   1      10.480  -3.352   3.624  1.00  0.00    -0.0377  A
ATOM      3 C22  BRA L   1       9.749  -3.288   4.815  1.00  0.00    -0.0506  A
ATOM      4 C23  BRA L   1       9.123  -4.433   5.334  1.00  0.00    +0.0004  A
ATOM      5 C24  BRA L   1       8.369  -4.424   6.510  1.00  0.00    +0.0353  A
ATOM      6 N25  BRA L   1       7.749  -5.509   7.033  1.00  0.00    -0.2626 NA
ATOM      7 C26  BRA L   1       7.891  -6.667   6.357  1.00  0.00    +0.0281  A
ATOM      8 C27  BRA L   1       8.616  -6.792   5.183  1.00  0.00    -0.0358  A
ATOM      9 C28  BRA L   1       9.245  -5.658   4.653  1.00  0.00    -0.0131  A
ATOM     10 C29  BRA L   1       9.986  -5.705   3.460  1.00  0.00    -0.0305  A
ATOM     11 H50  BRA L   1      10.937  -2.437   3.258  1.00  0.00    +0.0638  H
ATOM     12 H51  BRA L   1       9.667  -2.333   5.331  1.00  0.00    +0.0625  H
ATOM     13 H52  BRA L   1       8.235  -3.511   7.085  1.00  0.00    +0.0836  H
ATOM     14 H53  BRA L   1       7.389  -7.524   6.797  1.00  0.00    +0.0830  H
ATOM     15 H54  BRA L   1       8.683  -7.759   4.693  1.00  0.00    +0.0639  H
ATOM     16 H55  BRA L   1      10.073  -6.653   2.932  1.00  0.00    +0.0644  H
ENDROOT
BRANCH 1 19
ATOM     17 C17  BRA L   1      12.636  -4.898   1.499  1.00  0.00    +0.2339  C
ATOM     18 O18  BRA L   1      13.481  -5.084   2.373  1.00  0.00    -0.2722 OA
ATOM     19 N19  BRA L   1      11.279  -4.704   1.712  1.00  0.00    -0.3256  N
ATOM     20 H49  BRA L   1      10.708  -4.583   0.881  1.00  0.00    +0.1686 HD
BRANCH 17 21
ATOM     21 C14  BRA L   1      13.043  -4.921   0.011  1.00  0.00    +0.0752  C
ATOM     22 H44  BRA L   1      12.393  -4.199  -0.504  1.00  0.00    +0.0458  H
BRANCH 21 26
ATOM     23 C10  BRA L   1      11.972  -8.860  -1.478  1.00  0.00    -0.0103  A
ATOM     24 C11  BRA L   1      11.103  -7.772  -1.614  1.00  0.00    -0.0551  A
ATOM     25 C12  BRA L   1      11.488  -6.501  -1.188  1.00  0.00    -0.0574  A
ATOM     26 C13  BRA L   1      12.755  -6.287  -0.615  1.00  0.00    -0.0341  A
ATOM     27 C30  BRA L   1      13.645  -7.366  -0.543  1.00  0.00    -0.0574  A
ATOM     28 C31  BRA L   1      13.255  -8.640  -0.966  1.00  0.00    -0.0551  A
ATOM     29 H42  BRA L   1      10.101  -7.918  -2.015  1.00  0.00    +0.0621  H
ATOM     30 H43  BRA L   1      10.773  -5.683  -1.263  1.00  0.00    +0.0621  H
ATOM     31 H56  BRA L   1      14.643  -7.248  -0.129  1.00  0.00    +0.0621  H
ATOM     32 H57  BRA L   1      13.951  -9.469  -0.854  1.00  0.00    +0.0621  H
BRANCH 23 33
ATOM     33  C9  BRA L   1      11.512 -10.253  -1.826  1.00  0.00    +0.1179  C
ATOM     34 H40  BRA L   1      10.959 -10.731  -1.007  1.00  0.00    +0.0749  H
ATOM     35 H41  BRA L   1      12.388 -10.882  -2.026  1.00  0.00    +0.0749  H
BRANCH 33 36
ATOM     36  O8  BRA L   1      10.719 -10.222  -3.021  1.00  0.00    -0.4564 OA
BRANCH 36 37
ATOM     37  C6  BRA L   1      11.383 -10.535  -4.161  1.00  0.00    +0.3398  C
ATOM     38  O7  BRA L   1      12.029 -11.545  -4.385  1.00  0.00    -0.2449 OA
BRANCH 37 43
ATOM     39  C1  BRA L   1      10.024  -6.599  -8.172  1.00  0.00    -0.0397  C
ATOM     40  C2  BRA L   1      10.391  -7.602  -7.117  1.00  0.00    -0.0502  A
ATOM     41  C3  BRA L   1       9.548  -8.684  -6.849  1.00  0.00    -0.0580  A
ATOM     42  C4  BRA L   1       9.903  -9.625  -5.885  1.00  0.00    -0.0473  A
ATOM     43  C5  BRA L   1      11.108  -9.499  -5.180  1.00  0.00    +0.0619  A
ATOM     44 C32  BRA L   1      11.992  -8.443  -5.465  1.00  0.00    -0.0362  A
ATOM     45 C33  BRA L   1      13.309  -8.279  -4.761  1.00  0.00    -0.0389  C
ATOM     46 C34  BRA L   1      11.611  -7.496  -6.432  1.00  0.00    -0.0551  A
ATOM     47 H35  BRA L   1      10.429  -5.611  -7.929  1.00  0.00    +0.0278  H
ATOM     48 H36  BRA L   1       8.937  -6.495  -8.251  1.00  0.00    +0.0278  H
ATOM     49 H37  BRA L   1      10.421  -6.915  -9.142  1.00  0.00    +0.0278  H
ATOM     50 H38  BRA L   1       8.605  -8.793  -7.382  1.00  0.00    +0.0620  H
ATOM     51 H39  BRA L   1       9.232 -10.454  -5.672  1.00  0.00    +0.0626  H
ATOM     52 H58  BRA L   1      13.988  -7.643  -5.338  1.00  0.00    +0.0278  H
ATOM     53 H59  BRA L   1      13.811  -9.244  -4.637  1.00  0.00    +0.0278  H
ATOM     54 H60  BRA L   1      13.159  -7.816  -3.780  1.00  0.00    +0.0278  H
ATOM     55 H61  BRA L   1      12.276  -6.663  -6.660  1.00  0.00    +0.0623  H
ENDBRANCH 37 43
ENDBRANCH 36 37
ENDBRANCH 33 36
ENDBRANCH 23 33
ENDBRANCH 21 26
BRANCH 21 56
ATOM     56 C15  BRA L   1      14.488  -4.378  -0.063  1.00  0.00    +0.0085  C
ATOM     57 N16  BRA L   1      14.678  -3.096   0.622  1.00  0.00    -0.3289 NA
ATOM     58 H45  BRA L   1      15.171  -5.108   0.389  1.00  0.00    +0.0432  H
ATOM     59 H46  BRA L   1      14.807  -4.267  -1.107  1.00  0.00    +0.0432  H
ATOM     60 H47  BRA L   1      15.673  -2.871   0.651  1.00  0.00    +0.1182 HD
ATOM     61 H48  BRA L   1      14.380  -3.178   1.595  1.00  0.00    +0.1182 HD
ENDBRANCH 21 56
ENDBRANCH 17 21
ENDBRANCH 1 19
TORSDOF 8
ENDMDL
MODEL 7
REMARK VINA RESULT:    -7.367      3.475     10.866
REMARK INTER + INTRA:         -11.778
REMARK INTER:                 -10.490
REMARK INTRA:                  -1.287
REMARK UNBOUND:                -0.965
ROOT
ATOM      1 C20  BRA L   1      10.302  -8.334  -6.495  1.00  0.00    +0.0423  A
ATOM      2 C21  BRA L   1      10.836  -7.624  -7.567  1.00  0.00    -0.0377  A
ATOM      3 C22  BRA L   1      10.120  -7.507  -8.764  1.00  0.00    -0.0506  A
ATOM      4 C23  BRA L   1       8.856  -8.102  -8.903  1.00  0.00    +0.0004  A
ATOM      5 C24  BRA L   1       8.104  -8.030 -10.078  1.00  0.00    +0.0353  A
ATOM      6 N25  BRA L   1       6.886  -8.598 -10.247  1.00  0.00    -0.2626 NA
ATOM      7 C26  BRA L   1       6.382  -9.266  -9.189  1.00  0.00    +0.0281  A
ATOM      8 C27  BRA L   1       7.039  -9.401  -7.976  1.00  0.00    -0.0358  A
ATOM      9 C28  BRA L   1       8.301  -8.812  -7.823  1.00  0.00    -0.0131  A
ATOM     10 C29  BRA L   1       9.032  -8.917  -6.628  1.00  0.00    -0.0305  A
ATOM     11 H50  BRA L   1      11.814  -7.155  -7.512  1.00  0.00    +0.0638  H
ATOM     12 H51  BRA L   1      10.562  -6.951  -9.589  1.00  0.00    +0.0625  H
ATOM     13 H52  BRA L   1       8.474  -7.497 -10.951  1.00  0.00    +0.0836  H
ATOM     14 H53  BRA L   1       5.403  -9.710  -9.345  1.00  0.00    +0.0830  H
ATOM     15 H54  BRA L   1       6.571  -9.957  -7.171  1.00  0.00    +0.0639  H
ATOM     16 H55  BRA L   1       8.604  -9.473  -5.796  1.00  0.00    +0.0644  H
ENDROOT
BRANCH 1 19
ATOM     17 C17  BRA L   1      12.245  -8.133  -4.908  1.00  0.00    +0.2339  C
ATOM     18 O18  BRA L   1      12.989  -7.418  -5.577  1.00  0.00    -0.2722 OA
ATOM     19 N19  BRA L   1      10.968  -8.537  -5.271  1.00  0.00    -0.3256  N
ATOM     20 H49  BRA L   1      10.472  -9.113  -4.599  1.00  0.00    +0.1686 HD
BRANCH 17 21
ATOM     21 C14  BRA L   1      12.684  -8.616  -3.510  1.00  0.00    +0.0752  C
ATOM     22 H44  BRA L   1      11.773  -8.953  -2.994  1.00  0.00    +0.0458  H
BRANCH 21 26
ATOM     23 C10  BRA L   1      14.373  -5.596  -0.884  1.00  0.00    -0.0103  A
ATOM     24 C11  BRA L   1      15.191  -6.498  -1.573  1.00  0.00    -0.0551  A
ATOM     25 C12  BRA L   1      14.637  -7.420  -2.460  1.00  0.00    -0.0574  A
ATOM     26 C13  BRA L   1      13.249  -7.461  -2.683  1.00  0.00    -0.0341  A
ATOM     27 C30  BRA L   1      12.443  -6.511  -2.041  1.00  0.00    -0.0574  A
ATOM     28 C31  BRA L   1      13.000  -5.591  -1.148  1.00  0.00    -0.0551  A
ATOM     29 H42  BRA L   1      16.264  -6.516  -1.387  1.00  0.00    +0.0621  H
ATOM     30 H43  BRA L   1      15.294  -8.141  -2.945  1.00  0.00    +0.0621  H
ATOM     31 H56  BRA L   1      11.367  -6.487  -2.197  1.00  0.00    +0.0621  H
ATOM     32 H57  BRA L   1      12.343  -4.896  -0.629  1.00  0.00    +0.0621  H
BRANCH 23 33
ATOM     33  C9  BRA L   1      14.957  -4.682   0.164  1.00  0.00    +0.1179  C
ATOM     34 H40  BRA L   1      15.567  -3.879  -0.270  1.00  0.00    +0.0749  H
ATOM     35 H41  BRA L   1      15.616  -5.262   0.820  1.00  0.00    +0.0749  H
BRANCH 33 36
ATOM     36  O8  BRA L   1      13.907  -4.137   0.977  1.00  0.00    -0.4564 OA
BRANCH 36 37
ATOM     37  C6  BRA L   1      13.872  -4.594   2.253  1.00  0.00    +0.3398  C
ATOM     38  O7  BRA L   1      14.701  -5.294   2.809  1.00  0.00    -0.2449 OA
BRANCH 37 43
ATOM     39  C1  BRA L   1       9.480  -2.051   5.024  1.00  0.00    -0.0397  C
ATOM     40  C2  BRA L   1      10.603  -2.720   4.286  1.00  0.00    -0.0502  A
ATOM     41  C3  BRA L   1      11.904  -2.217   4.375  1.00  0.00    -0.0580  A
ATOM     42  C4  BRA L   1      12.948  -2.854   3.706  1.00  0.00    -0.0473  A
ATOM     43  C5  BRA L   1      12.704  -4.006   2.944  1.00  0.00    +0.0619  A
ATOM     44 C32  BRA L   1      11.410  -4.553   2.877  1.00  0.00    -0.0362  A
ATOM     45 C33  BRA L   1      11.101  -5.801   2.099  1.00  0.00    -0.0389  C
ATOM     46 C34  BRA L   1      10.368  -3.890   3.547  1.00  0.00    -0.0551  A
ATOM     47 H35  BRA L   1       8.533  -2.178   4.491  1.00  0.00    +0.0278  H
ATOM     48 H36  BRA L   1       9.660  -0.975   5.116  1.00  0.00    +0.0278  H
ATOM     49 H37  BRA L   1       9.384  -2.481   6.026  1.00  0.00    +0.0278  H
ATOM     50 H38  BRA L   1      12.110  -1.321   4.957  1.00  0.00    +0.0620  H
ATOM     51 H39  BRA L   1      13.953  -2.446   3.768  1.00  0.00    +0.0626  H
ATOM     52 H58  BRA L   1      10.165  -6.257   2.441  1.00  0.00    +0.0278  H
ATOM     53 H59  BRA L   1      11.885  -6.553   2.236  1.00  0.00    +0.0278  H
ATOM     54 H60  BRA L   1      10.998  -5.569   1.034  1.00  0.00    +0.0278  H
ATOM     55 H61  BRA L   1       9.356  -4.292   3.499  1.00  0.00    +0.0623  H
ENDBRANCH 37 43
ENDBRANCH 36 37
ENDBRANCH 33 36
ENDBRANCH 23 33
ENDBRANCH 21 26
BRANCH 21 56
ATOM     56 C15  BRA L   1      13.577  -9.858  -3.731  1.00  0.00    +0.0085  C
ATOM     57 N16  BRA L   1      13.493 -10.420  -5.083  1.00  0.00    -0.3289 NA
ATOM     58 H45  BRA L   1      14.624  -9.588  -3.541  1.00  0.00    +0.0432  H
ATOM     59 H46  BRA L   1      13.330 -10.646  -3.009  1.00  0.00    +0.0432  H
ATOM     60 H47  BRA L   1      14.205 -11.142  -5.195  1.00  0.00    +0.1182 HD
ATOM     61 H48  BRA L   1      13.714  -9.698  -5.770  1.00  0.00    +0.1182 HD
ENDBRANCH 21 56
ENDBRANCH 17 21
ENDBRANCH 1 19
TORSDOF 8
ENDMDL
MODEL 8
REMARK VINA RESULT:    -7.303      5.369     12.563
REMARK INTER + INTRA:         -11.684
REMARK INTER:                 -10.198
REMARK INTRA:                  -1.486
REMARK UNBOUND:                -0.965
ROOT
ATOM      1 C20  BRA L   1      12.024  -7.752 -11.011  1.00  0.00    +0.0423  A
ATOM      2 C21  BRA L   1      13.333  -7.655 -10.545  1.00  0.00    -0.0377  A
ATOM      3 C22  BRA L   1      14.394  -7.510 -11.444  1.00  0.00    -0.0506  A
ATOM      4 C23  BRA L   1      14.158  -7.459 -12.828  1.00  0.00    +0.0004  A
ATOM      5 C24  BRA L   1      15.179  -7.330 -13.772  1.00  0.00    +0.0353  A
ATOM      6 N25  BRA L   1      14.986  -7.284 -15.112  1.00  0.00    -0.2626 NA
ATOM      7 C26  BRA L   1      13.709  -7.363 -15.538  1.00  0.00    +0.0281  A
ATOM      8 C27  BRA L   1      12.619  -7.492 -14.692  1.00  0.00    -0.0358  A
ATOM      9 C28  BRA L   1      12.840  -7.544 -13.310  1.00  0.00    -0.0131  A
ATOM     10 C29  BRA L   1      11.785  -7.686 -12.392  1.00  0.00    -0.0305  A
ATOM     11 H50  BRA L   1      13.567  -7.699  -9.485  1.00  0.00    +0.0638  H
ATOM     12 H51  BRA L   1      15.408  -7.442 -11.055  1.00  0.00    +0.0625  H
ATOM     13 H52  BRA L   1      16.221  -7.259 -13.467  1.00  0.00    +0.0836  H
ATOM     14 H53  BRA L   1      13.577  -7.320 -16.616  1.00  0.00    +0.0830  H
ATOM     15 H54  BRA L   1      11.619  -7.552 -15.110  1.00  0.00    +0.0639  H
ATOM     16 H55  BRA L   1      10.766  -7.758 -12.767  1.00  0.00    +0.0644  H
ENDROOT
BRANCH 1 19
ATOM     17 C17  BRA L   1      10.319  -7.038  -9.302  1.00  0.00    +0.2339  C
ATOM     18 O18  BRA L   1      10.631  -5.856  -9.175  1.00  0.00    -0.2722 OA
ATOM     19 N19  BRA L   1      10.901  -7.940 -10.182  1.00  0.00    -0.3256  N
ATOM     20 H49  BRA L   1      10.517  -8.880 -10.180  1.00  0.00    +0.1686 HD
BRANCH 17 21
ATOM     21 C14  BRA L   1       9.151  -7.625  -8.481  1.00  0.00    +0.0752  C
ATOM     22 H44  BRA L   1       8.549  -6.772  -8.138  1.00  0.00    +0.0458  H
BRANCH 21 26
ATOM     23 C10  BRA L   1      10.345  -9.417  -4.708  1.00  0.00    -0.0103  A
ATOM     24 C11  BRA L   1       9.146  -9.775  -5.334  1.00  0.00    -0.0551  A
ATOM     25 C12  BRA L   1       8.808  -9.237  -6.576  1.00  0.00    -0.0574  A
ATOM     26 C13  BRA L   1       9.664  -8.328  -7.224  1.00  0.00    -0.0341  A
ATOM     27 C30  BRA L   1      10.893  -8.026  -6.623  1.00  0.00    -0.0574  A
ATOM     28 C31  BRA L   1      11.227  -8.562  -5.377  1.00  0.00    -0.0551  A
ATOM     29 H42  BRA L   1       8.446 -10.443  -4.834  1.00  0.00    +0.0621  H
ATOM     30 H43  BRA L   1       7.847  -9.497  -7.016  1.00  0.00    +0.0621  H
ATOM     31 H56  BRA L   1      11.599  -7.347  -7.094  1.00  0.00    +0.0621  H
ATOM     32 H57  BRA L   1      12.169  -8.273  -4.913  1.00  0.00    +0.0621  H
BRANCH 23 33
ATOM     33  C9  BRA L   1      10.654  -9.903  -3.314  1.00  0.00    +0.1179  C
ATOM     34 H40  BRA L   1      11.627 -10.406  -3.250  1.00  0.00    +0.0749  H
ATOM     35 H41  BRA L   1       9.897 -10.637  -3.013  1.00  0.00    +0.0749  H
BRANCH 33 36
ATOM     36  O8  BRA L   1      10.588  -8.808  -2.389  1.00  0.00    -0.4564 OA
BRANCH 36 37
ATOM     37  C6  BRA L   1      11.373  -8.934  -1.292  1.00  0.00    +0.3398  C
ATOM     38  O7  BRA L   1      11.571  -9.944  -0.638  1.00  0.00    -0.2449 OA
BRANCH 37 43
ATOM     39  C1  BRA L   1      13.956  -3.892  -0.133  1.00  0.00    -0.0397  C
ATOM     40  C2  BRA L   1      13.310  -5.212  -0.440  1.00  0.00    -0.0502  A
ATOM     41  C3  BRA L   1      12.117  -5.576   0.190  1.00  0.00    -0.0580  A
ATOM     42  C4  BRA L   1      11.507  -6.792  -0.114  1.00  0.00    -0.0473  A
ATOM     43  C5  BRA L   1      12.082  -7.657  -1.056  1.00  0.00    +0.0619  A
ATOM     44 C32  BRA L   1      13.259  -7.291  -1.733  1.00  0.00    -0.0362  A
ATOM     45 C33  BRA L   1      13.899  -8.168  -2.772  1.00  0.00    -0.0389  C
ATOM     46 C34  BRA L   1      13.866  -6.067  -1.405  1.00  0.00    -0.0551  A
ATOM     47 H35  BRA L   1      15.044  -3.956  -0.244  1.00  0.00    +0.0278  H
ATOM     48 H36  BRA L   1      13.752  -3.587   0.898  1.00  0.00    +0.0278  H
ATOM     49 H37  BRA L   1      13.575  -3.123  -0.812  1.00  0.00    +0.0278  H
ATOM     50 H38  BRA L   1      11.660  -4.919   0.928  1.00  0.00    +0.0620  H
ATOM     51 H39  BRA L   1      10.588  -7.073   0.393  1.00  0.00    +0.0626  H
ATOM     52 H58  BRA L   1      14.568  -7.589  -3.419  1.00  0.00    +0.0278  H
ATOM     53 H59  BRA L   1      13.144  -8.618  -3.425  1.00  0.00    +0.0278  H
ATOM     54 H60  BRA L   1      14.486  -8.958  -2.293  1.00  0.00    +0.0278  H
ATOM     55 H61  BRA L   1      14.784  -5.769  -1.909  1.00  0.00    +0.0623  H
ENDBRANCH 37 43
ENDBRANCH 36 37
ENDBRANCH 33 36
ENDBRANCH 23 33
ENDBRANCH 21 26
BRANCH 21 56
ATOM     56 C15  BRA L   1       8.282  -8.439  -9.467  1.00  0.00    +0.0085  C
ATOM     57 N16  BRA L   1       8.042  -7.765 -10.747  1.00  0.00    -0.3289 NA
ATOM     58 H45  BRA L   1       8.774  -9.397  -9.676  1.00  0.00    +0.0432  H
ATOM     59 H46  BRA L   1       7.313  -8.685  -9.015  1.00  0.00    +0.0432  H
ATOM     60 H47  BRA L   1       7.584  -8.412 -11.390  1.00  0.00    +0.1182 HD
ATOM     61 H48  BRA L   1       8.934  -7.521 -11.180  1.00  0.00    +0.1182 HD
ENDBRANCH 21 56
ENDBRANCH 17 21
ENDBRANCH 1 19
TORSDOF 8
ENDMDL
MODEL 9
REMARK VINA RESULT:    -7.292      3.294      5.447
REMARK INTER + INTRA:         -11.668
REMARK INTER:                  -9.826
REMARK INTRA:                  -1.842
REMARK UNBOUND:                -0.965
ROOT
ATOM      1 C20  BRA L   1      13.064  -6.963  -0.421  1.00  0.00    +0.0423  A
ATOM      2 C21  BRA L   1      12.194  -6.980   0.667  1.00  0.00    -0.0377  A
ATOM      3 C22  BRA L   1      12.285  -5.997   1.659  1.00  0.00    -0.0506  A
ATOM      4 C23  BRA L   1      13.251  -4.981   1.574  1.00  0.00    +0.0004  A
ATOM      5 C24  BRA L   1      13.397  -3.984   2.542  1.00  0.00    +0.0353  A
ATOM      6 N25  BRA L   1      14.321  -2.995   2.493  1.00  0.00    -0.2626 NA
ATOM      7 C26  BRA L   1      15.140  -2.991   1.423  1.00  0.00    +0.0281  A
ATOM      8 C27  BRA L   1      15.086  -3.928   0.403  1.00  0.00    -0.0358  A
ATOM      9 C28  BRA L   1      14.127  -4.948   0.475  1.00  0.00    -0.0131  A
ATOM     10 C29  BRA L   1      14.020  -5.940  -0.514  1.00  0.00    -0.0305  A
ATOM     11 H50  BRA L   1      11.438  -7.750   0.782  1.00  0.00    +0.0638  H
ATOM     12 H51  BRA L   1      11.597  -6.036   2.501  1.00  0.00    +0.0625  H
ATOM     13 H52  BRA L   1      12.752  -3.952   3.417  1.00  0.00    +0.0836  H
ATOM     14 H53  BRA L   1      15.871  -2.187   1.402  1.00  0.00    +0.0830  H
ATOM     15 H54  BRA L   1      15.782  -3.861  -0.427  1.00  0.00    +0.0639  H
ATOM     16 H55  BRA L   1      14.703  -5.916  -1.361  1.00  0.00    +0.0644  H
ENDROOT
BRANCH 1 19
ATOM     17 C17  BRA L   1      12.031  -8.309  -2.279  1.00  0.00    +0.2339  C
ATOM     18 O18  BRA L   1      10.928  -7.770  -2.342  1.00  0.00    -0.2722 OA
ATOM     19 N19  BRA L   1      13.071  -7.933  -1.442  1.00  0.00    -0.3256  N
ATOM     20 H49  BRA L   1      13.929  -8.469  -1.523  1.00  0.00    +0.1686 HD
BRANCH 17 21
ATOM     21 C14  BRA L   1      12.375  -9.481  -3.223  1.00  0.00    +0.0752  C
ATOM     22 H44  BRA L   1      13.440  -9.706  -3.068  1.00  0.00    +0.0458  H
BRANCH 21 26
ATOM     23 C10  BRA L   1      12.285  -8.499  -7.454  1.00  0.00    -0.0103  A
ATOM     24 C11  BRA L   1      11.977  -9.786  -7.001  1.00  0.00    -0.0551  A
ATOM     25 C12  BRA L   1      11.949 -10.068  -5.635  1.00  0.00    -0.0574  A
ATOM     26 C13  BRA L   1      12.227  -9.067  -4.687  1.00  0.00    -0.0341  A
ATOM     27 C30  BRA L   1      12.469  -7.765  -5.145  1.00  0.00    -0.0574  A
ATOM     28 C31  BRA L   1      12.502  -7.486  -6.514  1.00  0.00    -0.0551  A
ATOM     29 H42  BRA L   1      11.799 -10.590  -7.715  1.00  0.00    +0.0621  H
ATOM     30 H43  BRA L   1      11.752 -11.090  -5.315  1.00  0.00    +0.0621  H
ATOM     31 H56  BRA L   1      12.668  -6.952  -4.452  1.00  0.00    +0.0621  H
ATOM     32 H57  BRA L   1      12.739  -6.475  -6.840  1.00  0.00    +0.0621  H
BRANCH 23 33
ATOM     33  C9  BRA L   1      12.434  -8.223  -8.929  1.00  0.00    +0.1179  C
ATOM     34 H40  BRA L   1      13.256  -8.792  -9.382  1.00  0.00    +0.0749  H
ATOM     35 H41  BRA L   1      12.666  -7.162  -9.074  1.00  0.00    +0.0749  H
BRANCH 33 36
ATOM     36  O8  BRA L   1      11.197  -8.494  -9.604  1.00  0.00    -0.4564 OA
BRANCH 36 37
ATOM     37  C6  BRA L   1      10.245  -7.539  -9.464  1.00  0.00    +0.3398  C
ATOM     38  O7  BRA L   1      10.416  -6.338  -9.346  1.00  0.00    -0.2449 OA
BRANCH 37 43
ATOM     39  C1  BRA L   1       5.070  -9.978 -10.306  1.00  0.00    -0.0397  C
ATOM     40  C2  BRA L   1       6.418  -9.361 -10.065  1.00  0.00    -0.0502  A
ATOM     41  C3  BRA L   1       7.148  -8.827 -11.131  1.00  0.00    -0.0580  A
ATOM     42  C4  BRA L   1       8.388  -8.234 -10.901  1.00  0.00    -0.0473  A
ATOM     43  C5  BRA L   1       8.911  -8.165  -9.602  1.00  0.00    +0.0619  A
ATOM     44 C32  BRA L   1       8.174  -8.657  -8.511  1.00  0.00    -0.0362  A
ATOM     45 C33  BRA L   1       8.675  -8.580  -7.096  1.00  0.00    -0.0389  C
ATOM     46 C34  BRA L   1       6.931  -9.262  -8.763  1.00  0.00    -0.0551  A
ATOM     47 H35  BRA L   1       4.870 -10.772  -9.579  1.00  0.00    +0.0278  H
ATOM     48 H36  BRA L   1       5.019 -10.429 -11.302  1.00  0.00    +0.0278  H
ATOM     49 H37  BRA L   1       4.290  -9.216 -10.221  1.00  0.00    +0.0278  H
ATOM     50 H38  BRA L   1       6.760  -8.878 -12.146  1.00  0.00    +0.0620  H
ATOM     51 H39  BRA L   1       8.956  -7.836 -11.738  1.00  0.00    +0.0626  H
ATOM     52 H58  BRA L   1       7.852  -8.678  -6.380  1.00  0.00    +0.0278  H
ATOM     53 H59  BRA L   1       9.149  -7.613  -6.900  1.00  0.00    +0.0278  H
ATOM     54 H60  BRA L   1       9.392  -9.385  -6.903  1.00  0.00    +0.0278  H
ATOM     55 H61  BRA L   1       6.348  -9.660  -7.933  1.00  0.00    +0.0623  H
ENDBRANCH 37 43
ENDBRANCH 36 37
ENDBRANCH 33 36
ENDBRANCH 23 33
ENDBRANCH 21 26
BRANCH 21 56
ATOM     56 C15  BRA L   1      11.568 -10.702  -2.726  1.00  0.00    +0.0085  C
ATOM     57 N16  BRA L   1      11.076 -10.572  -1.351  1.00  0.00    -0.3289 NA
ATOM     58 H45  BRA L   1      10.701 -10.852  -3.383  1.00  0.00    +0.0432  H
ATOM     59 H46  BRA L   1      12.168 -11.618  -2.798  1.00  0.00    +0.0432  H
ATOM     60 H47  BRA L   1      10.442 -11.345  -1.143  1.00  0.00    +0.1182 HD
ATOM     61 H48  BRA L   1      10.520  -9.720  -1.263  1.00  0.00    +0.1182 HD
ENDBRANCH 21 56
ENDBRANCH 17 21
ENDBRANCH 1 19
TORSDOF 8
ENDMDL
MODEL 10
REMARK VINA RESULT:    -7.292      5.565     12.747
REMARK INTER + INTRA:         -11.667
REMARK INTER:                 -10.649
REMARK INTRA:                  -1.018
REMARK UNBOUND:                -0.965
ROOT
ATOM      1 C20  BRA L   1      10.720  -7.557 -11.992  1.00  0.00    +0.0423  A
ATOM      2 C21  BRA L   1      10.464  -7.399 -13.352  1.00  0.00    -0.0377  A
ATOM      3 C22  BRA L   1      11.522  -7.282 -14.261  1.00  0.00    -0.0506  A
ATOM      4 C23  BRA L   1      12.854  -7.323 -13.818  1.00  0.00    +0.0004  A
ATOM      5 C24  BRA L   1      13.948  -7.197 -14.677  1.00  0.00    +0.0353  A
ATOM      6 N25  BRA L   1      15.244  -7.226 -14.282  1.00  0.00    -0.2626 NA
ATOM      7 C26  BRA L   1      15.465  -7.396 -12.963  1.00  0.00    +0.0281  A
ATOM      8 C27  BRA L   1      14.458  -7.532 -12.021  1.00  0.00    -0.0358  A
ATOM      9 C28  BRA L   1      13.124  -7.494 -12.448  1.00  0.00    -0.0131  A
ATOM     10 C29  BRA L   1      12.050  -7.612 -11.550  1.00  0.00    -0.0305  A
ATOM     11 H50  BRA L   1       9.452  -7.351 -13.742  1.00  0.00    +0.0638  H
ATOM     12 H51  BRA L   1      11.295  -7.154 -15.317  1.00  0.00    +0.0625  H
ATOM     13 H52  BRA L   1      13.810  -7.063 -15.747  1.00  0.00    +0.0836  H
ATOM     14 H53  BRA L   1      16.511  -7.420 -12.669  1.00  0.00    +0.0830  H
ATOM     15 H54  BRA L   1      14.715  -7.663 -10.974  1.00  0.00    +0.0639  H
ATOM     16 H55  BRA L   1      12.262  -7.737 -10.490  1.00  0.00    +0.0644  H
ENDROOT
BRANCH 1 19
ATOM     17 C17  BRA L   1       9.150  -8.778 -10.450  1.00  0.00    +0.2339  C
ATOM     18 O18  BRA L   1       9.509  -9.935 -10.658  1.00  0.00    -0.2722 OA
ATOM     19 N19  BRA L   1       9.720  -7.640 -11.005  1.00  0.00    -0.3256  N
ATOM     20 H49  BRA L   1       9.320  -6.753 -10.718  1.00  0.00    +0.1686 HD
BRANCH 17 21
ATOM     21 C14  BRA L   1       8.007  -8.487  -9.456  1.00  0.00    +0.0752  C
ATOM     22 H44  BRA L   1       7.786  -7.413  -9.534  1.00  0.00    +0.0458  H
BRANCH 21 26
ATOM     23 C10  BRA L   1       9.554  -9.427  -5.506  1.00  0.00    -0.0103  A
ATOM     24 C11  BRA L   1      10.258  -8.592  -6.381  1.00  0.00    -0.0551  A
ATOM     25 C12  BRA L   1       9.717  -8.250  -7.620  1.00  0.00    -0.0574  A
ATOM     26 C13  BRA L   1       8.456  -8.733  -8.015  1.00  0.00    -0.0341  A
ATOM     27 C30  BRA L   1       7.728  -9.513  -7.107  1.00  0.00    -0.0574  A
ATOM     28 C31  BRA L   1       8.274  -9.859  -5.868  1.00  0.00    -0.0551  A
ATOM     29 H42  BRA L   1      11.254  -8.240  -6.119  1.00  0.00    +0.0621  H
ATOM     30 H43  BRA L   1      10.308  -7.638  -8.300  1.00  0.00    +0.0621  H
ATOM     31 H56  BRA L   1       6.740  -9.893  -7.355  1.00  0.00    +0.0621  H
ATOM     32 H57  BRA L   1       7.704 -10.506  -5.202  1.00  0.00    +0.0621  H
BRANCH 23 33
ATOM     33  C9  BRA L   1      10.188  -9.895  -4.221  1.00  0.00    +0.1179  C
ATOM     34 H40  BRA L   1      11.158 -10.381  -4.383  1.00  0.00    +0.0749  H
ATOM     35 H41  BRA L   1       9.536 -10.638  -3.748  1.00  0.00    +0.0749  H
BRANCH 33 36
ATOM     36  O8  BRA L   1      10.320  -8.792  -3.311  1.00  0.00    -0.4564 OA
BRANCH 36 37
ATOM     37  C6  BRA L   1      11.040  -9.053  -2.193  1.00  0.00    +0.3398  C
ATOM     38  O7  BRA L   1      11.167 -10.128  -1.630  1.00  0.00    -0.2449 OA
BRANCH 37 43
ATOM     39  C1  BRA L   1      13.723  -4.246  -0.426  1.00  0.00    -0.0397  C
ATOM     40  C2  BRA L   1      13.051  -5.505  -0.890  1.00  0.00    -0.0502  A
ATOM     41  C3  BRA L   1      11.800  -5.865  -0.381  1.00  0.00    -0.0580  A
ATOM     42  C4  BRA L   1      11.168  -7.023  -0.831  1.00  0.00    -0.0473  A
ATOM     43  C5  BRA L   1      11.778  -7.833  -1.799  1.00  0.00    +0.0619  A
ATOM     44 C32  BRA L   1      13.016  -7.467  -2.356  1.00  0.00    -0.0362  A
ATOM     45 C33  BRA L   1      13.698  -8.284  -3.417  1.00  0.00    -0.0389  C
ATOM     46 C34  BRA L   1      13.644  -6.302  -1.881  1.00  0.00    -0.0551  A
ATOM     47 H35  BRA L   1      14.813  -4.349  -0.463  1.00  0.00    +0.0278  H
ATOM     48 H36  BRA L   1      13.453  -4.017   0.610  1.00  0.00    +0.0278  H
ATOM     49 H37  BRA L   1      13.425  -3.407  -1.063  1.00  0.00    +0.0278  H
ATOM     50 H38  BRA L   1      11.315  -5.251   0.376  1.00  0.00    +0.0620  H
ATOM     51 H39  BRA L   1      10.203  -7.303  -0.417  1.00  0.00    +0.0626  H
ATOM     52 H58  BRA L   1      14.436  -7.685  -3.961  1.00  0.00    +0.0278  H
ATOM     53 H59  BRA L   1      12.978  -8.644  -4.158  1.00  0.00    +0.0278  H
ATOM     54 H60  BRA L   1      14.216  -9.136  -2.965  1.00  0.00    +0.0278  H
ATOM     55 H61  BRA L   1      14.609  -6.006  -2.291  1.00  0.00    +0.0623  H
ENDBRANCH 37 43
ENDBRANCH 36 37
ENDBRANCH 33 36
ENDBRANCH 23 33
ENDBRANCH 21 26
BRANCH 21 56
ATOM     56 C15  BRA L   1       6.766  -9.252  -9.971  1.00  0.00    +0.0085  C
ATOM     57 N16  BRA L   1       5.493  -8.580  -9.691  1.00  0.00    -0.3289 NA
ATOM     58 H45  BRA L   1       6.848  -9.383 -11.057  1.00  0.00    +0.0432  H
ATOM     59 H46  BRA L   1       6.729 -10.262  -9.543  1.00  0.00    +0.0432  H
ATOM     60 H47  BRA L   1       4.739  -9.067 -10.177  1.00  0.00    +0.1182 HD
ATOM     61 H48  BRA L   1       5.511  -7.634 -10.076  1.00  0.00    +0.1182 HD
ENDBRANCH 21 56
ENDBRANCH 17 21
ENDBRANCH 1 19
TORSDOF 8
ENDMDL
MODEL 11
REMARK VINA RESULT:    -7.226      3.723      6.754
REMARK INTER + INTRA:         -11.570
REMARK INTER:                  -9.245
REMARK INTRA:                  -2.325
REMARK UNBOUND:                -0.965
ROOT
ATOM      1 C20  BRA L   1      12.035  -8.095  -2.349  1.00  0.00    +0.0423  A
ATOM      2 C21  BRA L   1      10.988  -7.799  -1.479  1.00  0.00    -0.0377  A
ATOM      3 C22  BRA L   1      11.138  -6.806  -0.505  1.00  0.00    -0.0506  A
ATOM      4 C23  BRA L   1      12.343  -6.093  -0.389  1.00  0.00    +0.0004  A
ATOM      5 C24  BRA L   1      12.553  -5.102   0.573  1.00  0.00    +0.0353  A
ATOM      6 N25  BRA L   1      13.704  -4.401   0.715  1.00  0.00    -0.2626 NA
ATOM      7 C26  BRA L   1      14.696  -4.694  -0.149  1.00  0.00    +0.0281  A
ATOM      8 C27  BRA L   1      14.598  -5.655  -1.143  1.00  0.00    -0.0358  A
ATOM      9 C28  BRA L   1      13.402  -6.375  -1.270  1.00  0.00    -0.0131  A
ATOM     10 C29  BRA L   1      13.234  -7.373  -2.244  1.00  0.00    -0.0305  A
ATOM     11 H50  BRA L   1      10.042  -8.330  -1.522  1.00  0.00    +0.0638  H
ATOM     12 H51  BRA L   1      10.307  -6.598   0.166  1.00  0.00    +0.0625  H
ATOM     13 H52  BRA L   1      11.776  -4.835   1.284  1.00  0.00    +0.0836  H
ATOM     14 H53  BRA L   1      15.608  -4.117  -0.020  1.00  0.00    +0.0830  H
ATOM     15 H54  BRA L   1      15.442  -5.837  -1.800  1.00  0.00    +0.0639  H
ATOM     16 H55  BRA L   1      14.058  -7.594  -2.920  1.00  0.00    +0.0644  H
ENDROOT
BRANCH 1 19
ATOM     17 C17  BRA L   1      11.351  -9.076  -4.563  1.00  0.00    +0.2339  C
ATOM     18 O18  BRA L   1      10.797  -8.100  -5.064  1.00  0.00    -0.2722 OA
ATOM     19 N19  BRA L   1      11.986  -9.104  -3.330  1.00  0.00    -0.3256  N
ATOM     20 H49  BRA L   1      12.413  -9.986  -3.065  1.00  0.00    +0.1686 HD
BRANCH 17 21
ATOM     21 C14  BRA L   1      11.429 -10.407  -5.341  1.00  0.00    +0.0752  C
ATOM     22 H44  BRA L   1      12.201 -11.015  -4.847  1.00  0.00    +0.0458  H
BRANCH 21 26
ATOM     23 C10  BRA L   1      12.626  -9.403  -9.395  1.00  0.00    -0.0103  A
ATOM     24 C11  BRA L   1      13.261  -8.829  -8.288  1.00  0.00    -0.0551  A
ATOM     25 C12  BRA L   1      12.907  -9.210  -6.994  1.00  0.00    -0.0574  A
ATOM     26 C13  BRA L   1      11.909 -10.176  -6.774  1.00  0.00    -0.0341  A
ATOM     27 C30  BRA L   1      11.325 -10.795  -7.888  1.00  0.00    -0.0574  A
ATOM     28 C31  BRA L   1      11.677 -10.409  -9.183  1.00  0.00    -0.0551  A
ATOM     29 H42  BRA L   1      14.005  -8.047  -8.429  1.00  0.00    +0.0621  H
ATOM     30 H43  BRA L   1      13.384  -8.711  -6.152  1.00  0.00    +0.0621  H
ATOM     31 H56  BRA L   1      10.566 -11.564  -7.771  1.00  0.00    +0.0621  H
ATOM     32 H57  BRA L   1      11.173 -10.874 -10.028  1.00  0.00    +0.0621  H
BRANCH 23 33
ATOM     33  C9  BRA L   1      12.921  -8.905 -10.788  1.00  0.00    +0.1179  C
ATOM     34 H40  BRA L   1      13.794  -9.398 -11.234  1.00  0.00    +0.0749  H
ATOM     35 H41  BRA L   1      13.149  -7.834 -10.746  1.00  0.00    +0.0749  H
BRANCH 33 36
ATOM     36  O8  BRA L   1      11.764  -9.071 -11.621  1.00  0.00    -0.4564 OA
BRANCH 36 37
ATOM     37  C6  BRA L   1      10.996  -7.963 -11.763  1.00  0.00    +0.3398  C
ATOM     38  O7  BRA L   1      11.288  -6.930 -12.342  1.00  0.00    -0.2449 OA
BRANCH 37 43
ATOM     39  C1  BRA L   1       5.700  -9.212  -9.805  1.00  0.00    -0.0397  C
ATOM     40  C2  BRA L   1       7.084  -8.887 -10.288  1.00  0.00    -0.0502  A
ATOM     41  C3  BRA L   1       7.506  -9.308 -11.552  1.00  0.00    -0.0580  A
ATOM     42  C4  BRA L   1       8.784  -8.985 -12.006  1.00  0.00    -0.0473  A
ATOM     43  C5  BRA L   1       9.653  -8.233 -11.203  1.00  0.00    +0.0619  A
ATOM     44 C32  BRA L   1       9.232  -7.762  -9.946  1.00  0.00    -0.0362  A
ATOM     45 C33  BRA L   1      10.113  -6.929  -9.059  1.00  0.00    -0.0389  C
ATOM     46 C34  BRA L   1       7.946  -8.108  -9.500  1.00  0.00    -0.0551  A
ATOM     47 H35  BRA L   1       5.680  -9.311  -8.715  1.00  0.00    +0.0278  H
ATOM     48 H36  BRA L   1       5.353 -10.161 -10.225  1.00  0.00    +0.0278  H
ATOM     49 H37  BRA L   1       5.005  -8.419 -10.101  1.00  0.00    +0.0278  H
ATOM     50 H38  BRA L   1       6.847  -9.898 -12.186  1.00  0.00    +0.0620  H
ATOM     51 H39  BRA L   1       9.109  -9.331 -12.984  1.00  0.00    +0.0626  H
ATOM     52 H58  BRA L   1       9.521  -6.378  -8.320  1.00  0.00    +0.0278  H
ATOM     53 H59  BRA L   1      10.662  -6.181  -9.642  1.00  0.00    +0.0278  H
ATOM     54 H60  BRA L   1      10.823  -7.566  -8.522  1.00  0.00    +0.0278  H
ATOM     55 H61  BRA L   1       7.604  -7.764  -8.524  1.00  0.00    +0.0623  H
ENDBRANCH 37 43
ENDBRANCH 36 37
ENDBRANCH 33 36
ENDBRANCH 23 33
ENDBRANCH 21 26
BRANCH 21 56
ATOM     56 C15  BRA L   1      10.074 -11.122  -5.134  1.00  0.00    +0.0085  C
ATOM     57 N16  BRA L   1       9.178 -10.441  -4.194  1.00  0.00    -0.3289 NA
ATOM     58 H45  BRA L   1       9.557 -11.200  -6.098  1.00  0.00    +0.0432  H
ATOM     59 H46  BRA L   1      10.230 -12.151  -4.786  1.00  0.00    +0.0432  H
ATOM     60 H47  BRA L   1       8.262 -10.889  -4.214  1.00  0.00    +0.1182 HD
ATOM     61 H48  BRA L   1       9.028  -9.478  -4.498  1.00  0.00    +0.1182 HD
ENDBRANCH 21 56
ENDBRANCH 17 21
ENDBRANCH 1 19
TORSDOF 8
ENDMDL
MODEL 12
REMARK VINA RESULT:    -7.211      3.319     10.923
REMARK INTER + INTRA:         -11.549
REMARK INTER:                 -10.138
REMARK INTRA:                  -1.411
REMARK UNBOUND:                -0.965
ROOT
ATOM      1 C20  BRA L   1       9.672 -10.039  -4.798  1.00  0.00    +0.0423  A
ATOM      2 C21  BRA L   1      10.522 -10.618  -5.737  1.00  0.00    -0.0377  A
ATOM      3 C22  BRA L   1      10.073 -10.863  -7.040  1.00  0.00    -0.0506  A
ATOM      4 C23  BRA L   1       8.762 -10.530  -7.420  1.00  0.00    +0.0004  A
ATOM      5 C24  BRA L   1       8.256 -10.765  -8.701  1.00  0.00    +0.0353  A
ATOM      6 N25  BRA L   1       6.997 -10.463  -9.097  1.00  0.00    -0.2626 NA
ATOM      7 C26  BRA L   1       6.199  -9.888  -8.174  1.00  0.00    +0.0281  A
ATOM      8 C27  BRA L   1       6.594  -9.608  -6.876  1.00  0.00    -0.0358  A
ATOM      9 C28  BRA L   1       7.899  -9.935  -6.483  1.00  0.00    -0.0131  A
ATOM     10 C29  BRA L   1       8.367  -9.692  -5.180  1.00  0.00    -0.0305  A
ATOM     11 H50  BRA L   1      11.540 -10.902  -5.489  1.00  0.00    +0.0638  H
ATOM     12 H51  BRA L   1      10.755 -11.321  -7.753  1.00  0.00    +0.0625  H
ATOM     13 H52  BRA L   1       8.871 -11.223  -9.472  1.00  0.00    +0.0836  H
ATOM     14 H53  BRA L   1       5.195  -9.650  -8.515  1.00  0.00    +0.0830  H
ATOM     15 H54  BRA L   1       5.893  -9.146  -6.188  1.00  0.00    +0.0639  H
ATOM     16 H55  BRA L   1       7.695  -9.237  -4.455  1.00  0.00    +0.0644  H
ENDROOT
BRANCH 1 19
ATOM     17 C17  BRA L   1      10.915  -8.852  -2.959  1.00  0.00    +0.2339  C
ATOM     18 O18  BRA L   1      11.479  -7.979  -3.615  1.00  0.00    -0.2722 OA
ATOM     19 N19  BRA L   1      10.026  -9.794  -3.457  1.00  0.00    -0.3256  N
ATOM     20 H49  BRA L   1       9.630 -10.439  -2.781  1.00  0.00    +0.1686 HD
BRANCH 17 21
ATOM     21 C14  BRA L   1      11.128  -8.934  -1.433  1.00  0.00    +0.0752  C
ATOM     22 H44  BRA L   1      10.129  -8.993  -0.978  1.00  0.00    +0.0458  H
BRANCH 21 26
ATOM     23 C10  BRA L   1      13.036  -5.494   0.410  1.00  0.00    -0.0103  A
ATOM     24 C11  BRA L   1      13.789  -6.573  -0.064  1.00  0.00    -0.0551  A
ATOM     25 C12  BRA L   1      13.166  -7.641  -0.710  1.00  0.00    -0.0574  A
ATOM     26 C13  BRA L   1      11.773  -7.654  -0.900  1.00  0.00    -0.0341  A
ATOM     27 C30  BRA L   1      11.033  -6.539  -0.483  1.00  0.00    -0.0574  A
ATOM     28 C31  BRA L   1      11.658  -5.473   0.168  1.00  0.00    -0.0551  A
ATOM     29 H42  BRA L   1      14.864  -6.609   0.108  1.00  0.00    +0.0621  H
ATOM     30 H43  BRA L   1      13.772  -8.489  -1.025  1.00  0.00    +0.0621  H
ATOM     31 H56  BRA L   1       9.957  -6.491  -0.626  1.00  0.00    +0.0621  H
ATOM     32 H57  BRA L   1      11.051  -4.642   0.523  1.00  0.00    +0.0621  H
BRANCH 23 33
ATOM     33  C9  BRA L   1      13.692  -4.399   1.213  1.00  0.00    +0.1179  C
ATOM     34 H40  BRA L   1      13.357  -3.398   0.912  1.00  0.00    +0.0749  H
ATOM     35 H41  BRA L   1      14.775  -4.433   1.050  1.00  0.00    +0.0749  H
BRANCH 33 36
ATOM     36  O8  BRA L   1      13.457  -4.612   2.613  1.00  0.00    -0.4564 OA
BRANCH 36 37
ATOM     37  C6  BRA L   1      13.095  -3.506   3.309  1.00  0.00    +0.3398  C
ATOM     38  O7  BRA L   1      13.610  -2.402   3.261  1.00  0.00    -0.2449 OA
BRANCH 37 43
ATOM     39  C1  BRA L   1       8.130  -4.636   6.049  1.00  0.00    -0.0397  C
ATOM     40  C2  BRA L   1       9.432  -4.361   5.353  1.00  0.00    -0.0502  A
ATOM     41  C3  BRA L   1       9.443  -3.920   4.027  1.00  0.00    -0.0580  A
ATOM     42  C4  BRA L   1      10.652  -3.644   3.392  1.00  0.00    -0.0473  A
ATOM     43  C5  BRA L   1      11.866  -3.801   4.077  1.00  0.00    +0.0619  A
ATOM     44 C32  BRA L   1      11.875  -4.202   5.425  1.00  0.00    -0.0362  A
ATOM     45 C33  BRA L   1      13.145  -4.357   6.213  1.00  0.00    -0.0389  C
ATOM     46 C34  BRA L   1      10.647  -4.488   6.045  1.00  0.00    -0.0551  A
ATOM     47 H35  BRA L   1       8.249  -5.421   6.802  1.00  0.00    +0.0278  H
ATOM     48 H36  BRA L   1       7.372  -4.980   5.338  1.00  0.00    +0.0278  H
ATOM     49 H37  BRA L   1       7.769  -3.727   6.539  1.00  0.00    +0.0278  H
ATOM     50 H38  BRA L   1       8.511  -3.799   3.479  1.00  0.00    +0.0620  H
ATOM     51 H39  BRA L   1      10.652  -3.317   2.355  1.00  0.00    +0.0626  H
ATOM     52 H58  BRA L   1      12.947  -4.325   7.290  1.00  0.00    +0.0278  H
ATOM     53 H59  BRA L   1      13.842  -3.541   5.997  1.00  0.00    +0.0278  H
ATOM     54 H60  BRA L   1      13.620  -5.315   5.982  1.00  0.00    +0.0278  H
ATOM     55 H61  BRA L   1      10.632  -4.811   7.086  1.00  0.00    +0.0623  H
ENDBRANCH 37 43
ENDBRANCH 36 37
ENDBRANCH 33 36
ENDBRANCH 23 33
ENDBRANCH 21 26
BRANCH 21 56
ATOM     56 C15  BRA L   1      11.842 -10.278  -1.156  1.00  0.00    +0.0085  C
ATOM     57 N16  BRA L   1      10.928 -11.410  -0.971  1.00  0.00    -0.3289 NA
ATOM     58 H45  BRA L   1      12.506 -10.513  -1.997  1.00  0.00    +0.0432  H
ATOM     59 H46  BRA L   1      12.485 -10.199  -0.271  1.00  0.00    +0.0432  H
ATOM     60 H47  BRA L   1      11.466 -12.276  -0.932  1.00  0.00    +0.1182 HD
ATOM     61 H48  BRA L   1      10.316 -11.495  -1.783  1.00  0.00    +0.1182 HD
ENDBRANCH 21 56
ENDBRANCH 17 21
ENDBRANCH 1 19
TORSDOF 8
ENDMDL
MODEL 13
REMARK VINA RESULT:    -7.177      1.823      2.887
REMARK INTER + INTRA:         -11.499
REMARK INTER:                 -10.460
REMARK INTRA:                  -1.038
REMARK UNBOUND:                -0.965
ROOT
ATOM      1 C20  BRA L   1      11.891  -5.756   2.224  1.00  0.00    +0.0423  A
ATOM      2 C21  BRA L   1      12.509  -4.523   2.415  1.00  0.00    -0.0377  A
ATOM      3 C22  BRA L   1      11.964  -3.589   3.303  1.00  0.00    -0.0506  A
ATOM      4 C23  BRA L   1      10.788  -3.879   4.015  1.00  0.00    +0.0004  A
ATOM      5 C24  BRA L   1      10.193  -2.980   4.903  1.00  0.00    +0.0353  A
ATOM      6 N25  BRA L   1       9.057  -3.226   5.599  1.00  0.00    -0.2626 NA
ATOM      7 C26  BRA L   1       8.486  -4.434   5.411  1.00  0.00    +0.0281  A
ATOM      8 C27  BRA L   1       8.990  -5.402   4.556  1.00  0.00    -0.0358  A
ATOM      9 C28  BRA L   1      10.162  -5.126   3.840  1.00  0.00    -0.0131  A
ATOM     10 C29  BRA L   1      10.724  -6.053   2.946  1.00  0.00    -0.0305  A
ATOM     11 H50  BRA L   1      13.413  -4.247   1.880  1.00  0.00    +0.0638  H
ATOM     12 H51  BRA L   1      12.463  -2.630   3.430  1.00  0.00    +0.0625  H
ATOM     13 H52  BRA L   1      10.626  -2.000   5.085  1.00  0.00    +0.0836  H
ATOM     14 H53  BRA L   1       7.580  -4.611   5.982  1.00  0.00    +0.0830  H
ATOM     15 H54  BRA L   1       8.472  -6.350   4.455  1.00  0.00    +0.0639  H
ATOM     16 H55  BRA L   1      10.234  -7.015   2.807  1.00  0.00    +0.0644  H
ENDROOT
BRANCH 1 19
ATOM     17 C17  BRA L   1      11.832  -7.063   0.075  1.00  0.00    +0.2339  C
ATOM     18 O18  BRA L   1      10.935  -6.462  -0.513  1.00  0.00    -0.2722 OA
ATOM     19 N19  BRA L   1      12.345  -6.737   1.322  1.00  0.00    -0.3256  N
ATOM     20 H49  BRA L   1      13.100  -7.323   1.664  1.00  0.00    +0.1686 HD
BRANCH 17 21
ATOM     21 C14  BRA L   1      12.530  -8.264  -0.597  1.00  0.00    +0.0752  C
ATOM     22 H44  BRA L   1      13.612  -8.078  -0.528  1.00  0.00    +0.0458  H
BRANCH 21 26
ATOM     23 C10  BRA L   1      11.726  -8.808  -4.832  1.00  0.00    -0.0103  A
ATOM     24 C11  BRA L   1      10.943  -9.439  -3.858  1.00  0.00    -0.0551  A
ATOM     25 C12  BRA L   1      11.175  -9.203  -2.503  1.00  0.00    -0.0574  A
ATOM     26 C13  BRA L   1      12.196  -8.329  -2.088  1.00  0.00    -0.0341  A
ATOM     27 C30  BRA L   1      12.931  -7.650  -3.069  1.00  0.00    -0.0574  A
ATOM     28 C31  BRA L   1      12.700  -7.891  -4.426  1.00  0.00    -0.0551  A
ATOM     29 H42  BRA L   1      10.176 -10.153  -4.151  1.00  0.00    +0.0621  H
ATOM     30 H43  BRA L   1      10.582  -9.745  -1.768  1.00  0.00    +0.0621  H
ATOM     31 H56  BRA L   1      13.715  -6.947  -2.800  1.00  0.00    +0.0621  H
ATOM     32 H57  BRA L   1      13.319  -7.384  -5.164  1.00  0.00    +0.0621  H
BRANCH 23 33
ATOM     33  C9  BRA L   1      11.556  -9.154  -6.290  1.00  0.00    +0.1179  C
ATOM     34 H40  BRA L   1      12.107 -10.060  -6.574  1.00  0.00    +0.0749  H
ATOM     35 H41  BRA L   1      11.953  -8.336  -6.902  1.00  0.00    +0.0749  H
BRANCH 33 36
ATOM     36  O8  BRA L   1      10.162  -9.292  -6.600  1.00  0.00    -0.4564 OA
BRANCH 36 37
ATOM     37  C6  BRA L   1       9.559  -8.163  -7.049  1.00  0.00    +0.3398  C
ATOM     38  O7  BRA L   1       9.897  -7.011  -6.837  1.00  0.00    -0.2449 OA
BRANCH 37 43
ATOM     39  C1  BRA L   1       5.095  -9.690 -10.392  1.00  0.00    -0.0397  C
ATOM     40  C2  BRA L   1       6.259  -9.273  -9.541  1.00  0.00    -0.0502  A
ATOM     41  C3  BRA L   1       6.264  -9.546  -8.170  1.00  0.00    -0.0580  A
ATOM     42  C4  BRA L   1       7.356  -9.178  -7.388  1.00  0.00    -0.0473  A
ATOM     43  C5  BRA L   1       8.460  -8.536  -7.967  1.00  0.00    +0.0619  A
ATOM     44 C32  BRA L   1       8.495  -8.292  -9.352  1.00  0.00    -0.0362  A
ATOM     45 C33  BRA L   1       9.665  -7.634 -10.027  1.00  0.00    -0.0389  C
ATOM     46 C34  BRA L   1       7.379  -8.659 -10.123  1.00  0.00    -0.0551  A
ATOM     47 H35  BRA L   1       4.964  -9.005 -11.236  1.00  0.00    +0.0278  H
ATOM     48 H36  BRA L   1       4.165  -9.677  -9.815  1.00  0.00    +0.0278  H
ATOM     49 H37  BRA L   1       5.258 -10.701 -10.778  1.00  0.00    +0.0278  H
ATOM     50 H38  BRA L   1       5.413 -10.037  -7.703  1.00  0.00    +0.0620  H
ATOM     51 H39  BRA L   1       7.344  -9.379  -6.319  1.00  0.00    +0.0626  H
ATOM     52 H58  BRA L   1       9.670  -7.845 -11.102  1.00  0.00    +0.0278  H
ATOM     53 H59  BRA L   1      10.612  -8.014  -9.628  1.00  0.00    +0.0278  H
ATOM     54 H60  BRA L   1       9.621  -6.549  -9.892  1.00  0.00    +0.0278  H
ATOM     55 H61  BRA L   1       7.380  -8.468 -11.196  1.00  0.00    +0.0623  H
ENDBRANCH 37 43
ENDBRANCH 36 37
ENDBRANCH 33 36
ENDBRANCH 23 33
ENDBRANCH 21 26
BRANCH 21 56
ATOM     56 C15  BRA L   1      12.217  -9.503   0.272  1.00  0.00    +0.0085  C
ATOM     57 N16  BRA L   1      13.152  -9.702   1.384  1.00  0.00    -0.3289 NA
ATOM     58 H45  BRA L   1      11.208  -9.403   0.692  1.00  0.00    +0.0432  H
ATOM     59 H46  BRA L   1      12.204 -10.413  -0.341  1.00  0.00    +0.0432  H
ATOM     60 H47  BRA L   1      12.806 -10.448   1.989  1.00  0.00    +0.1182 HD
ATOM     61 H48  BRA L   1      13.183  -8.861   1.963  1.00  0.00    +0.1182 HD
ENDBRANCH 21 56
ENDBRANCH 17 21
ENDBRANCH 1 19
TORSDOF 8
ENDMDL
MODEL 14
REMARK VINA RESULT:    -7.164      3.052     10.561
REMARK INTER + INTRA:         -11.480
REMARK INTER:                 -10.168
REMARK INTRA:                  -1.313
REMARK UNBOUND:                -0.965
ROOT
ATOM      1 C20  BRA L   1      10.998  -8.977  -4.604  1.00  0.00    +0.0423  A
ATOM      2 C21  BRA L   1       9.885  -9.814  -4.591  1.00  0.00    -0.0377  A
ATOM      3 C22  BRA L   1       8.984  -9.807  -5.662  1.00  0.00    -0.0506  A
ATOM      4 C23  BRA L   1       9.187  -8.960  -6.763  1.00  0.00    +0.0004  A
ATOM      5 C24  BRA L   1       8.313  -8.901  -7.852  1.00  0.00    +0.0353  A
ATOM      6 N25  BRA L   1       8.476  -8.091  -8.925  1.00  0.00    -0.2626 NA
ATOM      7 C26  BRA L   1       9.570  -7.303  -8.922  1.00  0.00    +0.0281  A
ATOM      8 C27  BRA L   1      10.503  -7.279  -7.898  1.00  0.00    -0.0358  A
ATOM      9 C28  BRA L   1      10.313  -8.119  -6.792  1.00  0.00    -0.0131  A
ATOM     10 C29  BRA L   1      11.210  -8.140  -5.710  1.00  0.00    -0.0305  A
ATOM     11 H50  BRA L   1       9.679 -10.479  -3.758  1.00  0.00    +0.0638  H
ATOM     12 H51  BRA L   1       8.119 -10.467  -5.625  1.00  0.00    +0.0625  H
ATOM     13 H52  BRA L   1       7.423  -9.525  -7.893  1.00  0.00    +0.0836  H
ATOM     14 H53  BRA L   1       9.684  -6.665  -9.795  1.00  0.00    +0.0830  H
ATOM     15 H54  BRA L   1      11.359  -6.614  -7.965  1.00  0.00    +0.0639  H
ATOM     16 H55  BRA L   1      12.078  -7.484  -5.732  1.00  0.00    +0.0644  H
ENDROOT
BRANCH 1 19
ATOM     17 C17  BRA L   1      11.838  -8.157  -2.378  1.00  0.00    +0.2339  C
ATOM     18 O18  BRA L   1      10.851  -7.532  -1.998  1.00  0.00    -0.2722 OA
ATOM     19 N19  BRA L   1      11.932  -8.888  -3.554  1.00  0.00    -0.3256  N
ATOM     20 H49  BRA L   1      12.812  -9.366  -3.716  1.00  0.00    +0.1686 HD
BRANCH 17 21
ATOM     21 C14  BRA L   1      13.102  -8.222  -1.495  1.00  0.00    +0.0752  C
ATOM     22 H44  BRA L   1      12.961  -9.068  -0.806  1.00  0.00    +0.0458  H
BRANCH 21 26
ATOM     23 C10  BRA L   1      13.844  -4.675   0.901  1.00  0.00    -0.0103  A
ATOM     24 C11  BRA L   1      13.873  -4.625  -0.497  1.00  0.00    -0.0551  A
ATOM     25 C12  BRA L   1      13.570  -5.759  -1.251  1.00  0.00    -0.0574  A
ATOM     26 C13  BRA L   1      13.229  -6.971  -0.626  1.00  0.00    -0.0341  A
ATOM     27 C30  BRA L   1      13.137  -6.996   0.773  1.00  0.00    -0.0574  A
ATOM     28 C31  BRA L   1      13.445  -5.861   1.527  1.00  0.00    -0.0551  A
ATOM     29 H42  BRA L   1      14.175  -3.712  -1.006  1.00  0.00    +0.0621  H
ATOM     30 H43  BRA L   1      13.647  -5.702  -2.336  1.00  0.00    +0.0621  H
ATOM     31 H56  BRA L   1      12.856  -7.902   1.303  1.00  0.00    +0.0621  H
ATOM     32 H57  BRA L   1      13.410  -5.924   2.613  1.00  0.00    +0.0621  H
BRANCH 23 33
ATOM     33  C9  BRA L   1      14.288  -3.487   1.717  1.00  0.00    +0.1179  C
ATOM     34 H40  BRA L   1      13.827  -2.550   1.380  1.00  0.00    +0.0749  H
ATOM     35 H41  BRA L   1      15.372  -3.363   1.612  1.00  0.00    +0.0749  H
BRANCH 33 36
ATOM     36  O8  BRA L   1      14.010  -3.717   3.106  1.00  0.00    -0.4564 OA
BRANCH 36 37
ATOM     37  C6  BRA L   1      13.058  -2.915   3.642  1.00  0.00    +0.3398  C
ATOM     38  O7  BRA L   1      13.038  -1.695   3.649  1.00  0.00    -0.2449 OA
BRANCH 37 43
ATOM     39  C1  BRA L   1       8.559  -6.157   5.281  1.00  0.00    -0.0397  C
ATOM     40  C2  BRA L   1       9.744  -5.332   4.869  1.00  0.00    -0.0502  A
ATOM     41  C3  BRA L   1       9.721  -4.615   3.670  1.00  0.00    -0.0580  A
ATOM     42  C4  BRA L   1      10.813  -3.832   3.302  1.00  0.00    -0.0473  A
ATOM     43  C5  BRA L   1      11.941  -3.752   4.132  1.00  0.00    +0.0619  A
ATOM     44 C32  BRA L   1      11.967  -4.430   5.363  1.00  0.00    -0.0362  A
ATOM     45 C33  BRA L   1      13.137  -4.355   6.303  1.00  0.00    -0.0389  C
ATOM     46 C34  BRA L   1      10.861  -5.225   5.712  1.00  0.00    -0.0551  A
ATOM     47 H35  BRA L   1       8.873  -7.017   5.882  1.00  0.00    +0.0278  H
ATOM     48 H36  BRA L   1       8.032  -6.548   4.405  1.00  0.00    +0.0278  H
ATOM     49 H37  BRA L   1       7.866  -5.548   5.869  1.00  0.00    +0.0278  H
ATOM     50 H38  BRA L   1       8.857  -4.671   3.011  1.00  0.00    +0.0620  H
ATOM     51 H39  BRA L   1      10.793  -3.291   2.359  1.00  0.00    +0.0626  H
ATOM     52 H58  BRA L   1      12.845  -4.637   7.320  1.00  0.00    +0.0278  H
ATOM     53 H59  BRA L   1      13.529  -3.334   6.360  1.00  0.00    +0.0278  H
ATOM     54 H60  BRA L   1      13.931  -5.033   5.975  1.00  0.00    +0.0278  H
ATOM     55 H61  BRA L   1      10.866  -5.769   6.657  1.00  0.00    +0.0623  H
ENDBRANCH 37 43
ENDBRANCH 36 37
ENDBRANCH 33 36
ENDBRANCH 23 33
ENDBRANCH 21 26
BRANCH 21 56
ATOM     56 C15  BRA L   1      14.279  -8.580  -2.431  1.00  0.00    +0.0085  C
ATOM     57 N16  BRA L   1      14.523  -7.591  -3.486  1.00  0.00    -0.3289 NA
ATOM     58 H45  BRA L   1      15.197  -8.674  -1.837  1.00  0.00    +0.0432  H
ATOM     59 H46  BRA L   1      14.117  -9.558  -2.900  1.00  0.00    +0.0432  H
ATOM     60 H47  BRA L   1      15.391  -7.821  -3.972  1.00  0.00    +0.1182 HD
ATOM     61 H48  BRA L   1      14.669  -6.671  -3.068  1.00  0.00    +0.1182 HD
ENDBRANCH 21 56
ENDBRANCH 17 21
ENDBRANCH 1 19
TORSDOF 8
ENDMDL
MODEL 15
REMARK VINA RESULT:    -7.130      1.260      2.260
REMARK INTER + INTRA:         -11.431
REMARK INTER:                 -10.244
REMARK INTRA:                  -1.187
REMARK UNBOUND:                -0.965
ROOT
ATOM      1 C20  BRA L   1      10.497  -4.527   2.854  1.00  0.00    +0.0423  A
ATOM      2 C21  BRA L   1      10.374  -3.372   3.623  1.00  0.00    -0.0377  A
ATOM      3 C22  BRA L   1       9.603  -3.380   4.790  1.00  0.00    -0.0506  A
ATOM      4 C23  BRA L   1       8.943  -4.548   5.205  1.00  0.00    +0.0004  A
ATOM      5 C24  BRA L   1       8.149  -4.609   6.353  1.00  0.00    +0.0353  A
ATOM      6 N25  BRA L   1       7.495  -5.717   6.776  1.00  0.00    -0.2626 NA
ATOM      7 C26  BRA L   1       7.642  -6.827   6.024  1.00  0.00    +0.0281  A
ATOM      8 C27  BRA L   1       8.405  -6.881   4.868  1.00  0.00    -0.0358  A
ATOM      9 C28  BRA L   1       9.069  -5.723   4.443  1.00  0.00    -0.0131  A
ATOM     10 C29  BRA L   1       9.850  -5.699   3.274  1.00  0.00    -0.0305  A
ATOM     11 H50  BRA L   1      10.857  -2.442   3.339  1.00  0.00    +0.0638  H
ATOM     12 H51  BRA L   1       9.519  -2.463   5.370  1.00  0.00    +0.0625  H
ATOM     13 H52  BRA L   1       8.010  -3.737   6.987  1.00  0.00    +0.0836  H
ATOM     14 H53  BRA L   1       7.113  -7.704   6.385  1.00  0.00    +0.0830  H
ATOM     15 H54  BRA L   1       8.474  -7.811   4.313  1.00  0.00    +0.0639  H
ATOM     16 H55  BRA L   1       9.941  -6.607   2.683  1.00  0.00    +0.0644  H
ENDROOT
BRANCH 1 19
ATOM     17 C17  BRA L   1      12.522  -5.025   1.445  1.00  0.00    +0.2339  C
ATOM     18 O18  BRA L   1      13.253  -5.525   2.298  1.00  0.00    -0.2722 OA
ATOM     19 N19  BRA L   1      11.217  -4.599   1.646  1.00  0.00    -0.3256  N
ATOM     20 H49  BRA L   1      10.737  -4.224   0.834  1.00  0.00    +0.1686 HD
BRANCH 17 21
ATOM     21 C14  BRA L   1      13.015  -4.877  -0.009  1.00  0.00    +0.0752  C
ATOM     22 H44  BRA L   1      12.472  -4.024  -0.440  1.00  0.00    +0.0458  H
BRANCH 21 26
ATOM     23 C10  BRA L   1      11.797  -8.104  -2.650  1.00  0.00    -0.0103  A
ATOM     24 C11  BRA L   1      12.920  -7.319  -2.934  1.00  0.00    -0.0551  A
ATOM     25 C12  BRA L   1      13.334  -6.329  -2.044  1.00  0.00    -0.0574  A
ATOM     26 C13  BRA L   1      12.635  -6.100  -0.845  1.00  0.00    -0.0341  A
ATOM     27 C30  BRA L   1      11.553  -6.934  -0.535  1.00  0.00    -0.0574  A
ATOM     28 C31  BRA L   1      11.136  -7.923  -1.431  1.00  0.00    -0.0551  A
ATOM     29 H42  BRA L   1      13.453  -7.447  -3.875  1.00  0.00    +0.0621  H
ATOM     30 H43  BRA L   1      14.182  -5.702  -2.314  1.00  0.00    +0.0621  H
ATOM     31 H56  BRA L   1      10.994  -6.813   0.389  1.00  0.00    +0.0621  H
ATOM     32 H57  BRA L   1      10.263  -8.524  -1.184  1.00  0.00    +0.0621  H
BRANCH 23 33
ATOM     33  C9  BRA L   1      11.278  -9.091  -3.665  1.00  0.00    +0.1179  C
ATOM     34 H40  BRA L   1      10.518  -9.764  -3.248  1.00  0.00    +0.0749  H
ATOM     35 H41  BRA L   1      12.106  -9.723  -4.008  1.00  0.00    +0.0749  H
BRANCH 33 36
ATOM     36  O8  BRA L   1      10.764  -8.392  -4.808  1.00  0.00    -0.4564 OA
BRANCH 36 37
ATOM     37  C6  BRA L   1      10.666  -9.133  -5.939  1.00  0.00    +0.3398  C
ATOM     38  O7  BRA L   1       9.873 -10.030  -6.168  1.00  0.00    -0.2449 OA
BRANCH 37 43
ATOM     39  C1  BRA L   1      14.558  -7.288  -9.797  1.00  0.00    -0.0397  C
ATOM     40  C2  BRA L   1      13.527  -7.761  -8.813  1.00  0.00    -0.0502  A
ATOM     41  C3  BRA L   1      13.850  -8.742  -7.872  1.00  0.00    -0.0580  A
ATOM     42  C4  BRA L   1      12.898  -9.163  -6.945  1.00  0.00    -0.0473  A
ATOM     43  C5  BRA L   1      11.612  -8.603  -6.945  1.00  0.00    +0.0619  A
ATOM     44 C32  BRA L   1      11.281  -7.583  -7.855  1.00  0.00    -0.0362  A
ATOM     45 C33  BRA L   1       9.928  -6.929  -7.878  1.00  0.00    -0.0389  C
ATOM     46 C34  BRA L   1      12.250  -7.181  -8.790  1.00  0.00    -0.0551  A
ATOM     47 H35  BRA L   1      14.087  -6.970 -10.733  1.00  0.00    +0.0278  H
ATOM     48 H36  BRA L   1      15.261  -8.090 -10.043  1.00  0.00    +0.0278  H
ATOM     49 H37  BRA L   1      15.116  -6.445  -9.378  1.00  0.00    +0.0278  H
ATOM     50 H38  BRA L   1      14.841  -9.192  -7.862  1.00  0.00    +0.0620  H
ATOM     51 H39  BRA L   1      13.153  -9.938  -6.228  1.00  0.00    +0.0626  H
ATOM     52 H58  BRA L   1       9.968  -5.958  -8.383  1.00  0.00    +0.0278  H
ATOM     53 H59  BRA L   1       9.567  -6.740  -6.861  1.00  0.00    +0.0278  H
ATOM     54 H60  BRA L   1       9.210  -7.562  -8.409  1.00  0.00    +0.0278  H
ATOM     55 H61  BRA L   1      12.010  -6.400  -9.512  1.00  0.00    +0.0623  H
ENDBRANCH 37 43
ENDBRANCH 36 37
ENDBRANCH 33 36
ENDBRANCH 23 33
ENDBRANCH 21 26
BRANCH 21 56
ATOM     56 C15  BRA L   1      14.508  -4.484   0.067  1.00  0.00    +0.0085  C
ATOM     57 N16  BRA L   1      14.750  -3.179   0.692  1.00  0.00    -0.3289 NA
ATOM     58 H45  BRA L   1      15.052  -5.242   0.645  1.00  0.00    +0.0432  H
ATOM     59 H46  BRA L   1      14.959  -4.480  -0.934  1.00  0.00    +0.0432  H
ATOM     60 H47  BRA L   1      15.753  -3.051   0.832  1.00  0.00    +0.1182 HD
ATOM     61 H48  BRA L   1      14.331  -3.161   1.623  1.00  0.00    +0.1182 HD
ENDBRANCH 21 56
ENDBRANCH 17 21
ENDBRANCH 1 19
TORSDOF 8
ENDMDL
MODEL 16
REMARK VINA RESULT:    -7.035      3.180     10.044
REMARK INTER + INTRA:         -11.291
REMARK INTER:                 -10.103
REMARK INTRA:                  -1.188
REMARK UNBOUND:                -0.965
ROOT
ATOM      1 C20  BRA L   1      11.267  -8.411  -5.376  1.00  0.00    +0.0423  A
ATOM      2 C21  BRA L   1      11.367  -7.608  -6.510  1.00  0.00    -0.0377  A
ATOM      3 C22  BRA L   1      10.354  -7.619  -7.475  1.00  0.00    -0.0506  A
ATOM      4 C23  BRA L   1       9.224  -8.437  -7.317  1.00  0.00    +0.0004  A
ATOM      5 C24  BRA L   1       8.190  -8.499  -8.254  1.00  0.00    +0.0353  A
ATOM      6 N25  BRA L   1       7.091  -9.282  -8.135  1.00  0.00    -0.2626 NA
ATOM      7 C26  BRA L   1       7.009 -10.037  -7.021  1.00  0.00    +0.0281  A
ATOM      8 C27  BRA L   1       7.973 -10.055  -6.026  1.00  0.00    -0.0358  A
ATOM      9 C28  BRA L   1       9.106  -9.243  -6.171  1.00  0.00    -0.0131  A
ATOM     10 C29  BRA L   1      10.131  -9.218  -5.210  1.00  0.00    -0.0305  A
ATOM     11 H50  BRA L   1      12.226  -6.966  -6.682  1.00  0.00    +0.0638  H
ATOM     12 H51  BRA L   1      10.459  -6.987  -8.354  1.00  0.00    +0.0625  H
ATOM     13 H52  BRA L   1       8.218  -7.902  -9.162  1.00  0.00    +0.0836  H
ATOM     14 H53  BRA L   1       6.117 -10.653  -6.945  1.00  0.00    +0.0830  H
ATOM     15 H54  BRA L   1       7.838 -10.692  -5.158  1.00  0.00    +0.0639  H
ATOM     16 H55  BRA L   1      10.041  -9.848  -4.327  1.00  0.00    +0.0644  H
ENDROOT
BRANCH 1 19
ATOM     17 C17  BRA L   1      12.170  -8.105  -3.047  1.00  0.00    +0.2339  C
ATOM     18 O18  BRA L   1      11.154  -7.710  -2.478  1.00  0.00    -0.2722 OA
ATOM     19 N19  BRA L   1      12.255  -8.493  -4.376  1.00  0.00    -0.3256  N
ATOM     20 H49  BRA L   1      13.165  -8.814  -4.692  1.00  0.00    +0.1686 HD
BRANCH 17 21
ATOM     21 C14  BRA L   1      13.490  -8.256  -2.261  1.00  0.00    +0.0752  C
ATOM     22 H44  BRA L   1      13.281  -8.939  -1.425  1.00  0.00    +0.0458  H
BRANCH 21 26
ATOM     23 C10  BRA L   1      14.660  -4.645  -0.149  1.00  0.00    -0.0103  A
ATOM     24 C11  BRA L   1      15.532  -5.733  -0.264  1.00  0.00    -0.0551  A
ATOM     25 C12  BRA L   1      15.164  -6.859  -1.000  1.00  0.00    -0.0574  A
ATOM     26 C13  BRA L   1      13.914  -6.925  -1.640  1.00  0.00    -0.0341  A
ATOM     27 C30  BRA L   1      13.073  -5.806  -1.576  1.00  0.00    -0.0574  A
ATOM     28 C31  BRA L   1      13.441  -4.681  -0.834  1.00  0.00    -0.0551  A
ATOM     29 H42  BRA L   1      16.488  -5.725   0.256  1.00  0.00    +0.0621  H
ATOM     30 H43  BRA L   1      15.845  -7.709  -1.033  1.00  0.00    +0.0621  H
ATOM     31 H56  BRA L   1      12.105  -5.799  -2.071  1.00  0.00    +0.0621  H
ATOM     32 H57  BRA L   1      12.747  -3.845  -0.763  1.00  0.00    +0.0621  H
BRANCH 23 33
ATOM     33  C9  BRA L   1      15.006  -3.480   0.744  1.00  0.00    +0.1179  C
ATOM     34 H40  BRA L   1      15.351  -2.605   0.179  1.00  0.00    +0.0749  H
ATOM     35 H41  BRA L   1      15.826  -3.770   1.412  1.00  0.00    +0.0749  H
BRANCH 33 36
ATOM     36  O8  BRA L   1      13.878  -3.141   1.564  1.00  0.00    -0.4564 OA
BRANCH 36 37
ATOM     37  C6  BRA L   1      13.832  -3.766   2.766  1.00  0.00    +0.3398  C
ATOM     38  O7  BRA L   1      14.737  -3.876   3.576  1.00  0.00    -0.2449 OA
BRANCH 37 43
ATOM     39  C1  BRA L   1       8.485  -5.781   3.654  1.00  0.00    -0.0397  C
ATOM     40  C2  BRA L   1       9.872  -5.245   3.447  1.00  0.00    -0.0502  A
ATOM     41  C3  BRA L   1      10.789  -5.947   2.660  1.00  0.00    -0.0580  A
ATOM     42  C4  BRA L   1      12.069  -5.436   2.452  1.00  0.00    -0.0473  A
ATOM     43  C5  BRA L   1      12.445  -4.212   3.025  1.00  0.00    +0.0619  A
ATOM     44 C32  BRA L   1      11.524  -3.469   3.784  1.00  0.00    -0.0362  A
ATOM     45 C33  BRA L   1      11.867  -2.139   4.395  1.00  0.00    -0.0389  C
ATOM     46 C34  BRA L   1      10.243  -4.006   3.994  1.00  0.00    -0.0551  A
ATOM     47 H35  BRA L   1       8.090  -5.474   4.628  1.00  0.00    +0.0278  H
ATOM     48 H36  BRA L   1       8.482  -6.875   3.632  1.00  0.00    +0.0278  H
ATOM     49 H37  BRA L   1       7.820  -5.409   2.868  1.00  0.00    +0.0278  H
ATOM     50 H38  BRA L   1      10.516  -6.901   2.214  1.00  0.00    +0.0620  H
ATOM     51 H39  BRA L   1      12.780  -5.997   1.852  1.00  0.00    +0.0626  H
ATOM     52 H58  BRA L   1      10.963  -1.568   4.630  1.00  0.00    +0.0278  H
ATOM     53 H59  BRA L   1      12.453  -1.528   3.700  1.00  0.00    +0.0278  H
ATOM     54 H60  BRA L   1      12.432  -2.282   5.321  1.00  0.00    +0.0278  H
ATOM     55 H61  BRA L   1       9.517  -3.452   4.588  1.00  0.00    +0.0623  H
ENDBRANCH 37 43
ENDBRANCH 36 37
ENDBRANCH 33 36
ENDBRANCH 23 33
ENDBRANCH 21 26
BRANCH 21 56
ATOM     56 C15  BRA L   1      14.487  -8.970  -3.203  1.00  0.00    +0.0085  C
ATOM     57 N16  BRA L   1      15.136  -8.079  -4.169  1.00  0.00    -0.3289 NA
ATOM     58 H45  BRA L   1      15.271  -9.447  -2.602  1.00  0.00    +0.0432  H
ATOM     59 H46  BRA L   1      13.989  -9.779  -3.753  1.00  0.00    +0.0432  H
ATOM     60 H47  BRA L   1      15.874  -8.588  -4.657  1.00  0.00    +0.1182 HD
ATOM     61 H48  BRA L   1      15.600  -7.315  -3.676  1.00  0.00    +0.1182 HD
ENDBRANCH 21 56
ENDBRANCH 17 21
ENDBRANCH 1 19
TORSDOF 8
ENDMDL
MODEL 17
REMARK VINA RESULT:    -6.926      5.342     12.815
REMARK INTER + INTRA:         -11.130
REMARK INTER:                  -9.342
REMARK INTRA:                  -1.788
REMARK UNBOUND:                -0.965
ROOT
ATOM      1 C20  BRA L   1       8.977 -10.139 -11.167  1.00  0.00    +0.0423  A
ATOM      2 C21  BRA L   1       8.467 -11.151 -11.976  1.00  0.00    -0.0377  A
ATOM      3 C22  BRA L   1       8.934 -11.312 -13.285  1.00  0.00    -0.0506  A
ATOM      4 C23  BRA L   1       9.920 -10.457 -13.803  1.00  0.00    +0.0004  A
ATOM      5 C24  BRA L   1      10.413 -10.561 -15.107  1.00  0.00    +0.0353  A
ATOM      6 N25  BRA L   1      11.358  -9.749 -15.639  1.00  0.00    -0.2626 NA
ATOM      7 C26  BRA L   1      11.847  -8.787 -14.831  1.00  0.00    +0.0281  A
ATOM      8 C27  BRA L   1      11.434  -8.592 -13.522  1.00  0.00    -0.0358  A
ATOM      9 C28  BRA L   1      10.450  -9.438 -12.992  1.00  0.00    -0.0131  A
ATOM     10 C29  BRA L   1       9.973  -9.293 -11.678  1.00  0.00    -0.0305  A
ATOM     11 H50  BRA L   1       7.697 -11.831 -11.624  1.00  0.00    +0.0638  H
ATOM     12 H51  BRA L   1       8.516 -12.108 -13.898  1.00  0.00    +0.0625  H
ATOM     13 H52  BRA L   1      10.046 -11.327 -15.786  1.00  0.00    +0.0836  H
ATOM     14 H53  BRA L   1      12.607  -8.151 -15.276  1.00  0.00    +0.0830  H
ATOM     15 H54  BRA L   1      11.873  -7.793 -12.933  1.00  0.00    +0.0639  H
ATOM     16 H55  BRA L   1      10.380  -8.499 -11.055  1.00  0.00    +0.0644  H
ENDROOT
BRANCH 1 19
ATOM     17 C17  BRA L   1       7.604  -8.945  -9.428  1.00  0.00    +0.2339  C
ATOM     18 O18  BRA L   1       6.909  -8.240 -10.156  1.00  0.00    -0.2722 OA
ATOM     19 N19  BRA L   1       8.537  -9.879  -9.854  1.00  0.00    -0.3256  N
ATOM     20 H49  BRA L   1       9.019 -10.396  -9.126  1.00  0.00    +0.1686 HD
BRANCH 17 21
ATOM     21 C14  BRA L   1       7.441  -8.873  -7.895  1.00  0.00    +0.0752  C
ATOM     22 H44  BRA L   1       6.824  -7.988  -7.685  1.00  0.00    +0.0458  H
BRANCH 21 26
ATOM     23 C10  BRA L   1      11.435  -8.303  -6.284  1.00  0.00    -0.0103  A
ATOM     24 C11  BRA L   1      10.881  -7.390  -7.188  1.00  0.00    -0.0551  A
ATOM     25 C12  BRA L   1       9.574  -7.555  -7.647  1.00  0.00    -0.0574  A
ATOM     26 C13  BRA L   1       8.788  -8.636  -7.210  1.00  0.00    -0.0341  A
ATOM     27 C30  BRA L   1       9.326  -9.508  -6.254  1.00  0.00    -0.0574  A
ATOM     28 C31  BRA L   1      10.637  -9.345  -5.800  1.00  0.00    -0.0551  A
ATOM     29 H42  BRA L   1      11.482  -6.569  -7.575  1.00  0.00    +0.0621  H
ATOM     30 H43  BRA L   1       9.186  -6.856  -8.386  1.00  0.00    +0.0621  H
ATOM     31 H56  BRA L   1       8.752 -10.346  -5.868  1.00  0.00    +0.0621  H
ATOM     32 H57  BRA L   1      11.044 -10.065  -5.093  1.00  0.00    +0.0621  H
BRANCH 23 33
ATOM     33  C9  BRA L   1      12.885  -8.195  -5.883  1.00  0.00    +0.1179  C
ATOM     34 H40  BRA L   1      13.515  -7.792  -6.686  1.00  0.00    +0.0749  H
ATOM     35 H41  BRA L   1      13.269  -9.195  -5.650  1.00  0.00    +0.0749  H
BRANCH 33 36
ATOM     36  O8  BRA L   1      13.005  -7.397  -4.696  1.00  0.00    -0.4564 OA
BRANCH 36 37
ATOM     37  C6  BRA L   1      13.398  -8.071  -3.588  1.00  0.00    +0.3398  C
ATOM     38  O7  BRA L   1      14.142  -9.036  -3.535  1.00  0.00    -0.2449 OA
BRANCH 37 43
ATOM     39  C1  BRA L   1      11.571  -5.136   1.047  1.00  0.00    -0.0397  C
ATOM     40  C2  BRA L   1      12.019  -5.904  -0.162  1.00  0.00    -0.0502  A
ATOM     41  C3  BRA L   1      13.207  -5.562  -0.814  1.00  0.00    -0.0580  A
ATOM     42  C4  BRA L   1      13.632  -6.291  -1.923  1.00  0.00    -0.0473  A
ATOM     43  C5  BRA L   1      12.876  -7.376  -2.390  1.00  0.00    +0.0619  A
ATOM     44 C32  BRA L   1      11.701  -7.764  -1.723  1.00  0.00    -0.0362  A
ATOM     45 C33  BRA L   1      10.870  -8.936  -2.165  1.00  0.00    -0.0389  C
ATOM     46 C34  BRA L   1      11.282  -7.009  -0.614  1.00  0.00    -0.0551  A
ATOM     47 H35  BRA L   1      10.479  -5.129   1.122  1.00  0.00    +0.0278  H
ATOM     48 H36  BRA L   1      11.899  -4.093   0.992  1.00  0.00    +0.0278  H
ATOM     49 H37  BRA L   1      11.986  -5.589   1.953  1.00  0.00    +0.0278  H
ATOM     50 H38  BRA L   1      13.803  -4.719  -0.468  1.00  0.00    +0.0620  H
ATOM     51 H39  BRA L   1      14.549  -6.007  -2.433  1.00  0.00    +0.0626  H
ATOM     52 H58  BRA L   1      10.226  -9.291  -1.353  1.00  0.00    +0.0278  H
ATOM     53 H59  BRA L   1      11.506  -9.780  -2.454  1.00  0.00    +0.0278  H
ATOM     54 H60  BRA L   1      10.233  -8.652  -3.008  1.00  0.00    +0.0278  H
ATOM     55 H61  BRA L   1      10.367  -7.285  -0.090  1.00  0.00    +0.0623  H
ENDBRANCH 37 43
ENDBRANCH 36 37
ENDBRANCH 33 36
ENDBRANCH 23 33
ENDBRANCH 21 26
BRANCH 21 56
ATOM     56 C15  BRA L   1       6.622 -10.116  -7.478  1.00  0.00    +0.0085  C
ATOM     57 N16  BRA L   1       5.508 -10.426  -8.380  1.00  0.00    -0.3289 NA
ATOM     58 H45  BRA L   1       7.285 -10.991  -7.446  1.00  0.00    +0.0432  H
ATOM     59 H46  BRA L   1       6.226  -9.996  -6.462  1.00  0.00    +0.0432  H
ATOM     60 H47  BRA L   1       5.104 -11.327  -8.123  1.00  0.00    +0.1182 HD
ATOM     61 H48  BRA L   1       5.857 -10.535  -9.333  1.00  0.00    +0.1182 HD
ENDBRANCH 21 56
ENDBRANCH 17 21
ENDBRANCH 1 19
TORSDOF 8
ENDMDL
MODEL 18
REMARK VINA RESULT:    -6.905      3.449      6.407
REMARK INTER + INTRA:         -11.099
REMARK INTER:                  -9.273
REMARK INTRA:                  -1.827
REMARK UNBOUND:                -0.965
ROOT
ATOM      1 C20  BRA L   1      11.964  -7.337  -2.144  1.00  0.00    +0.0423  A
ATOM      2 C21  BRA L   1      10.981  -7.364  -1.158  1.00  0.00    -0.0377  A
ATOM      3 C22  BRA L   1      11.135  -6.615   0.014  1.00  0.00    -0.0506  A
ATOM      4 C23  BRA L   1      12.279  -5.826   0.214  1.00  0.00    +0.0004  A
ATOM      5 C24  BRA L   1      12.492  -5.070   1.370  1.00  0.00    +0.0353  A
ATOM      6 N25  BRA L   1      13.587  -4.305   1.597  1.00  0.00    -0.2626 NA
ATOM      7 C26  BRA L   1      14.516  -4.281   0.620  1.00  0.00    +0.0281  A
ATOM      8 C27  BRA L   1      14.410  -4.990  -0.566  1.00  0.00    -0.0358  A
ATOM      9 C28  BRA L   1      13.273  -5.781  -0.780  1.00  0.00    -0.0131  A
ATOM     10 C29  BRA L   1      13.102  -6.537  -1.952  1.00  0.00    -0.0305  A
ATOM     11 H50  BRA L   1      10.084  -7.967  -1.262  1.00  0.00    +0.0638  H
ATOM     12 H51  BRA L   1      10.355  -6.658   0.771  1.00  0.00    +0.0625  H
ATOM     13 H52  BRA L   1      11.764  -5.060   2.177  1.00  0.00    +0.0836  H
ATOM     14 H53  BRA L   1      15.383  -3.658   0.821  1.00  0.00    +0.0830  H
ATOM     15 H54  BRA L   1      15.202  -4.923  -1.305  1.00  0.00    +0.0639  H
ATOM     16 H55  BRA L   1      13.875  -6.506  -2.717  1.00  0.00    +0.0644  H
ENDROOT
BRANCH 1 19
ATOM     17 C17  BRA L   1      11.547  -9.418  -3.497  1.00  0.00    +0.2339  C
ATOM     18 O18  BRA L   1      11.094 -10.151  -2.620  1.00  0.00    -0.2722 OA
ATOM     19 N19  BRA L   1      11.912  -8.089  -3.334  1.00  0.00    -0.3256  N
ATOM     20 H49  BRA L   1      12.253  -7.612  -4.162  1.00  0.00    +0.1686 HD
BRANCH 17 21
ATOM     21 C14  BRA L   1      11.701  -9.939  -4.941  1.00  0.00    +0.0752  C
ATOM     22 H44  BRA L   1      12.170  -9.130  -5.519  1.00  0.00    +0.0458  H
BRANCH 21 26
ATOM     23 C10  BRA L   1       7.937 -10.436  -7.052  1.00  0.00    -0.0103  A
ATOM     24 C11  BRA L   1       9.101 -11.080  -7.484  1.00  0.00    -0.0551  A
ATOM     25 C12  BRA L   1      10.286 -10.960  -6.759  1.00  0.00    -0.0574  A
ATOM     26 C13  BRA L   1      10.336 -10.194  -5.580  1.00  0.00    -0.0341  A
ATOM     27 C30  BRA L   1       9.150  -9.607  -5.117  1.00  0.00    -0.0574  A
ATOM     28 C31  BRA L   1       7.965  -9.724  -5.848  1.00  0.00    -0.0551  A
ATOM     29 H42  BRA L   1       9.101 -11.644  -8.416  1.00  0.00    +0.0621  H
ATOM     30 H43  BRA L   1      11.188 -11.433  -7.145  1.00  0.00    +0.0621  H
ATOM     31 H56  BRA L   1       9.130  -9.024  -4.201  1.00  0.00    +0.0621  H
ATOM     32 H57  BRA L   1       7.071  -9.218  -5.488  1.00  0.00    +0.0621  H
BRANCH 23 33
ATOM     33  C9  BRA L   1       6.688 -10.465  -7.898  1.00  0.00    +0.1179  C
ATOM     34 H40  BRA L   1       5.942  -9.729  -7.573  1.00  0.00    +0.0749  H
ATOM     35 H41  BRA L   1       6.218 -11.452  -7.811  1.00  0.00    +0.0749  H
BRANCH 33 36
ATOM     36  O8  BRA L   1       7.029 -10.267  -9.278  1.00  0.00    -0.4564 OA
BRANCH 36 37
ATOM     37  C6  BRA L   1       6.897  -8.993  -9.724  1.00  0.00    +0.3398  C
ATOM     38  O7  BRA L   1       5.980  -8.222  -9.496  1.00  0.00    -0.2449 OA
BRANCH 37 43
ATOM     39  C1  BRA L   1      11.553  -7.580 -12.848  1.00  0.00    -0.0397  C
ATOM     40  C2  BRA L   1      10.348  -7.925 -12.021  1.00  0.00    -0.0502  A
ATOM     41  C3  BRA L   1       9.289  -8.642 -12.585  1.00  0.00    -0.0580  A
ATOM     42  C4  BRA L   1       8.182  -8.980 -11.808  1.00  0.00    -0.0473  A
ATOM     43  C5  BRA L   1       8.123  -8.610 -10.457  1.00  0.00    +0.0619  A
ATOM     44 C32  BRA L   1       9.198  -7.927  -9.860  1.00  0.00    -0.0362  A
ATOM     45 C33  BRA L   1       9.198  -7.534  -8.409  1.00  0.00    -0.0389  C
ATOM     46 C34  BRA L   1      10.300  -7.584 -10.661  1.00  0.00    -0.0551  A
ATOM     47 H35  BRA L   1      12.007  -6.645 -12.504  1.00  0.00    +0.0278  H
ATOM     48 H36  BRA L   1      11.279  -7.442 -13.899  1.00  0.00    +0.0278  H
ATOM     49 H37  BRA L   1      12.296  -8.381 -12.778  1.00  0.00    +0.0278  H
ATOM     50 H38  BRA L   1       9.315  -8.931 -13.634  1.00  0.00    +0.0620  H
ATOM     51 H39  BRA L   1       7.355  -9.523 -12.260  1.00  0.00    +0.0626  H
ATOM     52 H58  BRA L   1      10.216  -7.343  -8.053  1.00  0.00    +0.0278  H
ATOM     53 H59  BRA L   1       8.792  -8.336  -7.785  1.00  0.00    +0.0278  H
ATOM     54 H60  BRA L   1       8.610  -6.622  -8.263  1.00  0.00    +0.0278  H
ATOM     55 H61  BRA L   1      11.138  -7.044 -10.221  1.00  0.00    +0.0623  H
ENDBRANCH 37 43
ENDBRANCH 36 37
ENDBRANCH 33 36
ENDBRANCH 23 33
ENDBRANCH 21 26
BRANCH 21 56
ATOM     56 C15  BRA L   1      12.708 -11.111  -4.884  1.00  0.00    +0.0085  C
ATOM     57 N16  BRA L   1      13.792 -10.918  -3.916  1.00  0.00    -0.3289 NA
ATOM     58 H45  BRA L   1      12.175 -12.032  -4.617  1.00  0.00    +0.0432  H
ATOM     59 H46  BRA L   1      13.149 -11.290  -5.873  1.00  0.00    +0.0432  H
ATOM     60 H47  BRA L   1      14.331 -11.781  -3.835  1.00  0.00    +0.1182 HD
ATOM     61 H48  BRA L   1      13.400 -10.743  -2.990  1.00  0.00    +0.1182 HD
ENDBRANCH 21 56
ENDBRANCH 17 21
ENDBRANCH 1 19
TORSDOF 8
ENDMDL
MODEL 19
REMARK VINA RESULT:    -6.849      1.277      2.189
REMARK INTER + INTRA:         -11.017
REMARK INTER:                 -10.133
REMARK INTRA:                  -0.885
REMARK UNBOUND:                -0.965
ROOT
ATOM      1 C20  BRA L   1      11.276  -4.016   3.580  1.00  0.00    +0.0423  A
ATOM      2 C21  BRA L   1      11.171  -3.191   4.696  1.00  0.00    -0.0377  A
ATOM      3 C22  BRA L   1      10.230  -3.468   5.694  1.00  0.00    -0.0506  A
ATOM      4 C23  BRA L   1       9.378  -4.579   5.586  1.00  0.00    +0.0004  A
ATOM      5 C24  BRA L   1       8.411  -4.895   6.544  1.00  0.00    +0.0353  A
ATOM      6 N25  BRA L   1       7.571  -5.955   6.467  1.00  0.00    -0.2626 NA
ATOM      7 C26  BRA L   1       7.703  -6.748   5.385  1.00  0.00    +0.0281  A
ATOM      8 C27  BRA L   1       8.626  -6.532   4.374  1.00  0.00    -0.0358  A
ATOM      9 C28  BRA L   1       9.483  -5.426   4.469  1.00  0.00    -0.0131  A
ATOM     10 C29  BRA L   1      10.435  -5.135   3.478  1.00  0.00    -0.0305  A
ATOM     11 H50  BRA L   1      11.800  -2.314   4.820  1.00  0.00    +0.0638  H
ATOM     12 H51  BRA L   1      10.165  -2.804   6.554  1.00  0.00    +0.0625  H
ATOM     13 H52  BRA L   1       8.278  -4.282   7.432  1.00  0.00    +0.0836  H
ATOM     14 H53  BRA L   1       7.022  -7.594   5.346  1.00  0.00    +0.0830  H
ATOM     15 H54  BRA L   1       8.671  -7.214   3.532  1.00  0.00    +0.0639  H
ATOM     16 H55  BRA L   1      10.509  -5.789   2.611  1.00  0.00    +0.0644  H
ENDROOT
BRANCH 1 19
ATOM     17 C17  BRA L   1      13.214  -4.589   2.080  1.00  0.00    +0.2339  C
ATOM     18 O18  BRA L   1      13.487  -5.709   2.508  1.00  0.00    -0.2722 OA
ATOM     19 N19  BRA L   1      12.163  -3.791   2.510  1.00  0.00    -0.3256  N
ATOM     20 H49  BRA L   1      12.060  -2.896   2.043  1.00  0.00    +0.1686 HD
BRANCH 17 21
ATOM     21 C14  BRA L   1      14.039  -3.976   0.929  1.00  0.00    +0.0752  C
ATOM     22 H44  BRA L   1      13.516  -3.060   0.620  1.00  0.00    +0.0458  H
BRANCH 21 26
ATOM     23 C10  BRA L   1      13.878  -6.859  -2.317  1.00  0.00    -0.0103  A
ATOM     24 C11  BRA L   1      12.745  -6.130  -1.938  1.00  0.00    -0.0551  A
ATOM     25 C12  BRA L   1      12.830  -5.163  -0.936  1.00  0.00    -0.0574  A
ATOM     26 C13  BRA L   1      14.051  -4.900  -0.289  1.00  0.00    -0.0341  A
ATOM     27 C30  BRA L   1      15.194  -5.587  -0.720  1.00  0.00    -0.0574  A
ATOM     28 C31  BRA L   1      15.106  -6.559  -1.720  1.00  0.00    -0.0551  A
ATOM     29 H42  BRA L   1      11.779  -6.343  -2.393  1.00  0.00    +0.0621  H
ATOM     30 H43  BRA L   1      11.922  -4.644  -0.630  1.00  0.00    +0.0621  H
ATOM     31 H56  BRA L   1      16.165  -5.405  -0.267  1.00  0.00    +0.0621  H
ATOM     32 H57  BRA L   1      16.002  -7.109  -2.001  1.00  0.00    +0.0621  H
BRANCH 23 33
ATOM     33  C9  BRA L   1      13.762  -7.986  -3.312  1.00  0.00    +0.1179  C
ATOM     34 H40  BRA L   1      13.926  -8.970  -2.855  1.00  0.00    +0.0749  H
ATOM     35 H41  BRA L   1      14.530  -7.864  -4.084  1.00  0.00    +0.0749  H
BRANCH 33 36
ATOM     36  O8  BRA L   1      12.483  -7.936  -3.960  1.00  0.00    -0.4564 OA
BRANCH 36 37
ATOM     37  C6  BRA L   1      12.524  -7.965  -5.315  1.00  0.00    +0.3398  C
ATOM     38  O7  BRA L   1      13.500  -7.807  -6.028  1.00  0.00    -0.2449 OA
BRANCH 37 43
ATOM     39  C1  BRA L   1       7.352  -9.259  -7.554  1.00  0.00    -0.0397  C
ATOM     40  C2  BRA L   1       8.698  -8.949  -6.967  1.00  0.00    -0.0502  A
ATOM     41  C3  BRA L   1       9.426  -7.844  -7.417  1.00  0.00    -0.0580  A
ATOM     42  C4  BRA L   1      10.666  -7.547  -6.854  1.00  0.00    -0.0473  A
ATOM     43  C5  BRA L   1      11.191  -8.348  -5.830  1.00  0.00    +0.0619  A
ATOM     44 C32  BRA L   1      10.455  -9.438  -5.332  1.00  0.00    -0.0362  A
ATOM     45 C33  BRA L   1      10.958 -10.310  -4.216  1.00  0.00    -0.0389  C
ATOM     46 C34  BRA L   1       9.213  -9.730  -5.920  1.00  0.00    -0.0551  A
ATOM     47 H35  BRA L   1       7.154 -10.335  -7.529  1.00  0.00    +0.0278  H
ATOM     48 H36  BRA L   1       7.299  -8.942  -8.600  1.00  0.00    +0.0278  H
ATOM     49 H37  BRA L   1       6.570  -8.742  -6.988  1.00  0.00    +0.0278  H
ATOM     50 H38  BRA L   1       9.037  -7.216  -8.216  1.00  0.00    +0.0620  H
ATOM     51 H39  BRA L   1      11.232  -6.695  -7.223  1.00  0.00    +0.0626  H
ATOM     52 H58  BRA L   1      10.136 -10.856  -3.741  1.00  0.00    +0.0278  H
ATOM     53 H59  BRA L   1      11.431  -9.709  -3.432  1.00  0.00    +0.0278  H
ATOM     54 H60  BRA L   1      11.677 -11.041  -4.600  1.00  0.00    +0.0278  H
ATOM     55 H61  BRA L   1       8.631 -10.578  -5.557  1.00  0.00    +0.0623  H
ENDBRANCH 37 43
ENDBRANCH 36 37
ENDBRANCH 33 36
ENDBRANCH 23 33
ENDBRANCH 21 26
BRANCH 21 56
ATOM     56 C15  BRA L   1      15.397  -3.552   1.533  1.00  0.00    +0.0085  C
ATOM     57 N16  BRA L   1      15.434  -3.587   2.999  1.00  0.00    -0.3289 NA
ATOM     58 H45  BRA L   1      16.183  -4.220   1.159  1.00  0.00    +0.0432  H
ATOM     59 H46  BRA L   1      15.670  -2.542   1.201  1.00  0.00    +0.0432  H
ATOM     60 H47  BRA L   1      16.391  -3.432   3.318  1.00  0.00    +0.1182 HD
ATOM     61 H48  BRA L   1      15.176  -4.519   3.328  1.00  0.00    +0.1182 HD
ENDBRANCH 21 56
ENDBRANCH 17 21
ENDBRANCH 1 19
TORSDOF 8
ENDMDL
MODEL 20
REMARK VINA RESULT:    -6.849      1.563      2.361
REMARK INTER + INTRA:         -11.017
REMARK INTER:                 -10.032
REMARK INTRA:                  -0.984
REMARK UNBOUND:                -0.965
ROOT
ATOM      1 C20  BRA L   1      11.064  -5.278   2.325  1.00  0.00    +0.0423  A
ATOM      2 C21  BRA L   1      10.142  -6.169   2.870  1.00  0.00    -0.0377  A
ATOM      3 C22  BRA L   1       9.354  -5.790   3.962  1.00  0.00    -0.0506  A
ATOM      4 C23  BRA L   1       9.479  -4.509   4.525  1.00  0.00    +0.0004  A
ATOM      5 C24  BRA L   1       8.729  -4.082   5.624  1.00  0.00    +0.0353  A
ATOM      6 N25  BRA L   1       8.829  -2.857   6.193  1.00  0.00    -0.2626 NA
ATOM      7 C26  BRA L   1       9.716  -2.007   5.637  1.00  0.00    +0.0281  A
ATOM      8 C27  BRA L   1      10.510  -2.322   4.547  1.00  0.00    -0.0358  A
ATOM      9 C28  BRA L   1      10.397  -3.597   3.975  1.00  0.00    -0.0131  A
ATOM     10 C29  BRA L   1      11.179  -3.993   2.877  1.00  0.00    -0.0305  A
ATOM     11 H50  BRA L   1      10.017  -7.174   2.478  1.00  0.00    +0.0638  H
ATOM     12 H51  BRA L   1       8.646  -6.507   4.373  1.00  0.00    +0.0625  H
ATOM     13 H52  BRA L   1       8.001  -4.737   6.096  1.00  0.00    +0.0836  H
ATOM     14 H53  BRA L   1       9.777  -1.029   6.107  1.00  0.00    +0.0830  H
ATOM     15 H54  BRA L   1      11.204  -1.585   4.156  1.00  0.00    +0.0639  H
ATOM     16 H55  BRA L   1      11.893  -3.287   2.457  1.00  0.00    +0.0644  H
ENDROOT
BRANCH 1 19
ATOM     17 C17  BRA L   1      11.614  -5.713  -0.092  1.00  0.00    +0.2339  C
ATOM     18 O18  BRA L   1      10.524  -5.463  -0.604  1.00  0.00    -0.2722 OA
ATOM     19 N19  BRA L   1      11.924  -5.588   1.255  1.00  0.00    -0.3256  N
ATOM     20 H49  BRA L   1      12.877  -5.816   1.518  1.00  0.00    +0.1686 HD
BRANCH 17 21
ATOM     21 C14  BRA L   1      12.800  -6.159  -0.972  1.00  0.00    +0.0752  C
ATOM     22 H44  BRA L   1      13.025  -5.320  -1.646  1.00  0.00    +0.0458  H
BRANCH 21 26
ATOM     23 C10  BRA L   1      11.493  -9.256  -3.724  1.00  0.00    -0.0103  A
ATOM     24 C11  BRA L   1      12.491  -8.342  -4.081  1.00  0.00    -0.0551  A
ATOM     25 C12  BRA L   1      12.943  -7.395  -3.163  1.00  0.00    -0.0574  A
ATOM     26 C13  BRA L   1      12.409  -7.338  -1.863  1.00  0.00    -0.0341  A
ATOM     27 C30  BRA L   1      11.458  -8.298  -1.492  1.00  0.00    -0.0574  A
ATOM     28 C31  BRA L   1      11.003  -9.244  -2.415  1.00  0.00    -0.0551  A
ATOM     29 H42  BRA L   1      12.891  -8.336  -5.094  1.00  0.00    +0.0621  H
ATOM     30 H43  BRA L   1      13.687  -6.667  -3.485  1.00  0.00    +0.0621  H
ATOM     31 H56  BRA L   1      11.031  -8.311  -0.492  1.00  0.00    +0.0621  H
ATOM     32 H57  BRA L   1      10.229  -9.947  -2.111  1.00  0.00    +0.0621  H
BRANCH 23 33
ATOM     33  C9  BRA L   1      10.919 -10.199  -4.751  1.00  0.00    +0.1179  C
ATOM     34 H40  BRA L   1      10.045 -10.748  -4.376  1.00  0.00    +0.0749  H
ATOM     35 H41  BRA L   1      11.674 -10.949  -5.013  1.00  0.00    +0.0749  H
BRANCH 33 36
ATOM     36  O8  BRA L   1      10.589  -9.478  -5.947  1.00  0.00    -0.4564 OA
BRANCH 36 37
ATOM     37  C6  BRA L   1       9.267  -9.241  -6.129  1.00  0.00    +0.3398  C
ATOM     38  O7  BRA L   1       8.407  -9.157  -5.269  1.00  0.00    -0.2449 OA
BRANCH 37 43
ATOM     39  C1  BRA L   1       8.099  -8.404 -11.730  1.00  0.00    -0.0397  C
ATOM     40  C2  BRA L   1       8.403  -8.594 -10.272  1.00  0.00    -0.0502  A
ATOM     41  C3  BRA L   1       7.957  -9.737  -9.603  1.00  0.00    -0.0580  A
ATOM     42  C4  BRA L   1       8.260  -9.921  -8.255  1.00  0.00    -0.0473  A
ATOM     43  C5  BRA L   1       9.019  -8.967  -7.562  1.00  0.00    +0.0619  A
ATOM     44 C32  BRA L   1       9.515  -7.832  -8.228  1.00  0.00    -0.0362  A
ATOM     45 C33  BRA L   1      10.357  -6.795  -7.539  1.00  0.00    -0.0389  C
ATOM     46 C34  BRA L   1       9.188  -7.657  -9.583  1.00  0.00    -0.0551  A
ATOM     47 H35  BRA L   1       8.019  -7.340 -11.976  1.00  0.00    +0.0278  H
ATOM     48 H36  BRA L   1       7.145  -8.871 -11.995  1.00  0.00    +0.0278  H
ATOM     49 H37  BRA L   1       8.892  -8.850 -12.339  1.00  0.00    +0.0278  H
ATOM     50 H38  BRA L   1       7.361 -10.484 -10.124  1.00  0.00    +0.0620  H
ATOM     51 H39  BRA L   1       7.895 -10.805  -7.738  1.00  0.00    +0.0626  H
ATOM     52 H58  BRA L   1      10.925  -6.203  -8.265  1.00  0.00    +0.0278  H
ATOM     53 H59  BRA L   1      11.089  -7.263  -6.873  1.00  0.00    +0.0278  H
ATOM     54 H60  BRA L   1       9.723  -6.112  -6.964  1.00  0.00    +0.0278  H
ATOM     55 H61  BRA L   1       9.553  -6.778 -10.116  1.00  0.00    +0.0623  H
ENDBRANCH 37 43
ENDBRANCH 36 37
ENDBRANCH 33 36
ENDBRANCH 23 33
ENDBRANCH 21 26
BRANCH 21 56
ATOM     56 C15  BRA L   1      14.012  -6.331  -0.028  1.00  0.00    +0.0085  C
ATOM     57 N16  BRA L   1      14.831  -5.123   0.116  1.00  0.00    -0.3289 NA
ATOM     58 H45  BRA L   1      13.656  -6.620   0.968  1.00  0.00    +0.0432  H
ATOM     59 H46  BRA L   1      14.656  -7.151  -0.372  1.00  0.00    +0.0432  H
ATOM     60 H47  BRA L   1      15.523  -5.269   0.852  1.00  0.00    +0.1182 HD
ATOM     61 H48  BRA L   1      14.247  -4.347   0.429  1.00  0.00    +0.1182 HD
ENDBRANCH 21 56
ENDBRANCH 17 21
ENDBRANCH 1 19
TORSDOF 8
ENDMDL
