MODEL 1
REMARK VINA RESULT:    -7.739      0.000      0.000
REMARK INTER + INTRA:         -12.327
REMARK INTER:                 -11.359
REMARK INTRA:                  -0.969
REMARK UNBOUND:                -0.969
ROOT
ATOM      1 C20  BRA L   1      10.482  -4.506   2.908  1.00  0.00    +0.0423  A
ATOM      2 C21  BRA L   1      10.330  -3.367   3.695  1.00  0.00    -0.0377  A
ATOM      3 C22  BRA L   1       9.546  -3.408   4.854  1.00  0.00    -0.0506  A
ATOM      4 C23  BRA L   1       8.901  -4.594   5.240  1.00  0.00    +0.0004  A
ATOM      5 C24  BRA L   1       8.095  -4.689   6.378  1.00  0.00    +0.0353  A
ATOM      6 N25  BRA L   1       7.455  -5.815   6.774  1.00  0.00    -0.2626 NA
ATOM      7 C26  BRA L   1       7.630  -6.908   6.006  1.00  0.00    +0.0281  A
ATOM      8 C27  BRA L   1       8.407  -6.930   4.858  1.00  0.00    -0.0358  A
ATOM      9 C28  BRA L   1       9.056  -5.754   4.460  1.00  0.00    -0.0131  A
ATOM     10 C29  BRA L   1       9.850  -5.696   3.302  1.00  0.00    -0.0305  A
ATOM     11 H50  BRA L   1      10.799  -2.424   3.433  1.00  0.00    +0.0638  H
ATOM     12 H51  BRA L   1       9.439  -2.503   5.448  1.00  0.00    +0.0625  H
ATOM     13 H52  BRA L   1       7.933  -3.830   7.025  1.00  0.00    +0.0836  H
ATOM     14 H53  BRA L   1       7.111  -7.801   6.345  1.00  0.00    +0.0830  H
ATOM     15 H54  BRA L   1       8.499  -7.850   4.288  1.00  0.00    +0.0639  H
ATOM     16 H55  BRA L   1       9.963  -6.593   2.696  1.00  0.00    +0.0644  H
ENDROOT
BRANCH 1 19
ATOM     17 C17  BRA L   1      12.501  -5.026   1.500  1.00  0.00    +0.2339  C
ATOM     18 O18  BRA L   1      13.192  -5.612   2.332  1.00  0.00    -0.2722 OA
ATOM     19 N19  BRA L   1      11.216  -4.546   1.708  1.00  0.00    -0.3256  N
ATOM     20 H49  BRA L   1      10.770  -4.100   0.913  1.00  0.00    +0.1686 HD
BRANCH 17 21
ATOM     21 C14  BRA L   1      13.025  -4.820   0.064  1.00  0.00    +0.0752  C
ATOM     22 H44  BRA L   1      12.463  -3.974  -0.358  1.00  0.00    +0.0458  H
BRANCH 21 26
ATOM     23 C10  BRA L   1      12.039  -8.011  -2.715  1.00  0.00    -0.0103  A
ATOM     24 C11  BRA L   1      13.223  -7.276  -2.845  1.00  0.00    -0.0551  A
ATOM     25 C12  BRA L   1      13.554  -6.298  -1.907  1.00  0.00    -0.0574  A
ATOM     26 C13  BRA L   1      12.710  -6.031  -0.815  1.00  0.00    -0.0341  A
ATOM     27 C30  BRA L   1      11.560  -6.816  -0.654  1.00  0.00    -0.0574  A
ATOM     28 C31  BRA L   1      11.227  -7.792  -1.597  1.00  0.00    -0.0551  A
ATOM     29 H42  BRA L   1      13.873  -7.432  -3.704  1.00  0.00    +0.0621  H
ATOM     30 H43  BRA L   1      14.458  -5.710  -2.060  1.00  0.00    +0.0621  H
ATOM     31 H56  BRA L   1      10.886  -6.665   0.185  1.00  0.00    +0.0621  H
ATOM     32 H57  BRA L   1      10.304  -8.354  -1.471  1.00  0.00    +0.0621  H
BRANCH 23 33
ATOM     33  C9  BRA L   1      11.621  -8.981  -3.791  1.00  0.00    +0.1179  C
ATOM     34 H40  BRA L   1      11.108  -9.863  -3.385  1.00  0.00    +0.0749  H
ATOM     35 H41  BRA L   1      12.513  -9.346  -4.312  1.00  0.00    +0.0749  H
BRANCH 33 36
ATOM     36  O8  BRA L   1      10.795  -8.315  -4.757  1.00  0.00    -0.4564 OA
BRANCH 36 37
ATOM     37  C6  BRA L   1      11.328  -8.219  -5.999  1.00  0.00    +0.3398  C
ATOM     38  O7  BRA L   1      12.510  -8.157  -6.294  1.00  0.00    -0.2449 OA
BRANCH 37 43
ATOM     39  C1  BRA L   1       6.957  -8.859  -9.731  1.00  0.00    -0.0397  C
ATOM     40  C2  BRA L   1       8.091  -8.666  -8.766  1.00  0.00    -0.0502  A
ATOM     41  C3  BRA L   1       8.285  -9.568  -7.716  1.00  0.00    -0.0580  A
ATOM     42  C4  BRA L   1       9.352  -9.398  -6.836  1.00  0.00    -0.0473  A
ATOM     43  C5  BRA L   1      10.242  -8.327  -6.999  1.00  0.00    +0.0619  A
ATOM     44 C32  BRA L   1      10.091  -7.434  -8.074  1.00  0.00    -0.0362  A
ATOM     45 C33  BRA L   1      11.034  -6.288  -8.311  1.00  0.00    -0.0389  C
ATOM     46 C34  BRA L   1       9.002  -7.613  -8.944  1.00  0.00    -0.0551  A
ATOM     47 H35  BRA L   1       6.609  -7.897 -10.121  1.00  0.00    +0.0278  H
ATOM     48 H36  BRA L   1       6.104  -9.339  -9.240  1.00  0.00    +0.0278  H
ATOM     49 H37  BRA L   1       7.281  -9.485 -10.568  1.00  0.00    +0.0278  H
ATOM     50 H38  BRA L   1       7.599 -10.401  -7.571  1.00  0.00    +0.0620  H
ATOM     51 H39  BRA L   1       9.485 -10.095  -6.013  1.00  0.00    +0.0626  H
ATOM     52 H58  BRA L   1      10.976  -5.937  -9.347  1.00  0.00    +0.0278  H
ATOM     53 H59  BRA L   1      12.072  -6.592  -8.141  1.00  0.00    +0.0278  H
ATOM     54 H60  BRA L   1      10.786  -5.450  -7.652  1.00  0.00    +0.0278  H
ATOM     55 H61  BRA L   1       8.860  -6.925  -9.777  1.00  0.00    +0.0623  H
ENDBRANCH 37 43
ENDBRANCH 36 37
ENDBRANCH 33 36
ENDBRANCH 23 33
ENDBRANCH 21 26
BRANCH 21 56
ATOM     56 C15  BRA L   1      14.501  -4.377   0.189  1.00  0.00    +0.0085  C
ATOM     57 N16  BRA L   1      14.694  -3.166   0.993  1.00  0.00    -0.3289 NA
ATOM     58 H45  BRA L   1      15.082  -5.186   0.651  1.00  0.00    +0.0432  H
ATOM     59 H46  BRA L   1      14.941  -4.212  -0.802  1.00  0.00    +0.0432  H
ATOM     60 H47  BRA L   1      15.691  -3.016   1.146  1.00  0.00    +0.1182 HD
ATOM     61 H48  BRA L   1      14.283  -3.299   1.919  1.00  0.00    +0.1182 HD
ENDBRANCH 21 56
ENDBRANCH 17 21
ENDBRANCH 1 19
TORSDOF 8
ENDMDL
MODEL 2
REMARK VINA RESULT:    -7.629      3.116     10.416
REMARK INTER + INTRA:         -12.166
REMARK INTER:                  -9.952
REMARK INTRA:                  -2.214
REMARK UNBOUND:                -0.969
ROOT
ATOM      1 C20  BRA L   1      12.352  -8.110  -1.576  1.00  0.00    +0.0423  A
ATOM      2 C21  BRA L   1      11.530  -9.206  -1.325  1.00  0.00    -0.0377  A
ATOM      3 C22  BRA L   1      10.911  -9.881  -2.382  1.00  0.00    -0.0506  A
ATOM      4 C23  BRA L   1      11.106  -9.466  -3.709  1.00  0.00    +0.0004  A
ATOM      5 C24  BRA L   1      10.501 -10.093  -4.802  1.00  0.00    +0.0353  A
ATOM      6 N25  BRA L   1      10.664  -9.714  -6.092  1.00  0.00    -0.2626 NA
ATOM      7 C26  BRA L   1      11.477  -8.661  -6.311  1.00  0.00    +0.0281  A
ATOM      8 C27  BRA L   1      12.129  -7.965  -5.305  1.00  0.00    -0.0358  A
ATOM      9 C28  BRA L   1      11.943  -8.368  -3.976  1.00  0.00    -0.0131  A
ATOM     10 C29  BRA L   1      12.560  -7.703  -2.903  1.00  0.00    -0.0305  A
ATOM     11 H50  BRA L   1      11.340  -9.559  -0.316  1.00  0.00    +0.0638  H
ATOM     12 H51  BRA L   1      10.269 -10.731  -2.158  1.00  0.00    +0.0625  H
ATOM     13 H52  BRA L   1       9.843 -10.948  -4.666  1.00  0.00    +0.0836  H
ATOM     14 H53  BRA L   1      11.596  -8.377  -7.353  1.00  0.00    +0.0830  H
ATOM     15 H54  BRA L   1      12.766  -7.124  -5.559  1.00  0.00    +0.0639  H
ATOM     16 H55  BRA L   1      13.202  -6.849  -3.111  1.00  0.00    +0.0644  H
ENDROOT
BRANCH 1 19
ATOM     17 C17  BRA L   1      12.397  -6.514   0.370  1.00  0.00    +0.2339  C
ATOM     18 O18  BRA L   1      11.189  -6.381   0.560  1.00  0.00    -0.2722 OA
ATOM     19 N19  BRA L   1      12.982  -7.348  -0.573  1.00  0.00    -0.3256  N
ATOM     20 H49  BRA L   1      13.996  -7.360  -0.594  1.00  0.00    +0.1686 HD
BRANCH 17 21
ATOM     21 C14  BRA L   1      13.409  -5.759   1.256  1.00  0.00    +0.0752  C
ATOM     22 H44  BRA L   1      14.177  -6.490   1.550  1.00  0.00    +0.0458  H
BRANCH 21 26
ATOM     23 C10  BRA L   1      11.868  -4.181   4.998  1.00  0.00    -0.0103  A
ATOM     24 C11  BRA L   1      11.957  -3.379   3.855  1.00  0.00    -0.0551  A
ATOM     25 C12  BRA L   1      12.394  -3.919   2.646  1.00  0.00    -0.0574  A
ATOM     26 C13  BRA L   1      12.753  -5.275   2.549  1.00  0.00    -0.0341  A
ATOM     27 C30  BRA L   1      12.598  -6.087   3.681  1.00  0.00    -0.0574  A
ATOM     28 C31  BRA L   1      12.164  -5.544   4.893  1.00  0.00    -0.0551  A
ATOM     29 H42  BRA L   1      11.726  -2.317   3.912  1.00  0.00    +0.0621  H
ATOM     30 H43  BRA L   1      12.498  -3.260   1.785  1.00  0.00    +0.0621  H
ATOM     31 H56  BRA L   1      12.840  -7.147   3.652  1.00  0.00    +0.0621  H
ATOM     32 H57  BRA L   1      12.099  -6.189   5.767  1.00  0.00    +0.0621  H
BRANCH 23 33
ATOM     33  C9  BRA L   1      11.512  -3.573   6.332  1.00  0.00    +0.1179  C
ATOM     34 H40  BRA L   1      10.986  -2.615   6.230  1.00  0.00    +0.0749  H
ATOM     35 H41  BRA L   1      12.433  -3.371   6.892  1.00  0.00    +0.0749  H
BRANCH 33 36
ATOM     36  O8  BRA L   1      10.732  -4.501   7.099  1.00  0.00    -0.4564 OA
BRANCH 36 37
ATOM     37  C6  BRA L   1       9.390  -4.397   6.935  1.00  0.00    +0.3398  C
ATOM     38  O7  BRA L   1       8.719  -3.380   6.969  1.00  0.00    -0.2449 OA
BRANCH 37 43
ATOM     39  C1  BRA L   1       7.249  -9.652   5.824  1.00  0.00    -0.0397  C
ATOM     40  C2  BRA L   1       7.789  -8.277   6.092  1.00  0.00    -0.0502  A
ATOM     41  C3  BRA L   1       8.239  -7.934   7.371  1.00  0.00    -0.0580  A
ATOM     42  C4  BRA L   1       8.761  -6.664   7.611  1.00  0.00    -0.0473  A
ATOM     43  C5  BRA L   1       8.844  -5.724   6.574  1.00  0.00    +0.0619  A
ATOM     44 C32  BRA L   1       8.439  -6.064   5.271  1.00  0.00    -0.0362  A
ATOM     45 C33  BRA L   1       8.535  -5.103   4.119  1.00  0.00    -0.0389  C
ATOM     46 C34  BRA L   1       7.903  -7.344   5.051  1.00  0.00    -0.0551  A
ATOM     47 H35  BRA L   1       6.496  -9.627   5.030  1.00  0.00    +0.0278  H
ATOM     48 H36  BRA L   1       6.767 -10.064   6.716  1.00  0.00    +0.0278  H
ATOM     49 H37  BRA L   1       8.061 -10.320   5.520  1.00  0.00    +0.0278  H
ATOM     50 H38  BRA L   1       8.175  -8.650   8.188  1.00  0.00    +0.0620  H
ATOM     51 H39  BRA L   1       9.092  -6.401   8.612  1.00  0.00    +0.0626  H
ATOM     52 H58  BRA L   1       8.515  -5.634   3.161  1.00  0.00    +0.0278  H
ATOM     53 H59  BRA L   1       9.478  -4.547   4.150  1.00  0.00    +0.0278  H
ATOM     54 H60  BRA L   1       7.695  -4.402   4.139  1.00  0.00    +0.0278  H
ATOM     55 H61  BRA L   1       7.572  -7.624   4.051  1.00  0.00    +0.0623  H
ENDBRANCH 37 43
ENDBRANCH 36 37
ENDBRANCH 33 36
ENDBRANCH 23 33
ENDBRANCH 21 26
BRANCH 21 56
ATOM     56 C15  BRA L   1      14.094  -4.709   0.351  1.00  0.00    +0.0085  C
ATOM     57 N16  BRA L   1      13.318  -4.353  -0.842  1.00  0.00    -0.3289 NA
ATOM     58 H45  BRA L   1      14.266  -3.792   0.929  1.00  0.00    +0.0432  H
ATOM     59 H46  BRA L   1      15.084  -5.060   0.032  1.00  0.00    +0.0432  H
ATOM     60 H47  BRA L   1      13.761  -3.564  -1.312  1.00  0.00    +0.1182 HD
ATOM     61 H48  BRA L   1      12.389  -4.031  -0.565  1.00  0.00    +0.1182 HD
ENDBRANCH 21 56
ENDBRANCH 17 21
ENDBRANCH 1 19
TORSDOF 8
ENDMDL
MODEL 3
REMARK VINA RESULT:    -7.623      3.491     11.128
REMARK INTER + INTRA:         -12.157
REMARK INTER:                 -10.784
REMARK INTRA:                  -1.373
REMARK UNBOUND:                -0.969
ROOT
ATOM      1 C20  BRA L   1       8.950  -9.598  -6.281  1.00  0.00    +0.0423  A
ATOM      2 C21  BRA L   1       7.611  -9.705  -5.915  1.00  0.00    -0.0377  A
ATOM      3 C22  BRA L   1       6.602  -9.551  -6.873  1.00  0.00    -0.0506  A
ATOM      4 C23  BRA L   1       6.923  -9.286  -8.214  1.00  0.00    +0.0004  A
ATOM      5 C24  BRA L   1       5.958  -9.109  -9.209  1.00  0.00    +0.0353  A
ATOM      6 N25  BRA L   1       6.233  -8.847 -10.509  1.00  0.00    -0.2626 NA
ATOM      7 C26  BRA L   1       7.537  -8.765 -10.842  1.00  0.00    +0.0281  A
ATOM      8 C27  BRA L   1       8.578  -8.924  -9.940  1.00  0.00    -0.0358  A
ATOM      9 C28  BRA L   1       8.272  -9.188  -8.598  1.00  0.00    -0.0131  A
ATOM     10 C29  BRA L   1       9.273  -9.349  -7.624  1.00  0.00    -0.0305  A
ATOM     11 H50  BRA L   1       7.312  -9.898  -4.889  1.00  0.00    +0.0638  H
ATOM     12 H51  BRA L   1       5.563  -9.634  -6.560  1.00  0.00    +0.0625  H
ATOM     13 H52  BRA L   1       4.897  -9.172  -8.980  1.00  0.00    +0.0836  H
ATOM     14 H53  BRA L   1       7.735  -8.558 -11.890  1.00  0.00    +0.0830  H
ATOM     15 H54  BRA L   1       9.604  -8.841 -10.283  1.00  0.00    +0.0639  H
ATOM     16 H55  BRA L   1      10.316  -9.266  -7.922  1.00  0.00    +0.0644  H
ENDROOT
BRANCH 1 19
ATOM     17 C17  BRA L   1      11.007  -8.757  -5.101  1.00  0.00    +0.2339  C
ATOM     18 O18  BRA L   1      11.040  -7.605  -5.531  1.00  0.00    -0.2722 OA
ATOM     19 N19  BRA L   1      10.027  -9.698  -5.379  1.00  0.00    -0.3256  N
ATOM     20 H49  BRA L   1      10.133 -10.602  -4.931  1.00  0.00    +0.1686 HD
BRANCH 17 21
ATOM     21 C14  BRA L   1      12.092  -9.249  -4.121  1.00  0.00    +0.0752  C
ATOM     22 H44  BRA L   1      11.763 -10.233  -3.756  1.00  0.00    +0.0458  H
BRANCH 21 26
ATOM     23 C10  BRA L   1      12.023  -6.478  -0.776  1.00  0.00    -0.0103  A
ATOM     24 C11  BRA L   1      11.086  -7.512  -0.880  1.00  0.00    -0.0551  A
ATOM     25 C12  BRA L   1      11.161  -8.431  -1.927  1.00  0.00    -0.0574  A
ATOM     26 C13  BRA L   1      12.178  -8.339  -2.895  1.00  0.00    -0.0341  A
ATOM     27 C30  BRA L   1      13.151  -7.342  -2.746  1.00  0.00    -0.0574  A
ATOM     28 C31  BRA L   1      13.071  -6.419  -1.700  1.00  0.00    -0.0551  A
ATOM     29 H42  BRA L   1      10.264  -7.580  -0.169  1.00  0.00    +0.0621  H
ATOM     30 H43  BRA L   1      10.391  -9.196  -2.009  1.00  0.00    +0.0621  H
ATOM     31 H56  BRA L   1      13.969  -7.243  -3.454  1.00  0.00    +0.0621  H
ATOM     32 H57  BRA L   1      13.815  -5.627  -1.637  1.00  0.00    +0.0621  H
BRANCH 23 33
ATOM     33  C9  BRA L   1      11.871  -5.415   0.283  1.00  0.00    +0.1179  C
ATOM     34 H40  BRA L   1      11.638  -4.429  -0.140  1.00  0.00    +0.0749  H
ATOM     35 H41  BRA L   1      12.818  -5.310   0.825  1.00  0.00    +0.0749  H
BRANCH 33 36
ATOM     36  O8  BRA L   1      10.869  -5.809   1.232  1.00  0.00    -0.4564 OA
BRANCH 36 37
ATOM     37  C6  BRA L   1      11.311  -5.960   2.505  1.00  0.00    +0.3398  C
ATOM     38  O7  BRA L   1      12.155  -6.743   2.905  1.00  0.00    -0.2449 OA
BRANCH 37 43
ATOM     39  C1  BRA L   1       9.123  -1.713   5.762  1.00  0.00    -0.0397  C
ATOM     40  C2  BRA L   1       9.666  -2.822   4.909  1.00  0.00    -0.0502  A
ATOM     41  C3  BRA L   1      10.957  -2.737   4.379  1.00  0.00    -0.0580  A
ATOM     42  C4  BRA L   1      11.466  -3.779   3.606  1.00  0.00    -0.0473  A
ATOM     43  C5  BRA L   1      10.691  -4.921   3.357  1.00  0.00    +0.0619  A
ATOM     44 C32  BRA L   1       9.407  -5.046   3.916  1.00  0.00    -0.0362  A
ATOM     45 C33  BRA L   1       8.549  -6.261   3.704  1.00  0.00    -0.0389  C
ATOM     46 C34  BRA L   1       8.906  -3.980   4.682  1.00  0.00    -0.0551  A
ATOM     47 H35  BRA L   1       8.036  -1.640   5.662  1.00  0.00    +0.0278  H
ATOM     48 H36  BRA L   1       9.543  -0.748   5.463  1.00  0.00    +0.0278  H
ATOM     49 H37  BRA L   1       9.370  -1.895   6.813  1.00  0.00    +0.0278  H
ATOM     50 H38  BRA L   1      11.569  -1.855   4.558  1.00  0.00    +0.0620  H
ATOM     51 H39  BRA L   1      12.465  -3.696   3.185  1.00  0.00    +0.0626  H
ATOM     52 H58  BRA L   1       7.772  -6.333   4.473  1.00  0.00    +0.0278  H
ATOM     53 H59  BRA L   1       9.143  -7.178   3.771  1.00  0.00    +0.0278  H
ATOM     54 H60  BRA L   1       8.058  -6.213   2.726  1.00  0.00    +0.0278  H
ATOM     55 H61  BRA L   1       7.908  -4.052   5.116  1.00  0.00    +0.0623  H
ENDBRANCH 37 43
ENDBRANCH 36 37
ENDBRANCH 33 36
ENDBRANCH 23 33
ENDBRANCH 21 26
BRANCH 21 56
ATOM     56 C15  BRA L   1      13.376  -9.470  -4.953  1.00  0.00    +0.0085  C
ATOM     57 N16  BRA L   1      13.137  -9.591  -6.395  1.00  0.00    -0.3289 NA
ATOM     58 H45  BRA L   1      14.059  -8.626  -4.793  1.00  0.00    +0.0432  H
ATOM     59 H46  BRA L   1      13.910 -10.365  -4.611  1.00  0.00    +0.0432  H
ATOM     60 H47  BRA L   1      14.031  -9.594  -6.888  1.00  0.00    +0.1182 HD
ATOM     61 H48  BRA L   1      12.634  -8.768  -6.731  1.00  0.00    +0.1182 HD
ENDBRANCH 21 56
ENDBRANCH 17 21
ENDBRANCH 1 19
TORSDOF 8
ENDMDL
MODEL 4
REMARK VINA RESULT:    -7.591      3.509     11.156
REMARK INTER + INTRA:         -12.110
REMARK INTER:                 -10.916
REMARK INTRA:                  -1.194
REMARK UNBOUND:                -0.969
ROOT
ATOM      1 C20  BRA L   1       8.720  -9.546  -6.270  1.00  0.00    +0.0423  A
ATOM      2 C21  BRA L   1       7.361  -9.697  -6.003  1.00  0.00    -0.0377  A
ATOM      3 C22  BRA L   1       6.420  -9.564  -7.031  1.00  0.00    -0.0506  A
ATOM      4 C23  BRA L   1       6.830  -9.276  -8.343  1.00  0.00    +0.0004  A
ATOM      5 C24  BRA L   1       5.935  -9.118  -9.404  1.00  0.00    +0.0353  A
ATOM      6 N25  BRA L   1       6.296  -8.835 -10.679  1.00  0.00    -0.2626 NA
ATOM      7 C26  BRA L   1       7.618  -8.710 -10.915  1.00  0.00    +0.0281  A
ATOM      8 C27  BRA L   1       8.594  -8.847  -9.940  1.00  0.00    -0.0358  A
ATOM      9 C28  BRA L   1       8.200  -9.134  -8.627  1.00  0.00    -0.0131  A
ATOM     10 C29  BRA L   1       9.131  -9.274  -7.583  1.00  0.00    -0.0305  A
ATOM     11 H50  BRA L   1       6.994  -9.909  -5.004  1.00  0.00    +0.0638  H
ATOM     12 H51  BRA L   1       5.365  -9.681  -6.795  1.00  0.00    +0.0625  H
ATOM     13 H52  BRA L   1       4.862  -9.216  -9.254  1.00  0.00    +0.0836  H
ATOM     14 H53  BRA L   1       7.885  -8.487 -11.944  1.00  0.00    +0.0830  H
ATOM     15 H54  BRA L   1       9.639  -8.730 -10.207  1.00  0.00    +0.0639  H
ATOM     16 H55  BRA L   1      10.190  -9.156  -7.804  1.00  0.00    +0.0644  H
ENDROOT
BRANCH 1 19
ATOM     17 C17  BRA L   1      10.811  -8.774  -5.104  1.00  0.00    +0.2339  C
ATOM     18 O18  BRA L   1      11.015  -7.724  -5.710  1.00  0.00    -0.2722 OA
ATOM     19 N19  BRA L   1       9.730  -9.623  -5.292  1.00  0.00    -0.3256  N
ATOM     20 H49  BRA L   1       9.695 -10.444  -4.698  1.00  0.00    +0.1686 HD
BRANCH 17 21
ATOM     21 C14  BRA L   1      11.775  -9.222  -3.985  1.00  0.00    +0.0752  C
ATOM     22 H44  BRA L   1      11.318 -10.103  -3.510  1.00  0.00    +0.0458  H
BRANCH 21 26
ATOM     23 C10  BRA L   1      12.386  -6.396  -0.743  1.00  0.00    -0.0103  A
ATOM     24 C11  BRA L   1      13.286  -6.480  -1.811  1.00  0.00    -0.0551  A
ATOM     25 C12  BRA L   1      13.041  -7.348  -2.875  1.00  0.00    -0.0574  A
ATOM     26 C13  BRA L   1      11.888  -8.153  -2.897  1.00  0.00    -0.0341  A
ATOM     27 C30  BRA L   1      10.959  -8.015  -1.858  1.00  0.00    -0.0574  A
ATOM     28 C31  BRA L   1      11.208  -7.148  -0.791  1.00  0.00    -0.0551  A
ATOM     29 H42  BRA L   1      14.207  -5.899  -1.798  1.00  0.00    +0.0621  H
ATOM     30 H43  BRA L   1      13.783  -7.427  -3.668  1.00  0.00    +0.0621  H
ATOM     31 H56  BRA L   1      10.042  -8.598  -1.840  1.00  0.00    +0.0621  H
ATOM     32 H57  BRA L   1      10.490  -7.097   0.026  1.00  0.00    +0.0621  H
BRANCH 23 33
ATOM     33  C9  BRA L   1      12.709  -5.549   0.463  1.00  0.00    +0.1179  C
ATOM     34 H40  BRA L   1      13.186  -4.598   0.194  1.00  0.00    +0.0749  H
ATOM     35 H41  BRA L   1      13.417  -6.089   1.102  1.00  0.00    +0.0749  H
BRANCH 33 36
ATOM     36  O8  BRA L   1      11.519  -5.319   1.231  1.00  0.00    -0.4564 OA
BRANCH 36 37
ATOM     37  C6  BRA L   1      11.597  -5.685   2.534  1.00  0.00    +0.3398  C
ATOM     38  O7  BRA L   1      12.142  -6.676   2.992  1.00  0.00    -0.2449 OA
BRANCH 37 43
ATOM     39  C1  BRA L   1       9.065  -1.687   5.857  1.00  0.00    -0.0397  C
ATOM     40  C2  BRA L   1       9.747  -2.718   5.005  1.00  0.00    -0.0502  A
ATOM     41  C3  BRA L   1       9.053  -3.858   4.588  1.00  0.00    -0.0580  A
ATOM     42  C4  BRA L   1       9.682  -4.802   3.779  1.00  0.00    -0.0473  A
ATOM     43  C5  BRA L   1      11.011  -4.615   3.372  1.00  0.00    +0.0619  A
ATOM     44 C32  BRA L   1      11.712  -3.455   3.743  1.00  0.00    -0.0362  A
ATOM     45 C33  BRA L   1      13.127  -3.192   3.310  1.00  0.00    -0.0389  C
ATOM     46 C34  BRA L   1      11.066  -2.520   4.570  1.00  0.00    -0.0551  A
ATOM     47 H35  BRA L   1       9.785  -1.184   6.511  1.00  0.00    +0.0278  H
ATOM     48 H36  BRA L   1       8.309  -2.148   6.500  1.00  0.00    +0.0278  H
ATOM     49 H37  BRA L   1       8.581  -0.938   5.222  1.00  0.00    +0.0278  H
ATOM     50 H38  BRA L   1       8.024  -4.022   4.901  1.00  0.00    +0.0620  H
ATOM     51 H39  BRA L   1       9.140  -5.694   3.473  1.00  0.00    +0.0626  H
ATOM     52 H58  BRA L   1      13.372  -2.127   3.387  1.00  0.00    +0.0278  H
ATOM     53 H59  BRA L   1      13.274  -3.473   2.261  1.00  0.00    +0.0278  H
ATOM     54 H60  BRA L   1      13.827  -3.750   3.939  1.00  0.00    +0.0278  H
ATOM     55 H61  BRA L   1      11.596  -1.619   4.879  1.00  0.00    +0.0623  H
ENDBRANCH 37 43
ENDBRANCH 36 37
ENDBRANCH 33 36
ENDBRANCH 23 33
ENDBRANCH 21 26
BRANCH 21 56
ATOM     56 C15  BRA L   1      13.073  -9.694  -4.679  1.00  0.00    +0.0085  C
ATOM     57 N16  BRA L   1      12.876 -10.165  -6.054  1.00  0.00    -0.3289 NA
ATOM     58 H45  BRA L   1      13.790  -8.863  -4.706  1.00  0.00    +0.0432  H
ATOM     59 H46  BRA L   1      13.553 -10.493  -4.101  1.00  0.00    +0.0432  H
ATOM     60 H47  BRA L   1      13.784 -10.326  -6.491  1.00  0.00    +0.1182 HD
ATOM     61 H48  BRA L   1      12.423  -9.436  -6.607  1.00  0.00    +0.1182 HD
ENDBRANCH 21 56
ENDBRANCH 17 21
ENDBRANCH 1 19
TORSDOF 8
ENDMDL
MODEL 5
REMARK VINA RESULT:    -7.517      3.357     11.181
REMARK INTER + INTRA:         -12.001
REMARK INTER:                 -11.107
REMARK INTRA:                  -0.895
REMARK UNBOUND:                -0.969
ROOT
ATOM      1 C20  BRA L   1      10.174  -8.548  -6.748  1.00  0.00    +0.0423  A
ATOM      2 C21  BRA L   1      10.817  -7.960  -7.835  1.00  0.00    -0.0377  A
ATOM      3 C22  BRA L   1      10.147  -7.806  -9.053  1.00  0.00    -0.0506  A
ATOM      4 C23  BRA L   1       8.820  -8.241  -9.201  1.00  0.00    +0.0004  A
ATOM      5 C24  BRA L   1       8.107  -8.126 -10.397  1.00  0.00    +0.0353  A
ATOM      6 N25  BRA L   1       6.830  -8.541 -10.574  1.00  0.00    -0.2626 NA
ATOM      7 C26  BRA L   1       6.224  -9.092  -9.503  1.00  0.00    +0.0281  A
ATOM      8 C27  BRA L   1       6.832  -9.255  -8.269  1.00  0.00    -0.0358  A
ATOM      9 C28  BRA L   1       8.157  -8.826  -8.107  1.00  0.00    -0.0131  A
ATOM     10 C29  BRA L   1       8.843  -8.970  -6.890  1.00  0.00    -0.0305  A
ATOM     11 H50  BRA L   1      11.845  -7.617  -7.774  1.00  0.00    +0.0638  H
ATOM     12 H51  BRA L   1      10.673  -7.348  -9.888  1.00  0.00    +0.0625  H
ATOM     13 H52  BRA L   1       8.560  -7.683 -11.281  1.00  0.00    +0.0836  H
ATOM     14 H53  BRA L   1       5.199  -9.414  -9.666  1.00  0.00    +0.0830  H
ATOM     15 H54  BRA L   1       6.280  -9.711  -7.453  1.00  0.00    +0.0639  H
ATOM     16 H55  BRA L   1       8.330  -9.429  -6.047  1.00  0.00    +0.0644  H
ENDROOT
BRANCH 1 19
ATOM     17 C17  BRA L   1      11.956  -8.232  -4.999  1.00  0.00    +0.2339  C
ATOM     18 O18  BRA L   1      12.621  -7.348  -5.535  1.00  0.00    -0.2722 OA
ATOM     19 N19  BRA L   1      10.783  -8.780  -5.500  1.00  0.00    -0.3256  N
ATOM     20 H49  BRA L   1      10.340  -9.492  -4.928  1.00  0.00    +0.1686 HD
BRANCH 17 21
ATOM     21 C14  BRA L   1      12.374  -8.792  -3.624  1.00  0.00    +0.0752  C
ATOM     22 H44  BRA L   1      11.658  -9.590  -3.378  1.00  0.00    +0.0458  H
BRANCH 21 26
ATOM     23 C10  BRA L   1      12.241  -5.966  -0.326  1.00  0.00    -0.0103  A
ATOM     24 C11  BRA L   1      13.308  -5.975  -1.231  1.00  0.00    -0.0551  A
ATOM     25 C12  BRA L   1      13.304  -6.846  -2.321  1.00  0.00    -0.0574  A
ATOM     26 C13  BRA L   1      12.231  -7.730  -2.533  1.00  0.00    -0.0341  A
ATOM     27 C30  BRA L   1      11.135  -7.669  -1.661  1.00  0.00    -0.0574  A
ATOM     28 C31  BRA L   1      11.143  -6.799  -0.567  1.00  0.00    -0.0551  A
ATOM     29 H42  BRA L   1      14.171  -5.332  -1.067  1.00  0.00    +0.0621  H
ATOM     30 H43  BRA L   1      14.170  -6.864  -2.981  1.00  0.00    +0.0621  H
ATOM     31 H56  BRA L   1      10.271  -8.315  -1.795  1.00  0.00    +0.0621  H
ATOM     32 H57  BRA L   1      10.299  -6.807   0.119  1.00  0.00    +0.0621  H
BRANCH 23 33
ATOM     33  C9  BRA L   1      12.300  -5.113   0.916  1.00  0.00    +0.1179  C
ATOM     34 H40  BRA L   1      12.523  -4.062   0.694  1.00  0.00    +0.0749  H
ATOM     35 H41  BRA L   1      13.105  -5.477   1.565  1.00  0.00    +0.0749  H
BRANCH 33 36
ATOM     36  O8  BRA L   1      11.069  -5.226   1.645  1.00  0.00    -0.4564 OA
BRANCH 36 37
ATOM     37  C6  BRA L   1      11.202  -5.603   2.941  1.00  0.00    +0.3398  C
ATOM     38  O7  BRA L   1      11.848  -6.542   3.374  1.00  0.00    -0.2449 OA
BRANCH 37 43
ATOM     39  C1  BRA L   1       8.767  -1.509   6.219  1.00  0.00    -0.0397  C
ATOM     40  C2  BRA L   1       9.375  -2.582   5.362  1.00  0.00    -0.0502  A
ATOM     41  C3  BRA L   1      10.605  -2.370   4.735  1.00  0.00    -0.0580  A
ATOM     42  C4  BRA L   1      11.177  -3.376   3.958  1.00  0.00    -0.0473  A
ATOM     43  C5  BRA L   1      10.527  -4.609   3.804  1.00  0.00    +0.0619  A
ATOM     44 C32  BRA L   1       9.309  -4.858   4.462  1.00  0.00    -0.0362  A
ATOM     45 C33  BRA L   1       8.586  -6.171   4.353  1.00  0.00    -0.0389  C
ATOM     46 C34  BRA L   1       8.742  -3.828   5.230  1.00  0.00    -0.0551  A
ATOM     47 H35  BRA L   1       7.674  -1.566   6.198  1.00  0.00    +0.0278  H
ATOM     48 H36  BRA L   1       9.048  -0.515   5.858  1.00  0.00    +0.0278  H
ATOM     49 H37  BRA L   1       9.108  -1.620   7.253  1.00  0.00    +0.0278  H
ATOM     50 H38  BRA L   1      11.121  -1.417   4.839  1.00  0.00    +0.0620  H
ATOM     51 H39  BRA L   1      12.127  -3.197   3.461  1.00  0.00    +0.0626  H
ATOM     52 H58  BRA L   1       7.880  -6.302   5.180  1.00  0.00    +0.0278  H
ATOM     53 H59  BRA L   1       9.288  -7.011   4.404  1.00  0.00    +0.0278  H
ATOM     54 H60  BRA L   1       8.026  -6.220   3.414  1.00  0.00    +0.0278  H
ATOM     55 H61  BRA L   1       7.793  -3.996   5.739  1.00  0.00    +0.0623  H
ENDBRANCH 37 43
ENDBRANCH 36 37
ENDBRANCH 33 36
ENDBRANCH 23 33
ENDBRANCH 21 26
BRANCH 21 56
ATOM     56 C15  BRA L   1      13.757  -9.455  -3.816  1.00  0.00    +0.0085  C
ATOM     57 N16  BRA L   1      13.911 -10.151  -5.097  1.00  0.00    -0.3289 NA
ATOM     58 H45  BRA L   1      14.538  -8.686  -3.753  1.00  0.00    +0.0432  H
ATOM     59 H46  BRA L   1      13.962 -10.166  -3.005  1.00  0.00    +0.0432  H
ATOM     60 H47  BRA L   1      14.883 -10.441  -5.211  1.00  0.00    +0.1182 HD
ATOM     61 H48  BRA L   1      13.717  -9.506  -5.865  1.00  0.00    +0.1182 HD
ENDBRANCH 21 56
ENDBRANCH 17 21
ENDBRANCH 1 19
TORSDOF 8
ENDMDL
MODEL 6
REMARK VINA RESULT:    -7.426      3.325     11.023
REMARK INTER + INTRA:         -11.868
REMARK INTER:                 -11.095
REMARK INTRA:                  -0.772
REMARK UNBOUND:                -0.969
ROOT
ATOM      1 C20  BRA L   1      10.305  -8.373  -6.570  1.00  0.00    +0.0423  A
ATOM      2 C21  BRA L   1      10.820  -7.686  -7.667  1.00  0.00    -0.0377  A
ATOM      3 C22  BRA L   1      10.070  -7.566  -8.842  1.00  0.00    -0.0506  A
ATOM      4 C23  BRA L   1       8.789  -8.135  -8.935  1.00  0.00    +0.0004  A
ATOM      5 C24  BRA L   1       8.002  -8.059 -10.086  1.00  0.00    +0.0353  A
ATOM      6 N25  BRA L   1       6.767  -8.602 -10.210  1.00  0.00    -0.2626 NA
ATOM      7 C26  BRA L   1       6.284  -9.248  -9.130  1.00  0.00    +0.0281  A
ATOM      8 C27  BRA L   1       6.975  -9.384  -7.936  1.00  0.00    -0.0358  A
ATOM      9 C28  BRA L   1       8.254  -8.821  -7.830  1.00  0.00    -0.0131  A
ATOM     10 C29  BRA L   1       9.020  -8.930  -6.657  1.00  0.00    -0.0305  A
ATOM     11 H50  BRA L   1      11.809  -7.238  -7.648  1.00  0.00    +0.0638  H
ATOM     12 H51  BRA L   1      10.497  -7.029  -9.686  1.00  0.00    +0.0625  H
ATOM     13 H52  BRA L   1       8.355  -7.543 -10.976  1.00  0.00    +0.0836  H
ATOM     14 H53  BRA L   1       5.290  -9.672  -9.250  1.00  0.00    +0.0830  H
ATOM     15 H54  BRA L   1       6.521  -9.922  -7.110  1.00  0.00    +0.0639  H
ATOM     16 H55  BRA L   1       8.606  -9.467  -5.805  1.00  0.00    +0.0644  H
ENDROOT
BRANCH 1 19
ATOM     17 C17  BRA L   1      12.278  -8.143  -5.026  1.00  0.00    +0.2339  C
ATOM     18 O18  BRA L   1      12.986  -7.396  -5.698  1.00  0.00    -0.2722 OA
ATOM     19 N19  BRA L   1      11.005  -8.578  -5.366  1.00  0.00    -0.3256  N
ATOM     20 H49  BRA L   1      10.542  -9.179  -4.693  1.00  0.00    +0.1686 HD
BRANCH 17 21
ATOM     21 C14  BRA L   1      12.764  -8.637  -3.647  1.00  0.00    +0.0752  C
ATOM     22 H44  BRA L   1      12.200  -9.555  -3.425  1.00  0.00    +0.0458  H
BRANCH 21 26
ATOM     23 C10  BRA L   1      12.046  -5.939  -0.319  1.00  0.00    -0.0103  A
ATOM     24 C11  BRA L   1      13.136  -5.758  -1.177  1.00  0.00    -0.0551  A
ATOM     25 C12  BRA L   1      13.316  -6.595  -2.278  1.00  0.00    -0.0574  A
ATOM     26 C13  BRA L   1      12.408  -7.635  -2.548  1.00  0.00    -0.0341  A
ATOM     27 C30  BRA L   1      11.283  -7.768  -1.723  1.00  0.00    -0.0574  A
ATOM     28 C31  BRA L   1      11.107  -6.931  -0.618  1.00  0.00    -0.0551  A
ATOM     29 H42  BRA L   1      13.877  -4.988  -0.966  1.00  0.00    +0.0621  H
ATOM     30 H43  BRA L   1      14.199  -6.460  -2.900  1.00  0.00    +0.0621  H
ATOM     31 H56  BRA L   1      10.540  -8.542  -1.903  1.00  0.00    +0.0621  H
ATOM     32 H57  BRA L   1      10.248  -7.089   0.032  1.00  0.00    +0.0621  H
BRANCH 23 33
ATOM     33  C9  BRA L   1      11.917  -5.113   0.937  1.00  0.00    +0.1179  C
ATOM     34 H40  BRA L   1      11.619  -4.077   0.730  1.00  0.00    +0.0749  H
ATOM     35 H41  BRA L   1      12.890  -5.068   1.439  1.00  0.00    +0.0749  H
BRANCH 33 36
ATOM     36  O8  BRA L   1      10.992  -5.737   1.839  1.00  0.00    -0.4564 OA
BRANCH 36 37
ATOM     37  C6  BRA L   1      11.403  -5.802   3.129  1.00  0.00    +0.3398  C
ATOM     38  O7  BRA L   1      12.205  -6.585   3.610  1.00  0.00    -0.2449 OA
BRANCH 37 43
ATOM     39  C1  BRA L   1       8.854  -1.567   6.129  1.00  0.00    -0.0397  C
ATOM     40  C2  BRA L   1       9.540  -2.659   5.360  1.00  0.00    -0.0502  A
ATOM     41  C3  BRA L   1       8.845  -3.822   5.017  1.00  0.00    -0.0580  A
ATOM     42  C4  BRA L   1       9.478  -4.824   4.284  1.00  0.00    -0.0473  A
ATOM     43  C5  BRA L   1      10.813  -4.673   3.881  1.00  0.00    +0.0619  A
ATOM     44 C32  BRA L   1      11.516  -3.493   4.179  1.00  0.00    -0.0362  A
ATOM     45 C33  BRA L   1      12.938  -3.268   3.746  1.00  0.00    -0.0389  C
ATOM     46 C34  BRA L   1      10.866  -2.498   4.929  1.00  0.00    -0.0551  A
ATOM     47 H35  BRA L   1       9.569  -1.022   6.755  1.00  0.00    +0.0278  H
ATOM     48 H36  BRA L   1       8.088  -1.978   6.793  1.00  0.00    +0.0278  H
ATOM     49 H37  BRA L   1       8.382  -0.863   5.436  1.00  0.00    +0.0278  H
ATOM     50 H38  BRA L   1       7.811  -3.958   5.327  1.00  0.00    +0.0620  H
ATOM     51 H39  BRA L   1       8.935  -5.732   4.036  1.00  0.00    +0.0626  H
ATOM     52 H58  BRA L   1      13.188  -2.202   3.751  1.00  0.00    +0.0278  H
ATOM     53 H59  BRA L   1      13.096  -3.623   2.722  1.00  0.00    +0.0278  H
ATOM     54 H60  BRA L   1      13.627  -3.784   4.422  1.00  0.00    +0.0278  H
ATOM     55 H61  BRA L   1      11.397  -1.580   5.181  1.00  0.00    +0.0623  H
ENDBRANCH 37 43
ENDBRANCH 36 37
ENDBRANCH 33 36
ENDBRANCH 23 33
ENDBRANCH 21 26
BRANCH 21 56
ATOM     56 C15  BRA L   1      14.248  -9.035  -3.815  1.00  0.00    +0.0085  C
ATOM     57 N16  BRA L   1      14.523  -9.810  -5.030  1.00  0.00    -0.3289 NA
ATOM     58 H45  BRA L   1      14.863  -8.127  -3.847  1.00  0.00    +0.0432  H
ATOM     59 H46  BRA L   1      14.595  -9.610  -2.948  1.00  0.00    +0.0432  H
ATOM     60 H47  BRA L   1      15.532  -9.915  -5.144  1.00  0.00    +0.1182 HD
ATOM     61 H48  BRA L   1      14.199  -9.293  -5.849  1.00  0.00    +0.1182 HD
ENDBRANCH 21 56
ENDBRANCH 17 21
ENDBRANCH 1 19
TORSDOF 8
ENDMDL
MODEL 7
REMARK VINA RESULT:    -7.371      3.462     10.823
REMARK INTER + INTRA:         -11.786
REMARK INTER:                 -10.490
REMARK INTRA:                  -1.296
REMARK UNBOUND:                -0.969
ROOT
ATOM      1 C20  BRA L   1      10.287  -8.313  -6.472  1.00  0.00    +0.0423  A
ATOM      2 C21  BRA L   1      10.816  -7.603  -7.546  1.00  0.00    -0.0377  A
ATOM      3 C22  BRA L   1      10.102  -7.498  -8.745  1.00  0.00    -0.0506  A
ATOM      4 C23  BRA L   1       8.843  -8.107  -8.883  1.00  0.00    +0.0004  A
ATOM      5 C24  BRA L   1       8.092  -8.047 -10.060  1.00  0.00    +0.0353  A
ATOM      6 N25  BRA L   1       6.880  -8.628 -10.228  1.00  0.00    -0.2626 NA
ATOM      7 C26  BRA L   1       6.382  -9.296  -9.168  1.00  0.00    +0.0281  A
ATOM      8 C27  BRA L   1       7.037  -9.418  -7.953  1.00  0.00    -0.0358  A
ATOM      9 C28  BRA L   1       8.294  -8.817  -7.801  1.00  0.00    -0.0131  A
ATOM     10 C29  BRA L   1       9.024  -8.909  -6.604  1.00  0.00    -0.0305  A
ATOM     11 H50  BRA L   1      11.789  -7.124  -7.492  1.00  0.00    +0.0638  H
ATOM     12 H51  BRA L   1      10.540  -6.942  -9.571  1.00  0.00    +0.0625  H
ATOM     13 H52  BRA L   1       8.459  -7.514 -10.934  1.00  0.00    +0.0836  H
ATOM     14 H53  BRA L   1       5.407  -9.749  -9.324  1.00  0.00    +0.0830  H
ATOM     15 H54  BRA L   1       6.573  -9.975  -7.146  1.00  0.00    +0.0639  H
ATOM     16 H55  BRA L   1       8.599  -9.465  -5.770  1.00  0.00    +0.0644  H
ENDROOT
BRANCH 1 19
ATOM     17 C17  BRA L   1      12.232  -8.101  -4.889  1.00  0.00    +0.2339  C
ATOM     18 O18  BRA L   1      12.979  -7.398  -5.567  1.00  0.00    -0.2722 OA
ATOM     19 N19  BRA L   1      10.953  -8.504  -5.246  1.00  0.00    -0.3256  N
ATOM     20 H49  BRA L   1      10.455  -9.069  -4.566  1.00  0.00    +0.1686 HD
BRANCH 17 21
ATOM     21 C14  BRA L   1      12.670  -8.569  -3.485  1.00  0.00    +0.0752  C
ATOM     22 H44  BRA L   1      11.759  -8.899  -2.965  1.00  0.00    +0.0458  H
BRANCH 21 26
ATOM     23 C10  BRA L   1      14.369  -5.522  -0.896  1.00  0.00    -0.0103  A
ATOM     24 C11  BRA L   1      15.186  -6.417  -1.596  1.00  0.00    -0.0551  A
ATOM     25 C12  BRA L   1      14.627  -7.347  -2.472  1.00  0.00    -0.0574  A
ATOM     26 C13  BRA L   1      13.236  -7.405  -2.671  1.00  0.00    -0.0341  A
ATOM     27 C30  BRA L   1      12.430  -6.463  -2.018  1.00  0.00    -0.0574  A
ATOM     28 C31  BRA L   1      12.991  -5.535  -1.137  1.00  0.00    -0.0551  A
ATOM     29 H42  BRA L   1      16.262  -6.422  -1.429  1.00  0.00    +0.0621  H
ATOM     30 H43  BRA L   1      15.283  -8.062  -2.967  1.00  0.00    +0.0621  H
ATOM     31 H56  BRA L   1      11.352  -6.451  -2.155  1.00  0.00    +0.0621  H
ATOM     32 H57  BRA L   1      12.335  -4.845  -0.608  1.00  0.00    +0.0621  H
BRANCH 23 33
ATOM     33  C9  BRA L   1      14.960  -4.599   0.139  1.00  0.00    +0.1179  C
ATOM     34 H40  BRA L   1      15.555  -3.792  -0.307  1.00  0.00    +0.0749  H
ATOM     35 H41  BRA L   1      15.636  -5.170   0.786  1.00  0.00    +0.0749  H
BRANCH 33 36
ATOM     36  O8  BRA L   1      13.918  -4.062   0.967  1.00  0.00    -0.4564 OA
BRANCH 36 37
ATOM     37  C6  BRA L   1      13.860  -4.573   2.221  1.00  0.00    +0.3398  C
ATOM     38  O7  BRA L   1      14.671  -5.308   2.758  1.00  0.00    -0.2449 OA
BRANCH 37 43
ATOM     39  C1  BRA L   1       9.465  -2.079   5.032  1.00  0.00    -0.0397  C
ATOM     40  C2  BRA L   1      10.588  -2.736   4.283  1.00  0.00    -0.0502  A
ATOM     41  C3  BRA L   1      11.886  -2.223   4.368  1.00  0.00    -0.0580  A
ATOM     42  C4  BRA L   1      12.930  -2.848   3.690  1.00  0.00    -0.0473  A
ATOM     43  C5  BRA L   1      12.691  -3.997   2.923  1.00  0.00    +0.0619  A
ATOM     44 C32  BRA L   1      11.402  -4.555   2.860  1.00  0.00    -0.0362  A
ATOM     45 C33  BRA L   1      11.097  -5.801   2.077  1.00  0.00    -0.0389  C
ATOM     46 C34  BRA L   1      10.358  -3.904   3.540  1.00  0.00    -0.0551  A
ATOM     47 H35  BRA L   1       8.515  -2.211   4.504  1.00  0.00    +0.0278  H
ATOM     48 H36  BRA L   1       9.636  -1.002   5.129  1.00  0.00    +0.0278  H
ATOM     49 H37  BRA L   1       9.377  -2.515   6.032  1.00  0.00    +0.0278  H
ATOM     50 H38  BRA L   1      12.088  -1.328   4.953  1.00  0.00    +0.0620  H
ATOM     51 H39  BRA L   1      13.933  -2.432   3.748  1.00  0.00    +0.0626  H
ATOM     52 H58  BRA L   1      10.168  -6.266   2.422  1.00  0.00    +0.0278  H
ATOM     53 H59  BRA L   1      11.888  -6.547   2.205  1.00  0.00    +0.0278  H
ATOM     54 H60  BRA L   1      10.987  -5.564   1.014  1.00  0.00    +0.0278  H
ATOM     55 H61  BRA L   1       9.349  -4.312   3.495  1.00  0.00    +0.0623  H
ENDBRANCH 37 43
ENDBRANCH 36 37
ENDBRANCH 33 36
ENDBRANCH 23 33
ENDBRANCH 21 26
BRANCH 21 56
ATOM     56 C15  BRA L   1      13.562  -9.814  -3.691  1.00  0.00    +0.0085  C
ATOM     57 N16  BRA L   1      13.567 -10.324  -5.066  1.00  0.00    -0.3289 NA
ATOM     58 H45  BRA L   1      14.596  -9.566  -3.419  1.00  0.00    +0.0432  H
ATOM     59 H46  BRA L   1      13.255 -10.626  -3.019  1.00  0.00    +0.0432  H
ATOM     60 H47  BRA L   1      14.276 -11.051  -5.156  1.00  0.00    +0.1182 HD
ATOM     61 H48  BRA L   1      13.843  -9.579  -5.708  1.00  0.00    +0.1182 HD
ENDBRANCH 21 56
ENDBRANCH 17 21
ENDBRANCH 1 19
TORSDOF 8
ENDMDL
MODEL 8
REMARK VINA RESULT:    -7.330      5.377     12.591
REMARK INTER + INTRA:         -11.727
REMARK INTER:                 -10.265
REMARK INTRA:                  -1.462
REMARK UNBOUND:                -0.969
ROOT
ATOM      1 C20  BRA L   1      11.964  -7.744 -11.080  1.00  0.00    +0.0423  A
ATOM      2 C21  BRA L   1      13.273  -7.622 -10.619  1.00  0.00    -0.0377  A
ATOM      3 C22  BRA L   1      14.330  -7.476 -11.525  1.00  0.00    -0.0506  A
ATOM      4 C23  BRA L   1      14.089  -7.451 -12.908  1.00  0.00    +0.0004  A
ATOM      5 C24  BRA L   1      15.106  -7.323 -13.858  1.00  0.00    +0.0353  A
ATOM      6 N25  BRA L   1      14.908  -7.301 -15.198  1.00  0.00    -0.2626 NA
ATOM      7 C26  BRA L   1      13.631  -7.404 -15.618  1.00  0.00    +0.0281  A
ATOM      8 C27  BRA L   1      12.545  -7.535 -14.767  1.00  0.00    -0.0358  A
ATOM      9 C28  BRA L   1      12.770  -7.562 -13.384  1.00  0.00    -0.0131  A
ATOM     10 C29  BRA L   1      11.720  -7.704 -12.461  1.00  0.00    -0.0305  A
ATOM     11 H50  BRA L   1      13.512  -7.646  -9.560  1.00  0.00    +0.0638  H
ATOM     12 H51  BRA L   1      15.344  -7.389 -11.140  1.00  0.00    +0.0625  H
ATOM     13 H52  BRA L   1      16.147  -7.233 -13.558  1.00  0.00    +0.0836  H
ATOM     14 H53  BRA L   1      13.495  -7.380 -16.696  1.00  0.00    +0.0830  H
ATOM     15 H54  BRA L   1      11.544  -7.615 -15.181  1.00  0.00    +0.0639  H
ATOM     16 H55  BRA L   1      10.702  -7.796 -12.832  1.00  0.00    +0.0644  H
ENDROOT
BRANCH 1 19
ATOM     17 C17  BRA L   1      10.289  -7.046  -9.337  1.00  0.00    +0.2339  C
ATOM     18 O18  BRA L   1      10.621  -5.872  -9.184  1.00  0.00    -0.2722 OA
ATOM     19 N19  BRA L   1      10.847  -7.935 -10.244  1.00  0.00    -0.3256  N
ATOM     20 H49  BRA L   1      10.448  -8.868 -10.262  1.00  0.00    +0.1686 HD
BRANCH 17 21
ATOM     21 C14  BRA L   1       9.120  -7.633  -8.519  1.00  0.00    +0.0752  C
ATOM     22 H44  BRA L   1       8.514  -6.781  -8.179  1.00  0.00    +0.0458  H
BRANCH 21 26
ATOM     23 C10  BRA L   1      10.307  -9.415  -4.739  1.00  0.00    -0.0103  A
ATOM     24 C11  BRA L   1       9.105  -9.768  -5.361  1.00  0.00    -0.0551  A
ATOM     25 C12  BRA L   1       8.769  -9.234  -6.605  1.00  0.00    -0.0574  A
ATOM     26 C13  BRA L   1       9.629  -8.334  -7.259  1.00  0.00    -0.0341  A
ATOM     27 C30  BRA L   1      10.861  -8.036  -6.661  1.00  0.00    -0.0574  A
ATOM     28 C31  BRA L   1      11.194  -8.568  -5.413  1.00  0.00    -0.0551  A
ATOM     29 H42  BRA L   1       8.402 -10.430  -4.858  1.00  0.00    +0.0621  H
ATOM     30 H43  BRA L   1       7.805  -9.491  -7.043  1.00  0.00    +0.0621  H
ATOM     31 H56  BRA L   1      11.571  -7.364  -7.136  1.00  0.00    +0.0621  H
ATOM     32 H57  BRA L   1      12.138  -8.282  -4.952  1.00  0.00    +0.0621  H
BRANCH 23 33
ATOM     33  C9  BRA L   1      10.615  -9.896  -3.343  1.00  0.00    +0.1179  C
ATOM     34 H40  BRA L   1      11.580 -10.415  -3.280  1.00  0.00    +0.0749  H
ATOM     35 H41  BRA L   1       9.848 -10.615  -3.033  1.00  0.00    +0.0749  H
BRANCH 33 36
ATOM     36  O8  BRA L   1      10.573  -8.793  -2.426  1.00  0.00    -0.4564 OA
BRANCH 36 37
ATOM     37  C6  BRA L   1      11.360  -8.926  -1.331  1.00  0.00    +0.3398  C
ATOM     38  O7  BRA L   1      11.565  -9.941  -0.687  1.00  0.00    -0.2449 OA
BRANCH 37 43
ATOM     39  C1  BRA L   1      13.918  -3.883  -0.121  1.00  0.00    -0.0397  C
ATOM     40  C2  BRA L   1      13.278  -5.203  -0.442  1.00  0.00    -0.0502  A
ATOM     41  C3  BRA L   1      12.098  -5.589   0.200  1.00  0.00    -0.0580  A
ATOM     42  C4  BRA L   1      11.495  -6.804  -0.116  1.00  0.00    -0.0473  A
ATOM     43  C5  BRA L   1      12.062  -7.647  -1.083  1.00  0.00    +0.0619  A
ATOM     44 C32  BRA L   1      13.224  -7.258  -1.772  1.00  0.00    -0.0362  A
ATOM     45 C33  BRA L   1      13.855  -8.110  -2.837  1.00  0.00    -0.0389  C
ATOM     46 C34  BRA L   1      13.826  -6.035  -1.430  1.00  0.00    -0.0551  A
ATOM     47 H35  BRA L   1      15.003  -3.934  -0.250  1.00  0.00    +0.0278  H
ATOM     48 H36  BRA L   1      13.727  -3.599   0.919  1.00  0.00    +0.0278  H
ATOM     49 H37  BRA L   1      13.519  -3.105  -0.779  1.00  0.00    +0.0278  H
ATOM     50 H38  BRA L   1      11.648  -4.949   0.958  1.00  0.00    +0.0620  H
ATOM     51 H39  BRA L   1      10.586  -7.103   0.400  1.00  0.00    +0.0626  H
ATOM     52 H58  BRA L   1      14.509  -7.514  -3.483  1.00  0.00    +0.0278  H
ATOM     53 H59  BRA L   1      13.094  -8.555  -3.486  1.00  0.00    +0.0278  H
ATOM     54 H60  BRA L   1      14.457  -8.903  -2.381  1.00  0.00    +0.0278  H
ATOM     55 H61  BRA L   1      14.734  -5.720  -1.944  1.00  0.00    +0.0623  H
ENDBRANCH 37 43
ENDBRANCH 36 37
ENDBRANCH 33 36
ENDBRANCH 23 33
ENDBRANCH 21 26
BRANCH 21 56
ATOM     56 C15  BRA L   1       8.254  -8.450  -9.506  1.00  0.00    +0.0085  C
ATOM     57 N16  BRA L   1       7.982  -7.761 -10.771  1.00  0.00    -0.3289 NA
ATOM     58 H45  BRA L   1       8.765  -9.394  -9.737  1.00  0.00    +0.0432  H
ATOM     59 H46  BRA L   1       7.298  -8.726  -9.045  1.00  0.00    +0.0432  H
ATOM     60 H47  BRA L   1       7.530  -8.407 -11.419  1.00  0.00    +0.1182 HD
ATOM     61 H48  BRA L   1       8.862  -7.490 -11.212  1.00  0.00    +0.1182 HD
ENDBRANCH 21 56
ENDBRANCH 17 21
ENDBRANCH 1 19
TORSDOF 8
ENDMDL
MODEL 9
REMARK VINA RESULT:    -7.281      5.554     12.729
REMARK INTER + INTRA:         -11.655
REMARK INTER:                 -10.647
REMARK INTRA:                  -1.008
REMARK UNBOUND:                -0.969
ROOT
ATOM      1 C20  BRA L   1      10.699  -7.582 -11.934  1.00  0.00    +0.0423  A
ATOM      2 C21  BRA L   1      10.446  -7.549 -13.303  1.00  0.00    -0.0377  A
ATOM      3 C22  BRA L   1      11.500  -7.424 -14.214  1.00  0.00    -0.0506  A
ATOM      4 C23  BRA L   1      12.828  -7.329 -13.764  1.00  0.00    +0.0004  A
ATOM      5 C24  BRA L   1      13.918  -7.189 -14.627  1.00  0.00    +0.0353  A
ATOM      6 N25  BRA L   1      15.207  -7.088 -14.225  1.00  0.00    -0.2626 NA
ATOM      7 C26  BRA L   1      15.429  -7.140 -12.896  1.00  0.00    +0.0281  A
ATOM      8 C27  BRA L   1      14.425  -7.278 -11.950  1.00  0.00    -0.0358  A
ATOM      9 C28  BRA L   1      13.097  -7.373 -12.385  1.00  0.00    -0.0131  A
ATOM     10 C29  BRA L   1      12.026  -7.502 -11.484  1.00  0.00    -0.0305  A
ATOM     11 H50  BRA L   1       9.437  -7.608 -13.700  1.00  0.00    +0.0638  H
ATOM     12 H51  BRA L   1      11.275  -7.395 -15.278  1.00  0.00    +0.0625  H
ATOM     13 H52  BRA L   1      13.780  -7.148 -15.705  1.00  0.00    +0.0836  H
ATOM     14 H53  BRA L   1      16.470  -7.062 -12.597  1.00  0.00    +0.0830  H
ATOM     15 H54  BRA L   1      14.681  -7.309 -10.896  1.00  0.00    +0.0639  H
ATOM     16 H55  BRA L   1      12.236  -7.529 -10.416  1.00  0.00    +0.0644  H
ENDROOT
BRANCH 1 19
ATOM     17 C17  BRA L   1       9.057  -8.795 -10.463  1.00  0.00    +0.2339  C
ATOM     18 O18  BRA L   1       9.339  -9.958 -10.748  1.00  0.00    -0.2722 OA
ATOM     19 N19  BRA L   1       9.698  -7.664 -10.947  1.00  0.00    -0.3256  N
ATOM     20 H49  BRA L   1       9.359  -6.773 -10.600  1.00  0.00    +0.1686 HD
BRANCH 17 21
ATOM     21 C14  BRA L   1       7.938  -8.497  -9.444  1.00  0.00    +0.0752  C
ATOM     22 H44  BRA L   1       7.720  -7.421  -9.523  1.00  0.00    +0.0458  H
BRANCH 21 26
ATOM     23 C10  BRA L   1       9.577  -9.419  -5.528  1.00  0.00    -0.0103  A
ATOM     24 C11  BRA L   1      10.252  -8.573  -6.416  1.00  0.00    -0.0551  A
ATOM     25 C12  BRA L   1       9.681  -8.237  -7.643  1.00  0.00    -0.0574  A
ATOM     26 C13  BRA L   1       8.420  -8.738  -8.013  1.00  0.00    -0.0341  A
ATOM     27 C30  BRA L   1       7.722  -9.530  -7.092  1.00  0.00    -0.0574  A
ATOM     28 C31  BRA L   1       8.297  -9.869  -5.864  1.00  0.00    -0.0551  A
ATOM     29 H42  BRA L   1      11.247  -8.206  -6.173  1.00  0.00    +0.0621  H
ATOM     30 H43  BRA L   1      10.250  -7.615  -8.333  1.00  0.00    +0.0621  H
ATOM     31 H56  BRA L   1       6.734  -9.923  -7.321  1.00  0.00    +0.0621  H
ATOM     32 H57  BRA L   1       7.750 -10.524  -5.189  1.00  0.00    +0.0621  H
BRANCH 23 33
ATOM     33  C9  BRA L   1      10.244  -9.879  -4.256  1.00  0.00    +0.1179  C
ATOM     34 H40  BRA L   1      11.243 -10.297  -4.433  1.00  0.00    +0.0749  H
ATOM     35 H41  BRA L   1       9.643 -10.675  -3.802  1.00  0.00    +0.0749  H
BRANCH 33 36
ATOM     36  O8  BRA L   1      10.308  -8.795  -3.318  1.00  0.00    -0.4564 OA
BRANCH 36 37
ATOM     37  C6  BRA L   1      11.026  -9.047  -2.196  1.00  0.00    +0.3398  C
ATOM     38  O7  BRA L   1      11.165 -10.120  -1.634  1.00  0.00    -0.2449 OA
BRANCH 37 43
ATOM     39  C1  BRA L   1      13.653  -4.217  -0.403  1.00  0.00    -0.0397  C
ATOM     40  C2  BRA L   1      12.995  -5.482  -0.876  1.00  0.00    -0.0502  A
ATOM     41  C3  BRA L   1      11.785  -5.899  -0.314  1.00  0.00    -0.0580  A
ATOM     42  C4  BRA L   1      11.166  -7.061  -0.771  1.00  0.00    -0.0473  A
ATOM     43  C5  BRA L   1      11.747  -7.817  -1.799  1.00  0.00    +0.0619  A
ATOM     44 C32  BRA L   1      12.941  -7.392  -2.407  1.00  0.00    -0.0362  A
ATOM     45 C33  BRA L   1      13.590  -8.149  -3.532  1.00  0.00    -0.0389  C
ATOM     46 C34  BRA L   1      13.558  -6.224  -1.925  1.00  0.00    -0.0551  A
ATOM     47 H35  BRA L   1      14.741  -4.283  -0.502  1.00  0.00    +0.0278  H
ATOM     48 H36  BRA L   1      13.432  -4.033   0.653  1.00  0.00    +0.0278  H
ATOM     49 H37  BRA L   1      13.295  -3.367  -0.993  1.00  0.00    +0.0278  H
ATOM     50 H38  BRA L   1      11.324  -5.327   0.489  1.00  0.00    +0.0620  H
ATOM     51 H39  BRA L   1      10.234  -7.387  -0.317  1.00  0.00    +0.0626  H
ATOM     52 H58  BRA L   1      14.278  -7.509  -4.093  1.00  0.00    +0.0278  H
ATOM     53 H59  BRA L   1      12.841  -8.507  -4.246  1.00  0.00    +0.0278  H
ATOM     54 H60  BRA L   1      14.157  -8.999  -3.139  1.00  0.00    +0.0278  H
ATOM     55 H61  BRA L   1      14.490  -5.883  -2.375  1.00  0.00    +0.0623  H
ENDBRANCH 37 43
ENDBRANCH 36 37
ENDBRANCH 33 36
ENDBRANCH 23 33
ENDBRANCH 21 26
BRANCH 21 56
ATOM     56 C15  BRA L   1       6.683  -9.259  -9.927  1.00  0.00    +0.0085  C
ATOM     57 N16  BRA L   1       5.429  -8.522  -9.739  1.00  0.00    -0.3289 NA
ATOM     58 H45  BRA L   1       6.787  -9.484 -10.996  1.00  0.00    +0.0432  H
ATOM     59 H46  BRA L   1       6.599 -10.227  -9.418  1.00  0.00    +0.0432  H
ATOM     60 H47  BRA L   1       4.669  -9.022 -10.202  1.00  0.00    +0.1182 HD
ATOM     61 H48  BRA L   1       5.491  -7.614 -10.201  1.00  0.00    +0.1182 HD
ENDBRANCH 21 56
ENDBRANCH 17 21
ENDBRANCH 1 19
TORSDOF 8
ENDMDL
MODEL 10
REMARK VINA RESULT:    -7.266      3.202     10.427
REMARK INTER + INTRA:         -11.633
REMARK INTER:                  -9.730
REMARK INTRA:                  -1.903
REMARK UNBOUND:                -0.969
ROOT
ATOM      1 C20  BRA L   1      11.232  -8.787  -4.732  1.00  0.00    +0.0423  A
ATOM      2 C21  BRA L   1      10.107  -9.582  -4.941  1.00  0.00    -0.0377  A
ATOM      3 C22  BRA L   1       9.341  -9.432  -6.102  1.00  0.00    -0.0506  A
ATOM      4 C23  BRA L   1       9.693  -8.481  -7.074  1.00  0.00    +0.0004  A
ATOM      5 C24  BRA L   1       8.958  -8.278  -8.245  1.00  0.00    +0.0353  A
ATOM      6 N25  BRA L   1       9.266  -7.366  -9.197  1.00  0.00    -0.2626 NA
ATOM      7 C26  BRA L   1      10.368  -6.621  -8.981  1.00  0.00    +0.0281  A
ATOM      8 C27  BRA L   1      11.172  -6.736  -7.858  1.00  0.00    -0.0358  A
ATOM      9 C28  BRA L   1      10.833  -7.681  -6.880  1.00  0.00    -0.0131  A
ATOM     10 C29  BRA L   1      11.593  -7.847  -5.709  1.00  0.00    -0.0305  A
ATOM     11 H50  BRA L   1       9.788 -10.323  -4.214  1.00  0.00    +0.0638  H
ATOM     12 H51  BRA L   1       8.464 -10.062  -6.238  1.00  0.00    +0.0625  H
ATOM     13 H52  BRA L   1       8.066  -8.863  -8.456  1.00  0.00    +0.0836  H
ATOM     14 H53  BRA L   1      10.599  -5.899  -9.760  1.00  0.00    +0.0830  H
ATOM     15 H54  BRA L   1      12.043  -6.098  -7.752  1.00  0.00    +0.0639  H
ATOM     16 H55  BRA L   1      12.471  -7.222  -5.559  1.00  0.00    +0.0644  H
ENDROOT
BRANCH 1 19
ATOM     17 C17  BRA L   1      11.740  -8.382  -2.301  1.00  0.00    +0.2339  C
ATOM     18 O18  BRA L   1      10.656  -7.933  -1.932  1.00  0.00    -0.2722 OA
ATOM     19 N19  BRA L   1      12.035  -8.841  -3.577  1.00  0.00    -0.3256  N
ATOM     20 H49  BRA L   1      12.973  -9.200  -3.719  1.00  0.00    +0.1686 HD
BRANCH 17 21
ATOM     21 C14  BRA L   1      12.903  -8.523  -1.298  1.00  0.00    +0.0752  C
ATOM     22 H44  BRA L   1      12.461  -8.862  -0.349  1.00  0.00    +0.0458  H
BRANCH 21 26
ATOM     23 C10  BRA L   1      14.692  -4.745  -0.114  1.00  0.00    -0.0103  A
ATOM     24 C11  BRA L   1      15.377  -5.955   0.049  1.00  0.00    -0.0551  A
ATOM     25 C12  BRA L   1      14.814  -7.151  -0.395  1.00  0.00    -0.0574  A
ATOM     26 C13  BRA L   1      13.551  -7.168  -1.014  1.00  0.00    -0.0341  A
ATOM     27 C30  BRA L   1      12.902  -5.946  -1.235  1.00  0.00    -0.0574  A
ATOM     28 C31  BRA L   1      13.465  -4.749  -0.785  1.00  0.00    -0.0551  A
ATOM     29 H42  BRA L   1      16.336  -5.976   0.564  1.00  0.00    +0.0621  H
ATOM     30 H43  BRA L   1      15.349  -8.082  -0.211  1.00  0.00    +0.0621  H
ATOM     31 H56  BRA L   1      11.934  -5.902  -1.729  1.00  0.00    +0.0621  H
ATOM     32 H57  BRA L   1      12.915  -3.820  -0.929  1.00  0.00    +0.0621  H
BRANCH 23 33
ATOM     33  C9  BRA L   1      15.244  -3.470   0.472  1.00  0.00    +0.1179  C
ATOM     34 H40  BRA L   1      15.452  -2.711  -0.293  1.00  0.00    +0.0749  H
ATOM     35 H41  BRA L   1      16.197  -3.686   0.970  1.00  0.00    +0.0749  H
BRANCH 33 36
ATOM     36  O8  BRA L   1      14.342  -2.957   1.463  1.00  0.00    -0.4564 OA
BRANCH 36 37
ATOM     37  C6  BRA L   1      14.414  -3.564   2.674  1.00  0.00    +0.3398  C
ATOM     38  O7  BRA L   1      15.419  -3.935   3.255  1.00  0.00    -0.2449 OA
BRANCH 37 43
ATOM     39  C1  BRA L   1       9.145  -3.431   5.052  1.00  0.00    -0.0397  C
ATOM     40  C2  BRA L   1      10.504  -3.484   4.416  1.00  0.00    -0.0502  A
ATOM     41  C3  BRA L   1      11.345  -2.369   4.457  1.00  0.00    -0.0580  A
ATOM     42  C4  BRA L   1      12.615  -2.429   3.886  1.00  0.00    -0.0473  A
ATOM     43  C5  BRA L   1      13.061  -3.608   3.272  1.00  0.00    +0.0619  A
ATOM     44 C32  BRA L   1      12.248  -4.755   3.258  1.00  0.00    -0.0362  A
ATOM     45 C33  BRA L   1      12.689  -6.051   2.640  1.00  0.00    -0.0389  C
ATOM     46 C34  BRA L   1      10.966  -4.671   3.828  1.00  0.00    -0.0551  A
ATOM     47 H35  BRA L   1       8.444  -4.088   4.528  1.00  0.00    +0.0278  H
ATOM     48 H36  BRA L   1       8.733  -2.417   5.011  1.00  0.00    +0.0278  H
ATOM     49 H37  BRA L   1       9.209  -3.744   6.099  1.00  0.00    +0.0278  H
ATOM     50 H38  BRA L   1      11.012  -1.444   4.924  1.00  0.00    +0.0620  H
ATOM     51 H39  BRA L   1      13.256  -1.551   3.908  1.00  0.00    +0.0626  H
ATOM     52 H58  BRA L   1      12.103  -6.892   3.025  1.00  0.00    +0.0278  H
ATOM     53 H59  BRA L   1      13.737  -6.263   2.879  1.00  0.00    +0.0278  H
ATOM     54 H60  BRA L   1      12.562  -6.015   1.553  1.00  0.00    +0.0278  H
ATOM     55 H61  BRA L   1      10.315  -5.545   3.818  1.00  0.00    +0.0623  H
ENDBRANCH 37 43
ENDBRANCH 36 37
ENDBRANCH 33 36
ENDBRANCH 23 33
ENDBRANCH 21 26
BRANCH 21 56
ATOM     56 C15  BRA L   1      13.804  -9.665  -1.821  1.00  0.00    +0.0085  C
ATOM     57 N16  BRA L   1      13.259 -11.007  -1.593  1.00  0.00    -0.3289 NA
ATOM     58 H45  BRA L   1      13.954  -9.540  -2.901  1.00  0.00    +0.0432  H
ATOM     59 H46  BRA L   1      14.801  -9.611  -1.366  1.00  0.00    +0.0432  H
ATOM     60 H47  BRA L   1      13.833 -11.694  -2.082  1.00  0.00    +0.1182 HD
ATOM     61 H48  BRA L   1      12.327 -11.074  -2.004  1.00  0.00    +0.1182 HD
ENDBRANCH 21 56
ENDBRANCH 17 21
ENDBRANCH 1 19
TORSDOF 8
ENDMDL
MODEL 11
REMARK VINA RESULT:    -7.258      8.366     12.016
REMARK INTER + INTRA:         -11.621
REMARK INTER:                  -9.357
REMARK INTRA:                  -2.264
REMARK UNBOUND:                -0.969
ROOT
ATOM      1 C20  BRA L   1       8.488  -8.873 -11.485  1.00  0.00    +0.0423  A
ATOM      2 C21  BRA L   1       7.811  -8.198 -10.472  1.00  0.00    -0.0377  A
ATOM      3 C22  BRA L   1       6.532  -8.610 -10.081  1.00  0.00    -0.0506  A
ATOM      4 C23  BRA L   1       5.912  -9.707 -10.701  1.00  0.00    +0.0004  A
ATOM      5 C24  BRA L   1       4.632 -10.153 -10.362  1.00  0.00    +0.0353  A
ATOM      6 N25  BRA L   1       4.004 -11.202 -10.944  1.00  0.00    -0.2626 NA
ATOM      7 C26  BRA L   1       4.687 -11.850 -11.910  1.00  0.00    +0.0281  A
ATOM      8 C27  BRA L   1       5.960 -11.496 -12.327  1.00  0.00    -0.0358  A
ATOM      9 C28  BRA L   1       6.591 -10.404 -11.717  1.00  0.00    -0.0131  A
ATOM     10 C29  BRA L   1       7.876  -9.979 -12.096  1.00  0.00    -0.0305  A
ATOM     11 H50  BRA L   1       8.244  -7.338  -9.970  1.00  0.00    +0.0638  H
ATOM     12 H51  BRA L   1       6.023  -8.062  -9.291  1.00  0.00    +0.0625  H
ATOM     13 H52  BRA L   1       4.053  -9.659  -9.585  1.00  0.00    +0.0836  H
ATOM     14 H53  BRA L   1       4.166 -12.691 -12.360  1.00  0.00    +0.0830  H
ATOM     15 H54  BRA L   1       6.445 -12.065 -13.114  1.00  0.00    +0.0639  H
ATOM     16 H55  BRA L   1       8.396 -10.516 -12.887  1.00  0.00    +0.0644  H
ENDROOT
BRANCH 1 19
ATOM     17 C17  BRA L   1      10.393  -8.926 -13.129  1.00  0.00    +0.2339  C
ATOM     18 O18  BRA L   1       9.895  -9.632 -14.005  1.00  0.00    -0.2722 OA
ATOM     19 N19  BRA L   1       9.757  -8.504 -11.970  1.00  0.00    -0.3256  N
ATOM     20 H49  BRA L   1      10.299  -7.908 -11.353  1.00  0.00    +0.1686 HD
BRANCH 17 21
ATOM     21 C14  BRA L   1      11.828  -8.383 -13.293  1.00  0.00    +0.0752  C
ATOM     22 H44  BRA L   1      12.338  -9.053 -14.000  1.00  0.00    +0.0458  H
BRANCH 21 26
ATOM     23 C10  BRA L   1      13.682  -8.618  -9.371  1.00  0.00    -0.0103  A
ATOM     24 C11  BRA L   1      13.010  -9.715  -9.923  1.00  0.00    -0.0551  A
ATOM     25 C12  BRA L   1      12.475  -9.643 -11.209  1.00  0.00    -0.0574  A
ATOM     26 C13  BRA L   1      12.601  -8.471 -11.977  1.00  0.00    -0.0341  A
ATOM     27 C30  BRA L   1      13.333  -7.401 -11.445  1.00  0.00    -0.0574  A
ATOM     28 C31  BRA L   1      13.864  -7.474 -10.154  1.00  0.00    -0.0551  A
ATOM     29 H42  BRA L   1      12.861 -10.618  -9.334  1.00  0.00    +0.0621  H
ATOM     30 H43  BRA L   1      11.916 -10.495 -11.593  1.00  0.00    +0.0621  H
ATOM     31 H56  BRA L   1      13.478  -6.482 -12.007  1.00  0.00    +0.0621  H
ATOM     32 H57  BRA L   1      14.387  -6.609  -9.750  1.00  0.00    +0.0621  H
BRANCH 23 33
ATOM     33  C9  BRA L   1      14.154  -8.653  -7.939  1.00  0.00    +0.1179  C
ATOM     34 H40  BRA L   1      14.427  -7.659  -7.562  1.00  0.00    +0.0749  H
ATOM     35 H41  BRA L   1      15.054  -9.275  -7.872  1.00  0.00    +0.0749  H
BRANCH 33 36
ATOM     36  O8  BRA L   1      13.149  -9.252  -7.108  1.00  0.00    -0.4564 OA
BRANCH 36 37
ATOM     37  C6  BRA L   1      12.454  -8.384  -6.332  1.00  0.00    +0.3398  C
ATOM     38  O7  BRA L   1      12.895  -7.429  -5.715  1.00  0.00    -0.2449 OA
BRANCH 37 43
ATOM     39  C1  BRA L   1       6.844  -9.775  -6.480  1.00  0.00    -0.0397  C
ATOM     40  C2  BRA L   1       8.294  -9.388  -6.449  1.00  0.00    -0.0502  A
ATOM     41  C3  BRA L   1       9.183 -10.053  -5.599  1.00  0.00    -0.0580  A
ATOM     42  C4  BRA L   1      10.532  -9.707  -5.589  1.00  0.00    -0.0473  A
ATOM     43  C5  BRA L   1      11.011  -8.695  -6.433  1.00  0.00    +0.0619  A
ATOM     44 C32  BRA L   1      10.143  -8.044  -7.327  1.00  0.00    -0.0362  A
ATOM     45 C33  BRA L   1      10.610  -6.974  -8.273  1.00  0.00    -0.0389  C
ATOM     46 C34  BRA L   1       8.783  -8.397  -7.314  1.00  0.00    -0.0551  A
ATOM     47 H35  BRA L   1       6.216  -8.914  -6.733  1.00  0.00    +0.0278  H
ATOM     48 H36  BRA L   1       6.516 -10.141  -5.502  1.00  0.00    +0.0278  H
ATOM     49 H37  BRA L   1       6.683 -10.561  -7.224  1.00  0.00    +0.0278  H
ATOM     50 H38  BRA L   1       8.827 -10.837  -4.933  1.00  0.00    +0.0620  H
ATOM     51 H39  BRA L   1      11.213 -10.219  -4.913  1.00  0.00    +0.0626  H
ATOM     52 H58  BRA L   1       9.906  -6.845  -9.102  1.00  0.00    +0.0278  H
ATOM     53 H59  BRA L   1      11.575  -7.238  -8.719  1.00  0.00    +0.0278  H
ATOM     54 H60  BRA L   1      10.700  -6.017  -7.749  1.00  0.00    +0.0278  H
ATOM     55 H61  BRA L   1       8.090  -7.897  -7.991  1.00  0.00    +0.0623  H
ENDBRANCH 37 43
ENDBRANCH 36 37
ENDBRANCH 33 36
ENDBRANCH 23 33
ENDBRANCH 21 26
BRANCH 21 56
ATOM     56 C15  BRA L   1      11.704  -7.001 -13.973  1.00  0.00    +0.0085  C
ATOM     57 N16  BRA L   1      10.335  -6.477 -14.015  1.00  0.00    -0.3289 NA
ATOM     58 H45  BRA L   1      12.327  -6.276 -13.433  1.00  0.00    +0.0432  H
ATOM     59 H46  BRA L   1      12.095  -7.037 -14.997  1.00  0.00    +0.0432  H
ATOM     60 H47  BRA L   1      10.350  -5.513 -14.347  1.00  0.00    +0.1182 HD
ATOM     61 H48  BRA L   1       9.950  -6.443 -13.069  1.00  0.00    +0.1182 HD
ENDBRANCH 21 56
ENDBRANCH 17 21
ENDBRANCH 1 19
TORSDOF 8
ENDMDL
MODEL 12
REMARK VINA RESULT:    -7.227      3.356      6.629
REMARK INTER + INTRA:         -11.576
REMARK INTER:                  -9.819
REMARK INTRA:                  -1.756
REMARK UNBOUND:                -0.969
ROOT
ATOM      1 C20  BRA L   1      12.207  -6.938  -1.949  1.00  0.00    +0.0423  A
ATOM      2 C21  BRA L   1      11.263  -7.233  -0.968  1.00  0.00    -0.0377  A
ATOM      3 C22  BRA L   1      11.331  -6.617   0.286  1.00  0.00    -0.0506  A
ATOM      4 C23  BRA L   1      12.350  -5.694   0.577  1.00  0.00    +0.0004  A
ATOM      5 C24  BRA L   1      12.475  -5.060   1.815  1.00  0.00    +0.0353  A
ATOM      6 N25  BRA L   1      13.447  -4.172   2.129  1.00  0.00    -0.2626 NA
ATOM      7 C26  BRA L   1      14.339  -3.889   1.158  1.00  0.00    +0.0281  A
ATOM      8 C27  BRA L   1      14.311  -4.457  -0.106  1.00  0.00    -0.0358  A
ATOM      9 C28  BRA L   1      13.301  -5.379  -0.409  1.00  0.00    -0.0131  A
ATOM     10 C29  BRA L   1      13.217  -6.005  -1.665  1.00  0.00    -0.0305  A
ATOM     11 H50  BRA L   1      10.464  -7.947  -1.141  1.00  0.00    +0.0638  H
ATOM     12 H51  BRA L   1      10.585  -6.869   1.037  1.00  0.00    +0.0625  H
ATOM     13 H52  BRA L   1      11.772  -5.258   2.621  1.00  0.00    +0.0836  H
ATOM     14 H53  BRA L   1      15.108  -3.171   1.430  1.00  0.00    +0.0830  H
ATOM     15 H54  BRA L   1      15.067  -4.182  -0.835  1.00  0.00    +0.0639  H
ATOM     16 H55  BRA L   1      13.958  -5.764  -2.424  1.00  0.00    +0.0644  H
ENDROOT
BRANCH 1 19
ATOM     17 C17  BRA L   1      11.362  -8.472  -3.756  1.00  0.00    +0.2339  C
ATOM     18 O18  BRA L   1      10.320  -8.860  -3.231  1.00  0.00    -0.2722 OA
ATOM     19 N19  BRA L   1      12.240  -7.539  -3.221  1.00  0.00    -0.3256  N
ATOM     20 H49  BRA L   1      13.049  -7.309  -3.788  1.00  0.00    +0.1686 HD
BRANCH 17 21
ATOM     21 C14  BRA L   1      11.764  -8.985  -5.154  1.00  0.00    +0.0752  C
ATOM     22 H44  BRA L   1      12.627  -8.383  -5.474  1.00  0.00    +0.0458  H
BRANCH 21 26
ATOM     23 C10  BRA L   1       8.807  -8.478  -8.296  1.00  0.00    -0.0103  A
ATOM     24 C11  BRA L   1       8.900  -9.673  -7.574  1.00  0.00    -0.0551  A
ATOM     25 C12  BRA L   1       9.813  -9.796  -6.527  1.00  0.00    -0.0574  A
ATOM     26 C13  BRA L   1      10.654  -8.726  -6.174  1.00  0.00    -0.0341  A
ATOM     27 C30  BRA L   1      10.509  -7.511  -6.857  1.00  0.00    -0.0574  A
ATOM     28 C31  BRA L   1       9.597  -7.391  -7.909  1.00  0.00    -0.0551  A
ATOM     29 H42  BRA L   1       8.291 -10.531  -7.854  1.00  0.00    +0.0621  H
ATOM     30 H43  BRA L   1       9.896 -10.753  -6.014  1.00  0.00    +0.0621  H
ATOM     31 H56  BRA L   1      11.119  -6.647  -6.608  1.00  0.00    +0.0621  H
ATOM     32 H57  BRA L   1       9.540  -6.449  -8.452  1.00  0.00    +0.0621  H
BRANCH 23 33
ATOM     33  C9  BRA L   1       7.909  -8.384  -9.504  1.00  0.00    +0.1179  C
ATOM     34 H40  BRA L   1       7.019  -7.768  -9.320  1.00  0.00    +0.0749  H
ATOM     35 H41  BRA L   1       7.551  -9.386  -9.765  1.00  0.00    +0.0749  H
BRANCH 33 36
ATOM     36  O8  BRA L   1       8.649  -7.881 -10.626  1.00  0.00    -0.4564 OA
BRANCH 36 37
ATOM     37  C6  BRA L   1       9.314  -8.821 -11.343  1.00  0.00    +0.3398  C
ATOM     38  O7  BRA L   1       8.969  -9.972 -11.550  1.00  0.00    -0.2449 OA
BRANCH 37 43
ATOM     39  C1  BRA L   1      13.778  -6.262 -13.979  1.00  0.00    -0.0397  C
ATOM     40  C2  BRA L   1      12.631  -6.922 -13.270  1.00  0.00    -0.0502  A
ATOM     41  C3  BRA L   1      11.355  -6.918 -13.840  1.00  0.00    -0.0580  A
ATOM     42  C4  BRA L   1      10.297  -7.551 -13.191  1.00  0.00    -0.0473  A
ATOM     43  C5  BRA L   1      10.504  -8.200 -11.965  1.00  0.00    +0.0619  A
ATOM     44 C32  BRA L   1      11.788  -8.253 -11.396  1.00  0.00    -0.0362  A
ATOM     45 C33  BRA L   1      12.070  -8.961 -10.100  1.00  0.00    -0.0389  C
ATOM     46 C34  BRA L   1      12.840  -7.599 -12.059  1.00  0.00    -0.0551  A
ATOM     47 H35  BRA L   1      14.513  -5.881 -13.262  1.00  0.00    +0.0278  H
ATOM     48 H36  BRA L   1      13.433  -5.410 -14.574  1.00  0.00    +0.0278  H
ATOM     49 H37  BRA L   1      14.271  -6.980 -14.643  1.00  0.00    +0.0278  H
ATOM     50 H38  BRA L   1      11.176  -6.413 -14.788  1.00  0.00    +0.0620  H
ATOM     51 H39  BRA L   1       9.304  -7.529 -13.633  1.00  0.00    +0.0626  H
ATOM     52 H58  BRA L   1      13.135  -9.196 -10.003  1.00  0.00    +0.0278  H
ATOM     53 H59  BRA L   1      11.531  -9.913 -10.048  1.00  0.00    +0.0278  H
ATOM     54 H60  BRA L   1      11.781  -8.330  -9.253  1.00  0.00    +0.0278  H
ATOM     55 H61  BRA L   1      13.842  -7.618 -11.630  1.00  0.00    +0.0623  H
ENDBRANCH 37 43
ENDBRANCH 36 37
ENDBRANCH 33 36
ENDBRANCH 23 33
ENDBRANCH 21 26
BRANCH 21 56
ATOM     56 C15  BRA L   1      12.257 -10.438  -4.969  1.00  0.00    +0.0085  C
ATOM     57 N16  BRA L   1      12.619 -10.773  -3.588  1.00  0.00    -0.3289 NA
ATOM     58 H45  BRA L   1      11.467 -11.130  -5.289  1.00  0.00    +0.0432  H
ATOM     59 H46  BRA L   1      13.120 -10.639  -5.615  1.00  0.00    +0.0432  H
ATOM     60 H47  BRA L   1      12.799 -11.775  -3.518  1.00  0.00    +0.1182 HD
ATOM     61 H48  BRA L   1      11.828 -10.585  -2.969  1.00  0.00    +0.1182 HD
ENDBRANCH 21 56
ENDBRANCH 17 21
ENDBRANCH 1 19
TORSDOF 8
ENDMDL
MODEL 13
REMARK VINA RESULT:    -7.220      3.788      6.692
REMARK INTER + INTRA:         -11.565
REMARK INTER:                  -9.316
REMARK INTRA:                  -2.249
REMARK UNBOUND:                -0.969
ROOT
ATOM      1 C20  BRA L   1      12.114  -7.849  -2.285  1.00  0.00    +0.0423  A
ATOM      2 C21  BRA L   1      11.082  -7.406  -1.460  1.00  0.00    -0.0377  A
ATOM      3 C22  BRA L   1      11.315  -6.402  -0.514  1.00  0.00    -0.0506  A
ATOM      4 C23  BRA L   1      12.589  -5.826  -0.380  1.00  0.00    +0.0004  A
ATOM      5 C24  BRA L   1      12.882  -4.831   0.556  1.00  0.00    +0.0353  A
ATOM      6 N25  BRA L   1      14.100  -4.260   0.715  1.00  0.00    -0.2626 NA
ATOM      7 C26  BRA L   1      15.078  -4.693  -0.106  1.00  0.00    +0.0281  A
ATOM      8 C27  BRA L   1      14.901  -5.672  -1.071  1.00  0.00    -0.0358  A
ATOM      9 C28  BRA L   1      13.635  -6.256  -1.215  1.00  0.00    -0.0131  A
ATOM     10 C29  BRA L   1      13.383  -7.263  -2.163  1.00  0.00    -0.0305  A
ATOM     11 H50  BRA L   1      10.083  -7.828  -1.518  1.00  0.00    +0.0638  H
ATOM     12 H51  BRA L   1      10.493  -6.079   0.122  1.00  0.00    +0.0625  H
ATOM     13 H52  BRA L   1      12.119  -4.454   1.232  1.00  0.00    +0.0836  H
ATOM     14 H53  BRA L   1      16.045  -4.218   0.035  1.00  0.00    +0.0830  H
ATOM     15 H54  BRA L   1      15.738  -5.971  -1.694  1.00  0.00    +0.0639  H
ATOM     16 H55  BRA L   1      14.196  -7.599  -2.803  1.00  0.00    +0.0644  H
ENDROOT
BRANCH 1 19
ATOM     17 C17  BRA L   1      11.426  -8.814  -4.505  1.00  0.00    +0.2339  C
ATOM     18 O18  BRA L   1      11.045  -7.791  -5.070  1.00  0.00    -0.2722 OA
ATOM     19 N19  BRA L   1      11.980  -8.880  -3.234  1.00  0.00    -0.3256  N
ATOM     20 H49  BRA L   1      12.263  -9.801  -2.915  1.00  0.00    +0.1686 HD
BRANCH 17 21
ATOM     21 C14  BRA L   1      11.361 -10.173  -5.233  1.00  0.00    +0.0752  C
ATOM     22 H44  BRA L   1      12.059 -10.843  -4.711  1.00  0.00    +0.0458  H
BRANCH 21 26
ATOM     23 C10  BRA L   1      12.657  -9.466  -9.319  1.00  0.00    -0.0103  A
ATOM     24 C11  BRA L   1      13.301  -8.855  -8.238  1.00  0.00    -0.0551  A
ATOM     25 C12  BRA L   1      12.913  -9.142  -6.930  1.00  0.00    -0.0574  A
ATOM     26 C13  BRA L   1      11.871 -10.050  -6.670  1.00  0.00    -0.0341  A
ATOM     27 C30  BRA L   1      11.275 -10.708  -7.754  1.00  0.00    -0.0574  A
ATOM     28 C31  BRA L   1      11.662 -10.415  -9.064  1.00  0.00    -0.0551  A
ATOM     29 H42  BRA L   1      14.082  -8.116  -8.413  1.00  0.00    +0.0621  H
ATOM     30 H43  BRA L   1      13.401  -8.615  -6.111  1.00  0.00    +0.0621  H
ATOM     31 H56  BRA L   1      10.481 -11.435  -7.605  1.00  0.00    +0.0621  H
ATOM     32 H57  BRA L   1      11.149 -10.908  -9.888  1.00  0.00    +0.0621  H
BRANCH 23 33
ATOM     33  C9  BRA L   1      12.993  -9.066 -10.734  1.00  0.00    +0.1179  C
ATOM     34 H40  BRA L   1      13.787  -9.686 -11.169  1.00  0.00    +0.0749  H
ATOM     35 H41  BRA L   1      13.360  -8.033 -10.738  1.00  0.00    +0.0749  H
BRANCH 33 36
ATOM     36  O8  BRA L   1      11.812  -9.110 -11.548  1.00  0.00    -0.4564 OA
BRANCH 36 37
ATOM     37  C6  BRA L   1      11.100  -7.957 -11.590  1.00  0.00    +0.3398  C
ATOM     38  O7  BRA L   1      11.449  -6.891 -12.066  1.00  0.00    -0.2449 OA
BRANCH 37 43
ATOM     39  C1  BRA L   1       5.739  -9.145  -9.778  1.00  0.00    -0.0397  C
ATOM     40  C2  BRA L   1       7.139  -8.836 -10.223  1.00  0.00    -0.0502  A
ATOM     41  C3  BRA L   1       7.591  -9.261 -11.475  1.00  0.00    -0.0580  A
ATOM     42  C4  BRA L   1       8.884  -8.953 -11.894  1.00  0.00    -0.0473  A
ATOM     43  C5  BRA L   1       9.739  -8.212 -11.067  1.00  0.00    +0.0619  A
ATOM     44 C32  BRA L   1       9.290  -7.737  -9.822  1.00  0.00    -0.0362  A
ATOM     45 C33  BRA L   1      10.156  -6.914  -8.911  1.00  0.00    -0.0389  C
ATOM     46 C34  BRA L   1       7.988  -8.068  -9.411  1.00  0.00    -0.0551  A
ATOM     47 H35  BRA L   1       5.688  -9.244  -8.689  1.00  0.00    +0.0278  H
ATOM     48 H36  BRA L   1       5.392 -10.090 -10.207  1.00  0.00    +0.0278  H
ATOM     49 H37  BRA L   1       5.062  -8.344 -10.092  1.00  0.00    +0.0278  H
ATOM     50 H38  BRA L   1       6.942  -9.843 -12.127  1.00  0.00    +0.0620  H
ATOM     51 H39  BRA L   1       9.232  -9.302 -12.863  1.00  0.00    +0.0626  H
ATOM     52 H58  BRA L   1       9.551  -6.357  -8.188  1.00  0.00    +0.0278  H
ATOM     53 H59  BRA L   1      10.729  -6.172  -9.478  1.00  0.00    +0.0278  H
ATOM     54 H60  BRA L   1      10.844  -7.559  -8.355  1.00  0.00    +0.0278  H
ATOM     55 H61  BRA L   1       7.623  -7.720  -8.445  1.00  0.00    +0.0623  H
ENDBRANCH 37 43
ENDBRANCH 36 37
ENDBRANCH 33 36
ENDBRANCH 23 33
ENDBRANCH 21 26
BRANCH 21 56
ATOM     56 C15  BRA L   1       9.935 -10.727  -5.013  1.00  0.00    +0.0085  C
ATOM     57 N16  BRA L   1       9.076  -9.856  -4.204  1.00  0.00    -0.3289 NA
ATOM     58 H45  BRA L   1       9.450 -10.871  -5.986  1.00  0.00    +0.0432  H
ATOM     59 H46  BRA L   1       9.973 -11.717  -4.541  1.00  0.00    +0.0432  H
ATOM     60 H47  BRA L   1       8.121 -10.215  -4.217  1.00  0.00    +0.1182 HD
ATOM     61 H48  BRA L   1       9.034  -8.927  -4.624  1.00  0.00    +0.1182 HD
ENDBRANCH 21 56
ENDBRANCH 17 21
ENDBRANCH 1 19
TORSDOF 8
ENDMDL
MODEL 14
REMARK VINA RESULT:    -7.212      3.335     10.900
REMARK INTER + INTRA:         -11.554
REMARK INTER:                 -10.159
REMARK INTRA:                  -1.395
REMARK UNBOUND:                -0.969
ROOT
ATOM      1 C20  BRA L   1       9.647 -10.016  -4.797  1.00  0.00    +0.0423  A
ATOM      2 C21  BRA L   1      10.500 -10.581  -5.742  1.00  0.00    -0.0377  A
ATOM      3 C22  BRA L   1      10.049 -10.825  -7.044  1.00  0.00    -0.0506  A
ATOM      4 C23  BRA L   1       8.734 -10.504  -7.418  1.00  0.00    +0.0004  A
ATOM      5 C24  BRA L   1       8.226 -10.738  -8.699  1.00  0.00    +0.0353  A
ATOM      6 N25  BRA L   1       6.962 -10.447  -9.089  1.00  0.00    -0.2626 NA
ATOM      7 C26  BRA L   1       6.161  -9.886  -8.162  1.00  0.00    +0.0281  A
ATOM      8 C27  BRA L   1       6.558  -9.608  -6.863  1.00  0.00    -0.0358  A
ATOM      9 C28  BRA L   1       7.867  -9.923  -6.476  1.00  0.00    -0.0131  A
ATOM     10 C29  BRA L   1       8.337  -9.682  -5.173  1.00  0.00    -0.0305  A
ATOM     11 H50  BRA L   1      11.522 -10.856  -5.498  1.00  0.00    +0.0638  H
ATOM     12 H51  BRA L   1      10.734 -11.272  -7.762  1.00  0.00    +0.0625  H
ATOM     13 H52  BRA L   1       8.843 -11.185  -9.475  1.00  0.00    +0.0836  H
ATOM     14 H53  BRA L   1       5.153  -9.657  -8.498  1.00  0.00    +0.0830  H
ATOM     15 H54  BRA L   1       5.854  -9.157  -6.171  1.00  0.00    +0.0639  H
ATOM     16 H55  BRA L   1       7.662  -9.238  -4.444  1.00  0.00    +0.0644  H
ENDROOT
BRANCH 1 19
ATOM     17 C17  BRA L   1      10.908  -8.849  -2.958  1.00  0.00    +0.2339  C
ATOM     18 O18  BRA L   1      11.491  -7.989  -3.616  1.00  0.00    -0.2722 OA
ATOM     19 N19  BRA L   1      10.002  -9.775  -3.456  1.00  0.00    -0.3256  N
ATOM     20 H49  BRA L   1       9.591 -10.409  -2.779  1.00  0.00    +0.1686 HD
BRANCH 17 21
ATOM     21 C14  BRA L   1      11.116  -8.931  -1.432  1.00  0.00    +0.0752  C
ATOM     22 H44  BRA L   1      10.115  -8.988  -0.980  1.00  0.00    +0.0458  H
BRANCH 21 26
ATOM     23 C10  BRA L   1      13.033  -5.496   0.411  1.00  0.00    -0.0103  A
ATOM     24 C11  BRA L   1      13.786  -6.560  -0.097  1.00  0.00    -0.0551  A
ATOM     25 C12  BRA L   1      13.158  -7.625  -0.742  1.00  0.00    -0.0574  A
ATOM     26 C13  BRA L   1      11.760  -7.652  -0.896  1.00  0.00    -0.0341  A
ATOM     27 C30  BRA L   1      11.020  -6.551  -0.445  1.00  0.00    -0.0574  A
ATOM     28 C31  BRA L   1      11.650  -5.487   0.205  1.00  0.00    -0.0551  A
ATOM     29 H42  BRA L   1      14.865  -6.586   0.048  1.00  0.00    +0.0621  H
ATOM     30 H43  BRA L   1      13.765  -8.463  -1.084  1.00  0.00    +0.0621  H
ATOM     31 H56  BRA L   1       9.939  -6.512  -0.561  1.00  0.00    +0.0621  H
ATOM     32 H57  BRA L   1      11.043  -4.668   0.586  1.00  0.00    +0.0621  H
BRANCH 23 33
ATOM     33  C9  BRA L   1      13.698  -4.405   1.213  1.00  0.00    +0.1179  C
ATOM     34 H40  BRA L   1      13.373  -3.402   0.909  1.00  0.00    +0.0749  H
ATOM     35 H41  BRA L   1      14.781  -4.449   1.052  1.00  0.00    +0.0749  H
BRANCH 33 36
ATOM     36  O8  BRA L   1      13.458  -4.612   2.613  1.00  0.00    -0.4564 OA
BRANCH 36 37
ATOM     37  C6  BRA L   1      13.100  -3.503   3.305  1.00  0.00    +0.3398  C
ATOM     38  O7  BRA L   1      13.620  -2.401   3.254  1.00  0.00    -0.2449 OA
BRANCH 37 43
ATOM     39  C1  BRA L   1       8.126  -4.601   6.042  1.00  0.00    -0.0397  C
ATOM     40  C2  BRA L   1       9.430  -4.334   5.347  1.00  0.00    -0.0502  A
ATOM     41  C3  BRA L   1       9.445  -3.891   4.022  1.00  0.00    -0.0580  A
ATOM     42  C4  BRA L   1      10.656  -3.623   3.387  1.00  0.00    -0.0473  A
ATOM     43  C5  BRA L   1      11.868  -3.790   4.072  1.00  0.00    +0.0619  A
ATOM     44 C32  BRA L   1      11.874  -4.193   5.419  1.00  0.00    -0.0362  A
ATOM     45 C33  BRA L   1      13.143  -4.359   6.208  1.00  0.00    -0.0389  C
ATOM     46 C34  BRA L   1      10.644  -4.471   6.039  1.00  0.00    -0.0551  A
ATOM     47 H35  BRA L   1       8.239  -5.389   6.794  1.00  0.00    +0.0278  H
ATOM     48 H36  BRA L   1       7.366  -4.938   5.330  1.00  0.00    +0.0278  H
ATOM     49 H37  BRA L   1       7.772  -3.690   6.533  1.00  0.00    +0.0278  H
ATOM     50 H38  BRA L   1       8.514  -3.762   3.473  1.00  0.00    +0.0620  H
ATOM     51 H39  BRA L   1      10.658  -3.294   2.351  1.00  0.00    +0.0626  H
ATOM     52 H58  BRA L   1      12.945  -4.327   7.285  1.00  0.00    +0.0278  H
ATOM     53 H59  BRA L   1      13.847  -3.548   5.993  1.00  0.00    +0.0278  H
ATOM     54 H60  BRA L   1      13.611  -5.321   5.975  1.00  0.00    +0.0278  H
ATOM     55 H61  BRA L   1      10.626  -4.796   7.079  1.00  0.00    +0.0623  H
ENDBRANCH 37 43
ENDBRANCH 36 37
ENDBRANCH 33 36
ENDBRANCH 23 33
ENDBRANCH 21 26
BRANCH 21 56
ATOM     56 C15  BRA L   1      11.827 -10.275  -1.152  1.00  0.00    +0.0085  C
ATOM     57 N16  BRA L   1      10.926 -11.432  -1.127  1.00  0.00    -0.3289 NA
ATOM     58 H45  BRA L   1      12.583 -10.451  -1.927  1.00  0.00    +0.0432  H
ATOM     59 H46  BRA L   1      12.370 -10.235  -0.199  1.00  0.00    +0.0432  H
ATOM     60 H47  BRA L   1      11.477 -12.290  -1.077  1.00  0.00    +0.1182 HD
ATOM     61 H48  BRA L   1      10.406 -11.482  -2.005  1.00  0.00    +0.1182 HD
ENDBRANCH 21 56
ENDBRANCH 17 21
ENDBRANCH 1 19
TORSDOF 8
ENDMDL
MODEL 15
REMARK VINA RESULT:    -7.151      1.833      3.054
REMARK INTER + INTRA:         -11.464
REMARK INTER:                 -10.611
REMARK INTRA:                  -0.852
REMARK UNBOUND:                -0.969
ROOT
ATOM      1 C20  BRA L   1      11.933  -5.577   2.347  1.00  0.00    +0.0423  A
ATOM      2 C21  BRA L   1      12.505  -4.319   2.518  1.00  0.00    -0.0377  A
ATOM      3 C22  BRA L   1      11.933  -3.397   3.402  1.00  0.00    -0.0506  A
ATOM      4 C23  BRA L   1      10.776  -3.724   4.129  1.00  0.00    +0.0004  A
ATOM      5 C24  BRA L   1      10.155  -2.839   5.013  1.00  0.00    +0.0353  A
ATOM      6 N25  BRA L   1       9.036  -3.121   5.723  1.00  0.00    -0.2626 NA
ATOM      7 C26  BRA L   1       8.511  -4.351   5.553  1.00  0.00    +0.0281  A
ATOM      8 C27  BRA L   1       9.043  -5.309   4.704  1.00  0.00    -0.0358  A
ATOM      9 C28  BRA L   1      10.197  -4.996   3.973  1.00  0.00    -0.0131  A
ATOM     10 C29  BRA L   1      10.785  -5.911   3.084  1.00  0.00    -0.0305  A
ATOM     11 H50  BRA L   1      13.392  -4.015   1.972  1.00  0.00    +0.0638  H
ATOM     12 H51  BRA L   1      12.396  -2.419   3.513  1.00  0.00    +0.0625  H
ATOM     13 H52  BRA L   1      10.551  -1.841   5.180  1.00  0.00    +0.0836  H
ATOM     14 H53  BRA L   1       7.617  -4.557   6.136  1.00  0.00    +0.0830  H
ATOM     15 H54  BRA L   1       8.561  -6.278   4.618  1.00  0.00    +0.0639  H
ATOM     16 H55  BRA L   1      10.331  -6.892   2.960  1.00  0.00    +0.0644  H
ENDROOT
BRANCH 1 19
ATOM     17 C17  BRA L   1      11.808  -7.043   0.305  1.00  0.00    +0.2339  C
ATOM     18 O18  BRA L   1      10.764  -6.624  -0.190  1.00  0.00    -0.2722 OA
ATOM     19 N19  BRA L   1      12.416  -6.550   1.451  1.00  0.00    -0.3256  N
ATOM     20 H49  BRA L   1      13.288  -6.993   1.722  1.00  0.00    +0.1686 HD
BRANCH 17 21
ATOM     21 C14  BRA L   1      12.592  -8.179  -0.383  1.00  0.00    +0.0752  C
ATOM     22 H44  BRA L   1      13.653  -7.894  -0.351  1.00  0.00    +0.0458  H
BRANCH 21 26
ATOM     23 C10  BRA L   1      11.702  -8.833  -4.585  1.00  0.00    -0.0103  A
ATOM     24 C11  BRA L   1      11.011  -9.521  -3.582  1.00  0.00    -0.0551  A
ATOM     25 C12  BRA L   1      11.265  -9.253  -2.237  1.00  0.00    -0.0574  A
ATOM     26 C13  BRA L   1      12.216  -8.288  -1.862  1.00  0.00    -0.0341  A
ATOM     27 C30  BRA L   1      12.855  -7.555  -2.871  1.00  0.00    -0.0574  A
ATOM     28 C31  BRA L   1      12.603  -7.828  -4.218  1.00  0.00    -0.0551  A
ATOM     29 H42  BRA L   1      10.301 -10.304  -3.844  1.00  0.00    +0.0621  H
ATOM     30 H43  BRA L   1      10.747  -9.839  -1.479  1.00  0.00    +0.0621  H
ATOM     31 H56  BRA L   1      13.582  -6.782  -2.633  1.00  0.00    +0.0621  H
ATOM     32 H57  BRA L   1      13.150  -7.275  -4.979  1.00  0.00    +0.0621  H
BRANCH 23 33
ATOM     33  C9  BRA L   1      11.517  -9.206  -6.034  1.00  0.00    +0.1179  C
ATOM     34 H40  BRA L   1      12.012 -10.151  -6.292  1.00  0.00    +0.0749  H
ATOM     35 H41  BRA L   1      11.966  -8.431  -6.666  1.00  0.00    +0.0749  H
BRANCH 33 36
ATOM     36  O8  BRA L   1      10.118  -9.265  -6.349  1.00  0.00    -0.4564 OA
BRANCH 36 37
ATOM     37  C6  BRA L   1       9.611  -8.149  -6.927  1.00  0.00    +0.3398  C
ATOM     38  O7  BRA L   1      10.018  -7.005  -6.807  1.00  0.00    -0.2449 OA
BRANCH 37 43
ATOM     39  C1  BRA L   1       5.554  -9.570 -10.794  1.00  0.00    -0.0397  C
ATOM     40  C2  BRA L   1       6.601  -9.224  -9.776  1.00  0.00    -0.0502  A
ATOM     41  C3  BRA L   1       7.727  -8.483 -10.146  1.00  0.00    -0.0580  A
ATOM     42  C4  BRA L   1       8.686  -8.143  -9.194  1.00  0.00    -0.0473  A
ATOM     43  C5  BRA L   1       8.528  -8.536  -7.857  1.00  0.00    +0.0619  A
ATOM     44 C32  BRA L   1       7.381  -9.244  -7.455  1.00  0.00    -0.0362  A
ATOM     45 C33  BRA L   1       7.149  -9.663  -6.030  1.00  0.00    -0.0389  C
ATOM     46 C34  BRA L   1       6.432  -9.589  -8.431  1.00  0.00    -0.0551  A
ATOM     47 H35  BRA L   1       5.066 -10.518 -10.544  1.00  0.00    +0.0278  H
ATOM     48 H36  BRA L   1       5.999  -9.686 -11.788  1.00  0.00    +0.0278  H
ATOM     49 H37  BRA L   1       4.797  -8.781 -10.835  1.00  0.00    +0.0278  H
ATOM     50 H38  BRA L   1       7.868  -8.175 -11.181  1.00  0.00    +0.0620  H
ATOM     51 H39  BRA L   1       9.566  -7.581  -9.495  1.00  0.00    +0.0626  H
ATOM     52 H58  BRA L   1       6.090  -9.874  -5.849  1.00  0.00    +0.0278  H
ATOM     53 H59  BRA L   1       7.435  -8.866  -5.335  1.00  0.00    +0.0278  H
ATOM     54 H60  BRA L   1       7.721 -10.569  -5.803  1.00  0.00    +0.0278  H
ATOM     55 H61  BRA L   1       5.541 -10.147  -8.143  1.00  0.00    +0.0623  H
ENDBRANCH 37 43
ENDBRANCH 36 37
ENDBRANCH 33 36
ENDBRANCH 23 33
ENDBRANCH 21 26
BRANCH 21 56
ATOM     56 C15  BRA L   1      12.423  -9.435   0.503  1.00  0.00    +0.0085  C
ATOM     57 N16  BRA L   1      13.183  -9.385   1.757  1.00  0.00    -0.3289 NA
ATOM     58 H45  BRA L   1      11.363  -9.559   0.755  1.00  0.00    +0.0432  H
ATOM     59 H46  BRA L   1      12.715 -10.338  -0.046  1.00  0.00    +0.0432  H
ATOM     60 H47  BRA L   1      12.917 -10.174   2.346  1.00  0.00    +0.1182 HD
ATOM     61 H48  BRA L   1      12.930  -8.545   2.280  1.00  0.00    +0.1182 HD
ENDBRANCH 21 56
ENDBRANCH 17 21
ENDBRANCH 1 19
TORSDOF 8
ENDMDL
MODEL 16
REMARK VINA RESULT:    -7.095      1.682      2.269
REMARK INTER + INTRA:         -11.381
REMARK INTER:                 -10.783
REMARK INTRA:                  -0.598
REMARK UNBOUND:                -0.969
ROOT
ATOM      1 C20  BRA L   1      12.024  -4.795   3.114  1.00  0.00    +0.0423  A
ATOM      2 C21  BRA L   1      12.443  -3.473   3.243  1.00  0.00    -0.0377  A
ATOM      3 C22  BRA L   1      11.768  -2.598   4.101  1.00  0.00    -0.0506  A
ATOM      4 C23  BRA L   1      10.659  -3.037   4.844  1.00  0.00    +0.0004  A
ATOM      5 C24  BRA L   1       9.939  -2.204   5.704  1.00  0.00    +0.0353  A
ATOM      6 N25  BRA L   1       8.863  -2.593   6.429  1.00  0.00    -0.2626 NA
ATOM      7 C26  BRA L   1       8.487  -3.882   6.300  1.00  0.00    +0.0281  A
ATOM      8 C27  BRA L   1       9.127  -4.796   5.478  1.00  0.00    -0.0358  A
ATOM      9 C28  BRA L   1      10.234  -4.372   4.731  1.00  0.00    -0.0131  A
ATOM     10 C29  BRA L   1      10.926  -5.239   3.867  1.00  0.00    -0.0305  A
ATOM     11 H50  BRA L   1      13.287  -3.084   2.682  1.00  0.00    +0.0638  H
ATOM     12 H51  BRA L   1      12.112  -1.569   4.179  1.00  0.00    +0.0625  H
ATOM     13 H52  BRA L   1      10.215  -1.160   5.838  1.00  0.00    +0.0836  H
ATOM     14 H53  BRA L   1       7.625  -4.174   6.894  1.00  0.00    +0.0830  H
ATOM     15 H54  BRA L   1       8.764  -5.817   5.425  1.00  0.00    +0.0639  H
ATOM     16 H55  BRA L   1      10.590  -6.270   3.777  1.00  0.00    +0.0644  H
ENDROOT
BRANCH 1 19
ATOM     17 C17  BRA L   1      12.310  -5.988   0.918  1.00  0.00    +0.2339  C
ATOM     18 O18  BRA L   1      11.518  -5.350   0.227  1.00  0.00    -0.2722 OA
ATOM     19 N19  BRA L   1      12.617  -5.731   2.246  1.00  0.00    -0.3256  N
ATOM     20 H49  BRA L   1      13.308  -6.340   2.673  1.00  0.00    +0.1686 HD
BRANCH 17 21
ATOM     21 C14  BRA L   1      13.107  -7.158   0.303  1.00  0.00    +0.0752  C
ATOM     22 H44  BRA L   1      14.128  -6.788   0.132  1.00  0.00    +0.0458  H
BRANCH 21 26
ATOM     23 C10  BRA L   1      11.659  -8.605  -3.529  1.00  0.00    -0.0103  A
ATOM     24 C11  BRA L   1      11.019  -8.951  -2.334  1.00  0.00    -0.0551  A
ATOM     25 C12  BRA L   1      11.458  -8.427  -1.119  1.00  0.00    -0.0574  A
ATOM     26 C13  BRA L   1      12.550  -7.541  -1.068  1.00  0.00    -0.0341  A
ATOM     27 C30  BRA L   1      13.143  -7.147  -2.275  1.00  0.00    -0.0574  A
ATOM     28 C31  BRA L   1      12.705  -7.677  -3.491  1.00  0.00    -0.0551  A
ATOM     29 H42  BRA L   1      10.199  -9.668  -2.340  1.00  0.00    +0.0621  H
ATOM     30 H43  BRA L   1      10.971  -8.752  -0.200  1.00  0.00    +0.0621  H
ATOM     31 H56  BRA L   1      13.975  -6.447  -2.292  1.00  0.00    +0.0621  H
ATOM     32 H57  BRA L   1      13.216  -7.388  -4.407  1.00  0.00    +0.0621  H
BRANCH 23 33
ATOM     33  C9  BRA L   1      11.263  -9.264  -4.826  1.00  0.00    +0.1179  C
ATOM     34 H40  BRA L   1      11.009 -10.324  -4.700  1.00  0.00    +0.0749  H
ATOM     35 H41  BRA L   1      12.108  -9.222  -5.524  1.00  0.00    +0.0749  H
BRANCH 33 36
ATOM     36  O8  BRA L   1      10.171  -8.549  -5.423  1.00  0.00    -0.4564 OA
BRANCH 36 37
ATOM     37  C6  BRA L   1      10.422  -8.041  -6.655  1.00  0.00    +0.3398  C
ATOM     38  O7  BRA L   1      11.450  -7.508  -7.038  1.00  0.00    -0.2449 OA
BRANCH 37 43
ATOM     39  C1  BRA L   1       5.800  -9.328  -9.882  1.00  0.00    -0.0397  C
ATOM     40  C2  BRA L   1       7.003  -8.970  -9.058  1.00  0.00    -0.0502  A
ATOM     41  C3  BRA L   1       7.132  -9.453  -7.753  1.00  0.00    -0.0580  A
ATOM     42  C4  BRA L   1       8.261  -9.138  -6.999  1.00  0.00    -0.0473  A
ATOM     43  C5  BRA L   1       9.277  -8.339  -7.543  1.00  0.00    +0.0619  A
ATOM     44 C32  BRA L   1       9.187  -7.879  -8.868  1.00  0.00    -0.0362  A
ATOM     45 C33  BRA L   1      10.261  -7.045  -9.508  1.00  0.00    -0.0389  C
ATOM     46 C34  BRA L   1       8.036  -8.197  -9.609  1.00  0.00    -0.0551  A
ATOM     47 H35  BRA L   1       5.564  -8.530 -10.593  1.00  0.00    +0.0278  H
ATOM     48 H36  BRA L   1       4.919  -9.469  -9.247  1.00  0.00    +0.0278  H
ATOM     49 H37  BRA L   1       5.989 -10.252 -10.437  1.00  0.00    +0.0278  H
ATOM     50 H38  BRA L   1       6.350 -10.069  -7.313  1.00  0.00    +0.0620  H
ATOM     51 H39  BRA L   1       8.344  -9.505  -5.979  1.00  0.00    +0.0626  H
ATOM     52 H58  BRA L   1      10.192  -7.084 -10.601  1.00  0.00    +0.0278  H
ATOM     53 H59  BRA L   1      11.256  -7.417  -9.243  1.00  0.00    +0.0278  H
ATOM     54 H60  BRA L   1      10.166  -6.000  -9.197  1.00  0.00    +0.0278  H
ATOM     55 H61  BRA L   1       7.941  -7.840 -10.635  1.00  0.00    +0.0623  H
ENDBRANCH 37 43
ENDBRANCH 36 37
ENDBRANCH 33 36
ENDBRANCH 23 33
ENDBRANCH 21 26
BRANCH 21 56
ATOM     56 C15  BRA L   1      13.189  -8.257   1.388  1.00  0.00    +0.0085  C
ATOM     57 N16  BRA L   1      14.377  -8.164   2.242  1.00  0.00    -0.3289 NA
ATOM     58 H45  BRA L   1      12.303  -8.194   2.032  1.00  0.00    +0.0432  H
ATOM     59 H46  BRA L   1      13.164  -9.254   0.931  1.00  0.00    +0.0432  H
ATOM     60 H47  BRA L   1      14.294  -8.828   3.012  1.00  0.00    +0.1182 HD
ATOM     61 H48  BRA L   1      14.421  -7.238   2.671  1.00  0.00    +0.1182 HD
ENDBRANCH 21 56
ENDBRANCH 17 21
ENDBRANCH 1 19
TORSDOF 8
ENDMDL
MODEL 17
REMARK VINA RESULT:    -7.064      3.346      5.598
REMARK INTER + INTRA:         -11.337
REMARK INTER:                  -9.706
REMARK INTRA:                  -1.631
REMARK UNBOUND:                -0.969
ROOT
ATOM      1 C20  BRA L   1      13.009  -7.086  -0.613  1.00  0.00    +0.0423  A
ATOM      2 C21  BRA L   1      12.126  -7.014   0.462  1.00  0.00    -0.0377  A
ATOM      3 C22  BRA L   1      12.266  -6.008   1.425  1.00  0.00    -0.0506  A
ATOM      4 C23  BRA L   1      13.296  -5.059   1.324  1.00  0.00    +0.0004  A
ATOM      5 C24  BRA L   1      13.492  -4.043   2.263  1.00  0.00    +0.0353  A
ATOM      6 N25  BRA L   1      14.478  -3.117   2.199  1.00  0.00    -0.2626 NA
ATOM      7 C26  BRA L   1      15.310  -3.197   1.141  1.00  0.00    +0.0281  A
ATOM      8 C27  BRA L   1      15.209  -4.161   0.149  1.00  0.00    -0.0358  A
ATOM      9 C28  BRA L   1      14.186  -5.115   0.237  1.00  0.00    -0.0131  A
ATOM     10 C29  BRA L   1      14.030  -6.129  -0.723  1.00  0.00    -0.0305  A
ATOM     11 H50  BRA L   1      11.320  -7.730   0.589  1.00  0.00    +0.0638  H
ATOM     12 H51  BRA L   1      11.567  -5.977   2.258  1.00  0.00    +0.0625  H
ATOM     13 H52  BRA L   1      12.840  -3.943   3.127  1.00  0.00    +0.0836  H
ATOM     14 H53  BRA L   1      16.091  -2.442   1.107  1.00  0.00    +0.0830  H
ATOM     15 H54  BRA L   1      15.919  -4.163  -0.672  1.00  0.00    +0.0639  H
ATOM     16 H55  BRA L   1      14.724  -6.174  -1.560  1.00  0.00    +0.0644  H
ENDROOT
BRANCH 1 19
ATOM     17 C17  BRA L   1      11.886  -8.493  -2.371  1.00  0.00    +0.2339  C
ATOM     18 O18  BRA L   1      10.777  -7.963  -2.388  1.00  0.00    -0.2722 OA
ATOM     19 N19  BRA L   1      12.968  -8.085  -1.604  1.00  0.00    -0.3256  N
ATOM     20 H49  BRA L   1      13.824  -8.618  -1.717  1.00  0.00    +0.1686 HD
BRANCH 17 21
ATOM     21 C14  BRA L   1      12.187  -9.690  -3.298  1.00  0.00    +0.0752  C
ATOM     22 H44  BRA L   1      13.112 -10.152  -2.923  1.00  0.00    +0.0458  H
BRANCH 21 26
ATOM     23 C10  BRA L   1      12.652  -8.273  -7.378  1.00  0.00    -0.0103  A
ATOM     24 C11  BRA L   1      12.446  -7.381  -6.320  1.00  0.00    -0.0551  A
ATOM     25 C12  BRA L   1      12.362  -7.848  -5.008  1.00  0.00    -0.0574  A
ATOM     26 C13  BRA L   1      12.484  -9.219  -4.722  1.00  0.00    -0.0341  A
ATOM     27 C30  BRA L   1      12.758 -10.099  -5.778  1.00  0.00    -0.0574  A
ATOM     28 C31  BRA L   1      12.836  -9.630  -7.092  1.00  0.00    -0.0551  A
ATOM     29 H42  BRA L   1      12.305  -6.320  -6.518  1.00  0.00    +0.0621  H
ATOM     30 H43  BRA L   1      12.153  -7.136  -4.211  1.00  0.00    +0.0621  H
ATOM     31 H56  BRA L   1      12.883 -11.165  -5.607  1.00  0.00    +0.0621  H
ATOM     32 H57  BRA L   1      13.003 -10.343  -7.898  1.00  0.00    +0.0621  H
BRANCH 23 33
ATOM     33  C9  BRA L   1      12.622  -7.786  -8.805  1.00  0.00    +0.1179  C
ATOM     34 H40  BRA L   1      13.472  -8.154  -9.393  1.00  0.00    +0.0749  H
ATOM     35 H41  BRA L   1      12.683  -6.691  -8.812  1.00  0.00    +0.0749  H
BRANCH 33 36
ATOM     36  O8  BRA L   1      11.381  -8.156  -9.422  1.00  0.00    -0.4564 OA
BRANCH 36 37
ATOM     37  C6  BRA L   1      10.365  -7.277  -9.242  1.00  0.00    +0.3398  C
ATOM     38  O7  BRA L   1      10.450  -6.068  -9.103  1.00  0.00    -0.2449 OA
BRANCH 37 43
ATOM     39  C1  BRA L   1       5.352 -10.054 -10.015  1.00  0.00    -0.0397  C
ATOM     40  C2  BRA L   1       6.660  -9.351  -9.794  1.00  0.00    -0.0502  A
ATOM     41  C3  BRA L   1       7.280  -8.670 -10.845  1.00  0.00    -0.0580  A
ATOM     42  C4  BRA L   1       8.483  -7.999 -10.631  1.00  0.00    -0.0473  A
ATOM     43  C5  BRA L   1       9.077  -7.996  -9.361  1.00  0.00    +0.0619  A
ATOM     44 C32  BRA L   1       8.448  -8.638  -8.280  1.00  0.00    -0.0362  A
ATOM     45 C33  BRA L   1       9.028  -8.640  -6.894  1.00  0.00    -0.0389  C
ATOM     46 C34  BRA L   1       7.243  -9.320  -8.518  1.00  0.00    -0.0551  A
ATOM     47 H35  BRA L   1       5.259 -10.921  -9.352  1.00  0.00    +0.0278  H
ATOM     48 H36  BRA L   1       5.275 -10.421 -11.043  1.00  0.00    +0.0278  H
ATOM     49 H37  BRA L   1       4.522  -9.369  -9.820  1.00  0.00    +0.0278  H
ATOM     50 H38  BRA L   1       6.836  -8.667 -11.839  1.00  0.00    +0.0620  H
ATOM     51 H39  BRA L   1       8.966  -7.485 -11.459  1.00  0.00    +0.0626  H
ATOM     52 H58  BRA L   1       8.260  -8.866  -6.146  1.00  0.00    +0.0278  H
ATOM     53 H59  BRA L   1       9.437  -7.657  -6.638  1.00  0.00    +0.0278  H
ATOM     54 H60  BRA L   1       9.815  -9.396  -6.813  1.00  0.00    +0.0278  H
ATOM     55 H61  BRA L   1       6.744  -9.834  -7.696  1.00  0.00    +0.0623  H
ENDBRANCH 37 43
ENDBRANCH 36 37
ENDBRANCH 33 36
ENDBRANCH 23 33
ENDBRANCH 21 26
BRANCH 21 56
ATOM     56 C15  BRA L   1      11.043 -10.709  -3.092  1.00  0.00    +0.0085  C
ATOM     57 N16  BRA L   1       9.813 -10.380  -3.819  1.00  0.00    -0.3289 NA
ATOM     58 H45  BRA L   1      11.379 -11.699  -3.425  1.00  0.00    +0.0432  H
ATOM     59 H46  BRA L   1      10.803 -10.811  -2.026  1.00  0.00    +0.0432  H
ATOM     60 H47  BRA L   1       9.158 -11.159  -3.749  1.00  0.00    +0.1182 HD
ATOM     61 H48  BRA L   1      10.019 -10.274  -4.814  1.00  0.00    +0.1182 HD
ENDBRANCH 21 56
ENDBRANCH 17 21
ENDBRANCH 1 19
TORSDOF 8
ENDMDL
MODEL 18
REMARK VINA RESULT:    -6.986      3.193     10.022
REMARK INTER + INTRA:         -11.222
REMARK INTER:                  -9.561
REMARK INTRA:                  -1.660
REMARK UNBOUND:                -0.969
ROOT
ATOM      1 C20  BRA L   1      11.160  -8.590  -4.985  1.00  0.00    +0.0423  A
ATOM      2 C21  BRA L   1      11.430  -7.744  -6.057  1.00  0.00    -0.0377  A
ATOM      3 C22  BRA L   1      10.550  -7.676  -7.143  1.00  0.00    -0.0506  A
ATOM      4 C23  BRA L   1       9.384  -8.459  -7.170  1.00  0.00    +0.0004  A
ATOM      5 C24  BRA L   1       8.478  -8.443  -8.233  1.00  0.00    +0.0353  A
ATOM      6 N25  BRA L   1       7.350  -9.190  -8.293  1.00  0.00    -0.2626 NA
ATOM      7 C26  BRA L   1       7.102  -9.989  -7.235  1.00  0.00    +0.0281  A
ATOM      8 C27  BRA L   1       7.929 -10.084  -6.127  1.00  0.00    -0.0358  A
ATOM      9 C28  BRA L   1       9.095  -9.309  -6.087  1.00  0.00    -0.0131  A
ATOM     10 C29  BRA L   1       9.988  -9.362  -5.003  1.00  0.00    -0.0305  A
ATOM     11 H50  BRA L   1      12.323  -7.126  -6.088  1.00  0.00    +0.0638  H
ATOM     12 H51  BRA L   1      10.786  -7.011  -7.971  1.00  0.00    +0.0625  H
ATOM     13 H52  BRA L   1       8.641  -7.809  -9.101  1.00  0.00    +0.0836  H
ATOM     14 H53  BRA L   1       6.189 -10.575  -7.302  1.00  0.00    +0.0830  H
ATOM     15 H54  BRA L   1       7.664 -10.754  -5.315  1.00  0.00    +0.0639  H
ATOM     16 H55  BRA L   1       9.766 -10.026  -4.170  1.00  0.00    +0.0644  H
ENDROOT
BRANCH 1 19
ATOM     17 C17  BRA L   1      11.800  -8.339  -2.564  1.00  0.00    +0.2339  C
ATOM     18 O18  BRA L   1      10.765  -7.843  -2.124  1.00  0.00    -0.2722 OA
ATOM     19 N19  BRA L   1      12.008  -8.752  -3.873  1.00  0.00    -0.3256  N
ATOM     20 H49  BRA L   1      12.914  -9.161  -4.075  1.00  0.00    +0.1686 HD
BRANCH 17 21
ATOM     21 C14  BRA L   1      12.995  -8.603  -1.624  1.00  0.00    +0.0752  C
ATOM     22 H44  BRA L   1      12.584  -9.072  -0.718  1.00  0.00    +0.0458  H
BRANCH 21 26
ATOM     23 C10  BRA L   1      14.687  -4.944  -0.004  1.00  0.00    -0.0103  A
ATOM     24 C11  BRA L   1      15.232  -6.195   0.306  1.00  0.00    -0.0551  A
ATOM     25 C12  BRA L   1      14.716  -7.354  -0.272  1.00  0.00    -0.0574  A
ATOM     26 C13  BRA L   1      13.642  -7.291  -1.178  1.00  0.00    -0.0341  A
ATOM     27 C30  BRA L   1      13.146  -6.031  -1.536  1.00  0.00    -0.0574  A
ATOM     28 C31  BRA L   1      13.660  -4.871  -0.951  1.00  0.00    -0.0551  A
ATOM     29 H42  BRA L   1      16.035  -6.276   1.037  1.00  0.00    +0.0621  H
ATOM     30 H43  BRA L   1      15.129  -8.317   0.025  1.00  0.00    +0.0621  H
ATOM     31 H56  BRA L   1      12.331  -5.926  -2.248  1.00  0.00    +0.0621  H
ATOM     32 H57  BRA L   1      13.223  -3.909  -1.213  1.00  0.00    +0.0621  H
BRANCH 23 33
ATOM     33  C9  BRA L   1      15.163  -3.705   0.712  1.00  0.00    +0.1179  C
ATOM     34 H40  BRA L   1      15.510  -2.927   0.020  1.00  0.00    +0.0749  H
ATOM     35 H41  BRA L   1      16.016  -3.964   1.350  1.00  0.00    +0.0749  H
BRANCH 33 36
ATOM     36  O8  BRA L   1      14.122  -3.200   1.560  1.00  0.00    -0.4564 OA
BRANCH 36 37
ATOM     37  C6  BRA L   1      14.044  -3.783   2.782  1.00  0.00    +0.3398  C
ATOM     38  O7  BRA L   1      14.929  -3.871   3.616  1.00  0.00    -0.2449 OA
BRANCH 37 43
ATOM     39  C1  BRA L   1       8.660  -5.720   3.617  1.00  0.00    -0.0397  C
ATOM     40  C2  BRA L   1      10.056  -5.203   3.424  1.00  0.00    -0.0502  A
ATOM     41  C3  BRA L   1      10.984  -5.940   2.682  1.00  0.00    -0.0580  A
ATOM     42  C4  BRA L   1      12.272  -5.447   2.485  1.00  0.00    -0.0473  A
ATOM     43  C5  BRA L   1      12.647  -4.208   3.025  1.00  0.00    +0.0619  A
ATOM     44 C32  BRA L   1      11.717  -3.431   3.737  1.00  0.00    -0.0362  A
ATOM     45 C33  BRA L   1      12.059  -2.085   4.310  1.00  0.00    -0.0389  C
ATOM     46 C34  BRA L   1      10.426  -3.950   3.936  1.00  0.00    -0.0551  A
ATOM     47 H35  BRA L   1       8.246  -5.377   4.571  1.00  0.00    +0.0278  H
ATOM     48 H36  BRA L   1       8.646  -6.814   3.632  1.00  0.00    +0.0278  H
ATOM     49 H37  BRA L   1       8.016  -5.369   2.805  1.00  0.00    +0.0278  H
ATOM     50 H38  BRA L   1      10.711  -6.906   2.262  1.00  0.00    +0.0620  H
ATOM     51 H39  BRA L   1      12.991  -6.034   1.921  1.00  0.00    +0.0626  H
ATOM     52 H58  BRA L   1      11.155  -1.498   4.506  1.00  0.00    +0.0278  H
ATOM     53 H59  BRA L   1      12.665  -1.502   3.608  1.00  0.00    +0.0278  H
ATOM     54 H60  BRA L   1      12.602  -2.200   5.253  1.00  0.00    +0.0278  H
ATOM     55 H61  BRA L   1       9.693  -3.369   4.495  1.00  0.00    +0.0623  H
ENDBRANCH 37 43
ENDBRANCH 36 37
ENDBRANCH 33 36
ENDBRANCH 23 33
ENDBRANCH 21 26
BRANCH 21 56
ATOM     56 C15  BRA L   1      13.887  -9.653  -2.325  1.00  0.00    +0.0085  C
ATOM     57 N16  BRA L   1      13.378 -11.025  -2.230  1.00  0.00    -0.3289 NA
ATOM     58 H45  BRA L   1      13.977  -9.398  -3.388  1.00  0.00    +0.0432  H
ATOM     59 H46  BRA L   1      14.905  -9.629  -1.917  1.00  0.00    +0.0432  H
ATOM     60 H47  BRA L   1      13.937 -11.636  -2.827  1.00  0.00    +0.1182 HD
ATOM     61 H48  BRA L   1      12.427 -11.066  -2.599  1.00  0.00    +0.1182 HD
ENDBRANCH 21 56
ENDBRANCH 17 21
ENDBRANCH 1 19
TORSDOF 8
ENDMDL
MODEL 19
REMARK VINA RESULT:    -6.930      1.468      2.062
REMARK INTER + INTRA:         -11.140
REMARK INTER:                  -9.341
REMARK INTRA:                  -1.799
REMARK UNBOUND:                -0.969
ROOT
ATOM      1 C20  BRA L   1      10.720  -4.767   3.090  1.00  0.00    +0.0423  A
ATOM      2 C21  BRA L   1      10.363  -3.489   3.511  1.00  0.00    -0.0377  A
ATOM      3 C22  BRA L   1       9.617  -3.314   4.682  1.00  0.00    -0.0506  A
ATOM      4 C23  BRA L   1       9.218  -4.421   5.449  1.00  0.00    +0.0004  A
ATOM      5 C24  BRA L   1       8.461  -4.307   6.618  1.00  0.00    +0.0353  A
ATOM      6 N25  BRA L   1       8.055  -5.353   7.376  1.00  0.00    -0.2626 NA
ATOM      7 C26  BRA L   1       8.428  -6.579   6.957  1.00  0.00    +0.0281  A
ATOM      8 C27  BRA L   1       9.179  -6.811   5.815  1.00  0.00    -0.0358  A
ATOM      9 C28  BRA L   1       9.584  -5.715   5.040  1.00  0.00    -0.0131  A
ATOM     10 C29  BRA L   1      10.335  -5.873   3.863  1.00  0.00    -0.0305  A
ATOM     11 H50  BRA L   1      10.638  -2.603   2.947  1.00  0.00    +0.0638  H
ATOM     12 H51  BRA L   1       9.346  -2.305   4.987  1.00  0.00    +0.0625  H
ATOM     13 H52  BRA L   1       8.145  -3.335   6.990  1.00  0.00    +0.0836  H
ATOM     14 H53  BRA L   1       8.096  -7.403   7.582  1.00  0.00    +0.0830  H
ATOM     15 H54  BRA L   1       9.438  -7.828   5.539  1.00  0.00    +0.0639  H
ATOM     16 H55  BRA L   1      10.611  -6.876   3.545  1.00  0.00    +0.0644  H
ENDROOT
BRANCH 1 19
ATOM     17 C17  BRA L   1      12.755  -4.742   1.610  1.00  0.00    +0.2339  C
ATOM     18 O18  BRA L   1      13.579  -4.274   2.393  1.00  0.00    -0.2722 OA
ATOM     19 N19  BRA L   1      11.433  -5.038   1.906  1.00  0.00    -0.3256  N
ATOM     20 H49  BRA L   1      10.883  -5.439   1.153  1.00  0.00    +0.1686 HD
BRANCH 17 21
ATOM     21 C14  BRA L   1      13.174  -5.104   0.169  1.00  0.00    +0.0752  C
ATOM     22 H44  BRA L   1      12.746  -4.332  -0.486  1.00  0.00    +0.0458  H
BRANCH 21 26
ATOM     23 C10  BRA L   1      11.721  -8.929  -1.292  1.00  0.00    -0.0103  A
ATOM     24 C11  BRA L   1      12.778  -8.856  -0.379  1.00  0.00    -0.0551  A
ATOM     25 C12  BRA L   1      13.190  -7.623   0.129  1.00  0.00    -0.0574  A
ATOM     26 C13  BRA L   1      12.554  -6.433  -0.264  1.00  0.00    -0.0341  A
ATOM     27 C30  BRA L   1      11.453  -6.520  -1.127  1.00  0.00    -0.0574  A
ATOM     28 C31  BRA L   1      11.045  -7.755  -1.639  1.00  0.00    -0.0551  A
ATOM     29 H42  BRA L   1      13.317  -9.757  -0.091  1.00  0.00    +0.0621  H
ATOM     30 H43  BRA L   1      14.047  -7.593   0.801  1.00  0.00    +0.0621  H
ATOM     31 H56  BRA L   1      10.913  -5.631  -1.444  1.00  0.00    +0.0621  H
ATOM     32 H57  BRA L   1      10.216  -7.786  -2.344  1.00  0.00    +0.0621  H
BRANCH 23 33
ATOM     33  C9  BRA L   1      11.355 -10.244  -1.933  1.00  0.00    +0.1179  C
ATOM     34 H40  BRA L   1      10.790 -10.899  -1.256  1.00  0.00    +0.0749  H
ATOM     35 H41  BRA L   1      12.272 -10.782  -2.200  1.00  0.00    +0.0749  H
BRANCH 33 36
ATOM     36  O8  BRA L   1      10.619 -10.011  -3.142  1.00  0.00    -0.4564 OA
BRANCH 36 37
ATOM     37  C6  BRA L   1      11.252 -10.386  -4.281  1.00  0.00    +0.3398  C
ATOM     38  O7  BRA L   1      11.807 -11.449  -4.502  1.00  0.00    -0.2449 OA
BRANCH 37 43
ATOM     39  C1  BRA L   1      10.247  -6.386  -8.334  1.00  0.00    -0.0397  C
ATOM     40  C2  BRA L   1      10.521  -7.406  -7.266  1.00  0.00    -0.0502  A
ATOM     41  C3  BRA L   1       9.655  -8.488  -7.087  1.00  0.00    -0.0580  A
ATOM     42  C4  BRA L   1       9.925  -9.445  -6.110  1.00  0.00    -0.0473  A
ATOM     43  C5  BRA L   1      11.067  -9.334  -5.305  1.00  0.00    +0.0619  A
ATOM     44 C32  BRA L   1      11.974  -8.277  -5.499  1.00  0.00    -0.0362  A
ATOM     45 C33  BRA L   1      13.228  -8.128  -4.683  1.00  0.00    -0.0389  C
ATOM     46 C34  BRA L   1      11.680  -7.315  -6.479  1.00  0.00    -0.0551  A
ATOM     47 H35  BRA L   1      10.633  -5.403  -8.042  1.00  0.00    +0.0278  H
ATOM     48 H36  BRA L   1       9.171  -6.276  -8.502  1.00  0.00    +0.0278  H
ATOM     49 H37  BRA L   1      10.723  -6.689  -9.271  1.00  0.00    +0.0278  H
ATOM     50 H38  BRA L   1       8.760  -8.585  -7.699  1.00  0.00    +0.0620  H
ATOM     51 H39  BRA L   1       9.236 -10.274  -5.967  1.00  0.00    +0.0626  H
ATOM     52 H58  BRA L   1      13.955  -7.487  -5.192  1.00  0.00    +0.0278  H
ATOM     53 H59  BRA L   1      13.715  -9.098  -4.532  1.00  0.00    +0.0278  H
ATOM     54 H60  BRA L   1      12.997  -7.680  -3.711  1.00  0.00    +0.0278  H
ATOM     55 H61  BRA L   1      12.363  -6.481  -6.638  1.00  0.00    +0.0623  H
ENDBRANCH 37 43
ENDBRANCH 36 37
ENDBRANCH 33 36
ENDBRANCH 23 33
ENDBRANCH 21 26
BRANCH 21 56
ATOM     56 C15  BRA L   1      14.712  -4.965   0.106  1.00  0.00    +0.0085  C
ATOM     57 N16  BRA L   1      15.190  -3.582   0.207  1.00  0.00    -0.3289 NA
ATOM     58 H45  BRA L   1      15.161  -5.539   0.926  1.00  0.00    +0.0432  H
ATOM     59 H46  BRA L   1      15.102  -5.402  -0.822  1.00  0.00    +0.0432  H
ATOM     60 H47  BRA L   1      16.206  -3.580   0.298  1.00  0.00    +0.1182 HD
ATOM     61 H48  BRA L   1      14.830  -3.155   1.063  1.00  0.00    +0.1182 HD
ENDBRANCH 21 56
ENDBRANCH 17 21
ENDBRANCH 1 19
TORSDOF 8
ENDMDL
MODEL 20
REMARK VINA RESULT:    -6.897      1.736      2.618
REMARK INTER + INTRA:         -11.092
REMARK INTER:                  -9.738
REMARK INTRA:                  -1.353
REMARK UNBOUND:                -0.969
ROOT
ATOM      1 C20  BRA L   1      11.280  -5.360   2.072  1.00  0.00    +0.0423  A
ATOM      2 C21  BRA L   1      10.228  -6.120   2.577  1.00  0.00    -0.0377  A
ATOM      3 C22  BRA L   1       9.510  -5.678   3.693  1.00  0.00    -0.0506  A
ATOM      4 C23  BRA L   1       9.836  -4.464   4.321  1.00  0.00    +0.0004  A
ATOM      5 C24  BRA L   1       9.163  -3.981   5.446  1.00  0.00    +0.0353  A
ATOM      6 N25  BRA L   1       9.457  -2.820   6.077  1.00  0.00    -0.2626 NA
ATOM      7 C26  BRA L   1      10.469  -2.094   5.559  1.00  0.00    +0.0281  A
ATOM      8 C27  BRA L   1      11.204  -2.474   4.448  1.00  0.00    -0.0358  A
ATOM      9 C28  BRA L   1      10.889  -3.683   3.812  1.00  0.00    -0.0131  A
ATOM     10 C29  BRA L   1      11.598  -4.140   2.688  1.00  0.00    -0.0305  A
ATOM     11 H50  BRA L   1       9.944  -7.070   2.134  1.00  0.00    +0.0638  H
ATOM     12 H51  BRA L   1       8.696  -6.293   4.072  1.00  0.00    +0.0625  H
ATOM     13 H52  BRA L   1       8.340  -4.536   5.889  1.00  0.00    +0.0836  H
ATOM     14 H53  BRA L   1      10.684  -1.164   6.079  1.00  0.00    +0.0830  H
ATOM     15 H54  BRA L   1      12.007  -1.838   4.090  1.00  0.00    +0.0639  H
ATOM     16 H55  BRA L   1      12.417  -3.537   2.301  1.00  0.00    +0.0644  H
ENDROOT
BRANCH 1 19
ATOM     17 C17  BRA L   1      11.732  -5.824  -0.360  1.00  0.00    +0.2339  C
ATOM     18 O18  BRA L   1      10.664  -5.456  -0.846  1.00  0.00    -0.2722 OA
ATOM     19 N19  BRA L   1      12.081  -5.746   0.980  1.00  0.00    -0.3256  N
ATOM     20 H49  BRA L   1      13.011  -6.076   1.221  1.00  0.00    +0.1686 HD
BRANCH 17 21
ATOM     21 C14  BRA L   1      12.846  -6.382  -1.270  1.00  0.00    +0.0752  C
ATOM     22 H44  BRA L   1      13.064  -5.603  -2.014  1.00  0.00    +0.0458  H
BRANCH 21 26
ATOM     23 C10  BRA L   1      11.185  -9.620  -3.643  1.00  0.00    -0.0103  A
ATOM     24 C11  BRA L   1      11.954  -8.610  -4.231  1.00  0.00    -0.0551  A
ATOM     25 C12  BRA L   1      12.532  -7.613  -3.446  1.00  0.00    -0.0574  A
ATOM     26 C13  BRA L   1      12.357  -7.602  -2.050  1.00  0.00    -0.0341  A
ATOM     27 C30  BRA L   1      11.643  -8.654  -1.461  1.00  0.00    -0.0574  A
ATOM     28 C31  BRA L   1      11.060  -9.649  -2.250  1.00  0.00    -0.0551  A
ATOM     29 H42  BRA L   1      12.069  -8.569  -5.313  1.00  0.00    +0.0621  H
ATOM     30 H43  BRA L   1      13.085  -6.813  -3.937  1.00  0.00    +0.0621  H
ATOM     31 H56  BRA L   1      11.498  -8.704  -0.385  1.00  0.00    +0.0621  H
ATOM     32 H57  BRA L   1      10.471 -10.427  -1.768  1.00  0.00    +0.0621  H
BRANCH 23 33
ATOM     33  C9  BRA L   1      10.461 -10.626  -4.501  1.00  0.00    +0.1179  C
ATOM     34 H40  BRA L   1       9.526 -10.974  -4.044  1.00  0.00    +0.0749  H
ATOM     35 H41  BRA L   1      11.096 -11.510  -4.633  1.00  0.00    +0.0749  H
BRANCH 33 36
ATOM     36  O8  BRA L   1      10.213 -10.072  -5.801  1.00  0.00    -0.4564 OA
BRANCH 36 37
ATOM     37  C6  BRA L   1       8.982  -9.532  -5.971  1.00  0.00    +0.3398  C
ATOM     38  O7  BRA L   1       8.164  -9.270  -5.104  1.00  0.00    -0.2449 OA
BRANCH 37 43
ATOM     39  C1  BRA L   1       8.068  -8.369 -11.561  1.00  0.00    -0.0397  C
ATOM     40  C2  BRA L   1       8.308  -8.644 -10.104  1.00  0.00    -0.0502  A
ATOM     41  C3  BRA L   1       7.768  -9.785  -9.505  1.00  0.00    -0.0580  A
ATOM     42  C4  BRA L   1       8.011 -10.049  -8.158  1.00  0.00    -0.0473  A
ATOM     43  C5  BRA L   1       8.802  -9.178  -7.396  1.00  0.00    +0.0619  A
ATOM     44 C32  BRA L   1       9.391  -8.048  -7.991  1.00  0.00    -0.0362  A
ATOM     45 C33  BRA L   1      10.270  -7.099  -7.227  1.00  0.00    -0.0389  C
ATOM     46 C34  BRA L   1       9.124  -7.791  -9.346  1.00  0.00    -0.0551  A
ATOM     47 H35  BRA L   1       8.063  -7.292 -11.759  1.00  0.00    +0.0278  H
ATOM     48 H36  BRA L   1       7.098  -8.763 -11.878  1.00  0.00    +0.0278  H
ATOM     49 H37  BRA L   1       8.854  -8.836 -12.164  1.00  0.00    +0.0278  H
ATOM     50 H38  BRA L   1       7.146 -10.469 -10.080  1.00  0.00    +0.0620  H
ATOM     51 H39  BRA L   1       7.573 -10.931  -7.696  1.00  0.00    +0.0626  H
ATOM     52 H58  BRA L   1      10.900  -6.512  -7.904  1.00  0.00    +0.0278  H
ATOM     53 H59  BRA L   1      10.948  -7.642  -6.560  1.00  0.00    +0.0278  H
ATOM     54 H60  BRA L   1       9.660  -6.404  -6.641  1.00  0.00    +0.0278  H
ATOM     55 H61  BRA L   1       9.561  -6.914  -9.824  1.00  0.00    +0.0623  H
ENDBRANCH 37 43
ENDBRANCH 36 37
ENDBRANCH 33 36
ENDBRANCH 23 33
ENDBRANCH 21 26
BRANCH 21 56
ATOM     56 C15  BRA L   1      14.103  -6.541  -0.384  1.00  0.00    +0.0085  C
ATOM     57 N16  BRA L   1      14.892  -5.312  -0.243  1.00  0.00    -0.3289 NA
ATOM     58 H45  BRA L   1      13.799  -6.865   0.619  1.00  0.00    +0.0432  H
ATOM     59 H46  BRA L   1      14.755  -7.331  -0.776  1.00  0.00    +0.0432  H
ATOM     60 H47  BRA L   1      15.619  -5.455   0.458  1.00  0.00    +0.1182 HD
ATOM     61 H48  BRA L   1      14.299  -4.562   0.114  1.00  0.00    +0.1182 HD
ENDBRANCH 21 56
ENDBRANCH 17 21
ENDBRANCH 1 19
TORSDOF 8
ENDMDL
