MODEL 1
REMARK VINA RESULT:    -7.312      0.000      0.000
REMARK INTER + INTRA:         -12.172
REMARK INTER:                 -10.732
REMARK INTRA:                  -1.440
REMARK UNBOUND:                -1.440
ROOT
ATOM      1 C20  BRA L   1       8.852  -9.643  -6.366  1.00  0.00    +0.0423  A
ATOM      2 C21  BRA L   1       7.510  -9.679  -5.994  1.00  0.00    -0.0377  A
ATOM      3 C22  BRA L   1       6.506  -9.503  -6.952  1.00  0.00    -0.0506  A
ATOM      4 C23  BRA L   1       6.833  -9.287  -8.301  1.00  0.00    +0.0004  A
ATOM      5 C24  BRA L   1       5.873  -9.091  -9.297  1.00  0.00    +0.0353  A
ATOM      6 N25  BRA L   1       6.155  -8.874 -10.604  1.00  0.00    -0.2626 NA
ATOM      7 C26  BRA L   1       7.460  -8.860 -10.942  1.00  0.00    +0.0281  A
ATOM      8 C27  BRA L   1       8.496  -9.044 -10.039  1.00  0.00    -0.0358  A
ATOM      9 C28  BRA L   1       8.184  -9.260  -8.690  1.00  0.00    -0.0131  A
ATOM     10 C29  BRA L   1       9.180  -9.442  -7.716  1.00  0.00    -0.0305  A
ATOM     11 H50  BRA L   1       7.207  -9.832  -4.962  1.00  0.00    +0.0638  H
ATOM     12 H51  BRA L   1       5.466  -9.531  -6.634  1.00  0.00    +0.0625  H
ATOM     13 H52  BRA L   1       4.811  -9.100  -9.063  1.00  0.00    +0.0836  H
ATOM     14 H53  BRA L   1       7.663  -8.689 -11.996  1.00  0.00    +0.0830  H
ATOM     15 H54  BRA L   1       9.523  -9.016 -10.387  1.00  0.00    +0.0639  H
ATOM     16 H55  BRA L   1      10.225  -9.414  -8.019  1.00  0.00    +0.0644  H
ENDROOT
BRANCH 1 19
ATOM     17 C17  BRA L   1      10.911  -8.839  -5.163  1.00  0.00    +0.2339  C
ATOM     18 O18  BRA L   1      10.950  -7.678  -5.566  1.00  0.00    -0.2722 OA
ATOM     19 N19  BRA L   1       9.926  -9.769  -5.465  1.00  0.00    -0.3256  N
ATOM     20 H49  BRA L   1      10.027 -10.684  -5.037  1.00  0.00    +0.1686 HD
BRANCH 17 21
ATOM     21 C14  BRA L   1      11.991  -9.359  -4.192  1.00  0.00    +0.0752  C
ATOM     22 H44  BRA L   1      11.631 -10.325  -3.810  1.00  0.00    +0.0458  H
BRANCH 21 26
ATOM     23 C10  BRA L   1      12.073  -6.550  -0.880  1.00  0.00    -0.0103  A
ATOM     24 C11  BRA L   1      11.116  -7.569  -0.943  1.00  0.00    -0.0551  A
ATOM     25 C12  BRA L   1      11.143  -8.500  -1.981  1.00  0.00    -0.0574  A
ATOM     26 C13  BRA L   1      12.130  -8.437  -2.980  1.00  0.00    -0.0341  A
ATOM     27 C30  BRA L   1      13.125  -7.456  -2.874  1.00  0.00    -0.0574  A
ATOM     28 C31  BRA L   1      13.093  -6.520  -1.836  1.00  0.00    -0.0551  A
ATOM     29 H42  BRA L   1      10.316  -7.615  -0.207  1.00  0.00    +0.0621  H
ATOM     30 H43  BRA L   1      10.357  -9.253  -2.030  1.00  0.00    +0.0621  H
ATOM     31 H56  BRA L   1      13.922  -7.379  -3.608  1.00  0.00    +0.0621  H
ATOM     32 H57  BRA L   1      13.852  -5.740  -1.806  1.00  0.00    +0.0621  H
BRANCH 23 33
ATOM     33  C9  BRA L   1      11.973  -5.473   0.171  1.00  0.00    +0.1179  C
ATOM     34 H40  BRA L   1      11.747  -4.487  -0.257  1.00  0.00    +0.0749  H
ATOM     35 H41  BRA L   1      12.937  -5.381   0.685  1.00  0.00    +0.0749  H
BRANCH 33 36
ATOM     36  O8  BRA L   1      10.991  -5.836   1.152  1.00  0.00    -0.4564 OA
BRANCH 36 37
ATOM     37  C6  BRA L   1      11.464  -5.976   2.414  1.00  0.00    +0.3398  C
ATOM     38  O7  BRA L   1      12.272  -6.798   2.813  1.00  0.00    -0.2449 OA
BRANCH 37 43
ATOM     39  C1  BRA L   1       9.160  -1.852   5.748  1.00  0.00    -0.0397  C
ATOM     40  C2  BRA L   1       9.783  -2.917   4.892  1.00  0.00    -0.0502  A
ATOM     41  C3  BRA L   1       9.044  -4.043   4.519  1.00  0.00    -0.0580  A
ATOM     42  C4  BRA L   1       9.618  -5.018   3.706  1.00  0.00    -0.0473  A
ATOM     43  C5  BRA L   1      10.937  -4.876   3.252  1.00  0.00    +0.0619  A
ATOM     44 C32  BRA L   1      11.683  -3.730   3.579  1.00  0.00    -0.0362  A
ATOM     45 C33  BRA L   1      13.089  -3.516   3.095  1.00  0.00    -0.0389  C
ATOM     46 C34  BRA L   1      11.092  -2.763   4.411  1.00  0.00    -0.0551  A
ATOM     47 H35  BRA L   1       9.915  -1.359   6.369  1.00  0.00    +0.0278  H
ATOM     48 H36  BRA L   1       8.413  -2.281   6.423  1.00  0.00    +0.0278  H
ATOM     49 H37  BRA L   1       8.676  -1.101   5.116  1.00  0.00    +0.0278  H
ATOM     50 H38  BRA L   1       8.021  -4.171   4.868  1.00  0.00    +0.0620  H
ATOM     51 H39  BRA L   1       9.041  -5.898   3.434  1.00  0.00    +0.0626  H
ATOM     52 H58  BRA L   1      13.367  -2.457   3.146  1.00  0.00    +0.0278  H
ATOM     53 H59  BRA L   1      13.193  -3.818   2.047  1.00  0.00    +0.0278  H
ATOM     54 H60  BRA L   1      13.794  -4.083   3.711  1.00  0.00    +0.0278  H
ATOM     55 H61  BRA L   1      11.656  -1.873   4.686  1.00  0.00    +0.0623  H
ENDBRANCH 37 43
ENDBRANCH 36 37
ENDBRANCH 33 36
ENDBRANCH 23 33
ENDBRANCH 21 26
BRANCH 21 56
ATOM     56 C15  BRA L   1      13.252  -9.640  -5.041  1.00  0.00    +0.0085  C
ATOM     57 N16  BRA L   1      12.989  -9.753  -6.480  1.00  0.00    -0.3289 NA
ATOM     58 H45  BRA L   1      13.975  -8.827  -4.893  1.00  0.00    +0.0432  H
ATOM     59 H46  BRA L   1      13.750 -10.557  -4.704  1.00  0.00    +0.0432  H
ATOM     60 H47  BRA L   1      13.875  -9.798  -6.984  1.00  0.00    +0.1182 HD
ATOM     61 H48  BRA L   1      12.519  -8.910  -6.811  1.00  0.00    +0.1182 HD
ENDBRANCH 21 56
ENDBRANCH 17 21
ENDBRANCH 1 19
TORSDOF 8
ENDMDL
MODEL 2
REMARK VINA RESULT:    -7.303      3.583     11.271
REMARK INTER + INTRA:         -12.158
REMARK INTER:                 -11.082
REMARK INTRA:                  -1.076
REMARK UNBOUND:                -1.440
ROOT
ATOM      1 C20  BRA L   1      10.560  -4.520   3.115  1.00  0.00    +0.0423  A
ATOM      2 C21  BRA L   1      10.597  -3.425   3.975  1.00  0.00    -0.0377  A
ATOM      3 C22  BRA L   1       9.927  -3.468   5.203  1.00  0.00    -0.0506  A
ATOM      4 C23  BRA L   1       9.209  -4.612   5.587  1.00  0.00    +0.0004  A
ATOM      5 C24  BRA L   1       8.510  -4.705   6.793  1.00  0.00    +0.0353  A
ATOM      6 N25  BRA L   1       7.803  -5.790   7.190  1.00  0.00    -0.2626 NA
ATOM      7 C26  BRA L   1       7.796  -6.844   6.348  1.00  0.00    +0.0281  A
ATOM      8 C27  BRA L   1       8.454  -6.863   5.128  1.00  0.00    -0.0358  A
ATOM      9 C28  BRA L   1       9.174  -5.728   4.732  1.00  0.00    -0.0131  A
ATOM     10 C29  BRA L   1       9.855  -5.669   3.504  1.00  0.00    -0.0305  A
ATOM     11 H50  BRA L   1      11.130  -2.514   3.719  1.00  0.00    +0.0638  H
ATOM     12 H51  BRA L   1       9.967  -2.597   5.854  1.00  0.00    +0.0625  H
ATOM     13 H52  BRA L   1       8.495  -3.879   7.500  1.00  0.00    +0.0836  H
ATOM     14 H53  BRA L   1       7.227  -7.705   6.688  1.00  0.00    +0.0830  H
ATOM     15 H54  BRA L   1       8.400  -7.748   4.502  1.00  0.00    +0.0639  H
ATOM     16 H55  BRA L   1       9.822  -6.532   2.842  1.00  0.00    +0.0644  H
ENDROOT
BRANCH 1 19
ATOM     17 C17  BRA L   1      12.340  -5.192   1.468  1.00  0.00    +0.2339  C
ATOM     18 O18  BRA L   1      13.001  -5.952   2.171  1.00  0.00    -0.2722 OA
ATOM     19 N19  BRA L   1      11.170  -4.549   1.847  1.00  0.00    -0.3256  N
ATOM     20 H49  BRA L   1      10.730  -3.966   1.142  1.00  0.00    +0.1686 HD
BRANCH 17 21
ATOM     21 C14  BRA L   1      12.759  -4.925   0.007  1.00  0.00    +0.0752  C
ATOM     22 H44  BRA L   1      12.112  -4.116  -0.363  1.00  0.00    +0.0458  H
BRANCH 21 26
ATOM     23 C10  BRA L   1      11.881  -8.134  -2.787  1.00  0.00    -0.0103  A
ATOM     24 C11  BRA L   1      13.062  -7.390  -2.885  1.00  0.00    -0.0551  A
ATOM     25 C12  BRA L   1      13.358  -6.405  -1.942  1.00  0.00    -0.0574  A
ATOM     26 C13  BRA L   1      12.480  -6.142  -0.875  1.00  0.00    -0.0341  A
ATOM     27 C30  BRA L   1      11.333  -6.937  -0.745  1.00  0.00    -0.0574  A
ATOM     28 C31  BRA L   1      11.036  -7.919  -1.694  1.00  0.00    -0.0551  A
ATOM     29 H42  BRA L   1      13.738  -7.543  -3.725  1.00  0.00    +0.0621  H
ATOM     30 H43  BRA L   1      14.260  -5.810  -2.072  1.00  0.00    +0.0621  H
ATOM     31 H56  BRA L   1      10.634  -6.788   0.074  1.00  0.00    +0.0621  H
ATOM     32 H57  BRA L   1      10.114  -8.488  -1.592  1.00  0.00    +0.0621  H
BRANCH 23 33
ATOM     33  C9  BRA L   1      11.503  -9.112  -3.870  1.00  0.00    +0.1179  C
ATOM     34 H40  BRA L   1      11.057 -10.032  -3.470  1.00  0.00    +0.0749  H
ATOM     35 H41  BRA L   1      12.405  -9.410  -4.417  1.00  0.00    +0.0749  H
BRANCH 33 36
ATOM     36  O8  BRA L   1      10.615  -8.485  -4.807  1.00  0.00    -0.4564 OA
BRANCH 36 37
ATOM     37  C6  BRA L   1      11.134  -8.280  -6.042  1.00  0.00    +0.3398  C
ATOM     38  O7  BRA L   1      12.307  -8.121  -6.333  1.00  0.00    -0.2449 OA
BRANCH 37 43
ATOM     39  C1  BRA L   1       6.784  -8.974  -9.788  1.00  0.00    -0.0397  C
ATOM     40  C2  BRA L   1       7.913  -8.767  -8.820  1.00  0.00    -0.0502  A
ATOM     41  C3  BRA L   1       8.111  -9.664  -7.767  1.00  0.00    -0.0580  A
ATOM     42  C4  BRA L   1       9.173  -9.482  -6.884  1.00  0.00    -0.0473  A
ATOM     43  C5  BRA L   1      10.053  -8.402  -7.045  1.00  0.00    +0.0619  A
ATOM     44 C32  BRA L   1       9.897  -7.512  -8.123  1.00  0.00    -0.0362  A
ATOM     45 C33  BRA L   1      10.828  -6.357  -8.359  1.00  0.00    -0.0389  C
ATOM     46 C34  BRA L   1       8.813  -7.705  -8.997  1.00  0.00    -0.0551  A
ATOM     47 H35  BRA L   1       6.427  -8.017 -10.182  1.00  0.00    +0.0278  H
ATOM     48 H36  BRA L   1       5.934  -9.462  -9.300  1.00  0.00    +0.0278  H
ATOM     49 H37  BRA L   1       7.118  -9.598 -10.623  1.00  0.00    +0.0278  H
ATOM     50 H38  BRA L   1       7.434 -10.504  -7.623  1.00  0.00    +0.0620  H
ATOM     51 H39  BRA L   1       9.310 -10.176  -6.058  1.00  0.00    +0.0626  H
ATOM     52 H58  BRA L   1      10.770  -6.008  -9.395  1.00  0.00    +0.0278  H
ATOM     53 H59  BRA L   1      11.869  -6.650  -8.184  1.00  0.00    +0.0278  H
ATOM     54 H60  BRA L   1      10.569  -5.520  -7.702  1.00  0.00    +0.0278  H
ATOM     55 H61  BRA L   1       8.667  -7.021  -9.832  1.00  0.00    +0.0623  H
ENDBRANCH 37 43
ENDBRANCH 36 37
ENDBRANCH 33 36
ENDBRANCH 23 33
ENDBRANCH 21 26
BRANCH 21 56
ATOM     56 C15  BRA L   1      14.204  -4.377   0.054  1.00  0.00    +0.0085  C
ATOM     57 N16  BRA L   1      14.477  -3.515   1.208  1.00  0.00    -0.3289 NA
ATOM     58 H45  BRA L   1      14.908  -5.218   0.085  1.00  0.00    +0.0432  H
ATOM     59 H46  BRA L   1      14.435  -3.818  -0.862  1.00  0.00    +0.0432  H
ATOM     60 H47  BRA L   1      15.475  -3.307   1.247  1.00  0.00    +0.1182 HD
ATOM     61 H48  BRA L   1      14.260  -4.016   2.071  1.00  0.00    +0.1182 HD
ENDBRANCH 21 56
ENDBRANCH 17 21
ENDBRANCH 1 19
TORSDOF 8
ENDMDL
MODEL 3
REMARK VINA RESULT:    -7.281      0.343      1.243
REMARK INTER + INTRA:         -12.125
REMARK INTER:                 -10.751
REMARK INTRA:                  -1.374
REMARK UNBOUND:                -1.440
ROOT
ATOM      1 C20  BRA L   1       8.935  -9.636  -6.238  1.00  0.00    +0.0423  A
ATOM      2 C21  BRA L   1       7.590  -9.747  -5.890  1.00  0.00    -0.0377  A
ATOM      3 C22  BRA L   1       6.594  -9.580  -6.858  1.00  0.00    -0.0506  A
ATOM      4 C23  BRA L   1       6.932  -9.298  -8.192  1.00  0.00    +0.0004  A
ATOM      5 C24  BRA L   1       5.980  -9.107  -9.197  1.00  0.00    +0.0353  A
ATOM      6 N25  BRA L   1       6.272  -8.828 -10.490  1.00  0.00    -0.2626 NA
ATOM      7 C26  BRA L   1       7.580  -8.743 -10.805  1.00  0.00    +0.0281  A
ATOM      8 C27  BRA L   1       8.609  -8.914  -9.892  1.00  0.00    -0.0358  A
ATOM      9 C28  BRA L   1       8.286  -9.195  -8.557  1.00  0.00    -0.0131  A
ATOM     10 C29  BRA L   1       9.274  -9.369  -7.573  1.00  0.00    -0.0305  A
ATOM     11 H50  BRA L   1       7.278  -9.953  -4.871  1.00  0.00    +0.0638  H
ATOM     12 H51  BRA L   1       5.551  -9.666  -6.560  1.00  0.00    +0.0625  H
ATOM     13 H52  BRA L   1       4.916  -9.173  -8.982  1.00  0.00    +0.0836  H
ATOM     14 H53  BRA L   1       7.792  -8.523 -11.848  1.00  0.00    +0.0830  H
ATOM     15 H54  BRA L   1       9.639  -8.827 -10.220  1.00  0.00    +0.0639  H
ATOM     16 H55  BRA L   1      10.321  -9.283  -7.857  1.00  0.00    +0.0644  H
ENDROOT
BRANCH 1 19
ATOM     17 C17  BRA L   1      10.995  -8.823  -5.044  1.00  0.00    +0.2339  C
ATOM     18 O18  BRA L   1      11.054  -7.676  -5.483  1.00  0.00    -0.2722 OA
ATOM     19 N19  BRA L   1       9.999  -9.748  -5.323  1.00  0.00    -0.3256  N
ATOM     20 H49  BRA L   1      10.083 -10.650  -4.865  1.00  0.00    +0.1686 HD
BRANCH 17 21
ATOM     21 C14  BRA L   1      12.060  -9.327  -4.047  1.00  0.00    +0.0752  C
ATOM     22 H44  BRA L   1      11.694 -10.287  -3.656  1.00  0.00    +0.0458  H
BRANCH 21 26
ATOM     23 C10  BRA L   1      12.100  -6.450  -0.792  1.00  0.00    -0.0103  A
ATOM     24 C11  BRA L   1      11.092  -7.415  -0.894  1.00  0.00    -0.0551  A
ATOM     25 C12  BRA L   1      11.129  -8.371  -1.909  1.00  0.00    -0.0574  A
ATOM     26 C13  BRA L   1      12.177  -8.386  -2.847  1.00  0.00    -0.0341  A
ATOM     27 C30  BRA L   1      13.217  -7.459  -2.699  1.00  0.00    -0.0574  A
ATOM     28 C31  BRA L   1      13.176  -6.499  -1.684  1.00  0.00    -0.0551  A
ATOM     29 H42  BRA L   1      10.248  -7.400  -0.207  1.00  0.00    +0.0621  H
ATOM     30 H43  BRA L   1      10.307  -9.080  -1.992  1.00  0.00    +0.0621  H
ATOM     31 H56  BRA L   1      14.061  -7.443  -3.384  1.00  0.00    +0.0621  H
ATOM     32 H57  BRA L   1      13.974  -5.762  -1.622  1.00  0.00    +0.0621  H
BRANCH 23 33
ATOM     33  C9  BRA L   1      11.998  -5.345   0.229  1.00  0.00    +0.1179  C
ATOM     34 H40  BRA L   1      11.872  -4.357  -0.232  1.00  0.00    +0.0749  H
ATOM     35 H41  BRA L   1      12.925  -5.307   0.812  1.00  0.00    +0.0749  H
BRANCH 33 36
ATOM     36  O8  BRA L   1      10.923  -5.619   1.140  1.00  0.00    -0.4564 OA
BRANCH 36 37
ATOM     37  C6  BRA L   1      11.301  -5.845   2.422  1.00  0.00    +0.3398  C
ATOM     38  O7  BRA L   1      12.089  -6.685   2.823  1.00  0.00    -0.2449 OA
BRANCH 37 43
ATOM     39  C1  BRA L   1       9.168  -1.629   5.755  1.00  0.00    -0.0397  C
ATOM     40  C2  BRA L   1       9.696  -2.729   4.882  1.00  0.00    -0.0502  A
ATOM     41  C3  BRA L   1      10.989  -2.652   4.356  1.00  0.00    -0.0580  A
ATOM     42  C4  BRA L   1      11.484  -3.686   3.564  1.00  0.00    -0.0473  A
ATOM     43  C5  BRA L   1      10.695  -4.813   3.293  1.00  0.00    +0.0619  A
ATOM     44 C32  BRA L   1       9.408  -4.930   3.848  1.00  0.00    -0.0362  A
ATOM     45 C33  BRA L   1       8.533  -6.129   3.613  1.00  0.00    -0.0389  C
ATOM     46 C34  BRA L   1       8.921  -3.872   4.634  1.00  0.00    -0.0551  A
ATOM     47 H35  BRA L   1       8.081  -1.539   5.655  1.00  0.00    +0.0278  H
ATOM     48 H36  BRA L   1       9.601  -0.664   5.474  1.00  0.00    +0.0278  H
ATOM     49 H37  BRA L   1       9.411  -1.833   6.803  1.00  0.00    +0.0278  H
ATOM     50 H38  BRA L   1      11.613  -1.782   4.551  1.00  0.00    +0.0620  H
ATOM     51 H39  BRA L   1      12.485  -3.610   3.145  1.00  0.00    +0.0626  H
ATOM     52 H58  BRA L   1       7.754  -6.205   4.379  1.00  0.00    +0.0278  H
ATOM     53 H59  BRA L   1       9.115  -7.056   3.664  1.00  0.00    +0.0278  H
ATOM     54 H60  BRA L   1       8.045  -6.057   2.636  1.00  0.00    +0.0278  H
ATOM     55 H61  BRA L   1       7.922  -3.938   5.064  1.00  0.00    +0.0623  H
ENDBRANCH 37 43
ENDBRANCH 36 37
ENDBRANCH 33 36
ENDBRANCH 23 33
ENDBRANCH 21 26
BRANCH 21 56
ATOM     56 C15  BRA L   1      13.335  -9.618  -4.870  1.00  0.00    +0.0085  C
ATOM     57 N16  BRA L   1      13.125  -9.603  -6.321  1.00  0.00    -0.3289 NA
ATOM     58 H45  BRA L   1      14.098  -8.867  -4.631  1.00  0.00    +0.0432  H
ATOM     59 H46  BRA L   1      13.764 -10.589  -4.590  1.00  0.00    +0.0432  H
ATOM     60 H47  BRA L   1      14.026  -9.664  -6.796  1.00  0.00    +0.1182 HD
ATOM     61 H48  BRA L   1      12.719  -8.709  -6.601  1.00  0.00    +0.1182 HD
ENDBRANCH 21 56
ENDBRANCH 17 21
ENDBRANCH 1 19
TORSDOF 8
ENDMDL
MODEL 4
REMARK VINA RESULT:    -7.229      3.565     11.360
REMARK INTER + INTRA:         -12.049
REMARK INTER:                 -11.153
REMARK INTRA:                  -0.896
REMARK UNBOUND:                -1.440
ROOT
ATOM      1 C20  BRA L   1      10.701  -4.714   2.787  1.00  0.00    +0.0423  A
ATOM      2 C21  BRA L   1      10.388  -5.832   3.556  1.00  0.00    -0.0377  A
ATOM      3 C22  BRA L   1       9.776  -5.682   4.805  1.00  0.00    -0.0506  A
ATOM      4 C23  BRA L   1       9.468  -4.405   5.303  1.00  0.00    +0.0004  A
ATOM      5 C24  BRA L   1       8.871  -4.194   6.548  1.00  0.00    +0.0353  A
ATOM      6 N25  BRA L   1       8.568  -2.977   7.059  1.00  0.00    -0.2626 NA
ATOM      7 C26  BRA L   1       8.864  -1.911   6.288  1.00  0.00    +0.0281  A
ATOM      8 C27  BRA L   1       9.455  -2.001   5.038  1.00  0.00    -0.0358  A
ATOM      9 C28  BRA L   1       9.769  -3.269   4.530  1.00  0.00    -0.0131  A
ATOM     10 C29  BRA L   1      10.380  -3.438   3.276  1.00  0.00    -0.0305  A
ATOM     11 H50  BRA L   1      10.616  -6.839   3.220  1.00  0.00    +0.0638  H
ATOM     12 H51  BRA L   1       9.548  -6.571   5.389  1.00  0.00    +0.0625  H
ATOM     13 H52  BRA L   1       8.613  -5.029   7.195  1.00  0.00    +0.0836  H
ATOM     14 H53  BRA L   1       8.608  -0.946   6.716  1.00  0.00    +0.0830  H
ATOM     15 H54  BRA L   1       9.667  -1.097   4.477  1.00  0.00    +0.0639  H
ATOM     16 H55  BRA L   1      10.618  -2.558   2.682  1.00  0.00    +0.0644  H
ENDROOT
BRANCH 1 19
ATOM     17 C17  BRA L   1      12.641  -5.201   1.260  1.00  0.00    +0.2339  C
ATOM     18 O18  BRA L   1      13.414  -5.721   2.062  1.00  0.00    -0.2722 OA
ATOM     19 N19  BRA L   1      11.352  -4.770   1.540  1.00  0.00    -0.3256  N
ATOM     20 H49  BRA L   1      10.832  -4.377   0.762  1.00  0.00    +0.1686 HD
BRANCH 17 21
ATOM     21 C14  BRA L   1      13.055  -5.030  -0.216  1.00  0.00    +0.0752  C
ATOM     22 H44  BRA L   1      12.475  -4.183  -0.610  1.00  0.00    +0.0458  H
BRANCH 21 26
ATOM     23 C10  BRA L   1      11.820  -8.256  -2.852  1.00  0.00    -0.0103  A
ATOM     24 C11  BRA L   1      13.021  -7.569  -3.060  1.00  0.00    -0.0551  A
ATOM     25 C12  BRA L   1      13.433  -6.579  -2.168  1.00  0.00    -0.0574  A
ATOM     26 C13  BRA L   1      12.654  -6.252  -1.044  1.00  0.00    -0.0341  A
ATOM     27 C30  BRA L   1      11.487  -6.990  -0.805  1.00  0.00    -0.0574  A
ATOM     28 C31  BRA L   1      11.073  -7.978  -1.702  1.00  0.00    -0.0551  A
ATOM     29 H42  BRA L   1      13.622  -7.772  -3.945  1.00  0.00    +0.0621  H
ATOM     30 H43  BRA L   1      14.348  -6.028  -2.382  1.00  0.00    +0.0621  H
ATOM     31 H56  BRA L   1      10.862  -6.792   0.062  1.00  0.00    +0.0621  H
ATOM     32 H57  BRA L   1      10.138  -8.503  -1.515  1.00  0.00    +0.0621  H
BRANCH 23 33
ATOM     33  C9  BRA L   1      11.315  -9.239  -3.878  1.00  0.00    +0.1179  C
ATOM     34 H40  BRA L   1      10.745 -10.061  -3.427  1.00  0.00    +0.0749  H
ATOM     35 H41  BRA L   1      12.170  -9.693  -4.393  1.00  0.00    +0.0749  H
BRANCH 33 36
ATOM     36  O8  BRA L   1      10.527  -8.556  -4.863  1.00  0.00    -0.4564 OA
BRANCH 36 37
ATOM     37  C6  BRA L   1      11.083  -8.489  -6.098  1.00  0.00    +0.3398  C
ATOM     38  O7  BRA L   1      12.271  -8.505  -6.375  1.00  0.00    -0.2449 OA
BRANCH 37 43
ATOM     39  C1  BRA L   1       6.743  -8.817  -9.904  1.00  0.00    -0.0397  C
ATOM     40  C2  BRA L   1       7.870  -8.705  -8.918  1.00  0.00    -0.0502  A
ATOM     41  C3  BRA L   1       8.023  -9.661  -7.911  1.00  0.00    -0.0580  A
ATOM     42  C4  BRA L   1       9.084  -9.566  -7.012  1.00  0.00    -0.0473  A
ATOM     43  C5  BRA L   1      10.008  -8.516  -7.113  1.00  0.00    +0.0619  A
ATOM     44 C32  BRA L   1       9.897  -7.569  -8.146  1.00  0.00    -0.0362  A
ATOM     45 C33  BRA L   1      10.877  -6.442  -8.317  1.00  0.00    -0.0389  C
ATOM     46 C34  BRA L   1       8.814  -7.673  -9.036  1.00  0.00    -0.0551  A
ATOM     47 H35  BRA L   1       6.428  -7.828 -10.251  1.00  0.00    +0.0278  H
ATOM     48 H36  BRA L   1       5.870  -9.293  -9.446  1.00  0.00    +0.0278  H
ATOM     49 H37  BRA L   1       7.058  -9.412 -10.766  1.00  0.00    +0.0278  H
ATOM     50 H38  BRA L   1       7.311 -10.479  -7.814  1.00  0.00    +0.0620  H
ATOM     51 H39  BRA L   1       9.185 -10.305  -6.221  1.00  0.00    +0.0626  H
ATOM     52 H58  BRA L   1      10.842  -6.040  -9.336  1.00  0.00    +0.0278  H
ATOM     53 H59  BRA L   1      11.903  -6.785  -8.150  1.00  0.00    +0.0278  H
ATOM     54 H60  BRA L   1      10.645  -5.629  -7.622  1.00  0.00    +0.0278  H
ATOM     55 H61  BRA L   1       8.703  -6.942  -9.837  1.00  0.00    +0.0623  H
ENDBRANCH 37 43
ENDBRANCH 36 37
ENDBRANCH 33 36
ENDBRANCH 23 33
ENDBRANCH 21 26
BRANCH 21 56
ATOM     56 C15  BRA L   1      14.543  -4.610  -0.214  1.00  0.00    +0.0085  C
ATOM     57 N16  BRA L   1      14.842  -3.482   0.673  1.00  0.00    -0.3289 NA
ATOM     58 H45  BRA L   1      15.158  -5.462   0.102  1.00  0.00    +0.0432  H
ATOM     59 H46  BRA L   1      14.874  -4.354  -1.229  1.00  0.00    +0.0432  H
ATOM     60 H47  BRA L   1      15.853  -3.353   0.728  1.00  0.00    +0.1182 HD
ATOM     61 H48  BRA L   1      14.534  -3.700   1.622  1.00  0.00    +0.1182 HD
ENDBRANCH 21 56
ENDBRANCH 17 21
ENDBRANCH 1 19
TORSDOF 8
ENDMDL
MODEL 5
REMARK VINA RESULT:    -7.207      1.125      2.198
REMARK INTER + INTRA:         -12.017
REMARK INTER:                 -11.153
REMARK INTRA:                  -0.865
REMARK UNBOUND:                -1.440
ROOT
ATOM      1 C20  BRA L   1      10.208  -8.517  -6.697  1.00  0.00    +0.0423  A
ATOM      2 C21  BRA L   1      10.819  -7.878  -7.774  1.00  0.00    -0.0377  A
ATOM      3 C22  BRA L   1      10.135  -7.723  -8.984  1.00  0.00    -0.0506  A
ATOM      4 C23  BRA L   1       8.826  -8.208  -9.134  1.00  0.00    +0.0004  A
ATOM      5 C24  BRA L   1       8.101  -8.095 -10.323  1.00  0.00    +0.0353  A
ATOM      6 N25  BRA L   1       6.840  -8.557 -10.502  1.00  0.00    -0.2626 NA
ATOM      7 C26  BRA L   1       6.264  -9.157  -9.441  1.00  0.00    +0.0281  A
ATOM      8 C27  BRA L   1       6.888  -9.324  -8.214  1.00  0.00    -0.0358  A
ATOM      9 C28  BRA L   1       8.194  -8.845  -8.051  1.00  0.00    -0.0131  A
ATOM     10 C29  BRA L   1       8.895  -8.990  -6.841  1.00  0.00    -0.0305  A
ATOM     11 H50  BRA L   1      11.833  -7.495  -7.711  1.00  0.00    +0.0638  H
ATOM     12 H51  BRA L   1      10.637  -7.225  -9.811  1.00  0.00    +0.0625  H
ATOM     13 H52  BRA L   1       8.530  -7.613 -11.199  1.00  0.00    +0.0836  H
ATOM     14 H53  BRA L   1       5.252  -9.516  -9.605  1.00  0.00    +0.0830  H
ATOM     15 H54  BRA L   1       6.360  -9.821  -7.406  1.00  0.00    +0.0639  H
ATOM     16 H55  BRA L   1       8.406  -9.489  -6.006  1.00  0.00    +0.0644  H
ENDROOT
BRANCH 1 19
ATOM     17 C17  BRA L   1      12.031  -8.233  -4.986  1.00  0.00    +0.2339  C
ATOM     18 O18  BRA L   1      12.710  -7.372  -5.544  1.00  0.00    -0.2722 OA
ATOM     19 N19  BRA L   1      10.835  -8.753  -5.459  1.00  0.00    -0.3256  N
ATOM     20 H49  BRA L   1      10.384  -9.446  -4.871  1.00  0.00    +0.1686 HD
BRANCH 17 21
ATOM     21 C14  BRA L   1      12.460  -8.789  -3.613  1.00  0.00    +0.0752  C
ATOM     22 H44  BRA L   1      11.758  -9.600  -3.369  1.00  0.00    +0.0458  H
BRANCH 21 26
ATOM     23 C10  BRA L   1      12.292  -5.972  -0.311  1.00  0.00    -0.0103  A
ATOM     24 C11  BRA L   1      13.343  -5.945  -1.234  1.00  0.00    -0.0551  A
ATOM     25 C12  BRA L   1      13.349  -6.815  -2.324  1.00  0.00    -0.0574  A
ATOM     26 C13  BRA L   1      12.302  -7.733  -2.519  1.00  0.00    -0.0341  A
ATOM     27 C30  BRA L   1      11.220  -7.709  -1.628  1.00  0.00    -0.0574  A
ATOM     28 C31  BRA L   1      11.219  -6.840  -0.533  1.00  0.00    -0.0551  A
ATOM     29 H42  BRA L   1      14.187  -5.273  -1.084  1.00  0.00    +0.0621  H
ATOM     30 H43  BRA L   1      14.203  -6.804  -3.000  1.00  0.00    +0.0621  H
ATOM     31 H56  BRA L   1      10.376  -8.383  -1.747  1.00  0.00    +0.0621  H
ATOM     32 H57  BRA L   1      10.387  -6.876   0.168  1.00  0.00    +0.0621  H
BRANCH 23 33
ATOM     33  C9  BRA L   1      12.345  -5.117   0.931  1.00  0.00    +0.1179  C
ATOM     34 H40  BRA L   1      12.580  -4.068   0.711  1.00  0.00    +0.0749  H
ATOM     35 H41  BRA L   1      13.139  -5.488   1.589  1.00  0.00    +0.0749  H
BRANCH 33 36
ATOM     36  O8  BRA L   1      11.106  -5.219   1.647  1.00  0.00    -0.4564 OA
BRANCH 36 37
ATOM     37  C6  BRA L   1      11.220  -5.605   2.942  1.00  0.00    +0.3398  C
ATOM     38  O7  BRA L   1      11.850  -6.554   3.376  1.00  0.00    -0.2449 OA
BRANCH 37 43
ATOM     39  C1  BRA L   1       8.806  -1.506   6.230  1.00  0.00    -0.0397  C
ATOM     40  C2  BRA L   1       9.408  -2.579   5.369  1.00  0.00    -0.0502  A
ATOM     41  C3  BRA L   1      10.674  -2.402   4.805  1.00  0.00    -0.0580  A
ATOM     42  C4  BRA L   1      11.239  -3.409   4.025  1.00  0.00    -0.0473  A
ATOM     43  C5  BRA L   1      10.546  -4.608   3.803  1.00  0.00    +0.0619  A
ATOM     44 C32  BRA L   1       9.290  -4.824   4.397  1.00  0.00    -0.0362  A
ATOM     45 C33  BRA L   1       8.520  -6.101   4.215  1.00  0.00    -0.0389  C
ATOM     46 C34  BRA L   1       8.731  -3.792   5.170  1.00  0.00    -0.0551  A
ATOM     47 H35  BRA L   1       7.714  -1.516   6.158  1.00  0.00    +0.0278  H
ATOM     48 H36  BRA L   1       9.145  -0.515   5.913  1.00  0.00    +0.0278  H
ATOM     49 H37  BRA L   1       9.093  -1.661   7.274  1.00  0.00    +0.0278  H
ATOM     50 H38  BRA L   1      11.223  -1.476   4.961  1.00  0.00    +0.0620  H
ATOM     51 H39  BRA L   1      12.218  -3.256   3.577  1.00  0.00    +0.0626  H
ATOM     52 H58  BRA L   1       7.770  -6.225   5.005  1.00  0.00    +0.0278  H
ATOM     53 H59  BRA L   1       9.183  -6.971   4.272  1.00  0.00    +0.0278  H
ATOM     54 H60  BRA L   1       8.002  -6.098   3.251  1.00  0.00    +0.0278  H
ATOM     55 H61  BRA L   1       7.753  -3.934   5.630  1.00  0.00    +0.0623  H
ENDBRANCH 37 43
ENDBRANCH 36 37
ENDBRANCH 33 36
ENDBRANCH 23 33
ENDBRANCH 21 26
BRANCH 21 56
ATOM     56 C15  BRA L   1      13.854  -9.429  -3.809  1.00  0.00    +0.0085  C
ATOM     57 N16  BRA L   1      14.120  -9.869  -5.183  1.00  0.00    -0.3289 NA
ATOM     58 H45  BRA L   1      14.627  -8.702  -3.531  1.00  0.00    +0.0432  H
ATOM     59 H46  BRA L   1      13.985 -10.286  -3.137  1.00  0.00    +0.0432  H
ATOM     60 H47  BRA L   1      15.097 -10.149  -5.266  1.00  0.00    +0.1182 HD
ATOM     61 H48  BRA L   1      13.996  -9.085  -5.825  1.00  0.00    +0.1182 HD
ENDBRANCH 21 56
ENDBRANCH 17 21
ENDBRANCH 1 19
TORSDOF 8
ENDMDL
MODEL 6
REMARK VINA RESULT:    -7.124      6.959      8.926
REMARK INTER + INTRA:         -11.896
REMARK INTER:                  -8.627
REMARK INTRA:                  -3.268
REMARK UNBOUND:                -1.440
ROOT
ATOM      1 C20  BRA L   1       9.017 -10.083 -11.354  1.00  0.00    +0.0423  A
ATOM      2 C21  BRA L   1       9.093 -11.249 -10.597  1.00  0.00    -0.0377  A
ATOM      3 C22  BRA L   1       7.930 -11.849 -10.103  1.00  0.00    -0.0506  A
ATOM      4 C23  BRA L   1       6.669 -11.286 -10.362  1.00  0.00    +0.0004  A
ATOM      5 C24  BRA L   1       5.476 -11.834  -9.883  1.00  0.00    +0.0353  A
ATOM      6 N25  BRA L   1       4.246 -11.313 -10.109  1.00  0.00    -0.2626 NA
ATOM      7 C26  BRA L   1       4.197 -10.193 -10.858  1.00  0.00    +0.0281  A
ATOM      8 C27  BRA L   1       5.314  -9.565 -11.386  1.00  0.00    -0.0358  A
ATOM      9 C28  BRA L   1       6.578 -10.115 -11.135  1.00  0.00    -0.0131  A
ATOM     10 C29  BRA L   1       7.757  -9.528 -11.626  1.00  0.00    -0.0305  A
ATOM     11 H50  BRA L   1      10.045 -11.717 -10.361  1.00  0.00    +0.0638  H
ATOM     12 H51  BRA L   1       8.017 -12.757  -9.510  1.00  0.00    +0.0625  H
ATOM     13 H52  BRA L   1       5.475 -12.738  -9.280  1.00  0.00    +0.0836  H
ATOM     14 H53  BRA L   1       3.200  -9.795 -11.031  1.00  0.00    +0.0830  H
ATOM     15 H54  BRA L   1       5.195  -8.663 -11.978  1.00  0.00    +0.0639  H
ATOM     16 H55  BRA L   1       7.684  -8.618 -12.218  1.00  0.00    +0.0644  H
ENDROOT
BRANCH 1 19
ATOM     17 C17  BRA L   1      10.603  -9.339 -13.160  1.00  0.00    +0.2339  C
ATOM     18 O18  BRA L   1      10.041  -9.817 -14.144  1.00  0.00    -0.2722 OA
ATOM     19 N19  BRA L   1      10.136  -9.391 -11.855  1.00  0.00    -0.3256  N
ATOM     20 H49  BRA L   1      10.708  -8.930 -11.155  1.00  0.00    +0.1686 HD
BRANCH 17 21
ATOM     21 C14  BRA L   1      11.921  -8.554 -13.326  1.00  0.00    +0.0752  C
ATOM     22 H44  BRA L   1      12.550  -9.138 -14.014  1.00  0.00    +0.0458  H
BRANCH 21 26
ATOM     23 C10  BRA L   1      13.742  -8.365  -9.386  1.00  0.00    -0.0103  A
ATOM     24 C11  BRA L   1      13.262  -9.572  -9.906  1.00  0.00    -0.0551  A
ATOM     25 C12  BRA L   1      12.738  -9.627 -11.198  1.00  0.00    -0.0574  A
ATOM     26 C13  BRA L   1      12.683  -8.475 -12.003  1.00  0.00    -0.0341  A
ATOM     27 C30  BRA L   1      13.226  -7.285 -11.501  1.00  0.00    -0.0574  A
ATOM     28 C31  BRA L   1      13.746  -7.231 -10.205  1.00  0.00    -0.0551  A
ATOM     29 H42  BRA L   1      13.254 -10.469  -9.289  1.00  0.00    +0.0621  H
ATOM     30 H43  BRA L   1      12.328 -10.570 -11.558  1.00  0.00    +0.0621  H
ATOM     31 H56  BRA L   1      13.228  -6.373 -12.091  1.00  0.00    +0.0621  H
ATOM     32 H57  BRA L   1      14.119  -6.281  -9.825  1.00  0.00    +0.0621  H
BRANCH 23 33
ATOM     33  C9  BRA L   1      14.196  -8.279  -7.951  1.00  0.00    +0.1179  C
ATOM     34 H40  BRA L   1      14.657  -7.312  -7.713  1.00  0.00    +0.0749  H
ATOM     35 H41  BRA L   1      14.958  -9.046  -7.768  1.00  0.00    +0.0749  H
BRANCH 33 36
ATOM     36  O8  BRA L   1      13.093  -8.545  -7.073  1.00  0.00    -0.4564 OA
BRANCH 36 37
ATOM     37  C6  BRA L   1      12.187  -7.542  -6.968  1.00  0.00    +0.3398  C
ATOM     38  O7  BRA L   1      12.414  -6.345  -6.912  1.00  0.00    -0.2449 OA
BRANCH 37 43
ATOM     39  C1  BRA L   1       6.898  -9.877  -7.025  1.00  0.00    -0.0397  C
ATOM     40  C2  BRA L   1       8.262  -9.249  -7.023  1.00  0.00    -0.0502  A
ATOM     41  C3  BRA L   1       9.174  -9.547  -6.007  1.00  0.00    -0.0580  A
ATOM     42  C4  BRA L   1      10.447  -8.980  -6.021  1.00  0.00    -0.0473  A
ATOM     43  C5  BRA L   1      10.825  -8.111  -7.055  1.00  0.00    +0.0619  A
ATOM     44 C32  BRA L   1       9.938  -7.833  -8.110  1.00  0.00    -0.0362  A
ATOM     45 C33  BRA L   1      10.304  -6.933  -9.257  1.00  0.00    -0.0389  C
ATOM     46 C34  BRA L   1       8.654  -8.404  -8.073  1.00  0.00    -0.0551  A
ATOM     47 H35  BRA L   1       6.164  -9.215  -7.495  1.00  0.00    +0.0278  H
ATOM     48 H36  BRA L   1       6.555 -10.069  -6.003  1.00  0.00    +0.0278  H
ATOM     49 H37  BRA L   1       6.923 -10.824  -7.573  1.00  0.00    +0.0278  H
ATOM     50 H38  BRA L   1       8.894 -10.214  -5.194  1.00  0.00    +0.0620  H
ATOM     51 H39  BRA L   1      11.143  -9.204  -5.218  1.00  0.00    +0.0626  H
ATOM     52 H58  BRA L   1       9.656  -7.114 -10.122  1.00  0.00    +0.0278  H
ATOM     53 H59  BRA L   1      11.330  -7.119  -9.590  1.00  0.00    +0.0278  H
ATOM     54 H60  BRA L   1      10.198  -5.884  -8.965  1.00  0.00    +0.0278  H
ATOM     55 H61  BRA L   1       7.947  -8.192  -8.875  1.00  0.00    +0.0623  H
ENDBRANCH 37 43
ENDBRANCH 36 37
ENDBRANCH 33 36
ENDBRANCH 23 33
ENDBRANCH 21 26
BRANCH 21 56
ATOM     56 C15  BRA L   1      11.562  -7.230 -14.039  1.00  0.00    +0.0085  C
ATOM     57 N16  BRA L   1      10.215  -6.736 -13.734  1.00  0.00    -0.3289 NA
ATOM     58 H45  BRA L   1      12.282  -6.456 -13.744  1.00  0.00    +0.0432  H
ATOM     59 H46  BRA L   1      11.657  -7.338 -15.126  1.00  0.00    +0.0432  H
ATOM     60 H47  BRA L   1      10.102  -5.800 -14.124  1.00  0.00    +0.1182 HD
ATOM     61 H48  BRA L   1      10.105  -6.636 -12.724  1.00  0.00    +0.1182 HD
ENDBRANCH 21 56
ENDBRANCH 17 21
ENDBRANCH 1 19
TORSDOF 8
ENDMDL
MODEL 7
REMARK VINA RESULT:    -7.014      3.825     10.833
REMARK INTER + INTRA:         -11.733
REMARK INTER:                  -9.849
REMARK INTRA:                  -1.884
REMARK UNBOUND:                -1.440
ROOT
ATOM      1 C20  BRA L   1      10.713  -4.756   2.872  1.00  0.00    +0.0423  A
ATOM      2 C21  BRA L   1      10.416  -5.843   3.691  1.00  0.00    -0.0377  A
ATOM      3 C22  BRA L   1       9.810  -5.644   4.936  1.00  0.00    -0.0506  A
ATOM      4 C23  BRA L   1       9.492  -4.350   5.380  1.00  0.00    +0.0004  A
ATOM      5 C24  BRA L   1       8.900  -4.091   6.619  1.00  0.00    +0.0353  A
ATOM      6 N25  BRA L   1       8.587  -2.856   7.078  1.00  0.00    -0.2626 NA
ATOM      7 C26  BRA L   1       8.869  -1.822   6.260  1.00  0.00    +0.0281  A
ATOM      8 C27  BRA L   1       9.454  -1.960   5.012  1.00  0.00    -0.0358  A
ATOM      9 C28  BRA L   1       9.777  -3.246   4.557  1.00  0.00    -0.0131  A
ATOM     10 C29  BRA L   1      10.383  -3.463   3.307  1.00  0.00    -0.0305  A
ATOM     11 H50  BRA L   1      10.651  -6.861   3.397  1.00  0.00    +0.0638  H
ATOM     12 H51  BRA L   1       9.593  -6.509   5.559  1.00  0.00    +0.0625  H
ATOM     13 H52  BRA L   1       8.654  -4.899   7.303  1.00  0.00    +0.0836  H
ATOM     14 H53  BRA L   1       8.606  -0.841   6.647  1.00  0.00    +0.0830  H
ATOM     15 H54  BRA L   1       9.654  -1.079   4.411  1.00  0.00    +0.0639  H
ATOM     16 H55  BRA L   1      10.608  -2.607   2.675  1.00  0.00    +0.0644  H
ENDROOT
BRANCH 1 19
ATOM     17 C17  BRA L   1      12.712  -5.015   1.366  1.00  0.00    +0.2339  C
ATOM     18 O18  BRA L   1      13.588  -5.200   2.209  1.00  0.00    -0.2722 OA
ATOM     19 N19  BRA L   1      11.358  -4.859   1.625  1.00  0.00    -0.3256  N
ATOM     20 H49  BRA L   1      10.759  -4.733   0.816  1.00  0.00    +0.1686 HD
BRANCH 17 21
ATOM     21 C14  BRA L   1      13.072  -4.995  -0.134  1.00  0.00    +0.0752  C
ATOM     22 H44  BRA L   1      12.406  -4.260  -0.608  1.00  0.00    +0.0458  H
BRANCH 21 26
ATOM     23 C10  BRA L   1      11.982  -8.902  -1.689  1.00  0.00    -0.0103  A
ATOM     24 C11  BRA L   1      11.075  -7.837  -1.704  1.00  0.00    -0.0551  A
ATOM     25 C12  BRA L   1      11.462  -6.573  -1.259  1.00  0.00    -0.0574  A
ATOM     26 C13  BRA L   1      12.768  -6.342  -0.790  1.00  0.00    -0.0341  A
ATOM     27 C30  BRA L   1      13.689  -7.396  -0.840  1.00  0.00    -0.0574  A
ATOM     28 C31  BRA L   1      13.298  -8.663  -1.281  1.00  0.00    -0.0551  A
ATOM     29 H42  BRA L   1      10.046  -7.998  -2.022  1.00  0.00    +0.0621  H
ATOM     30 H43  BRA L   1      10.721  -5.775  -1.238  1.00  0.00    +0.0621  H
ATOM     31 H56  BRA L   1      14.716  -7.264  -0.510  1.00  0.00    +0.0621  H
ATOM     32 H57  BRA L   1      14.024  -9.475  -1.265  1.00  0.00    +0.0621  H
BRANCH 23 33
ATOM     33  C9  BRA L   1      11.531 -10.294  -2.055  1.00  0.00    +0.1179  C
ATOM     34 H40  BRA L   1      11.009 -10.797  -1.231  1.00  0.00    +0.0749  H
ATOM     35 H41  BRA L   1      12.409 -10.905  -2.293  1.00  0.00    +0.0749  H
BRANCH 33 36
ATOM     36  O8  BRA L   1      10.703 -10.247  -3.226  1.00  0.00    -0.4564 OA
BRANCH 36 37
ATOM     37  C6  BRA L   1      11.326 -10.576  -4.384  1.00  0.00    +0.3398  C
ATOM     38  O7  BRA L   1      11.912 -11.614  -4.639  1.00  0.00    -0.2449 OA
BRANCH 37 43
ATOM     39  C1  BRA L   1      10.100  -6.497  -8.295  1.00  0.00    -0.0397  C
ATOM     40  C2  BRA L   1      10.434  -7.538  -7.266  1.00  0.00    -0.0502  A
ATOM     41  C3  BRA L   1       9.532  -8.569  -6.988  1.00  0.00    -0.0580  A
ATOM     42  C4  BRA L   1       9.855  -9.546  -6.048  1.00  0.00    -0.0473  A
ATOM     43  C5  BRA L   1      11.087  -9.508  -5.380  1.00  0.00    +0.0619  A
ATOM     44 C32  BRA L   1      12.027  -8.505  -5.677  1.00  0.00    -0.0362  A
ATOM     45 C33  BRA L   1      13.372  -8.435  -5.011  1.00  0.00    -0.0389  C
ATOM     46 C34  BRA L   1      11.678  -7.520  -6.617  1.00  0.00    -0.0551  A
ATOM     47 H35  BRA L   1      10.573  -5.541  -8.050  1.00  0.00    +0.0278  H
ATOM     48 H36  BRA L   1       9.020  -6.324  -8.339  1.00  0.00    +0.0278  H
ATOM     49 H37  BRA L   1      10.446  -6.822  -9.281  1.00  0.00    +0.0278  H
ATOM     50 H38  BRA L   1       8.569  -8.610  -7.493  1.00  0.00    +0.0620  H
ATOM     51 H39  BRA L   1       9.141 -10.335  -5.827  1.00  0.00    +0.0626  H
ATOM     52 H58  BRA L   1      14.073  -7.834  -5.600  1.00  0.00    +0.0278  H
ATOM     53 H59  BRA L   1      13.815  -9.432  -4.916  1.00  0.00    +0.0278  H
ATOM     54 H60  BRA L   1      13.281  -7.980  -4.019  1.00  0.00    +0.0278  H
ATOM     55 H61  BRA L   1      12.387  -6.727  -6.854  1.00  0.00    +0.0623  H
ENDBRANCH 37 43
ENDBRANCH 36 37
ENDBRANCH 33 36
ENDBRANCH 23 33
ENDBRANCH 21 26
BRANCH 21 56
ATOM     56 C15  BRA L   1      14.514  -4.445  -0.237  1.00  0.00    +0.0085  C
ATOM     57 N16  BRA L   1      14.730  -3.196   0.500  1.00  0.00    -0.3289 NA
ATOM     58 H45  BRA L   1      15.214  -5.195   0.154  1.00  0.00    +0.0432  H
ATOM     59 H46  BRA L   1      14.793  -4.285  -1.286  1.00  0.00    +0.0432  H
ATOM     60 H47  BRA L   1      15.725  -2.971   0.501  1.00  0.00    +0.1182 HD
ATOM     61 H48  BRA L   1      14.468  -3.325   1.479  1.00  0.00    +0.1182 HD
ENDBRANCH 21 56
ENDBRANCH 17 21
ENDBRANCH 1 19
TORSDOF 8
ENDMDL
MODEL 8
REMARK VINA RESULT:    -6.949      3.240     11.101
REMARK INTER + INTRA:         -11.638
REMARK INTER:                  -9.770
REMARK INTRA:                  -1.868
REMARK UNBOUND:                -1.440
ROOT
ATOM      1 C20  BRA L   1      13.009  -6.950  -0.338  1.00  0.00    +0.0423  A
ATOM      2 C21  BRA L   1      12.133  -6.949   0.745  1.00  0.00    -0.0377  A
ATOM      3 C22  BRA L   1      12.221  -5.951   1.723  1.00  0.00    -0.0506  A
ATOM      4 C23  BRA L   1      13.190  -4.939   1.629  1.00  0.00    +0.0004  A
ATOM      5 C24  BRA L   1      13.332  -3.928   2.582  1.00  0.00    +0.0353  A
ATOM      6 N25  BRA L   1      14.259  -2.942   2.524  1.00  0.00    -0.2626 NA
ATOM      7 C26  BRA L   1      15.084  -2.955   1.457  1.00  0.00    +0.0281  A
ATOM      8 C27  BRA L   1      15.033  -3.908   0.452  1.00  0.00    -0.0358  A
ATOM      9 C28  BRA L   1      14.071  -4.924   0.533  1.00  0.00    -0.0131  A
ATOM     10 C29  BRA L   1      13.968  -5.931  -0.441  1.00  0.00    -0.0305  A
ATOM     11 H50  BRA L   1      11.374  -7.715   0.868  1.00  0.00    +0.0638  H
ATOM     12 H51  BRA L   1      11.528  -5.976   2.562  1.00  0.00    +0.0625  H
ATOM     13 H52  BRA L   1      12.683  -3.881   3.453  1.00  0.00    +0.0836  H
ATOM     14 H53  BRA L   1      15.817  -2.153   1.429  1.00  0.00    +0.0830  H
ATOM     15 H54  BRA L   1      15.734  -3.855  -0.375  1.00  0.00    +0.0639  H
ATOM     16 H55  BRA L   1      14.656  -5.921  -1.284  1.00  0.00    +0.0644  H
ENDROOT
BRANCH 1 19
ATOM     17 C17  BRA L   1      11.995  -8.293  -2.209  1.00  0.00    +0.2339  C
ATOM     18 O18  BRA L   1      10.911  -7.722  -2.315  1.00  0.00    -0.2722 OA
ATOM     19 N19  BRA L   1      13.019  -7.935  -1.344  1.00  0.00    -0.3256  N
ATOM     20 H49  BRA L   1      13.863  -8.498  -1.390  1.00  0.00    +0.1686 HD
BRANCH 17 21
ATOM     21 C14  BRA L   1      12.334  -9.489  -3.124  1.00  0.00    +0.0752  C
ATOM     22 H44  BRA L   1      13.388  -9.739  -2.936  1.00  0.00    +0.0458  H
BRANCH 21 26
ATOM     23 C10  BRA L   1      12.382  -8.581  -7.372  1.00  0.00    -0.0103  A
ATOM     24 C11  BRA L   1      12.005  -9.845  -6.905  1.00  0.00    -0.0551  A
ATOM     25 C12  BRA L   1      11.934 -10.100  -5.535  1.00  0.00    -0.0574  A
ATOM     26 C13  BRA L   1      12.237  -9.096  -4.598  1.00  0.00    -0.0341  A
ATOM     27 C30  BRA L   1      12.549  -7.815  -5.073  1.00  0.00    -0.0574  A
ATOM     28 C31  BRA L   1      12.625  -7.562  -6.445  1.00  0.00    -0.0551  A
ATOM     29 H42  BRA L   1      11.806 -10.652  -7.608  1.00  0.00    +0.0621  H
ATOM     30 H43  BRA L   1      11.684 -11.106  -5.202  1.00  0.00    +0.0621  H
ATOM     31 H56  BRA L   1      12.770  -6.999  -4.389  1.00  0.00    +0.0621  H
ATOM     32 H57  BRA L   1      12.915  -6.569  -6.783  1.00  0.00    +0.0621  H
BRANCH 23 33
ATOM     33  C9  BRA L   1      12.576  -8.339  -8.848  1.00  0.00    +0.1179  C
ATOM     34 H40  BRA L   1      13.399  -8.932  -9.267  1.00  0.00    +0.0749  H
ATOM     35 H41  BRA L   1      12.831  -7.285  -9.009  1.00  0.00    +0.0749  H
BRANCH 33 36
ATOM     36  O8  BRA L   1      11.353  -8.602  -9.551  1.00  0.00    -0.4564 OA
BRANCH 36 37
ATOM     37  C6  BRA L   1      10.447  -7.595  -9.525  1.00  0.00    +0.3398  C
ATOM     38  O7  BRA L   1      10.674  -6.399  -9.454  1.00  0.00    -0.2449 OA
BRANCH 37 43
ATOM     39  C1  BRA L   1       5.212  -9.801 -10.602  1.00  0.00    -0.0397  C
ATOM     40  C2  BRA L   1       6.573  -9.244 -10.300  1.00  0.00    -0.0502  A
ATOM     41  C3  BRA L   1       7.386  -8.772 -11.334  1.00  0.00    -0.0580  A
ATOM     42  C4  BRA L   1       8.640  -8.235 -11.048  1.00  0.00    -0.0473  A
ATOM     43  C5  BRA L   1       9.093  -8.158  -9.723  1.00  0.00    +0.0619  A
ATOM     44 C32  BRA L   1       8.273  -8.586  -8.664  1.00  0.00    -0.0362  A
ATOM     45 C33  BRA L   1       8.698  -8.499  -7.226  1.00  0.00    -0.0389  C
ATOM     46 C34  BRA L   1       7.017  -9.137  -8.973  1.00  0.00    -0.0551  A
ATOM     47 H35  BRA L   1       4.932 -10.566  -9.870  1.00  0.00    +0.0278  H
ATOM     48 H36  BRA L   1       5.193 -10.273 -11.589  1.00  0.00    +0.0278  H
ATOM     49 H37  BRA L   1       4.466  -8.999 -10.578  1.00  0.00    +0.0278  H
ATOM     50 H38  BRA L   1       7.053  -8.830 -12.368  1.00  0.00    +0.0620  H
ATOM     51 H39  BRA L   1       9.273  -7.886 -11.860  1.00  0.00    +0.0626  H
ATOM     52 H58  BRA L   1       7.833  -8.538  -6.555  1.00  0.00    +0.0278  H
ATOM     53 H59  BRA L   1       9.208  -7.551  -7.025  1.00  0.00    +0.0278  H
ATOM     54 H60  BRA L   1       9.363  -9.332  -6.975  1.00  0.00    +0.0278  H
ATOM     55 H61  BRA L   1       6.370  -9.485  -8.168  1.00  0.00    +0.0623  H
ENDBRANCH 37 43
ENDBRANCH 36 37
ENDBRANCH 33 36
ENDBRANCH 23 33
ENDBRANCH 21 26
BRANCH 21 56
ATOM     56 C15  BRA L   1      11.481 -10.680  -2.631  1.00  0.00    +0.0085  C
ATOM     57 N16  BRA L   1      11.077 -10.583  -1.225  1.00  0.00    -0.3289 NA
ATOM     58 H45  BRA L   1      10.571 -10.749  -3.241  1.00  0.00    +0.0432  H
ATOM     59 H46  BRA L   1      12.018 -11.626  -2.776  1.00  0.00    +0.0432  H
ATOM     60 H47  BRA L   1      10.409 -11.324  -1.012  1.00  0.00    +0.1182 HD
ATOM     61 H48  BRA L   1      10.582  -9.704  -1.069  1.00  0.00    +0.1182 HD
ENDBRANCH 21 56
ENDBRANCH 17 21
ENDBRANCH 1 19
TORSDOF 8
ENDMDL
MODEL 9
REMARK VINA RESULT:    -6.862      1.869      2.808
REMARK INTER + INTRA:         -11.512
REMARK INTER:                  -9.899
REMARK INTRA:                  -1.612
REMARK UNBOUND:                -1.440
ROOT
ATOM      1 C20  BRA L   1       9.619 -10.041  -4.779  1.00  0.00    +0.0423  A
ATOM      2 C21  BRA L   1      10.459 -10.655  -5.705  1.00  0.00    -0.0377  A
ATOM      3 C22  BRA L   1      10.007 -10.919  -7.003  1.00  0.00    -0.0506  A
ATOM      4 C23  BRA L   1       8.703 -10.570  -7.391  1.00  0.00    +0.0004  A
ATOM      5 C24  BRA L   1       8.194 -10.822  -8.668  1.00  0.00    +0.0353  A
ATOM      6 N25  BRA L   1       6.941 -10.505  -9.072  1.00  0.00    -0.2626 NA
ATOM      7 C26  BRA L   1       6.153  -9.896  -8.163  1.00  0.00    +0.0281  A
ATOM      8 C27  BRA L   1       6.552  -9.596  -6.870  1.00  0.00    -0.0358  A
ATOM      9 C28  BRA L   1       7.850  -9.939  -6.469  1.00  0.00    -0.0131  A
ATOM     10 C29  BRA L   1       8.321  -9.679  -5.170  1.00  0.00    -0.0305  A
ATOM     11 H50  BRA L   1      11.471 -10.953  -5.450  1.00  0.00    +0.0638  H
ATOM     12 H51  BRA L   1      10.681 -11.405  -7.706  1.00  0.00    +0.0625  H
ATOM     13 H52  BRA L   1       8.801 -11.307  -9.429  1.00  0.00    +0.0836  H
ATOM     14 H53  BRA L   1       5.154  -9.646  -8.510  1.00  0.00    +0.0830  H
ATOM     15 H54  BRA L   1       5.859  -9.107  -6.193  1.00  0.00    +0.0639  H
ATOM     16 H55  BRA L   1       7.657  -9.196  -4.456  1.00  0.00    +0.0644  H
ENDROOT
BRANCH 1 19
ATOM     17 C17  BRA L   1      10.895  -8.852  -2.965  1.00  0.00    +0.2339  C
ATOM     18 O18  BRA L   1      11.491  -8.015  -3.640  1.00  0.00    -0.2722 OA
ATOM     19 N19  BRA L   1       9.976  -9.776  -3.443  1.00  0.00    -0.3256  N
ATOM     20 H49  BRA L   1       9.555 -10.389  -2.753  1.00  0.00    +0.1686 HD
BRANCH 17 21
ATOM     21 C14  BRA L   1      11.100  -8.903  -1.436  1.00  0.00    +0.0752  C
ATOM     22 H44  BRA L   1      10.098  -8.967  -0.987  1.00  0.00    +0.0458  H
BRANCH 21 26
ATOM     23 C10  BRA L   1      12.984  -5.414   0.338  1.00  0.00    -0.0103  A
ATOM     24 C11  BRA L   1      13.747  -6.443  -0.223  1.00  0.00    -0.0551  A
ATOM     25 C12  BRA L   1      13.125  -7.526  -0.845  1.00  0.00    -0.0574  A
ATOM     26 C13  BRA L   1      11.723  -7.605  -0.922  1.00  0.00    -0.0341  A
ATOM     27 C30  BRA L   1      10.967  -6.538  -0.418  1.00  0.00    -0.0574  A
ATOM     28 C31  BRA L   1      11.592  -5.457   0.209  1.00  0.00    -0.0551  A
ATOM     29 H42  BRA L   1      14.832  -6.429  -0.140  1.00  0.00    +0.0621  H
ATOM     30 H43  BRA L   1      13.744  -8.336  -1.230  1.00  0.00    +0.0621  H
ATOM     31 H56  BRA L   1       9.882  -6.541  -0.473  1.00  0.00    +0.0621  H
ATOM     32 H57  BRA L   1      10.976  -4.666   0.633  1.00  0.00    +0.0621  H
BRANCH 23 33
ATOM     33  C9  BRA L   1      13.650  -4.306   1.115  1.00  0.00    +0.1179  C
ATOM     34 H40  BRA L   1      13.310  -3.310   0.802  1.00  0.00    +0.0749  H
ATOM     35 H41  BRA L   1      14.731  -4.342   0.937  1.00  0.00    +0.0749  H
BRANCH 33 36
ATOM     36  O8  BRA L   1      13.434  -4.497   2.520  1.00  0.00    -0.4564 OA
BRANCH 36 37
ATOM     37  C6  BRA L   1      13.043  -3.389   3.197  1.00  0.00    +0.3398  C
ATOM     38  O7  BRA L   1      13.520  -2.269   3.120  1.00  0.00    -0.2449 OA
BRANCH 37 43
ATOM     39  C1  BRA L   1       8.146  -4.610   6.019  1.00  0.00    -0.0397  C
ATOM     40  C2  BRA L   1       9.430  -4.311   5.302  1.00  0.00    -0.0502  A
ATOM     41  C3  BRA L   1       9.410  -3.847   3.984  1.00  0.00    -0.0580  A
ATOM     42  C4  BRA L   1      10.603  -3.549   3.328  1.00  0.00    -0.0473  A
ATOM     43  C5  BRA L   1      11.832  -3.708   3.985  1.00  0.00    +0.0619  A
ATOM     44 C32  BRA L   1      11.872  -4.132   5.325  1.00  0.00    -0.0362  A
ATOM     45 C33  BRA L   1      13.160  -4.289   6.084  1.00  0.00    -0.0389  C
ATOM     46 C34  BRA L   1      10.660  -4.439   5.966  1.00  0.00    -0.0551  A
ATOM     47 H35  BRA L   1       8.287  -5.407   6.756  1.00  0.00    +0.0278  H
ATOM     48 H36  BRA L   1       7.376  -4.948   5.318  1.00  0.00    +0.0278  H
ATOM     49 H37  BRA L   1       7.787  -3.712   6.533  1.00  0.00    +0.0278  H
ATOM     50 H38  BRA L   1       8.465  -3.725   3.457  1.00  0.00    +0.0620  H
ATOM     51 H39  BRA L   1      10.578  -3.205   2.298  1.00  0.00    +0.0626  H
ATOM     52 H58  BRA L   1      12.984  -4.277   7.165  1.00  0.00    +0.0278  H
ATOM     53 H59  BRA L   1      13.846  -3.464   5.868  1.00  0.00    +0.0278  H
ATOM     54 H60  BRA L   1      13.638  -5.239   5.827  1.00  0.00    +0.0278  H
ATOM     55 H61  BRA L   1      10.670  -4.781   7.001  1.00  0.00    +0.0623  H
ENDBRANCH 37 43
ENDBRANCH 36 37
ENDBRANCH 33 36
ENDBRANCH 23 33
ENDBRANCH 21 26
BRANCH 21 56
ATOM     56 C15  BRA L   1      11.829 -10.231  -1.130  1.00  0.00    +0.0085  C
ATOM     57 N16  BRA L   1      12.525 -10.809  -2.285  1.00  0.00    -0.3289 NA
ATOM     58 H45  BRA L   1      12.570 -10.062  -0.339  1.00  0.00    +0.0432  H
ATOM     59 H46  BRA L   1      11.127 -10.977  -0.737  1.00  0.00    +0.0432  H
ATOM     60 H47  BRA L   1      13.092 -11.600  -1.978  1.00  0.00    +0.1182 HD
ATOM     61 H48  BRA L   1      13.179 -10.125  -2.670  1.00  0.00    +0.1182 HD
ENDBRANCH 21 56
ENDBRANCH 17 21
ENDBRANCH 1 19
TORSDOF 8
ENDMDL
MODEL 10
REMARK VINA RESULT:    -6.851      2.088      3.011
REMARK INTER + INTRA:         -11.495
REMARK INTER:                  -9.858
REMARK INTRA:                  -1.637
REMARK UNBOUND:                -1.440
ROOT
ATOM      1 C20  BRA L   1       8.987  -9.263  -8.672  1.00  0.00    +0.0423  A
ATOM      2 C21  BRA L   1       8.560  -8.225  -9.497  1.00  0.00    -0.0377  A
ATOM      3 C22  BRA L   1       7.326  -8.305 -10.151  1.00  0.00    -0.0506  A
ATOM      4 C23  BRA L   1       6.501  -9.430  -9.989  1.00  0.00    +0.0004  A
ATOM      5 C24  BRA L   1       5.267  -9.570 -10.629  1.00  0.00    +0.0353  A
ATOM      6 N25  BRA L   1       4.451 -10.643 -10.499  1.00  0.00    -0.2626 NA
ATOM      7 C26  BRA L   1       4.879 -11.627  -9.682  1.00  0.00    +0.0281  A
ATOM      8 C27  BRA L   1       6.083 -11.595  -8.997  1.00  0.00    -0.0358  A
ATOM      9 C28  BRA L   1       6.916 -10.479  -9.150  1.00  0.00    -0.0131  A
ATOM     10 C29  BRA L   1       8.157 -10.381  -8.497  1.00  0.00    -0.0305  A
ATOM     11 H50  BRA L   1       9.166  -7.340  -9.662  1.00  0.00    +0.0638  H
ATOM     12 H51  BRA L   1       7.018  -7.483 -10.794  1.00  0.00    +0.0625  H
ATOM     13 H52  BRA L   1       4.886  -8.796 -11.291  1.00  0.00    +0.0836  H
ATOM     14 H53  BRA L   1       4.207 -12.476  -9.589  1.00  0.00    +0.0830  H
ATOM     15 H54  BRA L   1       6.361 -12.428  -8.359  1.00  0.00    +0.0639  H
ATOM     16 H55  BRA L   1       8.479 -11.197  -7.854  1.00  0.00    +0.0644  H
ENDROOT
BRANCH 1 19
ATOM     17 C17  BRA L   1      10.663  -8.477  -6.968  1.00  0.00    +0.2339  C
ATOM     18 O18  BRA L   1       9.979  -7.652  -6.365  1.00  0.00    -0.2722 OA
ATOM     19 N19  BRA L   1      10.229  -9.285  -8.008  1.00  0.00    -0.3256  N
ATOM     20 H49  BRA L   1      10.912  -9.930  -8.391  1.00  0.00    +0.1686 HD
BRANCH 17 21
ATOM     21 C14  BRA L   1      12.128  -8.723  -6.550  1.00  0.00    +0.0752  C
ATOM     22 H44  BRA L   1      12.378  -9.746  -6.866  1.00  0.00    +0.0458  H
BRANCH 21 26
ATOM     23 C10  BRA L   1      12.197  -8.475  -2.213  1.00  0.00    -0.0103  A
ATOM     24 C11  BRA L   1      11.425  -9.438  -2.873  1.00  0.00    -0.0551  A
ATOM     25 C12  BRA L   1      11.464  -9.545  -4.263  1.00  0.00    -0.0574  A
ATOM     26 C13  BRA L   1      12.277  -8.691  -5.029  1.00  0.00    -0.0341  A
ATOM     27 C30  BRA L   1      13.098  -7.774  -4.358  1.00  0.00    -0.0574  A
ATOM     28 C31  BRA L   1      13.054  -7.665  -2.965  1.00  0.00    -0.0551  A
ATOM     29 H42  BRA L   1      10.754 -10.083  -2.307  1.00  0.00    +0.0621  H
ATOM     30 H43  BRA L   1      10.817 -10.272  -4.751  1.00  0.00    +0.0621  H
ATOM     31 H56  BRA L   1      13.761  -7.106  -4.902  1.00  0.00    +0.0621  H
ATOM     32 H57  BRA L   1      13.667  -6.911  -2.475  1.00  0.00    +0.0621  H
BRANCH 23 33
ATOM     33  C9  BRA L   1      12.064  -8.279  -0.724  1.00  0.00    +0.1179  C
ATOM     34 H40  BRA L   1      12.919  -7.743  -0.292  1.00  0.00    +0.0749  H
ATOM     35 H41  BRA L   1      12.025  -9.259  -0.234  1.00  0.00    +0.0749  H
BRANCH 33 36
ATOM     36  O8  BRA L   1      10.837  -7.597  -0.428  1.00  0.00    -0.4564 OA
BRANCH 36 37
ATOM     37  C6  BRA L   1      10.886  -6.247  -0.548  1.00  0.00    +0.3398  C
ATOM     38  O7  BRA L   1      10.348  -5.561  -1.400  1.00  0.00    -0.2449 OA
BRANCH 37 43
ATOM     39  C1  BRA L   1      13.528  -4.203   4.172  1.00  0.00    -0.0397  C
ATOM     40  C2  BRA L   1      12.867  -4.737   2.934  1.00  0.00    -0.0502  A
ATOM     41  C3  BRA L   1      11.637  -5.396   3.021  1.00  0.00    -0.0580  A
ATOM     42  C4  BRA L   1      11.015  -5.870   1.868  1.00  0.00    -0.0473  A
ATOM     43  C5  BRA L   1      11.613  -5.687   0.612  1.00  0.00    +0.0619  A
ATOM     44 C32  BRA L   1      12.827  -4.988   0.499  1.00  0.00    -0.0362  A
ATOM     45 C33  BRA L   1      13.495  -4.738  -0.824  1.00  0.00    -0.0389  C
ATOM     46 C34  BRA L   1      13.446  -4.528   1.673  1.00  0.00    -0.0551  A
ATOM     47 H35  BRA L   1      14.618  -4.209   4.065  1.00  0.00    +0.0278  H
ATOM     48 H36  BRA L   1      13.283  -4.819   5.043  1.00  0.00    +0.0278  H
ATOM     49 H37  BRA L   1      13.197  -3.177   4.359  1.00  0.00    +0.0278  H
ATOM     50 H38  BRA L   1      11.163  -5.553   3.988  1.00  0.00    +0.0620  H
ATOM     51 H39  BRA L   1      10.067  -6.396   1.947  1.00  0.00    +0.0626  H
ATOM     52 H58  BRA L   1      14.206  -3.908  -0.757  1.00  0.00    +0.0278  H
ATOM     53 H59  BRA L   1      12.760  -4.461  -1.588  1.00  0.00    +0.0278  H
ATOM     54 H60  BRA L   1      14.041  -5.630  -1.149  1.00  0.00    +0.0278  H
ATOM     55 H61  BRA L   1      14.394  -3.994   1.609  1.00  0.00    +0.0623  H
ENDBRANCH 37 43
ENDBRANCH 36 37
ENDBRANCH 33 36
ENDBRANCH 23 33
ENDBRANCH 21 26
BRANCH 21 56
ATOM     56 C15  BRA L   1      12.997  -7.756  -7.387  1.00  0.00    +0.0085  C
ATOM     57 N16  BRA L   1      12.238  -6.676  -8.027  1.00  0.00    -0.3289 NA
ATOM     58 H45  BRA L   1      13.754  -7.298  -6.738  1.00  0.00    +0.0432  H
ATOM     59 H46  BRA L   1      13.548  -8.303  -8.162  1.00  0.00    +0.0432  H
ATOM     60 H47  BRA L   1      12.887  -6.006  -8.442  1.00  0.00    +0.1182 HD
ATOM     61 H48  BRA L   1      11.712  -6.159  -7.321  1.00  0.00    +0.1182 HD
ENDBRANCH 21 56
ENDBRANCH 17 21
ENDBRANCH 1 19
TORSDOF 8
ENDMDL
MODEL 11
REMARK VINA RESULT:    -6.834      6.916     10.040
REMARK INTER + INTRA:         -11.470
REMARK INTER:                  -8.645
REMARK INTRA:                  -2.825
REMARK UNBOUND:                -1.440
ROOT
ATOM      1 C20  BRA L   1       9.246  -9.260 -12.694  1.00  0.00    +0.0423  A
ATOM      2 C21  BRA L   1       9.585 -10.323 -13.529  1.00  0.00    -0.0377  A
ATOM      3 C22  BRA L   1      10.687 -10.225 -14.385  1.00  0.00    -0.0506  A
ATOM      4 C23  BRA L   1      11.468  -9.058 -14.417  1.00  0.00    +0.0004  A
ATOM      5 C24  BRA L   1      12.570  -8.900 -15.261  1.00  0.00    +0.0353  A
ATOM      6 N25  BRA L   1      13.338  -7.786 -15.321  1.00  0.00    -0.2626 NA
ATOM      7 C26  BRA L   1      13.001  -6.778 -14.492  1.00  0.00    +0.0281  A
ATOM      8 C27  BRA L   1      11.931  -6.825 -13.612  1.00  0.00    -0.0358  A
ATOM      9 C28  BRA L   1      11.143  -7.984 -13.570  1.00  0.00    -0.0131  A
ATOM     10 C29  BRA L   1      10.034  -8.099 -12.714  1.00  0.00    -0.0305  A
ATOM     11 H50  BRA L   1       9.006 -11.242 -13.548  1.00  0.00    +0.0638  H
ATOM     12 H51  BRA L   1      10.927 -11.067 -15.031  1.00  0.00    +0.0625  H
ATOM     13 H52  BRA L   1      12.875  -9.692 -15.941  1.00  0.00    +0.0836  H
ATOM     14 H53  BRA L   1      13.634  -5.897 -14.553  1.00  0.00    +0.0830  H
ATOM     15 H54  BRA L   1      11.719  -5.971 -12.977  1.00  0.00    +0.0639  H
ATOM     16 H55  BRA L   1       9.781  -7.264 -12.065  1.00  0.00    +0.0644  H
ENDROOT
BRANCH 1 19
ATOM     17 C17  BRA L   1       7.119 -10.198 -11.731  1.00  0.00    +0.2339  C
ATOM     18 O18  BRA L   1       7.079 -11.276 -12.320  1.00  0.00    -0.2722 OA
ATOM     19 N19  BRA L   1       8.133  -9.256 -11.833  1.00  0.00    -0.3256  N
ATOM     20 H49  BRA L   1       8.028  -8.421 -11.266  1.00  0.00    +0.1686 HD
BRANCH 17 21
ATOM     21 C14  BRA L   1       6.002  -9.815 -10.737  1.00  0.00    +0.0752  C
ATOM     22 H44  BRA L   1       5.881  -8.724 -10.805  1.00  0.00    +0.0458  H
BRANCH 21 26
ATOM     23 C10  BRA L   1       7.445 -10.372  -6.677  1.00  0.00    -0.0103  A
ATOM     24 C11  BRA L   1       6.595  -9.310  -7.006  1.00  0.00    -0.0551  A
ATOM     25 C12  BRA L   1       6.091  -9.182  -8.300  1.00  0.00    -0.0574  A
ATOM     26 C13  BRA L   1       6.423 -10.116  -9.298  1.00  0.00    -0.0341  A
ATOM     27 C30  BRA L   1       7.220 -11.213  -8.945  1.00  0.00    -0.0574  A
ATOM     28 C31  BRA L   1       7.728 -11.336  -7.649  1.00  0.00    -0.0551  A
ATOM     29 H42  BRA L   1       6.357  -8.549  -6.264  1.00  0.00    +0.0621  H
ATOM     30 H43  BRA L   1       5.471  -8.319  -8.538  1.00  0.00    +0.0621  H
ATOM     31 H56  BRA L   1       7.486 -11.974  -9.674  1.00  0.00    +0.0621  H
ATOM     32 H57  BRA L   1       8.383 -12.174  -7.417  1.00  0.00    +0.0621  H
BRANCH 23 33
ATOM     33  C9  BRA L   1       8.087 -10.443  -5.314  1.00  0.00    +0.1179  C
ATOM     34 H40  BRA L   1       7.661 -11.239  -4.690  1.00  0.00    +0.0749  H
ATOM     35 H41  BRA L   1       7.913  -9.499  -4.785  1.00  0.00    +0.0749  H
BRANCH 33 36
ATOM     36  O8  BRA L   1       9.505 -10.610  -5.450  1.00  0.00    -0.4564 OA
BRANCH 36 37
ATOM     37  C6  BRA L   1      10.190  -9.482  -5.759  1.00  0.00    +0.3398  C
ATOM     38  O7  BRA L   1      10.413  -8.530  -5.031  1.00  0.00    -0.2449 OA
BRANCH 37 43
ATOM     39  C1  BRA L   1      12.522 -10.292 -10.988  1.00  0.00    -0.0397  C
ATOM     40  C2  BRA L   1      11.894 -10.071  -9.642  1.00  0.00    -0.0502  A
ATOM     41  C3  BRA L   1      12.214 -10.907  -8.570  1.00  0.00    -0.0580  A
ATOM     42  C4  BRA L   1      11.647 -10.685  -7.316  1.00  0.00    -0.0473  A
ATOM     43  C5  BRA L   1      10.757  -9.620  -7.119  1.00  0.00    +0.0619  A
ATOM     44 C32  BRA L   1      10.456  -8.740  -8.174  1.00  0.00    -0.0362  A
ATOM     45 C33  BRA L   1       9.532  -7.566  -8.008  1.00  0.00    -0.0389  C
ATOM     46 C34  BRA L   1      11.027  -8.987  -9.434  1.00  0.00    -0.0551  A
ATOM     47 H35  BRA L   1      11.849  -9.970 -11.790  1.00  0.00    +0.0278  H
ATOM     48 H36  BRA L   1      12.736 -11.353 -11.150  1.00  0.00    +0.0278  H
ATOM     49 H37  BRA L   1      13.456  -9.727 -11.062  1.00  0.00    +0.0278  H
ATOM     50 H38  BRA L   1      12.898 -11.743  -8.707  1.00  0.00    +0.0620  H
ATOM     51 H39  BRA L   1      11.889 -11.351  -6.492  1.00  0.00    +0.0626  H
ATOM     52 H58  BRA L   1       9.693  -6.823  -8.796  1.00  0.00    +0.0278  H
ATOM     53 H59  BRA L   1       9.711  -7.058  -7.055  1.00  0.00    +0.0278  H
ATOM     54 H60  BRA L   1       8.489  -7.895  -8.057  1.00  0.00    +0.0278  H
ATOM     55 H61  BRA L   1      10.798  -8.324 -10.268  1.00  0.00    +0.0623  H
ENDBRANCH 37 43
ENDBRANCH 36 37
ENDBRANCH 33 36
ENDBRANCH 23 33
ENDBRANCH 21 26
BRANCH 21 56
ATOM     56 C15  BRA L   1       4.699 -10.459 -11.264  1.00  0.00    +0.0085  C
ATOM     57 N16  BRA L   1       3.487  -9.991 -10.585  1.00  0.00    -0.3289 NA
ATOM     58 H45  BRA L   1       4.595 -10.238 -12.333  1.00  0.00    +0.0432  H
ATOM     59 H46  BRA L   1       4.747 -11.552 -11.180  1.00  0.00    +0.0432  H
ATOM     60 H47  BRA L   1       2.665 -10.349 -11.073  1.00  0.00    +0.1182 HD
ATOM     61 H48  BRA L   1       3.429  -8.973 -10.646  1.00  0.00    +0.1182 HD
ENDBRANCH 21 56
ENDBRANCH 17 21
ENDBRANCH 1 19
TORSDOF 8
ENDMDL
MODEL 12
REMARK VINA RESULT:    -6.815      3.201     11.278
REMARK INTER + INTRA:         -11.441
REMARK INTER:                  -9.652
REMARK INTRA:                  -1.790
REMARK UNBOUND:                -1.440
ROOT
ATOM      1 C20  BRA L   1      14.283  -6.268  -0.288  1.00  0.00    +0.0423  A
ATOM      2 C21  BRA L   1      15.232  -5.285  -0.558  1.00  0.00    -0.0377  A
ATOM      3 C22  BRA L   1      15.322  -4.148   0.253  1.00  0.00    -0.0506  A
ATOM      4 C23  BRA L   1      14.460  -3.980   1.349  1.00  0.00    +0.0004  A
ATOM      5 C24  BRA L   1      14.496  -2.860   2.183  1.00  0.00    +0.0353  A
ATOM      6 N25  BRA L   1      13.675  -2.665   3.243  1.00  0.00    -0.2626 NA
ATOM      7 C26  BRA L   1      12.776  -3.638   3.494  1.00  0.00    +0.0281  A
ATOM      8 C27  BRA L   1      12.652  -4.791   2.735  1.00  0.00    -0.0358  A
ATOM      9 C28  BRA L   1      13.506  -4.971   1.638  1.00  0.00    -0.0131  A
ATOM     10 C29  BRA L   1      13.431  -6.108   0.816  1.00  0.00    -0.0305  A
ATOM     11 H50  BRA L   1      15.914  -5.364  -1.399  1.00  0.00    +0.0638  H
ATOM     12 H51  BRA L   1      16.069  -3.392   0.017  1.00  0.00    +0.0625  H
ATOM     13 H52  BRA L   1      15.209  -2.057   2.016  1.00  0.00    +0.0836  H
ATOM     14 H53  BRA L   1      12.132  -3.463   4.351  1.00  0.00    +0.0830  H
ATOM     15 H54  BRA L   1      11.901  -5.529   2.998  1.00  0.00    +0.0639  H
ATOM     16 H55  BRA L   1      12.687  -6.871   1.038  1.00  0.00    +0.0644  H
ENDROOT
BRANCH 1 19
ATOM     17 C17  BRA L   1      13.036  -7.724  -1.918  1.00  0.00    +0.2339  C
ATOM     18 O18  BRA L   1      12.112  -6.968  -2.212  1.00  0.00    -0.2722 OA
ATOM     19 N19  BRA L   1      14.094  -7.421  -1.073  1.00  0.00    -0.3256  N
ATOM     20 H49  BRA L   1      14.790  -8.149  -0.946  1.00  0.00    +0.1686 HD
BRANCH 17 21
ATOM     21 C14  BRA L   1      13.118  -9.130  -2.549  1.00  0.00    +0.0752  C
ATOM     22 H44  BRA L   1      14.183  -9.333  -2.728  1.00  0.00    +0.0458  H
BRANCH 21 26
ATOM     23 C10  BRA L   1      11.243  -9.593  -6.440  1.00  0.00    -0.0103  A
ATOM     24 C11  BRA L   1      10.603 -10.020  -5.271  1.00  0.00    -0.0551  A
ATOM     25 C12  BRA L   1      11.191  -9.806  -4.025  1.00  0.00    -0.0574  A
ATOM     26 C13  BRA L   1      12.435  -9.158  -3.916  1.00  0.00    -0.0341  A
ATOM     27 C30  BRA L   1      13.038  -8.674  -5.085  1.00  0.00    -0.0574  A
ATOM     28 C31  BRA L   1      12.449  -8.894  -6.333  1.00  0.00    -0.0551  A
ATOM     29 H42  BRA L   1       9.660 -10.562  -5.330  1.00  0.00    +0.0621  H
ATOM     30 H43  BRA L   1      10.692 -10.191  -3.137  1.00  0.00    +0.0621  H
ATOM     31 H56  BRA L   1      13.988  -8.148  -5.053  1.00  0.00    +0.0621  H
ATOM     32 H57  BRA L   1      12.964  -8.548  -7.228  1.00  0.00    +0.0621  H
BRANCH 23 33
ATOM     33  C9  BRA L   1      10.667  -9.930  -7.793  1.00  0.00    +0.1179  C
ATOM     34 H40  BRA L   1       9.728 -10.493  -7.722  1.00  0.00    +0.0749  H
ATOM     35 H41  BRA L   1      11.376 -10.565  -8.337  1.00  0.00    +0.0749  H
BRANCH 33 36
ATOM     36  O8  BRA L   1      10.483  -8.731  -8.558  1.00  0.00    -0.4564 OA
BRANCH 36 37
ATOM     37  C6  BRA L   1       9.414  -7.978  -8.198  1.00  0.00    +0.3398  C
ATOM     38  O7  BRA L   1       9.423  -6.952  -7.538  1.00  0.00    -0.2449 OA
BRANCH 37 43
ATOM     39  C1  BRA L   1       4.796 -10.061 -10.984  1.00  0.00    -0.0397  C
ATOM     40  C2  BRA L   1       5.992  -9.540 -10.242  1.00  0.00    -0.0502  A
ATOM     41  C3  BRA L   1       7.001  -8.855 -10.925  1.00  0.00    -0.0580  A
ATOM     42  C4  BRA L   1       8.100  -8.353 -10.229  1.00  0.00    -0.0473  A
ATOM     43  C5  BRA L   1       8.200  -8.525  -8.841  1.00  0.00    +0.0619  A
ATOM     44 C32  BRA L   1       7.174  -9.173  -8.129  1.00  0.00    -0.0362  A
ATOM     45 C33  BRA L   1       7.218  -9.358  -6.639  1.00  0.00    -0.0389  C
ATOM     46 C34  BRA L   1       6.081  -9.683  -8.849  1.00  0.00    -0.0551  A
ATOM     47 H35  BRA L   1       4.400 -10.961 -10.503  1.00  0.00    +0.0278  H
ATOM     48 H36  BRA L   1       5.060 -10.331 -12.012  1.00  0.00    +0.0278  H
ATOM     49 H37  BRA L   1       4.011  -9.298 -11.010  1.00  0.00    +0.0278  H
ATOM     50 H38  BRA L   1       6.943  -8.717 -12.003  1.00  0.00    +0.0620  H
ATOM     51 H39  BRA L   1       8.888  -7.835 -10.771  1.00  0.00    +0.0626  H
ATOM     52 H58  BRA L   1       6.218  -9.550  -6.235  1.00  0.00    +0.0278  H
ATOM     53 H59  BRA L   1       7.589  -8.455  -6.142  1.00  0.00    +0.0278  H
ATOM     54 H60  BRA L   1       7.859 -10.207  -6.380  1.00  0.00    +0.0278  H
ATOM     55 H61  BRA L   1       5.281 -10.199  -8.318  1.00  0.00    +0.0623  H
ENDBRANCH 37 43
ENDBRANCH 36 37
ENDBRANCH 33 36
ENDBRANCH 23 33
ENDBRANCH 21 26
BRANCH 21 56
ATOM     56 C15  BRA L   1      12.632 -10.128  -1.472  1.00  0.00    +0.0085  C
ATOM     57 N16  BRA L   1      11.832  -9.513  -0.408  1.00  0.00    -0.3289 NA
ATOM     58 H45  BRA L   1      12.021 -10.904  -1.950  1.00  0.00    +0.0432  H
ATOM     59 H46  BRA L   1      13.483 -10.647  -1.015  1.00  0.00    +0.0432  H
ATOM     60 H47  BRA L   1      11.435 -10.245   0.183  1.00  0.00    +0.1182 HD
ATOM     61 H48  BRA L   1      11.038  -9.018  -0.816  1.00  0.00    +0.1182 HD
ENDBRANCH 21 56
ENDBRANCH 17 21
ENDBRANCH 1 19
TORSDOF 8
ENDMDL
MODEL 13
REMARK VINA RESULT:    -6.687      6.249      9.320
REMARK INTER + INTRA:         -11.253
REMARK INTER:                  -8.160
REMARK INTRA:                  -3.093
REMARK UNBOUND:                -1.440
ROOT
ATOM      1 C20  BRA L   1      10.397  -8.567 -12.348  1.00  0.00    +0.0423  A
ATOM      2 C21  BRA L   1      10.368  -7.922 -13.582  1.00  0.00    -0.0377  A
ATOM      3 C22  BRA L   1      11.441  -7.119 -13.985  1.00  0.00    -0.0506  A
ATOM      4 C23  BRA L   1      12.561  -6.951 -13.155  1.00  0.00    +0.0004  A
ATOM      5 C24  BRA L   1      13.653  -6.151 -13.499  1.00  0.00    +0.0353  A
ATOM      6 N25  BRA L   1      14.745  -5.964 -12.719  1.00  0.00    -0.2626 NA
ATOM      7 C26  BRA L   1      14.757  -6.612 -11.537  1.00  0.00    +0.0281  A
ATOM      8 C27  BRA L   1      13.731  -7.431 -11.094  1.00  0.00    -0.0358  A
ATOM      9 C28  BRA L   1      12.607  -7.608 -11.912  1.00  0.00    -0.0131  A
ATOM     10 C29  BRA L   1      11.522  -8.412 -11.524  1.00  0.00    -0.0305  A
ATOM     11 H50  BRA L   1       9.520  -8.012 -14.255  1.00  0.00    +0.0638  H
ATOM     12 H51  BRA L   1      11.391  -6.622 -14.952  1.00  0.00    +0.0625  H
ATOM     13 H52  BRA L   1      13.682  -5.617 -14.446  1.00  0.00    +0.0836  H
ATOM     14 H53  BRA L   1      15.643  -6.451 -10.930  1.00  0.00    +0.0830  H
ATOM     15 H54  BRA L   1      13.811  -7.918 -10.127  1.00  0.00    +0.0639  H
ATOM     16 H55  BRA L   1      11.557  -8.914 -10.559  1.00  0.00    +0.0644  H
ENDROOT
BRANCH 1 19
ATOM     17 C17  BRA L   1       8.156  -8.943 -11.267  1.00  0.00    +0.2339  C
ATOM     18 O18  BRA L   1       7.761  -7.781 -11.191  1.00  0.00    -0.2722 OA
ATOM     19 N19  BRA L   1       9.347  -9.359 -11.846  1.00  0.00    -0.3256  N
ATOM     20 H49  BRA L   1       9.520 -10.359 -11.846  1.00  0.00    +0.1686 HD
BRANCH 17 21
ATOM     21 C14  BRA L   1       7.276 -10.096 -10.740  1.00  0.00    +0.0752  C
ATOM     22 H44  BRA L   1       6.233  -9.818 -10.951  1.00  0.00    +0.0458  H
BRANCH 21 26
ATOM     23 C10  BRA L   1       7.802 -10.126  -6.428  1.00  0.00    -0.0103  A
ATOM     24 C11  BRA L   1       6.889  -9.261  -7.041  1.00  0.00    -0.0551  A
ATOM     25 C12  BRA L   1       6.687  -9.309  -8.421  1.00  0.00    -0.0574  A
ATOM     26 C13  BRA L   1       7.392 -10.225  -9.221  1.00  0.00    -0.0341  A
ATOM     27 C30  BRA L   1       8.254 -11.133  -8.592  1.00  0.00    -0.0574  A
ATOM     28 C31  BRA L   1       8.459 -11.081  -7.211  1.00  0.00    -0.0551  A
ATOM     29 H42  BRA L   1       6.362  -8.513  -6.451  1.00  0.00    +0.0621  H
ATOM     30 H43  BRA L   1       6.006  -8.591  -8.876  1.00  0.00    +0.0621  H
ATOM     31 H56  BRA L   1       8.806 -11.876  -9.163  1.00  0.00    +0.0621  H
ATOM     32 H57  BRA L   1       9.170 -11.768  -6.757  1.00  0.00    +0.0621  H
BRANCH 23 33
ATOM     33  C9  BRA L   1       8.110  -9.994  -4.958  1.00  0.00    +0.1179  C
ATOM     34 H40  BRA L   1       7.367 -10.497  -4.325  1.00  0.00    +0.0749  H
ATOM     35 H41  BRA L   1       8.095  -8.934  -4.681  1.00  0.00    +0.0749  H
BRANCH 33 36
ATOM     36  O8  BRA L   1       9.427 -10.494  -4.687  1.00  0.00    -0.4564 OA
BRANCH 36 37
ATOM     37  C6  BRA L   1      10.396  -9.549  -4.607  1.00  0.00    +0.3398  C
ATOM     38  O7  BRA L   1      10.582  -8.758  -3.698  1.00  0.00    -0.2449 OA
BRANCH 37 43
ATOM     39  C1  BRA L   1      14.045 -10.383  -9.014  1.00  0.00    -0.0397  C
ATOM     40  C2  BRA L   1      13.080 -10.155  -7.887  1.00  0.00    -0.0502  A
ATOM     41  C3  BRA L   1      13.091 -10.994  -6.769  1.00  0.00    -0.0580  A
ATOM     42  C4  BRA L   1      12.209 -10.766  -5.714  1.00  0.00    -0.0473  A
ATOM     43  C5  BRA L   1      11.307  -9.693  -5.763  1.00  0.00    +0.0619  A
ATOM     44 C32  BRA L   1      11.309  -8.812  -6.859  1.00  0.00    -0.0362  A
ATOM     45 C33  BRA L   1      10.385  -7.630  -6.947  1.00  0.00    -0.0389  C
ATOM     46 C34  BRA L   1      12.197  -9.065  -7.918  1.00  0.00    -0.0551  A
ATOM     47 H35  BRA L   1      13.616 -10.056  -9.967  1.00  0.00    +0.0278  H
ATOM     48 H36  BRA L   1      14.286 -11.446  -9.113  1.00  0.00    +0.0278  H
ATOM     49 H37  BRA L   1      14.970  -9.827  -8.832  1.00  0.00    +0.0278  H
ATOM     50 H38  BRA L   1      13.780 -11.835  -6.717  1.00  0.00    +0.0620  H
ATOM     51 H39  BRA L   1      12.214 -11.433  -4.856  1.00  0.00    +0.0626  H
ATOM     52 H58  BRA L   1      10.759  -6.889  -7.661  1.00  0.00    +0.0278  H
ATOM     53 H59  BRA L   1      10.304  -7.122  -5.980  1.00  0.00    +0.0278  H
ATOM     54 H60  BRA L   1       9.391  -7.950  -7.276  1.00  0.00    +0.0278  H
ATOM     55 H61  BRA L   1      12.207  -8.400  -8.782  1.00  0.00    +0.0623  H
ENDBRANCH 37 43
ENDBRANCH 36 37
ENDBRANCH 33 36
ENDBRANCH 23 33
ENDBRANCH 21 26
BRANCH 21 56
ATOM     56 C15  BRA L   1       7.607 -11.336 -11.603  1.00  0.00    +0.0085  C
ATOM     57 N16  BRA L   1       7.347 -11.153 -13.034  1.00  0.00    -0.3289 NA
ATOM     58 H45  BRA L   1       8.668 -11.587 -11.481  1.00  0.00    +0.0432  H
ATOM     59 H46  BRA L   1       7.044 -12.211 -11.255  1.00  0.00    +0.0432  H
ATOM     60 H47  BRA L   1       7.715 -11.952 -13.551  1.00  0.00    +0.1182 HD
ATOM     61 H48  BRA L   1       7.858 -10.337 -13.375  1.00  0.00    +0.1182 HD
ENDBRANCH 21 56
ENDBRANCH 17 21
ENDBRANCH 1 19
TORSDOF 8
ENDMDL
MODEL 14
REMARK VINA RESULT:    -6.643      2.185      3.233
REMARK INTER + INTRA:         -11.190
REMARK INTER:                  -9.328
REMARK INTRA:                  -1.862
REMARK UNBOUND:                -1.440
ROOT
ATOM      1 C20  BRA L   1      11.066  -8.702  -4.781  1.00  0.00    +0.0423  A
ATOM      2 C21  BRA L   1      10.055  -9.638  -4.985  1.00  0.00    -0.0377  A
ATOM      3 C22  BRA L   1       9.317  -9.634  -6.174  1.00  0.00    -0.0506  A
ATOM      4 C23  BRA L   1       9.583  -8.688  -7.178  1.00  0.00    +0.0004  A
ATOM      5 C24  BRA L   1       8.869  -8.628  -8.378  1.00  0.00    +0.0353  A
ATOM      6 N25  BRA L   1       9.096  -7.726  -9.362  1.00  0.00    -0.2626 NA
ATOM      7 C26  BRA L   1      10.090  -6.841  -9.149  1.00  0.00    +0.0281  A
ATOM      8 C27  BRA L   1      10.863  -6.809  -7.998  1.00  0.00    -0.0358  A
ATOM      9 C28  BRA L   1      10.609  -7.746  -6.988  1.00  0.00    -0.0131  A
ATOM     10 C29  BRA L   1      11.342  -7.766  -5.790  1.00  0.00    -0.0305  A
ATOM     11 H50  BRA L   1       9.804 -10.382  -4.235  1.00  0.00    +0.0638  H
ATOM     12 H51  BRA L   1       8.529 -10.372  -6.306  1.00  0.00    +0.0625  H
ATOM     13 H52  BRA L   1       8.063  -9.327  -8.588  1.00  0.00    +0.0836  H
ATOM     14 H53  BRA L   1      10.258  -6.129  -9.953  1.00  0.00    +0.0830  H
ATOM     15 H54  BRA L   1      11.646  -6.063  -7.897  1.00  0.00    +0.0639  H
ATOM     16 H55  BRA L   1      12.132  -7.032  -5.642  1.00  0.00    +0.0644  H
ENDROOT
BRANCH 1 19
ATOM     17 C17  BRA L   1      13.138  -8.171  -3.456  1.00  0.00    +0.2339  C
ATOM     18 O18  BRA L   1      13.835  -7.681  -4.343  1.00  0.00    -0.2722 OA
ATOM     19 N19  BRA L   1      11.829  -8.608  -3.602  1.00  0.00    -0.3256  N
ATOM     20 H49  BRA L   1      11.382  -8.972  -2.767  1.00  0.00    +0.1686 HD
BRANCH 17 21
ATOM     21 C14  BRA L   1      13.686  -8.294  -2.019  1.00  0.00    +0.0752  C
ATOM     22 H44  BRA L   1      12.864  -8.685  -1.402  1.00  0.00    +0.0458  H
BRANCH 21 26
ATOM     23 C10  BRA L   1      14.666  -4.551  -0.044  1.00  0.00    -0.0103  A
ATOM     24 C11  BRA L   1      15.587  -5.603  -0.104  1.00  0.00    -0.0551  A
ATOM     25 C12  BRA L   1      15.280  -6.773  -0.796  1.00  0.00    -0.0574  A
ATOM     26 C13  BRA L   1      14.043  -6.921  -1.449  1.00  0.00    -0.0341  A
ATOM     27 C30  BRA L   1      13.153  -5.839  -1.442  1.00  0.00    -0.0574  A
ATOM     28 C31  BRA L   1      13.460  -4.668  -0.743  1.00  0.00    -0.0551  A
ATOM     29 H42  BRA L   1      16.535  -5.531   0.428  1.00  0.00    +0.0621  H
ATOM     30 H43  BRA L   1      15.997  -7.593  -0.785  1.00  0.00    +0.0621  H
ATOM     31 H56  BRA L   1      12.193  -5.894  -1.949  1.00  0.00    +0.0621  H
ATOM     32 H57  BRA L   1      12.729  -3.862  -0.716  1.00  0.00    +0.0621  H
BRANCH 23 33
ATOM     33  C9  BRA L   1      14.948  -3.336   0.803  1.00  0.00    +0.1179  C
ATOM     34 H40  BRA L   1      15.184  -2.449   0.202  1.00  0.00    +0.0749  H
ATOM     35 H41  BRA L   1      15.823  -3.532   1.434  1.00  0.00    +0.0749  H
BRANCH 33 36
ATOM     36  O8  BRA L   1      13.836  -3.078   1.672  1.00  0.00    -0.4564 OA
BRANCH 36 37
ATOM     37  C6  BRA L   1      13.879  -3.717   2.867  1.00  0.00    +0.3398  C
ATOM     38  O7  BRA L   1      14.838  -3.823   3.613  1.00  0.00    -0.2449 OA
BRANCH 37 43
ATOM     39  C1  BRA L   1       8.485  -5.253   4.275  1.00  0.00    -0.0397  C
ATOM     40  C2  BRA L   1       9.886  -4.873   3.889  1.00  0.00    -0.0502  A
ATOM     41  C3  BRA L   1      10.352  -3.575   4.117  1.00  0.00    -0.0580  A
ATOM     42  C4  BRA L   1      11.660  -3.232   3.779  1.00  0.00    -0.0473  A
ATOM     43  C5  BRA L   1      12.519  -4.185   3.213  1.00  0.00    +0.0619  A
ATOM     44 C32  BRA L   1      12.084  -5.507   3.016  1.00  0.00    -0.0362  A
ATOM     45 C33  BRA L   1      12.974  -6.573   2.441  1.00  0.00    -0.0389  C
ATOM     46 C34  BRA L   1      10.758  -5.831   3.351  1.00  0.00    -0.0551  A
ATOM     47 H35  BRA L   1       8.097  -6.033   3.612  1.00  0.00    +0.0278  H
ATOM     48 H36  BRA L   1       7.812  -4.394   4.196  1.00  0.00    +0.0278  H
ATOM     49 H37  BRA L   1       8.468  -5.622   5.305  1.00  0.00    +0.0278  H
ATOM     50 H38  BRA L   1       9.696  -2.821   4.549  1.00  0.00    +0.0620  H
ATOM     51 H39  BRA L   1      12.008  -2.216   3.945  1.00  0.00    +0.0626  H
ATOM     52 H58  BRA L   1      12.600  -7.573   2.687  1.00  0.00    +0.0278  H
ATOM     53 H59  BRA L   1      13.985  -6.505   2.855  1.00  0.00    +0.0278  H
ATOM     54 H60  BRA L   1      13.018  -6.483   1.351  1.00  0.00    +0.0278  H
ATOM     55 H61  BRA L   1      10.397  -6.848   3.196  1.00  0.00    +0.0623  H
ENDBRANCH 37 43
ENDBRANCH 36 37
ENDBRANCH 33 36
ENDBRANCH 23 33
ENDBRANCH 21 26
BRANCH 21 56
ATOM     56 C15  BRA L   1      14.790  -9.376  -2.056  1.00  0.00    +0.0085  C
ATOM     57 N16  BRA L   1      14.550 -10.439  -3.037  1.00  0.00    -0.3289 NA
ATOM     58 H45  BRA L   1      15.750  -8.903  -2.298  1.00  0.00    +0.0432  H
ATOM     59 H46  BRA L   1      14.916  -9.834  -1.067  1.00  0.00    +0.0432  H
ATOM     60 H47  BRA L   1      15.377 -11.033  -3.102  1.00  0.00    +0.1182 HD
ATOM     61 H48  BRA L   1      14.423 -10.030  -3.964  1.00  0.00    +0.1182 HD
ENDBRANCH 21 56
ENDBRANCH 17 21
ENDBRANCH 1 19
TORSDOF 8
ENDMDL
MODEL 15
REMARK VINA RESULT:    -6.640      3.296     11.574
REMARK INTER + INTRA:         -11.185
REMARK INTER:                  -9.299
REMARK INTRA:                  -1.887
REMARK UNBOUND:                -1.440
ROOT
ATOM      1 C20  BRA L   1      12.329  -8.197  -2.927  1.00  0.00    +0.0423  A
ATOM      2 C21  BRA L   1      13.559  -7.559  -3.063  1.00  0.00    -0.0377  A
ATOM      3 C22  BRA L   1      13.936  -6.554  -2.166  1.00  0.00    -0.0506  A
ATOM      4 C23  BRA L   1      13.083  -6.173  -1.117  1.00  0.00    +0.0004  A
ATOM      5 C24  BRA L   1      13.402  -5.166  -0.201  1.00  0.00    +0.0353  A
ATOM      6 N25  BRA L   1      12.600  -4.772   0.816  1.00  0.00    -0.2626 NA
ATOM      7 C26  BRA L   1      11.421  -5.416   0.937  1.00  0.00    +0.0281  A
ATOM      8 C27  BRA L   1      11.003  -6.429   0.089  1.00  0.00    -0.0358  A
ATOM      9 C28  BRA L   1      11.844  -6.818  -0.962  1.00  0.00    -0.0131  A
ATOM     10 C29  BRA L   1      11.482  -7.828  -1.870  1.00  0.00    -0.0305  A
ATOM     11 H50  BRA L   1      14.248  -7.810  -3.863  1.00  0.00    +0.0638  H
ATOM     12 H51  BRA L   1      14.900  -6.067  -2.297  1.00  0.00    +0.0625  H
ATOM     13 H52  BRA L   1      14.344  -4.628  -0.264  1.00  0.00    +0.0836  H
ATOM     14 H53  BRA L   1      10.796  -5.086   1.763  1.00  0.00    +0.0830  H
ATOM     15 H54  BRA L   1      10.038  -6.899   0.248  1.00  0.00    +0.0639  H
ATOM     16 H55  BRA L   1      10.519  -8.322  -1.753  1.00  0.00    +0.0644  H
ENDROOT
BRANCH 1 19
ATOM     17 C17  BRA L   1      11.032  -9.034  -4.914  1.00  0.00    +0.2339  C
ATOM     18 O18  BRA L   1      10.662  -7.962  -5.390  1.00  0.00    -0.2722 OA
ATOM     19 N19  BRA L   1      11.851  -9.189  -3.805  1.00  0.00    -0.3256  N
ATOM     20 H49  BRA L   1      12.082 -10.143  -3.548  1.00  0.00    +0.1686 HD
BRANCH 17 21
ATOM     21 C14  BRA L   1      10.630 -10.362  -5.590  1.00  0.00    +0.0752  C
ATOM     22 H44  BRA L   1      11.254 -11.146  -5.137  1.00  0.00    +0.0458  H
BRANCH 21 26
ATOM     23 C10  BRA L   1      11.486  -9.937  -9.828  1.00  0.00    -0.0103  A
ATOM     24 C11  BRA L   1      12.325  -9.376  -8.859  1.00  0.00    -0.0551  A
ATOM     25 C12  BRA L   1      12.070  -9.575  -7.502  1.00  0.00    -0.0574  A
ATOM     26 C13  BRA L   1      10.970 -10.344  -7.081  1.00  0.00    -0.0341  A
ATOM     27 C30  BRA L   1      10.174 -10.958  -8.056  1.00  0.00    -0.0574  A
ATOM     28 C31  BRA L   1      10.428 -10.753  -9.415  1.00  0.00    -0.0551  A
ATOM     29 H42  BRA L   1      13.158  -8.741  -9.157  1.00  0.00    +0.0621  H
ATOM     30 H43  BRA L   1      12.712  -9.086  -6.771  1.00  0.00    +0.0621  H
ATOM     31 H56  BRA L   1       9.326 -11.580  -7.782  1.00  0.00    +0.0621  H
ATOM     32 H57  BRA L   1       9.765 -11.206 -10.150  1.00  0.00    +0.0621  H
BRANCH 23 33
ATOM     33  C9  BRA L   1      11.690  -9.623 -11.289  1.00  0.00    +0.1179  C
ATOM     34 H40  BRA L   1      11.232 -10.372 -11.948  1.00  0.00    +0.0749  H
ATOM     35 H41  BRA L   1      12.763  -9.621 -11.510  1.00  0.00    +0.0749  H
BRANCH 33 36
ATOM     36  O8  BRA L   1      11.184  -8.313 -11.582  1.00  0.00    -0.4564 OA
BRANCH 36 37
ATOM     37  C6  BRA L   1      10.193  -8.273 -12.507  1.00  0.00    +0.3398  C
ATOM     38  O7  BRA L   1      10.291  -7.956 -13.680  1.00  0.00    -0.2449 OA
BRANCH 37 43
ATOM     39  C1  BRA L   1       5.303 -10.078 -10.004  1.00  0.00    -0.0397  C
ATOM     40  C2  BRA L   1       6.566  -9.621 -10.677  1.00  0.00    -0.0502  A
ATOM     41  C3  BRA L   1       7.200  -8.447 -10.263  1.00  0.00    -0.0580  A
ATOM     42  C4  BRA L   1       8.383  -8.038 -10.874  1.00  0.00    -0.0473  A
ATOM     43  C5  BRA L   1       8.950  -8.803 -11.905  1.00  0.00    +0.0619  A
ATOM     44 C32  BRA L   1       8.352 -10.010 -12.306  1.00  0.00    -0.0362  A
ATOM     45 C33  BRA L   1       8.934 -10.881 -13.384  1.00  0.00    -0.0389  C
ATOM     46 C34  BRA L   1       7.152 -10.400 -11.687  1.00  0.00    -0.0551  A
ATOM     47 H35  BRA L   1       4.669 -10.634 -10.701  1.00  0.00    +0.0278  H
ATOM     48 H36  BRA L   1       4.721  -9.223  -9.645  1.00  0.00    +0.0278  H
ATOM     49 H37  BRA L   1       5.545 -10.723  -9.154  1.00  0.00    +0.0278  H
ATOM     50 H38  BRA L   1       6.770  -7.838  -9.469  1.00  0.00    +0.0620  H
ATOM     51 H39  BRA L   1       8.861  -7.115 -10.557  1.00  0.00    +0.0626  H
ATOM     52 H58  BRA L   1       8.551 -11.905 -13.313  1.00  0.00    +0.0278  H
ATOM     53 H59  BRA L   1      10.023 -10.945 -13.291  1.00  0.00    +0.0278  H
ATOM     54 H60  BRA L   1       8.674 -10.487 -14.371  1.00  0.00    +0.0278  H
ATOM     55 H61  BRA L   1       6.665 -11.326 -11.991  1.00  0.00    +0.0623  H
ENDBRANCH 37 43
ENDBRANCH 36 37
ENDBRANCH 33 36
ENDBRANCH 23 33
ENDBRANCH 21 26
BRANCH 21 56
ATOM     56 C15  BRA L   1       9.166 -10.642  -5.181  1.00  0.00    +0.0085  C
ATOM     57 N16  BRA L   1       8.636  -9.707  -4.183  1.00  0.00    -0.3289 NA
ATOM     58 H45  BRA L   1       8.526 -10.586  -6.071  1.00  0.00    +0.0432  H
ATOM     59 H46  BRA L   1       9.061 -11.663  -4.794  1.00  0.00    +0.0432  H
ATOM     60 H47  BRA L   1       7.635  -9.867  -4.068  1.00  0.00    +0.1182 HD
ATOM     61 H48  BRA L   1       8.732  -8.750  -4.524  1.00  0.00    +0.1182 HD
ENDBRANCH 21 56
ENDBRANCH 17 21
ENDBRANCH 1 19
TORSDOF 8
ENDMDL
MODEL 16
REMARK VINA RESULT:    -6.563      3.149     11.157
REMARK INTER + INTRA:         -11.072
REMARK INTER:                 -10.134
REMARK INTRA:                  -0.938
REMARK UNBOUND:                -1.440
ROOT
ATOM      1 C20  BRA L   1      11.515  -5.857   1.866  1.00  0.00    +0.0423  A
ATOM      2 C21  BRA L   1      10.256  -6.199   2.355  1.00  0.00    -0.0377  A
ATOM      3 C22  BRA L   1       9.647  -5.419   3.344  1.00  0.00    -0.0506  A
ATOM      4 C23  BRA L   1      10.292  -4.282   3.859  1.00  0.00    +0.0004  A
ATOM      5 C24  BRA L   1       9.738  -3.476   4.856  1.00  0.00    +0.0353  A
ATOM      6 N25  BRA L   1      10.336  -2.379   5.378  1.00  0.00    -0.2626 NA
ATOM      7 C26  BRA L   1      11.547  -2.059   4.877  1.00  0.00    +0.0281  A
ATOM      8 C27  BRA L   1      12.190  -2.785   3.887  1.00  0.00    -0.0358  A
ATOM      9 C28  BRA L   1      11.558  -3.921   3.365  1.00  0.00    -0.0131  A
ATOM     10 C29  BRA L   1      12.154  -4.713   2.369  1.00  0.00    -0.0305  A
ATOM     11 H50  BRA L   1       9.721  -7.073   1.997  1.00  0.00    +0.0638  H
ATOM     12 H51  BRA L   1       8.665  -5.710   3.713  1.00  0.00    +0.0625  H
ATOM     13 H52  BRA L   1       8.762  -3.699   5.282  1.00  0.00    +0.0836  H
ATOM     14 H53  BRA L   1      12.006  -1.173   5.306  1.00  0.00    +0.0830  H
ATOM     15 H54  BRA L   1      13.167  -2.466   3.536  1.00  0.00    +0.0639  H
ATOM     16 H55  BRA L   1      13.137  -4.435   1.993  1.00  0.00    +0.0644  H
ENDROOT
BRANCH 1 19
ATOM     17 C17  BRA L   1      12.008  -6.659  -0.467  1.00  0.00    +0.2339  C
ATOM     18 O18  BRA L   1      11.218  -5.962  -1.101  1.00  0.00    -0.2722 OA
ATOM     19 N19  BRA L   1      12.218  -6.605   0.904  1.00  0.00    -0.3256  N
ATOM     20 H49  BRA L   1      12.921  -7.236   1.275  1.00  0.00    +0.1686 HD
BRANCH 17 21
ATOM     21 C14  BRA L   1      12.915  -7.668  -1.203  1.00  0.00    +0.0752  C
ATOM     22 H44  BRA L   1      13.837  -7.129  -1.465  1.00  0.00    +0.0458  H
BRANCH 21 26
ATOM     23 C10  BRA L   1      11.233  -9.295  -4.863  1.00  0.00    -0.0103  A
ATOM     24 C11  BRA L   1      10.614  -9.503  -3.625  1.00  0.00    -0.0551  A
ATOM     25 C12  BRA L   1      11.133  -8.920  -2.469  1.00  0.00    -0.0574  A
ATOM     26 C13  BRA L   1      12.283  -8.113  -2.522  1.00  0.00    -0.0341  A
ATOM     27 C30  BRA L   1      12.858  -7.855  -3.774  1.00  0.00    -0.0574  A
ATOM     28 C31  BRA L   1      12.340  -8.444  -4.930  1.00  0.00    -0.0551  A
ATOM     29 H42  BRA L   1       9.747 -10.157  -3.549  1.00  0.00    +0.0621  H
ATOM     30 H43  BRA L   1      10.658  -9.138  -1.513  1.00  0.00    +0.0621  H
ATOM     31 H56  BRA L   1      13.736  -7.220  -3.871  1.00  0.00    +0.0621  H
ATOM     32 H57  BRA L   1      12.836  -8.263  -5.882  1.00  0.00    +0.0621  H
BRANCH 23 33
ATOM     33  C9  BRA L   1      10.745 -10.021  -6.091  1.00  0.00    +0.1179  C
ATOM     34 H40  BRA L   1       9.763 -10.488  -5.942  1.00  0.00    +0.0749  H
ATOM     35 H41  BRA L   1      11.446 -10.828  -6.335  1.00  0.00    +0.0749  H
BRANCH 33 36
ATOM     36  O8  BRA L   1      10.713  -9.121  -7.209  1.00  0.00    -0.4564 OA
BRANCH 36 37
ATOM     37  C6  BRA L   1       9.770  -8.151  -7.140  1.00  0.00    +0.3398  C
ATOM     38  O7  BRA L   1       9.870  -7.060  -6.603  1.00  0.00    -0.2449 OA
BRANCH 37 43
ATOM     39  C1  BRA L   1       5.333  -9.678 -10.519  1.00  0.00    -0.0397  C
ATOM     40  C2  BRA L   1       6.480  -9.303  -9.625  1.00  0.00    -0.0502  A
ATOM     41  C3  BRA L   1       7.572  -8.599 -10.139  1.00  0.00    -0.0580  A
ATOM     42  C4  BRA L   1       8.625  -8.233  -9.302  1.00  0.00    -0.0473  A
ATOM     43  C5  BRA L   1       8.595  -8.562  -7.939  1.00  0.00    +0.0619  A
ATOM     44 C32  BRA L   1       7.485  -9.231  -7.394  1.00  0.00    -0.0362  A
ATOM     45 C33  BRA L   1       7.390  -9.582  -5.935  1.00  0.00    -0.0389  C
ATOM     46 C34  BRA L   1       6.439  -9.604  -8.255  1.00  0.00    -0.0551  A
ATOM     47 H35  BRA L   1       4.860 -10.605 -10.178  1.00  0.00    +0.0278  H
ATOM     48 H36  BRA L   1       5.675  -9.846 -11.545  1.00  0.00    +0.0278  H
ATOM     49 H37  BRA L   1       4.585  -8.879 -10.522  1.00  0.00    +0.0278  H
ATOM     50 H38  BRA L   1       7.614  -8.341 -11.196  1.00  0.00    +0.0620  H
ATOM     51 H39  BRA L   1       9.478  -7.699  -9.714  1.00  0.00    +0.0626  H
ATOM     52 H58  BRA L   1       6.351  -9.766  -5.641  1.00  0.00    +0.0278  H
ATOM     53 H59  BRA L   1       7.753  -8.759  -5.310  1.00  0.00    +0.0278  H
ATOM     54 H60  BRA L   1       7.971 -10.485  -5.723  1.00  0.00    +0.0278  H
ATOM     55 H61  BRA L   1       5.575 -10.134  -7.855  1.00  0.00    +0.0623  H
ENDBRANCH 37 43
ENDBRANCH 36 37
ENDBRANCH 33 36
ENDBRANCH 23 33
ENDBRANCH 21 26
BRANCH 21 56
ATOM     56 C15  BRA L   1      13.294  -8.757  -0.173  1.00  0.00    +0.0085  C
ATOM     57 N16  BRA L   1      14.576  -8.522   0.499  1.00  0.00    -0.3289 NA
ATOM     58 H45  BRA L   1      12.514  -8.813   0.596  1.00  0.00    +0.0432  H
ATOM     59 H46  BRA L   1      13.326  -9.745  -0.650  1.00  0.00    +0.0432  H
ATOM     60 H47  BRA L   1      14.692  -9.198   1.254  1.00  0.00    +0.1182 HD
ATOM     61 H48  BRA L   1      14.568  -7.602   0.943  1.00  0.00    +0.1182 HD
ENDBRANCH 21 56
ENDBRANCH 17 21
ENDBRANCH 1 19
TORSDOF 8
ENDMDL
MODEL 17
REMARK VINA RESULT:    -6.525      3.913     11.885
REMARK INTER + INTRA:         -11.016
REMARK INTER:                  -9.880
REMARK INTRA:                  -1.136
REMARK UNBOUND:                -1.440
ROOT
ATOM      1 C20  BRA L   1      12.680  -7.005  -0.961  1.00  0.00    +0.0423  A
ATOM      2 C21  BRA L   1      11.849  -7.130   0.150  1.00  0.00    -0.0377  A
ATOM      3 C22  BRA L   1      11.987  -6.259   1.236  1.00  0.00    -0.0506  A
ATOM      4 C23  BRA L   1      12.962  -5.248   1.225  1.00  0.00    +0.0004  A
ATOM      5 C24  BRA L   1      13.154  -4.361   2.287  1.00  0.00    +0.0353  A
ATOM      6 N25  BRA L   1      14.089  -3.381   2.310  1.00  0.00    -0.2626 NA
ATOM      7 C26  BRA L   1      14.870  -3.270   1.217  1.00  0.00    +0.0281  A
ATOM      8 C27  BRA L   1      14.768  -4.093   0.106  1.00  0.00    -0.0358  A
ATOM      9 C28  BRA L   1      13.799  -5.106   0.104  1.00  0.00    -0.0131  A
ATOM     10 C29  BRA L   1      13.646  -5.987  -0.980  1.00  0.00    -0.0305  A
ATOM     11 H50  BRA L   1      11.087  -7.901   0.210  1.00  0.00    +0.0638  H
ATOM     12 H51  BRA L   1      11.328  -6.381   2.094  1.00  0.00    +0.0625  H
ATOM     13 H52  BRA L   1      12.541  -4.416   3.183  1.00  0.00    +0.0836  H
ATOM     14 H53  BRA L   1      15.609  -2.474   1.255  1.00  0.00    +0.0830  H
ATOM     15 H54  BRA L   1      15.435  -3.944  -0.736  1.00  0.00    +0.0639  H
ATOM     16 H55  BRA L   1      14.299  -5.879  -1.843  1.00  0.00    +0.0644  H
ENDROOT
BRANCH 1 19
ATOM     17 C17  BRA L   1      11.534  -8.464  -2.661  1.00  0.00    +0.2339  C
ATOM     18 O18  BRA L   1      10.361  -8.262  -2.355  1.00  0.00    -0.2722 OA
ATOM     19 N19  BRA L   1      12.640  -7.861  -2.078  1.00  0.00    -0.3256  N
ATOM     20 H49  BRA L   1      13.544  -8.121  -2.458  1.00  0.00    +0.1686 HD
BRANCH 17 21
ATOM     21 C14  BRA L   1      11.879  -9.421  -3.822  1.00  0.00    +0.0752  C
ATOM     22 H44  BRA L   1      12.976  -9.483  -3.863  1.00  0.00    +0.0458  H
BRANCH 21 26
ATOM     23 C10  BRA L   1      10.538  -7.438  -7.447  1.00  0.00    -0.0103  A
ATOM     24 C11  BRA L   1      11.805  -7.186  -6.909  1.00  0.00    -0.0551  A
ATOM     25 C12  BRA L   1      12.244  -7.879  -5.781  1.00  0.00    -0.0574  A
ATOM     26 C13  BRA L   1      11.426  -8.842  -5.163  1.00  0.00    -0.0341  A
ATOM     27 C30  BRA L   1      10.187  -9.137  -5.746  1.00  0.00    -0.0574  A
ATOM     28 C31  BRA L   1       9.747  -8.439  -6.874  1.00  0.00    -0.0551  A
ATOM     29 H42  BRA L   1      12.440  -6.416  -7.342  1.00  0.00    +0.0621  H
ATOM     30 H43  BRA L   1      13.215  -7.627  -5.356  1.00  0.00    +0.0621  H
ATOM     31 H56  BRA L   1       9.528  -9.889  -5.320  1.00  0.00    +0.0621  H
ATOM     32 H57  BRA L   1       8.759  -8.657  -7.277  1.00  0.00    +0.0621  H
BRANCH 23 33
ATOM     33  C9  BRA L   1      10.015  -6.607  -8.592  1.00  0.00    +0.1179  C
ATOM     34 H40  BRA L   1       9.890  -5.551  -8.321  1.00  0.00    +0.0749  H
ATOM     35 H41  BRA L   1       9.026  -6.978  -8.884  1.00  0.00    +0.0749  H
BRANCH 33 36
ATOM     36  O8  BRA L   1      10.882  -6.739  -9.728  1.00  0.00    -0.4564 OA
BRANCH 36 37
ATOM     37  C6  BRA L   1      10.579  -7.761 -10.566  1.00  0.00    +0.3398  C
ATOM     38  O7  BRA L   1       9.682  -8.578 -10.440  1.00  0.00    -0.2449 OA
BRANCH 37 43
ATOM     39  C1  BRA L   1      13.723  -7.292 -15.396  1.00  0.00    -0.0397  C
ATOM     40  C2  BRA L   1      12.929  -7.408 -14.127  1.00  0.00    -0.0502  A
ATOM     41  C3  BRA L   1      11.554  -7.155 -14.130  1.00  0.00    -0.0580  A
ATOM     42  C4  BRA L   1      10.816  -7.285 -12.956  1.00  0.00    -0.0473  A
ATOM     43  C5  BRA L   1      11.443  -7.675 -11.763  1.00  0.00    +0.0619  A
ATOM     44 C32  BRA L   1      12.817  -7.977 -11.748  1.00  0.00    -0.0362  A
ATOM     45 C33  BRA L   1      13.531  -8.427 -10.505  1.00  0.00    -0.0389  C
ATOM     46 C34  BRA L   1      13.547  -7.827 -12.939  1.00  0.00    -0.0551  A
ATOM     47 H35  BRA L   1      14.755  -6.995 -15.184  1.00  0.00    +0.0278  H
ATOM     48 H36  BRA L   1      13.294  -6.532 -16.057  1.00  0.00    +0.0278  H
ATOM     49 H37  BRA L   1      13.731  -8.253 -15.920  1.00  0.00    +0.0278  H
ATOM     50 H38  BRA L   1      11.053  -6.845 -15.045  1.00  0.00    +0.0620  H
ATOM     51 H39  BRA L   1       9.750  -7.071 -12.964  1.00  0.00    +0.0626  H
ATOM     52 H58  BRA L   1      14.467  -8.938 -10.751  1.00  0.00    +0.0278  H
ATOM     53 H59  BRA L   1      12.922  -9.141  -9.939  1.00  0.00    +0.0278  H
ATOM     54 H60  BRA L   1      13.768  -7.566  -9.871  1.00  0.00    +0.0278  H
ATOM     55 H61  BRA L   1      14.615  -8.045 -12.946  1.00  0.00    +0.0623  H
ENDBRANCH 37 43
ENDBRANCH 36 37
ENDBRANCH 33 36
ENDBRANCH 23 33
ENDBRANCH 21 26
BRANCH 21 56
ATOM     56 C15  BRA L   1      11.352 -10.817  -3.417  1.00  0.00    +0.0085  C
ATOM     57 N16  BRA L   1      11.089 -10.962  -1.982  1.00  0.00    -0.3289 NA
ATOM     58 H45  BRA L   1      10.417 -11.019  -3.955  1.00  0.00    +0.0432  H
ATOM     59 H46  BRA L   1      12.057 -11.600  -3.724  1.00  0.00    +0.0432  H
ATOM     60 H47  BRA L   1      10.618 -11.851  -1.812  1.00  0.00    +0.1182 HD
ATOM     61 H48  BRA L   1      10.440 -10.235  -1.676  1.00  0.00    +0.1182 HD
ENDBRANCH 21 56
ENDBRANCH 17 21
ENDBRANCH 1 19
TORSDOF 8
ENDMDL
MODEL 18
REMARK VINA RESULT:    -6.520      5.773     11.337
REMARK INTER + INTRA:         -11.009
REMARK INTER:                 -10.437
REMARK INTRA:                  -0.572
REMARK UNBOUND:                -1.440
ROOT
ATOM      1 C20  BRA L   1       9.439  -6.867   6.374  1.00  0.00    +0.0423  A
ATOM      2 C21  BRA L   1      10.287  -7.439   7.319  1.00  0.00    -0.0377  A
ATOM      3 C22  BRA L   1      10.052  -8.737   7.786  1.00  0.00    -0.0506  A
ATOM      4 C23  BRA L   1       8.959  -9.482   7.311  1.00  0.00    +0.0004  A
ATOM      5 C24  BRA L   1       8.667 -10.775   7.753  1.00  0.00    +0.0353  A
ATOM      6 N25  BRA L   1       7.619 -11.516   7.321  1.00  0.00    -0.2626 NA
ATOM      7 C26  BRA L   1       6.822 -10.947   6.394  1.00  0.00    +0.0281  A
ATOM      8 C27  BRA L   1       7.016  -9.672   5.884  1.00  0.00    -0.0358  A
ATOM      9 C28  BRA L   1       8.102  -8.918   6.349  1.00  0.00    -0.0131  A
ATOM     10 C29  BRA L   1       8.355  -7.615   5.888  1.00  0.00    -0.0305  A
ATOM     11 H50  BRA L   1      11.139  -6.901   7.723  1.00  0.00    +0.0638  H
ATOM     12 H51  BRA L   1      10.726  -9.159   8.528  1.00  0.00    +0.0625  H
ATOM     13 H52  BRA L   1       9.289 -11.269   8.495  1.00  0.00    +0.0836  H
ATOM     14 H53  BRA L   1       5.991 -11.560   6.059  1.00  0.00    +0.0830  H
ATOM     15 H54  BRA L   1       6.329  -9.280   5.141  1.00  0.00    +0.0639  H
ATOM     16 H55  BRA L   1       7.687  -7.179   5.148  1.00  0.00    +0.0644  H
ENDROOT
BRANCH 1 19
ATOM     17 C17  BRA L   1       8.580  -4.628   5.613  1.00  0.00    +0.2339  C
ATOM     18 O18  BRA L   1       7.385  -4.762   5.870  1.00  0.00    -0.2722 OA
ATOM     19 N19  BRA L   1       9.576  -5.556   5.880  1.00  0.00    -0.3256  N
ATOM     20 H49  BRA L   1      10.520  -5.287   5.623  1.00  0.00    +0.1686 HD
BRANCH 17 21
ATOM     21 C14  BRA L   1       9.095  -3.315   4.985  1.00  0.00    +0.0752  C
ATOM     22 H44  BRA L   1       8.308  -2.964   4.302  1.00  0.00    +0.0458  H
BRANCH 21 26
ATOM     23 C10  BRA L   1      12.667  -4.361   2.745  1.00  0.00    -0.0103  A
ATOM     24 C11  BRA L   1      11.455  -5.025   2.528  1.00  0.00    -0.0551  A
ATOM     25 C12  BRA L   1      10.303  -4.635   3.211  1.00  0.00    -0.0574  A
ATOM     26 C13  BRA L   1      10.334  -3.568   4.126  1.00  0.00    -0.0341  A
ATOM     27 C30  BRA L   1      11.535  -2.864   4.288  1.00  0.00    -0.0574  A
ATOM     28 C31  BRA L   1      12.690  -3.260   3.607  1.00  0.00    -0.0551  A
ATOM     29 H42  BRA L   1      11.412  -5.882   1.858  1.00  0.00    +0.0621  H
ATOM     30 H43  BRA L   1       9.385  -5.201   3.057  1.00  0.00    +0.0621  H
ATOM     31 H56  BRA L   1      11.606  -2.018   4.966  1.00  0.00    +0.0621  H
ATOM     32 H57  BRA L   1      13.619  -2.724   3.788  1.00  0.00    +0.0621  H
BRANCH 23 33
ATOM     33  C9  BRA L   1      13.936  -4.859   2.100  1.00  0.00    +0.1179  C
ATOM     34 H40  BRA L   1      14.599  -5.366   2.813  1.00  0.00    +0.0749  H
ATOM     35 H41  BRA L   1      14.495  -4.005   1.700  1.00  0.00    +0.0749  H
BRANCH 33 36
ATOM     36  O8  BRA L   1      13.619  -5.724   1.000  1.00  0.00    -0.4564 OA
BRANCH 36 37
ATOM     37  C6  BRA L   1      13.584  -5.120  -0.213  1.00  0.00    +0.3398  C
ATOM     38  O7  BRA L   1      13.807  -3.947  -0.462  1.00  0.00    -0.2449 OA
BRANCH 37 43
ATOM     39  C1  BRA L   1      12.957  -9.162  -4.301  1.00  0.00    -0.0397  C
ATOM     40  C2  BRA L   1      13.098  -8.122  -3.227  1.00  0.00    -0.0502  A
ATOM     41  C3  BRA L   1      14.354  -7.594  -2.918  1.00  0.00    -0.0580  A
ATOM     42  C4  BRA L   1      14.478  -6.613  -1.936  1.00  0.00    -0.0473  A
ATOM     43  C5  BRA L   1      13.346  -6.144  -1.254  1.00  0.00    +0.0619  A
ATOM     44 C32  BRA L   1      12.067  -6.631  -1.581  1.00  0.00    -0.0362  A
ATOM     45 C33  BRA L   1      10.819  -6.141  -0.902  1.00  0.00    -0.0389  C
ATOM     46 C34  BRA L   1      11.963  -7.629  -2.564  1.00  0.00    -0.0551  A
ATOM     47 H35  BRA L   1      12.116  -9.830  -4.089  1.00  0.00    +0.0278  H
ATOM     48 H36  BRA L   1      13.856  -9.782  -4.364  1.00  0.00    +0.0278  H
ATOM     49 H37  BRA L   1      12.791  -8.679  -5.269  1.00  0.00    +0.0278  H
ATOM     50 H38  BRA L   1      15.244  -7.951  -3.432  1.00  0.00    +0.0620  H
ATOM     51 H39  BRA L   1      15.462  -6.220  -1.691  1.00  0.00    +0.0626  H
ATOM     52 H58  BRA L   1       9.931  -6.356  -1.506  1.00  0.00    +0.0278  H
ATOM     53 H59  BRA L   1      10.849  -5.055  -0.762  1.00  0.00    +0.0278  H
ATOM     54 H60  BRA L   1      10.698  -6.631   0.069  1.00  0.00    +0.0278  H
ATOM     55 H61  BRA L   1      10.983  -8.028  -2.824  1.00  0.00    +0.0623  H
ENDBRANCH 37 43
ENDBRANCH 36 37
ENDBRANCH 33 36
ENDBRANCH 23 33
ENDBRANCH 21 26
BRANCH 21 56
ATOM     56 C15  BRA L   1       9.203  -2.287   6.134  1.00  0.00    +0.0085  C
ATOM     57 N16  BRA L   1       8.496  -1.028   5.876  1.00  0.00    -0.3289 NA
ATOM     58 H45  BRA L   1       8.790  -2.726   7.051  1.00  0.00    +0.0432  H
ATOM     59 H46  BRA L   1      10.254  -2.059   6.351  1.00  0.00    +0.0432  H
ATOM     60 H47  BRA L   1       8.494  -0.460   6.724  1.00  0.00    +0.1182 HD
ATOM     61 H48  BRA L   1       7.516  -1.222   5.664  1.00  0.00    +0.1182 HD
ENDBRANCH 21 56
ENDBRANCH 17 21
ENDBRANCH 1 19
TORSDOF 8
ENDMDL
MODEL 19
REMARK VINA RESULT:    -6.426      3.750     11.462
REMARK INTER + INTRA:         -10.871
REMARK INTER:                  -9.898
REMARK INTRA:                  -0.973
REMARK UNBOUND:                -1.440
ROOT
ATOM      1 C20  BRA L   1      10.631  -4.528   2.917  1.00  0.00    +0.0423  A
ATOM      2 C21  BRA L   1      10.714  -3.413   3.747  1.00  0.00    -0.0377  A
ATOM      3 C22  BRA L   1      10.059  -3.402   4.983  1.00  0.00    -0.0506  A
ATOM      4 C23  BRA L   1       9.309  -4.512   5.406  1.00  0.00    +0.0004  A
ATOM      5 C24  BRA L   1       8.623  -4.551   6.622  1.00  0.00    +0.0353  A
ATOM      6 N25  BRA L   1       7.886  -5.602   7.056  1.00  0.00    -0.2626 NA
ATOM      7 C26  BRA L   1       7.834  -6.676   6.242  1.00  0.00    +0.0281  A
ATOM      8 C27  BRA L   1       8.475  -6.748   5.015  1.00  0.00    -0.0358  A
ATOM      9 C28  BRA L   1       9.227  -5.648   4.581  1.00  0.00    -0.0131  A
ATOM     10 C29  BRA L   1       9.894  -5.643   3.344  1.00  0.00    -0.0305  A
ATOM     11 H50  BRA L   1      11.273  -2.527   3.461  1.00  0.00    +0.0638  H
ATOM     12 H51  BRA L   1      10.136  -2.517   5.611  1.00  0.00    +0.0625  H
ATOM     13 H52  BRA L   1       8.645  -3.707   7.307  1.00  0.00    +0.0836  H
ATOM     14 H53  BRA L   1       7.242  -7.508   6.611  1.00  0.00    +0.0830  H
ATOM     15 H54  BRA L   1       8.385  -7.647   4.413  1.00  0.00    +0.0639  H
ATOM     16 H55  BRA L   1       9.824  -6.521   2.704  1.00  0.00    +0.0644  H
ENDROOT
BRANCH 1 19
ATOM     17 C17  BRA L   1      12.356  -5.316   1.262  1.00  0.00    +0.2339  C
ATOM     18 O18  BRA L   1      12.989  -6.094   1.972  1.00  0.00    -0.2722 OA
ATOM     19 N19  BRA L   1      11.223  -4.610   1.642  1.00  0.00    -0.3256  N
ATOM     20 H49  BRA L   1      10.803  -4.019   0.931  1.00  0.00    +0.1686 HD
BRANCH 17 21
ATOM     21 C14  BRA L   1      12.770  -5.096  -0.208  1.00  0.00    +0.0752  C
ATOM     22 H44  BRA L   1      12.122  -4.300  -0.602  1.00  0.00    +0.0458  H
BRANCH 21 26
ATOM     23 C10  BRA L   1      11.863  -8.394  -2.887  1.00  0.00    -0.0103  A
ATOM     24 C11  BRA L   1      13.014  -7.617  -3.057  1.00  0.00    -0.0551  A
ATOM     25 C12  BRA L   1      13.323  -6.603  -2.150  1.00  0.00    -0.0574  A
ATOM     26 C13  BRA L   1      12.487  -6.341  -1.050  1.00  0.00    -0.0341  A
ATOM     27 C30  BRA L   1      11.373  -7.166  -0.848  1.00  0.00    -0.0574  A
ATOM     28 C31  BRA L   1      11.062  -8.178  -1.760  1.00  0.00    -0.0551  A
ATOM     29 H42  BRA L   1      13.655  -7.770  -3.923  1.00  0.00    +0.0621  H
ATOM     30 H43  BRA L   1      14.199  -5.984  -2.335  1.00  0.00    +0.0621  H
ATOM     31 H56  BRA L   1      10.708  -7.019  -0.001  1.00  0.00    +0.0621  H
ATOM     32 H57  BRA L   1      10.164  -8.772  -1.603  1.00  0.00    +0.0621  H
BRANCH 23 33
ATOM     33  C9  BRA L   1      11.464  -9.408  -3.930  1.00  0.00    +0.1179  C
ATOM     34 H40  BRA L   1      10.399  -9.666  -3.880  1.00  0.00    +0.0749  H
ATOM     35 H41  BRA L   1      12.023 -10.336  -3.761  1.00  0.00    +0.0749  H
BRANCH 33 36
ATOM     36  O8  BRA L   1      11.809  -8.926  -5.237  1.00  0.00    -0.4564 OA
BRANCH 36 37
ATOM     37  C6  BRA L   1      10.755  -8.639  -6.039  1.00  0.00    +0.3398  C
ATOM     38  O7  BRA L   1       9.593  -8.477  -5.704  1.00  0.00    -0.2449 OA
BRANCH 37 43
ATOM     39  C1  BRA L   1      12.945  -7.726 -11.312  1.00  0.00    -0.0397  C
ATOM     40  C2  BRA L   1      12.361  -7.983  -9.953  1.00  0.00    -0.0502  A
ATOM     41  C3  BRA L   1      13.084  -7.656  -8.802  1.00  0.00    -0.0580  A
ATOM     42  C4  BRA L   1      12.530  -7.876  -7.543  1.00  0.00    -0.0473  A
ATOM     43  C5  BRA L   1      11.244  -8.421  -7.418  1.00  0.00    +0.0619  A
ATOM     44 C32  BRA L   1      10.483  -8.717  -8.563  1.00  0.00    -0.0362  A
ATOM     45 C33  BRA L   1       9.090  -9.275  -8.486  1.00  0.00    -0.0389  C
ATOM     46 C34  BRA L   1      11.063  -8.500  -9.825  1.00  0.00    -0.0551  A
ATOM     47 H35  BRA L   1      12.574  -8.454 -12.040  1.00  0.00    +0.0278  H
ATOM     48 H36  BRA L   1      14.036  -7.812 -11.292  1.00  0.00    +0.0278  H
ATOM     49 H37  BRA L   1      12.676  -6.720 -11.649  1.00  0.00    +0.0278  H
ATOM     50 H38  BRA L   1      14.086  -7.238  -8.881  1.00  0.00    +0.0620  H
ATOM     51 H39  BRA L   1      13.106  -7.633  -6.653  1.00  0.00    +0.0626  H
ATOM     52 H58  BRA L   1       8.546  -9.109  -9.422  1.00  0.00    +0.0278  H
ATOM     53 H59  BRA L   1       8.514  -8.782  -7.696  1.00  0.00    +0.0278  H
ATOM     54 H60  BRA L   1       9.123 -10.352  -8.296  1.00  0.00    +0.0278  H
ATOM     55 H61  BRA L   1      10.495  -8.733 -10.726  1.00  0.00    +0.0623  H
ENDBRANCH 37 43
ENDBRANCH 36 37
ENDBRANCH 33 36
ENDBRANCH 23 33
ENDBRANCH 21 26
BRANCH 21 56
ATOM     56 C15  BRA L   1      14.215  -4.547  -0.185  1.00  0.00    +0.0085  C
ATOM     57 N16  BRA L   1      14.474  -3.598   0.903  1.00  0.00    -0.3289 NA
ATOM     58 H45  BRA L   1      14.917  -5.383  -0.079  1.00  0.00    +0.0432  H
ATOM     59 H46  BRA L   1      14.459  -4.061  -1.137  1.00  0.00    +0.0432  H
ATOM     60 H47  BRA L   1      15.472  -3.388   0.939  1.00  0.00    +0.1182 HD
ATOM     61 H48  BRA L   1      14.244  -4.031   1.799  1.00  0.00    +0.1182 HD
ENDBRANCH 21 56
ENDBRANCH 17 21
ENDBRANCH 1 19
TORSDOF 8
ENDMDL
MODEL 20
REMARK VINA RESULT:    -6.378      4.489     11.348
REMARK INTER + INTRA:         -10.801
REMARK INTER:                  -8.493
REMARK INTRA:                  -2.307
REMARK UNBOUND:                -1.440
ROOT
ATOM      1 C20  BRA L   1      10.842  -9.169  -5.269  1.00  0.00    +0.0423  A
ATOM      2 C21  BRA L   1      12.008  -8.583  -5.755  1.00  0.00    -0.0377  A
ATOM      3 C22  BRA L   1      12.956  -8.057  -4.871  1.00  0.00    -0.0506  A
ATOM      4 C23  BRA L   1      12.747  -8.110  -3.483  1.00  0.00    +0.0004  A
ATOM      5 C24  BRA L   1      13.652  -7.588  -2.554  1.00  0.00    +0.0353  A
ATOM      6 N25  BRA L   1      13.478  -7.619  -1.212  1.00  0.00    -0.2626 NA
ATOM      7 C26  BRA L   1      12.349  -8.206  -0.765  1.00  0.00    +0.0281  A
ATOM      8 C27  BRA L   1      11.385  -8.757  -1.593  1.00  0.00    -0.0358  A
ATOM      9 C28  BRA L   1      11.579  -8.711  -2.980  1.00  0.00    -0.0131  A
ATOM     10 C29  BRA L   1      10.639  -9.237  -3.882  1.00  0.00    -0.0305  A
ATOM     11 H50  BRA L   1      12.210  -8.508  -6.819  1.00  0.00    +0.0638  H
ATOM     12 H51  BRA L   1      13.856  -7.599  -5.276  1.00  0.00    +0.0625  H
ATOM     13 H52  BRA L   1      14.574  -7.111  -2.876  1.00  0.00    +0.0836  H
ATOM     14 H53  BRA L   1      12.233  -8.223   0.315  1.00  0.00    +0.0830  H
ATOM     15 H54  BRA L   1      10.499  -9.212  -1.159  1.00  0.00    +0.0639  H
ATOM     16 H55  BRA L   1       9.733  -9.695  -3.491  1.00  0.00    +0.0644  H
ENDROOT
BRANCH 1 19
ATOM     17 C17  BRA L   1       8.957  -8.996  -6.927  1.00  0.00    +0.2339  C
ATOM     18 O18  BRA L   1       9.016  -7.797  -7.189  1.00  0.00    -0.2722 OA
ATOM     19 N19  BRA L   1       9.818  -9.686  -6.085  1.00  0.00    -0.3256  N
ATOM     20 H49  BRA L   1       9.647 -10.682  -5.988  1.00  0.00    +0.1686 HD
BRANCH 17 21
ATOM     21 C14  BRA L   1       7.889  -9.885  -7.600  1.00  0.00    +0.0752  C
ATOM     22 H44  BRA L   1       8.078 -10.914  -7.262  1.00  0.00    +0.0458  H
BRANCH 21 26
ATOM     23 C10  BRA L   1       8.721  -9.751 -11.861  1.00  0.00    -0.0103  A
ATOM     24 C11  BRA L   1       9.305 -10.720 -11.038  1.00  0.00    -0.0551  A
ATOM     25 C12  BRA L   1       8.978 -10.788  -9.684  1.00  0.00    -0.0574  A
ATOM     26 C13  BRA L   1       8.057  -9.889  -9.120  1.00  0.00    -0.0341  A
ATOM     27 C30  BRA L   1       7.425  -8.965  -9.963  1.00  0.00    -0.0574  A
ATOM     28 C31  BRA L   1       7.758  -8.895 -11.318  1.00  0.00    -0.0551  A
ATOM     29 H42  BRA L   1      10.054 -11.401 -11.440  1.00  0.00    +0.0621  H
ATOM     30 H43  BRA L   1       9.485 -11.522  -9.059  1.00  0.00    +0.0621  H
ATOM     31 H56  BRA L   1       6.689  -8.262  -9.580  1.00  0.00    +0.0621  H
ATOM     32 H57  BRA L   1       7.286  -8.136 -11.939  1.00  0.00    +0.0621  H
BRANCH 23 33
ATOM     33  C9  BRA L   1       9.164  -9.600 -13.295  1.00  0.00    +0.1179  C
ATOM     34 H40  BRA L   1       8.584  -8.842 -13.837  1.00  0.00    +0.0749  H
ATOM     35 H41  BRA L   1       9.012 -10.550 -13.821  1.00  0.00    +0.0749  H
BRANCH 33 36
ATOM     36  O8  BRA L   1      10.565  -9.296 -13.344  1.00  0.00    -0.4564 OA
BRANCH 36 37
ATOM     37  C6  BRA L   1      10.879  -7.994 -13.133  1.00  0.00    +0.3398  C
ATOM     38  O7  BRA L   1      10.409  -7.020 -13.696  1.00  0.00    -0.2449 OA
BRANCH 37 43
ATOM     39  C1  BRA L   1      14.317  -7.657  -8.496  1.00  0.00    -0.0397  C
ATOM     40  C2  BRA L   1      13.443  -7.761  -9.712  1.00  0.00    -0.0502  A
ATOM     41  C3  BRA L   1      12.054  -7.655  -9.593  1.00  0.00    -0.0580  A
ATOM     42  C4  BRA L   1      11.248  -7.728 -10.727  1.00  0.00    -0.0473  A
ATOM     43  C5  BRA L   1      11.820  -7.904 -11.995  1.00  0.00    +0.0619  A
ATOM     44 C32  BRA L   1      13.217  -7.969 -12.142  1.00  0.00    -0.0362  A
ATOM     45 C33  BRA L   1      13.882  -8.126 -13.480  1.00  0.00    -0.0389  C
ATOM     46 C34  BRA L   1      14.014  -7.905 -10.986  1.00  0.00    -0.0551  A
ATOM     47 H35  BRA L   1      15.230  -8.249  -8.620  1.00  0.00    +0.0278  H
ATOM     48 H36  BRA L   1      13.800  -8.039  -7.610  1.00  0.00    +0.0278  H
ATOM     49 H37  BRA L   1      14.594  -6.613  -8.322  1.00  0.00    +0.0278  H
ATOM     50 H38  BRA L   1      11.593  -7.525  -8.616  1.00  0.00    +0.0620  H
ATOM     51 H39  BRA L   1      10.168  -7.661 -10.623  1.00  0.00    +0.0626  H
ATOM     52 H58  BRA L   1      14.930  -7.808 -13.440  1.00  0.00    +0.0278  H
ATOM     53 H59  BRA L   1      13.394  -7.503 -14.237  1.00  0.00    +0.0278  H
ATOM     54 H60  BRA L   1      13.856  -9.174 -13.796  1.00  0.00    +0.0278  H
ATOM     55 H61  BRA L   1      15.099  -7.965 -11.076  1.00  0.00    +0.0623  H
ENDBRANCH 37 43
ENDBRANCH 36 37
ENDBRANCH 33 36
ENDBRANCH 23 33
ENDBRANCH 21 26
BRANCH 21 56
ATOM     56 C15  BRA L   1       6.523  -9.452  -7.020  1.00  0.00    +0.0085  C
ATOM     57 N16  BRA L   1       5.461 -10.449  -7.189  1.00  0.00    -0.3289 NA
ATOM     58 H45  BRA L   1       6.633  -9.254  -5.946  1.00  0.00    +0.0432  H
ATOM     59 H46  BRA L   1       6.192  -8.509  -7.472  1.00  0.00    +0.0432  H
ATOM     60 H47  BRA L   1       4.635 -10.157  -6.666  1.00  0.00    +0.1182 HD
ATOM     61 H48  BRA L   1       5.754 -11.337  -6.781  1.00  0.00    +0.1182 HD
ENDBRANCH 21 56
ENDBRANCH 17 21
ENDBRANCH 1 19
TORSDOF 8
ENDMDL
