MODEL 1
REMARK VINA RESULT:    -7.296      0.000      0.000
REMARK INTER + INTRA:         -12.047
REMARK INTER:                 -10.708
REMARK INTRA:                  -1.339
REMARK UNBOUND:                -1.339
ROOT
ATOM      1 C20  DES L   1      11.571  -5.297   2.699  1.00  0.00    +0.0423  A
ATOM      2 C21  DES L   1      11.989  -3.981   2.922  1.00  0.00    -0.0377  A
ATOM      3 C22  DES L   1      11.350  -3.179   3.870  1.00  0.00    -0.0506  A
ATOM      4 C23  DES L   1      10.274  -3.685   4.614  1.00  0.00    +0.0004  A
ATOM      5 C24  DES L   1       9.594  -2.934   5.577  1.00  0.00    +0.0353  A
ATOM      6 N25  DES L   1       8.553  -3.390   6.313  1.00  0.00    -0.2626 NA
ATOM      7 C26  DES L   1       8.164  -4.661   6.079  1.00  0.00    +0.0281  A
ATOM      8 C27  DES L   1       8.765  -5.495   5.150  1.00  0.00    -0.0358  A
ATOM      9 C28  DES L   1       9.841  -5.007   4.399  1.00  0.00    -0.0131  A
ATOM     10 C29  DES L   1      10.497  -5.801   3.439  1.00  0.00    -0.0305  A
ATOM     11 H49  DES L   1      12.821  -3.562   2.359  1.00  0.00    +0.0638  H
ATOM     12 H50  DES L   1      11.697  -2.159   4.023  1.00  0.00    +0.0625  H
ATOM     13 H51  DES L   1       9.877  -1.907   5.792  1.00  0.00    +0.0836  H
ATOM     14 H52  DES L   1       7.327  -5.006   6.678  1.00  0.00    +0.0830  H
ATOM     15 H53  DES L   1       8.397  -6.507   5.017  1.00  0.00    +0.0639  H
ATOM     16 H54  DES L   1      10.148  -6.817   3.284  1.00  0.00    +0.0644  H
ENDROOT
BRANCH 1 19
ATOM     17 C17  DES L   1      12.045  -6.085   0.359  1.00  0.00    +0.2339  C
ATOM     18 O18  DES L   1      11.163  -5.479  -0.247  1.00  0.00    -0.2722 OA
ATOM     19 N19  DES L   1      12.270  -6.032   1.724  1.00  0.00    -0.3256  N
ATOM     20 H48  DES L   1      13.044  -6.613   2.057  1.00  0.00    +0.1686 HD
BRANCH 17 21
ATOM     21 C14  DES L   1      13.047  -6.965  -0.409  1.00  0.00    +0.0752  C
ATOM     22 H43  DES L   1      13.308  -7.748   0.319  1.00  0.00    +0.0458  H
BRANCH 21 26
ATOM     23 C10  DES L   1      11.367  -8.892  -3.933  1.00  0.00    -0.0103  A
ATOM     24 C11  DES L   1      12.443  -8.004  -4.038  1.00  0.00    -0.0551  A
ATOM     25 C12  DES L   1      12.975  -7.398  -2.897  1.00  0.00    -0.0574  A
ATOM     26 C13  DES L   1      12.455  -7.675  -1.622  1.00  0.00    -0.0341  A
ATOM     27 C30  DES L   1      11.382  -8.573  -1.522  1.00  0.00    -0.0574  A
ATOM     28 C31  DES L   1      10.848  -9.177  -2.664  1.00  0.00    -0.0551  A
ATOM     29 H41  DES L   1      12.880  -7.784  -5.010  1.00  0.00    +0.0621  H
ATOM     30 H42  DES L   1      13.812  -6.711  -3.013  1.00  0.00    +0.0621  H
ATOM     31 H55  DES L   1      10.947  -8.828  -0.559  1.00  0.00    +0.0621  H
ATOM     32 H56  DES L   1      10.027  -9.884  -2.556  1.00  0.00    +0.0621  H
BRANCH 23 33
ATOM     33  C9  DES L   1      10.806  -9.572  -5.154  1.00  0.00    +0.1178  C
ATOM     34 H39  DES L   1      11.588  -9.755  -5.900  1.00  0.00    +0.0749  H
ATOM     35 H40  DES L   1      10.410 -10.558  -4.886  1.00  0.00    +0.0749  H
BRANCH 33 36
ATOM     36  O8  DES L   1       9.713  -8.797  -5.662  1.00  0.00    -0.4564 OA
BRANCH 36 37
ATOM     37  C6  DES L   1       9.914  -8.211  -6.866  1.00  0.00    +0.3395  C
ATOM     38  O7  DES L   1      10.890  -7.554  -7.194  1.00  0.00    -0.2450 OA
BRANCH 37 43
ATOM     39  C1  DES L   1       5.358  -9.330 -10.280  1.00  0.00    -0.0397  C
ATOM     40  C2  DES L   1       6.553  -9.058  -9.414  1.00  0.00    -0.0504  A
ATOM     41  C3  DES L   1       6.540  -9.409  -8.059  1.00  0.00    -0.0581  A
ATOM     42  C4  DES L   1       7.642  -9.129  -7.247  1.00  0.00    -0.0475  A
ATOM     43  C5  DES L   1       8.767  -8.483  -7.775  1.00  0.00    +0.0590  A
ATOM     44 C32  DES L   1       8.777  -8.121  -9.128  1.00  0.00    -0.0475  A
ATOM     45 C33  DES L   1       7.673  -8.402  -9.939  1.00  0.00    -0.0581  A
ATOM     46 H34  DES L   1       4.667  -8.482 -10.242  1.00  0.00    +0.0278  H
ATOM     47 H35  DES L   1       5.658  -9.497 -11.319  1.00  0.00    +0.0278  H
ATOM     48 H36  DES L   1       4.831 -10.230  -9.946  1.00  0.00    +0.0278  H
ATOM     49 H37  DES L   1       5.674  -9.905  -7.627  1.00  0.00    +0.0620  H
ATOM     50 H38  DES L   1       7.617  -9.417  -6.197  1.00  0.00    +0.0626  H
ATOM     51 H57  DES L   1       9.637  -7.623  -9.567  1.00  0.00    +0.0626  H
ATOM     52 H58  DES L   1       7.696  -8.109 -10.987  1.00  0.00    +0.0620  H
ENDBRANCH 37 43
ENDBRANCH 36 37
ENDBRANCH 33 36
ENDBRANCH 23 33
ENDBRANCH 21 26
BRANCH 21 53
ATOM     53 C15  DES L   1      14.376  -6.244  -0.736  1.00  0.00    +0.0085  C
ATOM     54 N16  DES L   1      14.378  -4.801  -0.430  1.00  0.00    -0.3289 NA
ATOM     55 H44  DES L   1      15.190  -6.709  -0.166  1.00  0.00    +0.0432  H
ATOM     56 H45  DES L   1      14.615  -6.369  -1.799  1.00  0.00    +0.0432  H
ATOM     57 H46  DES L   1      15.281  -4.414  -0.715  1.00  0.00    +0.1182 HD
ATOM     58 H47  DES L   1      13.697  -4.344  -1.047  1.00  0.00    +0.1182 HD
ENDBRANCH 21 53
ENDBRANCH 17 21
ENDBRANCH 1 19
TORSDOF 8
ENDMDL
MODEL 2
REMARK VINA RESULT:    -7.206      1.151      1.294
REMARK INTER + INTRA:         -11.914
REMARK INTER:                 -10.858
REMARK INTRA:                  -1.056
REMARK UNBOUND:                -1.339
ROOT
ATOM      1 C20  DES L   1      10.984  -4.872   2.687  1.00  0.00    +0.0423  A
ATOM      2 C21  DES L   1      10.978  -3.613   3.297  1.00  0.00    -0.0377  A
ATOM      3 C22  DES L   1      10.167  -3.361   4.407  1.00  0.00    -0.0506  A
ATOM      4 C23  DES L   1       9.344  -4.372   4.926  1.00  0.00    +0.0004  A
ATOM      5 C24  DES L   1       8.513  -4.182   6.032  1.00  0.00    +0.0353  A
ATOM      6 N25  DES L   1       7.707  -5.134   6.560  1.00  0.00    -0.2626 NA
ATOM      7 C26  DES L   1       7.726  -6.339   5.954  1.00  0.00    +0.0281  A
ATOM      8 C27  DES L   1       8.511  -6.638   4.852  1.00  0.00    -0.0358  A
ATOM      9 C28  DES L   1       9.340  -5.642   4.321  1.00  0.00    -0.0131  A
ATOM     10 C29  DES L   1      10.162  -5.878   3.203  1.00  0.00    -0.0305  A
ATOM     11 H49  DES L   1      11.605  -2.811   2.915  1.00  0.00    +0.0638  H
ATOM     12 H50  DES L   1      10.183  -2.372   4.861  1.00  0.00    +0.0625  H
ATOM     13 H51  DES L   1       8.469  -3.225   6.546  1.00  0.00    +0.0836  H
ATOM     14 H52  DES L   1       7.072  -7.087   6.391  1.00  0.00    +0.0830  H
ATOM     15 H53  DES L   1       8.474  -7.632   4.417  1.00  0.00    +0.0639  H
ATOM     16 H54  DES L   1      10.143  -6.864   2.748  1.00  0.00    +0.0644  H
ENDROOT
BRANCH 1 19
ATOM     17 C17  DES L   1      12.777  -6.019   1.350  1.00  0.00    +0.2339  C
ATOM     18 O18  DES L   1      13.050  -6.940   2.117  1.00  0.00    -0.2722 OA
ATOM     19 N19  DES L   1      11.828  -5.037   1.574  1.00  0.00    -0.3256  N
ATOM     20 H48  DES L   1      11.743  -4.340   0.828  1.00  0.00    +0.1686 HD
BRANCH 17 21
ATOM     21 C14  DES L   1      13.483  -5.910  -0.013  1.00  0.00    +0.0752  C
ATOM     22 H43  DES L   1      14.494  -6.292   0.193  1.00  0.00    +0.0458  H
BRANCH 21 26
ATOM     23 C10  DES L   1      11.823  -8.384  -3.188  1.00  0.00    -0.0103  A
ATOM     24 C11  DES L   1      13.034  -7.705  -3.359  1.00  0.00    -0.0551  A
ATOM     25 C12  DES L   1      13.557  -6.920  -2.328  1.00  0.00    -0.0574  A
ATOM     26 C13  DES L   1      12.890  -6.805  -1.098  1.00  0.00    -0.0341  A
ATOM     27 C30  DES L   1      11.681  -7.495  -0.930  1.00  0.00    -0.0574  A
ATOM     28 C31  DES L   1      11.157  -8.279  -1.962  1.00  0.00    -0.0551  A
ATOM     29 H41  DES L   1      13.583  -7.789  -4.295  1.00  0.00    +0.0621  H
ATOM     30 H42  DES L   1      14.501  -6.403  -2.493  1.00  0.00    +0.0621  H
ATOM     31 H55  DES L   1      11.128  -7.447   0.006  1.00  0.00    +0.0621  H
ATOM     32 H56  DES L   1      10.225  -8.819  -1.798  1.00  0.00    +0.0621  H
BRANCH 23 33
ATOM     33  C9  DES L   1      11.266  -9.256  -4.284  1.00  0.00    +0.1178  C
ATOM     34 H39  DES L   1      12.070  -9.698  -4.884  1.00  0.00    +0.0749  H
ATOM     35 H40  DES L   1      10.717 -10.099  -3.849  1.00  0.00    +0.0749  H
BRANCH 33 36
ATOM     36  O8  DES L   1      10.335  -8.495  -5.062  1.00  0.00    -0.4564 OA
BRANCH 36 37
ATOM     37  C6  DES L   1      10.683  -8.274  -6.351  1.00  0.00    +0.3395  C
ATOM     38  O7  DES L   1      11.795  -7.969  -6.756  1.00  0.00    -0.2450 OA
BRANCH 37 43
ATOM     39  C1  DES L   1       6.032  -9.101  -9.720  1.00  0.00    -0.0397  C
ATOM     40  C2  DES L   1       7.251  -8.902  -8.868  1.00  0.00    -0.0504  A
ATOM     41  C3  DES L   1       7.300  -9.418  -7.569  1.00  0.00    -0.0581  A
ATOM     42  C4  DES L   1       8.424  -9.208  -6.766  1.00  0.00    -0.0475  A
ATOM     43  C5  DES L   1       9.510  -8.467  -7.247  1.00  0.00    +0.0590  A
ATOM     44 C32  DES L   1       9.460  -7.939  -8.544  1.00  0.00    -0.0475  A
ATOM     45 C33  DES L   1       8.334  -8.151  -9.345  1.00  0.00    -0.0581  A
ATOM     46 H34  DES L   1       5.322  -8.286  -9.552  1.00  0.00    +0.0278  H
ATOM     47 H35  DES L   1       6.297  -9.128 -10.782  1.00  0.00    +0.0278  H
ATOM     48 H36  DES L   1       5.542 -10.051  -9.484  1.00  0.00    +0.0278  H
ATOM     49 H37  DES L   1       6.464  -9.991  -7.173  1.00  0.00    +0.0620  H
ATOM     50 H38  DES L   1       8.446  -9.625  -5.760  1.00  0.00    +0.0626  H
ATOM     51 H57  DES L   1      10.289  -7.364  -8.946  1.00  0.00    +0.0626  H
ATOM     52 H58  DES L   1       8.309  -7.731 -10.348  1.00  0.00    +0.0620  H
ENDBRANCH 37 43
ENDBRANCH 36 37
ENDBRANCH 33 36
ENDBRANCH 23 33
ENDBRANCH 21 26
BRANCH 21 53
ATOM     53 C15  DES L   1      13.680  -4.453  -0.492  1.00  0.00    +0.0085  C
ATOM     54 N16  DES L   1      14.450  -3.605   0.439  1.00  0.00    -0.3289 NA
ATOM     55 H44  DES L   1      14.205  -4.456  -1.454  1.00  0.00    +0.0432  H
ATOM     56 H45  DES L   1      12.704  -3.981  -0.657  1.00  0.00    +0.0432  H
ATOM     57 H46  DES L   1      14.491  -2.659   0.052  1.00  0.00    +0.1182 HD
ATOM     58 H47  DES L   1      13.905  -3.505   1.303  1.00  0.00    +0.1182 HD
ENDBRANCH 21 53
ENDBRANCH 17 21
ENDBRANCH 1 19
TORSDOF 8
ENDMDL
MODEL 3
REMARK VINA RESULT:    -7.174      0.763      1.384
REMARK INTER + INTRA:         -11.868
REMARK INTER:                 -10.618
REMARK INTRA:                  -1.250
REMARK UNBOUND:                -1.339
ROOT
ATOM      1 C20  DES L   1      11.339  -5.267   3.172  1.00  0.00    +0.0423  A
ATOM      2 C21  DES L   1      10.677  -6.213   3.963  1.00  0.00    -0.0377  A
ATOM      3 C22  DES L   1       9.848  -5.811   5.014  1.00  0.00    -0.0506  A
ATOM      4 C23  DES L   1       9.670  -4.447   5.292  1.00  0.00    +0.0004  A
ATOM      5 C24  DES L   1       8.855  -3.982   6.327  1.00  0.00    +0.0353  A
ATOM      6 N25  DES L   1       8.659  -2.676   6.624  1.00  0.00    -0.2626 NA
ATOM      7 C26  DES L   1       9.310  -1.782   5.850  1.00  0.00    +0.0281  A
ATOM      8 C27  DES L   1      10.141  -2.130   4.798  1.00  0.00    -0.0358  A
ATOM      9 C28  DES L   1      10.330  -3.486   4.505  1.00  0.00    -0.0131  A
ATOM     10 C29  DES L   1      11.162  -3.909   3.450  1.00  0.00    -0.0305  A
ATOM     11 H49  DES L   1      10.797  -7.276   3.770  1.00  0.00    +0.0638  H
ATOM     12 H50  DES L   1       9.346  -6.568   5.612  1.00  0.00    +0.0625  H
ATOM     13 H51  DES L   1       8.316  -4.672   6.972  1.00  0.00    +0.0836  H
ATOM     14 H52  DES L   1       9.140  -0.740   6.106  1.00  0.00    +0.0830  H
ATOM     15 H53  DES L   1      10.632  -1.354   4.219  1.00  0.00    +0.0639  H
ATOM     16 H54  DES L   1      11.666  -3.153   2.857  1.00  0.00    +0.0644  H
ENDROOT
BRANCH 1 19
ATOM     17 C17  DES L   1      11.977  -5.641   0.770  1.00  0.00    +0.2339  C
ATOM     18 O18  DES L   1      11.042  -5.067   0.215  1.00  0.00    -0.2722 OA
ATOM     19 N19  DES L   1      12.154  -5.760   2.137  1.00  0.00    -0.3256  N
ATOM     20 H48  DES L   1      12.987  -6.284   2.421  1.00  0.00    +0.1686 HD
BRANCH 17 21
ATOM     21 C14  DES L   1      13.106  -6.270  -0.066  1.00  0.00    +0.0752  C
ATOM     22 H43  DES L   1      13.592  -6.960   0.640  1.00  0.00    +0.0458  H
BRANCH 21 26
ATOM     23 C10  DES L   1      11.733  -8.590  -3.485  1.00  0.00    -0.0103  A
ATOM     24 C11  DES L   1      12.812  -7.706  -3.597  1.00  0.00    -0.0551  A
ATOM     25 C12  DES L   1      13.244  -6.973  -2.489  1.00  0.00    -0.0574  A
ATOM     26 C13  DES L   1      12.619  -7.115  -1.240  1.00  0.00    -0.0341  A
ATOM     27 C30  DES L   1      11.544  -8.008  -1.131  1.00  0.00    -0.0574  A
ATOM     28 C31  DES L   1      11.109  -8.740  -2.241  1.00  0.00    -0.0551  A
ATOM     29 H41  DES L   1      13.328  -7.589  -4.547  1.00  0.00    +0.0621  H
ATOM     30 H42  DES L   1      14.087  -6.294  -2.609  1.00  0.00    +0.0621  H
ATOM     31 H55  DES L   1      11.030  -8.161  -0.186  1.00  0.00    +0.0621  H
ATOM     32 H56  DES L   1      10.283  -9.440  -2.124  1.00  0.00    +0.0621  H
BRANCH 23 33
ATOM     33  C9  DES L   1      11.277  -9.405  -4.666  1.00  0.00    +0.1178  C
ATOM     34 H39  DES L   1      12.107  -9.598  -5.357  1.00  0.00    +0.0749  H
ATOM     35 H40  DES L   1      10.931 -10.390  -4.332  1.00  0.00    +0.0749  H
BRANCH 33 36
ATOM     36  O8  DES L   1      10.166  -8.750  -5.289  1.00  0.00    -0.4564 OA
BRANCH 36 37
ATOM     37  C6  DES L   1      10.408  -8.199  -6.501  1.00  0.00    +0.3395  C
ATOM     38  O7  DES L   1      11.420  -7.600  -6.832  1.00  0.00    -0.2450 OA
BRANCH 37 43
ATOM     39  C1  DES L   1       5.840  -9.171  -9.945  1.00  0.00    -0.0397  C
ATOM     40  C2  DES L   1       7.039  -8.935  -9.073  1.00  0.00    -0.0504  A
ATOM     41  C3  DES L   1       7.055  -9.397  -7.752  1.00  0.00    -0.0581  A
ATOM     42  C4  DES L   1       8.159  -9.152  -6.932  1.00  0.00    -0.0475  A
ATOM     43  C5  DES L   1       9.257  -8.431  -7.417  1.00  0.00    +0.0590  A
ATOM     44 C32  DES L   1       9.238  -7.957  -8.735  1.00  0.00    -0.0475  A
ATOM     45 C33  DES L   1       8.132  -8.204  -9.554  1.00  0.00    -0.0581  A
ATOM     46 H34  DES L   1       5.126  -8.350  -9.829  1.00  0.00    +0.0278  H
ATOM     47 H35  DES L   1       6.131  -9.242 -10.998  1.00  0.00    +0.0278  H
ATOM     48 H36  DES L   1       5.345 -10.111  -9.682  1.00  0.00    +0.0278  H
ATOM     49 H37  DES L   1       6.210  -9.954  -7.354  1.00  0.00    +0.0620  H
ATOM     50 H38  DES L   1       8.157  -9.526  -5.909  1.00  0.00    +0.0626  H
ATOM     51 H57  DES L   1      10.077  -7.398  -9.141  1.00  0.00    +0.0626  H
ATOM     52 H58  DES L   1       8.132  -7.825 -10.575  1.00  0.00    +0.0620  H
ENDBRANCH 37 43
ENDBRANCH 36 37
ENDBRANCH 33 36
ENDBRANCH 23 33
ENDBRANCH 21 26
BRANCH 21 53
ATOM     53 C15  DES L   1      14.203  -5.260  -0.480  1.00  0.00    +0.0085  C
ATOM     54 N16  DES L   1      14.104  -3.946   0.185  1.00  0.00    -0.3289 NA
ATOM     55 H44  DES L   1      15.188  -5.680  -0.246  1.00  0.00    +0.0432  H
ATOM     56 H45  DES L   1      14.169  -5.098  -1.564  1.00  0.00    +0.0432  H
ATOM     57 H46  DES L   1      14.845  -3.345  -0.182  1.00  0.00    +0.1182 HD
ATOM     58 H47  DES L   1      13.233  -3.499  -0.124  1.00  0.00    +0.1182 HD
ENDBRANCH 21 53
ENDBRANCH 17 21
ENDBRANCH 1 19
TORSDOF 8
ENDMDL
MODEL 4
REMARK VINA RESULT:    -7.120      2.958     10.941
REMARK INTER + INTRA:         -11.788
REMARK INTER:                 -10.155
REMARK INTRA:                  -1.633
REMARK UNBOUND:                -1.339
ROOT
ATOM      1 C20  DES L   1      11.095  -8.723  -4.691  1.00  0.00    +0.0423  A
ATOM      2 C21  DES L   1      10.021  -9.618  -4.652  1.00  0.00    -0.0377  A
ATOM      3 C22  DES L   1       9.119  -9.698  -5.716  1.00  0.00    -0.0506  A
ATOM      4 C23  DES L   1       9.279  -8.877  -6.842  1.00  0.00    +0.0004  A
ATOM      5 C24  DES L   1       8.412  -8.910  -7.937  1.00  0.00    +0.0353  A
ATOM      6 N25  DES L   1       8.536  -8.133  -9.040  1.00  0.00    -0.2626 NA
ATOM      7 C26  DES L   1       9.577  -7.275  -9.054  1.00  0.00    +0.0281  A
ATOM      8 C27  DES L   1      10.498  -7.158  -8.025  1.00  0.00    -0.0358  A
ATOM      9 C28  DES L   1      10.355  -7.971  -6.893  1.00  0.00    -0.0131  A
ATOM     10 C29  DES L   1      11.253  -7.903  -5.812  1.00  0.00    -0.0305  A
ATOM     11 H49  DES L   1       9.872 -10.266  -3.791  1.00  0.00    +0.0638  H
ATOM     12 H50  DES L   1       8.293 -10.403  -5.659  1.00  0.00    +0.0625  H
ATOM     13 H51  DES L   1       7.562  -9.586  -7.962  1.00  0.00    +0.0836  H
ATOM     14 H52  DES L   1       9.658  -6.661  -9.946  1.00  0.00    +0.0830  H
ATOM     15 H53  DES L   1      11.311  -6.444  -8.107  1.00  0.00    +0.0639  H
ATOM     16 H54  DES L   1      12.075  -7.196  -5.868  1.00  0.00    +0.0644  H
ENDROOT
BRANCH 1 19
ATOM     17 C17  DES L   1      11.740  -8.134  -2.333  1.00  0.00    +0.2339  C
ATOM     18 O18  DES L   1      10.732  -7.520  -1.989  1.00  0.00    -0.2722 OA
ATOM     19 N19  DES L   1      11.952  -8.707  -3.576  1.00  0.00    -0.3256  N
ATOM     20 H48  DES L   1      12.858  -9.171  -3.688  1.00  0.00    +0.1686 HD
BRANCH 17 21
ATOM     21 C14  DES L   1      12.889  -8.360  -1.334  1.00  0.00    +0.0752  C
ATOM     22 H43  DES L   1      13.741  -8.621  -1.980  1.00  0.00    +0.0458  H
BRANCH 21 26
ATOM     23 C10  DES L   1      13.962  -4.818   0.960  1.00  0.00    -0.0103  A
ATOM     24 C11  DES L   1      13.580  -6.004   1.597  1.00  0.00    -0.0551  A
ATOM     25 C12  DES L   1      13.244  -7.134   0.846  1.00  0.00    -0.0574  A
ATOM     26 C13  DES L   1      13.295  -7.111  -0.556  1.00  0.00    -0.0341  A
ATOM     27 C30  DES L   1      13.687  -5.922  -1.188  1.00  0.00    -0.0574  A
ATOM     28 C31  DES L   1      14.020  -4.791  -0.438  1.00  0.00    -0.0551  A
ATOM     29 H41  DES L   1      13.549  -6.057   2.683  1.00  0.00    +0.0621  H
ATOM     30 H42  DES L   1      12.951  -8.041   1.373  1.00  0.00    +0.0621  H
ATOM     31 H55  DES L   1      13.751  -5.853  -2.272  1.00  0.00    +0.0621  H
ATOM     32 H56  DES L   1      14.339  -3.886  -0.954  1.00  0.00    +0.0621  H
BRANCH 23 33
ATOM     33  C9  DES L   1      14.352  -3.604   1.761  1.00  0.00    +0.1178  C
ATOM     34 H39  DES L   1      15.439  -3.460   1.758  1.00  0.00    +0.0749  H
ATOM     35 H40  DES L   1      13.930  -2.701   1.304  1.00  0.00    +0.0749  H
BRANCH 33 36
ATOM     36  O8  DES L   1      13.802  -3.713   3.079  1.00  0.00    -0.4564 OA
BRANCH 36 37
ATOM     37  C6  DES L   1      13.075  -2.653   3.505  1.00  0.00    +0.3395  C
ATOM     38  O7  DES L   1      13.375  -1.476   3.380  1.00  0.00    -0.2450 OA
BRANCH 37 43
ATOM     39  C1  DES L   1       8.162  -4.565   5.928  1.00  0.00    -0.0397  C
ATOM     40  C2  DES L   1       9.420  -4.044   5.298  1.00  0.00    -0.0504  A
ATOM     41  C3  DES L   1       9.913  -4.619   4.121  1.00  0.00    -0.0581  A
ATOM     42  C4  DES L   1      11.100  -4.152   3.551  1.00  0.00    -0.0475  A
ATOM     43  C5  DES L   1      11.817  -3.113   4.156  1.00  0.00    +0.0590  A
ATOM     44 C32  DES L   1      11.332  -2.544   5.340  1.00  0.00    -0.0475  A
ATOM     45 C33  DES L   1      10.143  -3.012   5.909  1.00  0.00    -0.0581  A
ATOM     46 H34  DES L   1       8.400  -5.374   6.625  1.00  0.00    +0.0278  H
ATOM     47 H35  DES L   1       7.639  -3.771   6.472  1.00  0.00    +0.0278  H
ATOM     48 H36  DES L   1       7.472  -4.945   5.167  1.00  0.00    +0.0278  H
ATOM     49 H37  DES L   1       9.375  -5.432   3.638  1.00  0.00    +0.0620  H
ATOM     50 H38  DES L   1      11.463  -4.607   2.630  1.00  0.00    +0.0626  H
ATOM     51 H57  DES L   1      11.864  -1.733   5.830  1.00  0.00    +0.0626  H
ATOM     52 H58  DES L   1       9.783  -2.561   6.832  1.00  0.00    +0.0620  H
ENDBRANCH 37 43
ENDBRANCH 36 37
ENDBRANCH 33 36
ENDBRANCH 23 33
ENDBRANCH 21 26
BRANCH 21 53
ATOM     53 C15  DES L   1      12.675  -9.585  -0.415  1.00  0.00    +0.0085  C
ATOM     54 N16  DES L   1      11.563 -10.465  -0.822  1.00  0.00    -0.3289 NA
ATOM     55 H44  DES L   1      13.590 -10.188  -0.397  1.00  0.00    +0.0432  H
ATOM     56 H45  DES L   1      12.488  -9.251   0.613  1.00  0.00    +0.0432  H
ATOM     57 H46  DES L   1      11.482 -11.218  -0.133  1.00  0.00    +0.1182 HD
ATOM     58 H47  DES L   1      10.688  -9.936  -0.728  1.00  0.00    +0.1182 HD
ENDBRANCH 21 53
ENDBRANCH 17 21
ENDBRANCH 1 19
TORSDOF 8
ENDMDL
MODEL 5
REMARK VINA RESULT:    -7.035      3.332     11.384
REMARK INTER + INTRA:         -11.664
REMARK INTER:                 -10.675
REMARK INTRA:                  -0.989
REMARK UNBOUND:                -1.339
ROOT
ATOM      1 C20  DES L   1       9.000  -9.526  -6.337  1.00  0.00    +0.0423  A
ATOM      2 C21  DES L   1       7.671  -9.684  -5.928  1.00  0.00    -0.0377  A
ATOM      3 C22  DES L   1       6.622  -9.562  -6.843  1.00  0.00    -0.0506  A
ATOM      4 C23  DES L   1       6.889  -9.278  -8.190  1.00  0.00    +0.0004  A
ATOM      5 C24  DES L   1       5.885  -9.144  -9.153  1.00  0.00    +0.0353  A
ATOM      6 N25  DES L   1       6.105  -8.871 -10.461  1.00  0.00    -0.2626 NA
ATOM      7 C26  DES L   1       7.394  -8.720 -10.832  1.00  0.00    +0.0281  A
ATOM      8 C27  DES L   1       8.467  -8.830  -9.964  1.00  0.00    -0.0358  A
ATOM      9 C28  DES L   1       8.221  -9.115  -8.616  1.00  0.00    -0.0131  A
ATOM     10 C29  DES L   1       9.265  -9.240  -7.679  1.00  0.00    -0.0305  A
ATOM     11 H49  DES L   1       7.435  -9.904  -4.889  1.00  0.00    +0.0638  H
ATOM     12 H50  DES L   1       5.599  -9.690  -6.496  1.00  0.00    +0.0625  H
ATOM     13 H51  DES L   1       4.836  -9.258  -8.892  1.00  0.00    +0.0836  H
ATOM     14 H52  DES L   1       7.548  -8.500 -11.885  1.00  0.00    +0.0830  H
ATOM     15 H53  DES L   1       9.478  -8.695 -10.336  1.00  0.00    +0.0639  H
ATOM     16 H54  DES L   1      10.285  -9.108  -8.025  1.00  0.00    +0.0644  H
ENDROOT
BRANCH 1 19
ATOM     17 C17  DES L   1      10.992  -8.770  -5.003  1.00  0.00    +0.2339  C
ATOM     18 O18  DES L   1      11.186  -7.673  -5.523  1.00  0.00    -0.2722 OA
ATOM     19 N19  DES L   1       9.992  -9.662  -5.349  1.00  0.00    -0.3256  N
ATOM     20 H48  DES L   1       9.988 -10.536  -4.815  1.00  0.00    +0.1686 HD
BRANCH 17 21
ATOM     21 C14  DES L   1      11.873  -9.240  -3.832  1.00  0.00    +0.0752  C
ATOM     22 H43  DES L   1      12.869  -9.345  -4.289  1.00  0.00    +0.0458  H
BRANCH 21 26
ATOM     23 C10  DES L   1      12.160  -6.309  -0.625  1.00  0.00    -0.0103  A
ATOM     24 C11  DES L   1      11.111  -7.233  -0.668  1.00  0.00    -0.0551  A
ATOM     25 C12  DES L   1      11.036  -8.171  -1.700  1.00  0.00    -0.0574  A
ATOM     26 C13  DES L   1      12.014  -8.218  -2.707  1.00  0.00    -0.0341  A
ATOM     27 C30  DES L   1      13.068  -7.295  -2.653  1.00  0.00    -0.0574  A
ATOM     28 C31  DES L   1      13.142  -6.354  -1.621  1.00  0.00    -0.0551  A
ATOM     29 H41  DES L   1      10.348  -7.234   0.108  1.00  0.00    +0.0621  H
ATOM     30 H42  DES L   1      10.206  -8.877  -1.705  1.00  0.00    +0.0621  H
ATOM     31 H55  DES L   1      13.856  -7.293  -3.403  1.00  0.00    +0.0621  H
ATOM     32 H56  DES L   1      13.981  -5.661  -1.594  1.00  0.00    +0.0621  H
BRANCH 23 33
ATOM     33  C9  DES L   1      12.265  -5.312   0.500  1.00  0.00    +0.1178  C
ATOM     34 H39  DES L   1      13.208  -5.429   1.046  1.00  0.00    +0.0749  H
ATOM     35 H40  DES L   1      12.275  -4.293   0.098  1.00  0.00    +0.0749  H
BRANCH 33 36
ATOM     36  O8  DES L   1      11.109  -5.429   1.339  1.00  0.00    -0.4564 OA
BRANCH 36 37
ATOM     37  C6  DES L   1      11.351  -5.717   2.640  1.00  0.00    +0.3395  C
ATOM     38  O7  DES L   1      12.016  -6.653   3.060  1.00  0.00    -0.2450 OA
BRANCH 37 43
ATOM     39  C1  DES L   1       8.915  -1.700   6.045  1.00  0.00    -0.0397  C
ATOM     40  C2  DES L   1       9.549  -2.757   5.188  1.00  0.00    -0.0504  A
ATOM     41  C3  DES L   1      10.726  -2.484   4.483  1.00  0.00    -0.0581  A
ATOM     42  C4  DES L   1      11.300  -3.459   3.662  1.00  0.00    -0.0475  A
ATOM     43  C5  DES L   1      10.697  -4.716   3.525  1.00  0.00    +0.0590  A
ATOM     44 C32  DES L   1       9.512  -4.987   4.221  1.00  0.00    -0.0475  A
ATOM     45 C33  DES L   1       8.940  -4.010   5.042  1.00  0.00    -0.0581  A
ATOM     46 H34  DES L   1       8.219  -1.103   5.449  1.00  0.00    +0.0278  H
ATOM     47 H35  DES L   1       8.371  -2.150   6.881  1.00  0.00    +0.0278  H
ATOM     48 H36  DES L   1       9.674  -1.037   6.472  1.00  0.00    +0.0278  H
ATOM     49 H37  DES L   1      11.208  -1.513   4.570  1.00  0.00    +0.0620  H
ATOM     50 H38  DES L   1      12.222  -3.231   3.128  1.00  0.00    +0.0626  H
ATOM     51 H57  DES L   1       9.023  -5.954   4.138  1.00  0.00    +0.0626  H
ATOM     52 H58  DES L   1       8.017  -4.236   5.571  1.00  0.00    +0.0620  H
ENDBRANCH 37 43
ENDBRANCH 36 37
ENDBRANCH 33 36
ENDBRANCH 23 33
ENDBRANCH 21 26
BRANCH 21 53
ATOM     53 C15  DES L   1      11.506 -10.648  -3.309  1.00  0.00    +0.0085  C
ATOM     54 N16  DES L   1      12.266 -11.748  -3.933  1.00  0.00    -0.3289 NA
ATOM     55 H44  DES L   1      11.682 -10.690  -2.227  1.00  0.00    +0.0432  H
ATOM     56 H45  DES L   1      10.437 -10.837  -3.469  1.00  0.00    +0.0432  H
ATOM     57 H46  DES L   1      11.925 -12.632  -3.549  1.00  0.00    +0.1182 HD
ATOM     58 H47  DES L   1      12.013 -11.785  -4.927  1.00  0.00    +0.1182 HD
ENDBRANCH 21 53
ENDBRANCH 17 21
ENDBRANCH 1 19
TORSDOF 8
ENDMDL
MODEL 6
REMARK VINA RESULT:    -7.027      3.779     10.605
REMARK INTER + INTRA:         -11.652
REMARK INTER:                 -10.239
REMARK INTRA:                  -1.413
REMARK UNBOUND:                -1.339
ROOT
ATOM      1 C20  DES L   1      12.745  -7.319  -1.129  1.00  0.00    +0.0423  A
ATOM      2 C21  DES L   1      11.542  -8.003  -0.920  1.00  0.00    -0.0377  A
ATOM      3 C22  DES L   1      10.943  -8.727  -1.953  1.00  0.00    -0.0506  A
ATOM      4 C23  DES L   1      11.542  -8.777  -3.221  1.00  0.00    +0.0004  A
ATOM      5 C24  DES L   1      10.993  -9.484  -4.294  1.00  0.00    +0.0353  A
ATOM      6 N25  DES L   1      11.543  -9.555  -5.530  1.00  0.00    -0.2626 NA
ATOM      7 C26  DES L   1      12.701  -8.885  -5.709  1.00  0.00    +0.0281  A
ATOM      8 C27  DES L   1      13.333  -8.153  -4.717  1.00  0.00    -0.0358  A
ATOM      9 C28  DES L   1      12.751  -8.093  -3.446  1.00  0.00    -0.0131  A
ATOM     10 C29  DES L   1      13.340  -7.368  -2.392  1.00  0.00    -0.0305  A
ATOM     11 H49  DES L   1      11.056  -7.981   0.053  1.00  0.00    +0.0638  H
ATOM     12 H50  DES L   1      10.009  -9.250  -1.762  1.00  0.00    +0.0625  H
ATOM     13 H51  DES L   1      10.062 -10.034  -4.189  1.00  0.00    +0.0836  H
ATOM     14 H52  DES L   1      13.124  -8.953  -6.707  1.00  0.00    +0.0830  H
ATOM     15 H53  DES L   1      14.265  -7.640  -4.936  1.00  0.00    +0.0639  H
ATOM     16 H54  DES L   1      14.271  -6.844  -2.585  1.00  0.00    +0.0644  H
ENDROOT
BRANCH 1 19
ATOM     17 C17  DES L   1      13.542  -5.260   0.073  1.00  0.00    +0.2339  C
ATOM     18 O18  DES L   1      13.354  -4.421  -0.807  1.00  0.00    -0.2722 OA
ATOM     19 N19  DES L   1      13.276  -6.614  -0.034  1.00  0.00    -0.3256  N
ATOM     20 H48  DES L   1      13.507  -7.166   0.797  1.00  0.00    +0.1686 HD
BRANCH 17 21
ATOM     21 C14  DES L   1      14.080  -4.832   1.450  1.00  0.00    +0.0752  C
ATOM     22 H43  DES L   1      14.780  -4.019   1.208  1.00  0.00    +0.0458  H
BRANCH 21 26
ATOM     23 C10  DES L   1      10.987  -3.144   4.007  1.00  0.00    -0.0103  A
ATOM     24 C11  DES L   1      10.702  -4.189   3.121  1.00  0.00    -0.0551  A
ATOM     25 C12  DES L   1      11.707  -4.724   2.312  1.00  0.00    -0.0574  A
ATOM     26 C13  DES L   1      13.023  -4.238   2.376  1.00  0.00    -0.0341  A
ATOM     27 C30  DES L   1      13.304  -3.197   3.273  1.00  0.00    -0.0574  A
ATOM     28 C31  DES L   1      12.298  -2.660   4.082  1.00  0.00    -0.0551  A
ATOM     29 H41  DES L   1       9.696  -4.598   3.062  1.00  0.00    +0.0621  H
ATOM     30 H42  DES L   1      11.453  -5.536   1.632  1.00  0.00    +0.0621  H
ATOM     31 H55  DES L   1      14.308  -2.789   3.368  1.00  0.00    +0.0621  H
ATOM     32 H56  DES L   1      12.548  -1.864   4.782  1.00  0.00    +0.0621  H
BRANCH 23 33
ATOM     33  C9  DES L   1       9.916  -2.580   4.905  1.00  0.00    +0.1178  C
ATOM     34 H39  DES L   1      10.342  -2.214   5.846  1.00  0.00    +0.0749  H
ATOM     35 H40  DES L   1       9.448  -1.711   4.429  1.00  0.00    +0.0749  H
BRANCH 33 36
ATOM     36  O8  DES L   1       8.894  -3.566   5.093  1.00  0.00    -0.4564 OA
BRANCH 36 37
ATOM     37  C6  DES L   1       8.821  -4.111   6.330  1.00  0.00    +0.3395  C
ATOM     38  O7  DES L   1       9.004  -3.527   7.388  1.00  0.00    -0.2450 OA
BRANCH 37 43
ATOM     39  C1  DES L   1       7.424  -9.720   5.825  1.00  0.00    -0.0397  C
ATOM     40  C2  DES L   1       7.762  -8.266   5.973  1.00  0.00    -0.0504  A
ATOM     41  C3  DES L   1       7.797  -7.429   4.852  1.00  0.00    -0.0581  A
ATOM     42  C4  DES L   1       8.139  -6.081   4.987  1.00  0.00    -0.0475  A
ATOM     43  C5  DES L   1       8.464  -5.554   6.243  1.00  0.00    +0.0590  A
ATOM     44 C32  DES L   1       8.441  -6.392   7.365  1.00  0.00    -0.0475  A
ATOM     45 C33  DES L   1       8.098  -7.741   7.227  1.00  0.00    -0.0581  A
ATOM     46 H34  DES L   1       8.333 -10.298   5.633  1.00  0.00    +0.0278  H
ATOM     47 H35  DES L   1       6.944 -10.104   6.730  1.00  0.00    +0.0278  H
ATOM     48 H36  DES L   1       6.725  -9.876   4.996  1.00  0.00    +0.0278  H
ATOM     49 H37  DES L   1       7.554  -7.819   3.866  1.00  0.00    +0.0620  H
ATOM     50 H38  DES L   1       8.153  -5.443   4.104  1.00  0.00    +0.0626  H
ATOM     51 H57  DES L   1       8.685  -6.011   8.353  1.00  0.00    +0.0626  H
ATOM     52 H58  DES L   1       8.090  -8.379   8.109  1.00  0.00    +0.0620  H
ENDBRANCH 37 43
ENDBRANCH 36 37
ENDBRANCH 33 36
ENDBRANCH 23 33
ENDBRANCH 21 26
BRANCH 21 53
ATOM     53 C15  DES L   1      14.931  -5.920   2.145  1.00  0.00    +0.0085  C
ATOM     54 N16  DES L   1      14.144  -6.973   2.816  1.00  0.00    -0.3289 NA
ATOM     55 H44  DES L   1      15.576  -6.404   1.402  1.00  0.00    +0.0432  H
ATOM     56 H45  DES L   1      15.589  -5.457   2.890  1.00  0.00    +0.0432  H
ATOM     57 H46  DES L   1      14.795  -7.617   3.272  1.00  0.00    +0.1182 HD
ATOM     58 H47  DES L   1      13.627  -6.540   3.589  1.00  0.00    +0.1182 HD
ENDBRANCH 21 53
ENDBRANCH 17 21
ENDBRANCH 1 19
TORSDOF 8
ENDMDL
MODEL 7
REMARK VINA RESULT:    -6.987      3.035     10.766
REMARK INTER + INTRA:         -11.593
REMARK INTER:                  -9.993
REMARK INTRA:                  -1.599
REMARK UNBOUND:                -1.339
ROOT
ATOM      1 C20  DES L   1      10.856  -8.894  -4.787  1.00  0.00    +0.0423  A
ATOM      2 C21  DES L   1      11.131  -8.148  -5.938  1.00  0.00    -0.0377  A
ATOM      3 C22  DES L   1      10.238  -8.136  -7.013  1.00  0.00    -0.0506  A
ATOM      4 C23  DES L   1       9.048  -8.878  -6.951  1.00  0.00    +0.0004  A
ATOM      5 C24  DES L   1       8.116  -8.908  -7.991  1.00  0.00    +0.0353  A
ATOM      6 N25  DES L   1       6.959  -9.611  -7.967  1.00  0.00    -0.2626 NA
ATOM      7 C26  DES L   1       6.716 -10.327  -6.849  1.00  0.00    +0.0281  A
ATOM      8 C27  DES L   1       7.570 -10.370  -5.758  1.00  0.00    -0.0358  A
ATOM      9 C28  DES L   1       8.760  -9.635  -5.800  1.00  0.00    -0.0131  A
ATOM     10 C29  DES L   1       9.672  -9.635  -4.727  1.00  0.00    -0.0305  A
ATOM     11 H49  DES L   1      12.045  -7.563  -6.013  1.00  0.00    +0.0638  H
ATOM     12 H50  DES L   1      10.477  -7.547  -7.895  1.00  0.00    +0.0625  H
ATOM     13 H51  DES L   1       8.277  -8.346  -8.908  1.00  0.00    +0.0836  H
ATOM     14 H52  DES L   1       5.785 -10.884  -6.850  1.00  0.00    +0.0830  H
ATOM     15 H53  DES L   1       7.307 -10.969  -4.891  1.00  0.00    +0.0639  H
ATOM     16 H54  DES L   1       9.434 -10.227  -3.849  1.00  0.00    +0.0644  H
ENDROOT
BRANCH 1 19
ATOM     17 C17  DES L   1      11.719  -8.228  -2.522  1.00  0.00    +0.2339  C
ATOM     18 O18  DES L   1      10.753  -7.586  -2.113  1.00  0.00    -0.2722 OA
ATOM     19 N19  DES L   1      11.811  -8.850  -3.756  1.00  0.00    -0.3256  N
ATOM     20 H48  DES L   1      12.697  -9.331  -3.932  1.00  0.00    +0.1686 HD
BRANCH 17 21
ATOM     21 C14  DES L   1      12.950  -8.433  -1.622  1.00  0.00    +0.0752  C
ATOM     22 H43  DES L   1      13.765  -8.609  -2.342  1.00  0.00    +0.0458  H
BRANCH 21 26
ATOM     23 C10  DES L   1      13.984  -4.948   0.774  1.00  0.00    -0.0103  A
ATOM     24 C11  DES L   1      13.640  -6.164   1.376  1.00  0.00    -0.0551  A
ATOM     25 C12  DES L   1      13.317  -7.274   0.593  1.00  0.00    -0.0574  A
ATOM     26 C13  DES L   1      13.342  -7.203  -0.809  1.00  0.00    -0.0341  A
ATOM     27 C30  DES L   1      13.697  -5.985  -1.406  1.00  0.00    -0.0574  A
ATOM     28 C31  DES L   1      14.018  -4.872  -0.623  1.00  0.00    -0.0551  A
ATOM     29 H41  DES L   1      13.629  -6.255   2.460  1.00  0.00    +0.0621  H
ATOM     30 H42  DES L   1      13.052  -8.206   1.092  1.00  0.00    +0.0621  H
ATOM     31 H55  DES L   1      13.740  -5.877  -2.488  1.00  0.00    +0.0621  H
ATOM     32 H56  DES L   1      14.307  -3.943  -1.112  1.00  0.00    +0.0621  H
BRANCH 23 33
ATOM     33  C9  DES L   1      14.362  -3.754   1.610  1.00  0.00    +0.1178  C
ATOM     34 H39  DES L   1      15.450  -3.620   1.642  1.00  0.00    +0.0749  H
ATOM     35 H40  DES L   1      13.961  -2.838   1.159  1.00  0.00    +0.0749  H
BRANCH 33 36
ATOM     36  O8  DES L   1      13.771  -3.884   2.909  1.00  0.00    -0.4564 OA
BRANCH 36 37
ATOM     37  C6  DES L   1      13.112  -2.794   3.370  1.00  0.00    +0.3395  C
ATOM     38  O7  DES L   1      13.474  -1.633   3.260  1.00  0.00    -0.2450 OA
BRANCH 37 43
ATOM     39  C1  DES L   1       8.191  -4.519   5.914  1.00  0.00    -0.0397  C
ATOM     40  C2  DES L   1       9.449  -4.051   5.243  1.00  0.00    -0.0504  A
ATOM     41  C3  DES L   1      10.159  -4.909   4.395  1.00  0.00    -0.0581  A
ATOM     42  C4  DES L   1      11.346  -4.483   3.792  1.00  0.00    -0.0475  A
ATOM     43  C5  DES L   1      11.845  -3.198   4.039  1.00  0.00    +0.0590  A
ATOM     44 C32  DES L   1      11.142  -2.342   4.896  1.00  0.00    -0.0475  A
ATOM     45 C33  DES L   1       9.955  -2.770   5.498  1.00  0.00    -0.0581  A
ATOM     46 H34  DES L   1       8.432  -4.989   6.872  1.00  0.00    +0.0278  H
ATOM     47 H35  DES L   1       7.509  -3.681   6.092  1.00  0.00    +0.0278  H
ATOM     48 H36  DES L   1       7.660  -5.243   5.288  1.00  0.00    +0.0278  H
ATOM     49 H37  DES L   1       9.793  -5.913   4.195  1.00  0.00    +0.0620  H
ATOM     50 H38  DES L   1      11.881  -5.162   3.129  1.00  0.00    +0.0626  H
ATOM     51 H57  DES L   1      11.502  -1.338   5.103  1.00  0.00    +0.0626  H
ATOM     52 H58  DES L   1       9.423  -2.094   6.164  1.00  0.00    +0.0620  H
ENDBRANCH 37 43
ENDBRANCH 36 37
ENDBRANCH 33 36
ENDBRANCH 23 33
ENDBRANCH 21 26
BRANCH 21 53
ATOM     53 C15  DES L   1      12.877  -9.714  -0.759  1.00  0.00    +0.0085  C
ATOM     54 N16  DES L   1      11.561 -10.382  -0.770  1.00  0.00    -0.3289 NA
ATOM     55 H44  DES L   1      13.622 -10.435  -1.116  1.00  0.00    +0.0432  H
ATOM     56 H45  DES L   1      13.131  -9.476   0.281  1.00  0.00    +0.0432  H
ATOM     57 H46  DES L   1      11.607 -11.189  -0.144  1.00  0.00    +0.1182 HD
ATOM     58 H47  DES L   1      10.882  -9.752  -0.328  1.00  0.00    +0.1182 HD
ENDBRANCH 21 53
ENDBRANCH 17 21
ENDBRANCH 1 19
TORSDOF 8
ENDMDL
MODEL 8
REMARK VINA RESULT:    -6.942      2.603      3.761
REMARK INTER + INTRA:         -11.528
REMARK INTER:                 -10.096
REMARK INTRA:                  -1.432
REMARK UNBOUND:                -1.339
ROOT
ATOM      1 C20  DES L   1      13.120  -6.656  -0.234  1.00  0.00    +0.0423  A
ATOM      2 C21  DES L   1      14.159  -6.026  -0.928  1.00  0.00    -0.0377  A
ATOM      3 C22  DES L   1      14.754  -4.866  -0.425  1.00  0.00    -0.0506  A
ATOM      4 C23  DES L   1      14.313  -4.315   0.788  1.00  0.00    +0.0004  A
ATOM      5 C24  DES L   1      14.867  -3.158   1.343  1.00  0.00    +0.0353  A
ATOM      6 N25  DES L   1      14.468  -2.598   2.510  1.00  0.00    -0.2626 NA
ATOM      7 C26  DES L   1      13.463  -3.221   3.160  1.00  0.00    +0.0281  A
ATOM      8 C27  DES L   1      12.841  -4.371   2.702  1.00  0.00    -0.0358  A
ATOM      9 C28  DES L   1      13.268  -4.937   1.495  1.00  0.00    -0.0131  A
ATOM     10 C29  DES L   1      12.680  -6.105   0.972  1.00  0.00    -0.0305  A
ATOM     11 H49  DES L   1      14.520  -6.432  -1.870  1.00  0.00    +0.0638  H
ATOM     12 H50  DES L   1      15.560  -4.398  -0.985  1.00  0.00    +0.0625  H
ATOM     13 H51  DES L   1      15.678  -2.629   0.849  1.00  0.00    +0.0836  H
ATOM     14 H52  DES L   1      13.157  -2.755   4.092  1.00  0.00    +0.0830  H
ATOM     15 H53  DES L   1      12.037  -4.816   3.280  1.00  0.00    +0.0639  H
ATOM     16 H54  DES L   1      11.872  -6.569   1.530  1.00  0.00    +0.0644  H
ENDROOT
BRANCH 1 19
ATOM     17 C17  DES L   1      11.431  -7.943  -1.580  1.00  0.00    +0.2339  C
ATOM     18 O18  DES L   1      10.668  -7.028  -1.886  1.00  0.00    -0.2722 OA
ATOM     19 N19  DES L   1      12.578  -7.817  -0.815  1.00  0.00    -0.3256  N
ATOM     20 H48  DES L   1      13.086  -8.690  -0.650  1.00  0.00    +0.1686 HD
BRANCH 17 21
ATOM     21 C14  DES L   1      11.172  -9.372  -2.091  1.00  0.00    +0.0752  C
ATOM     22 H43  DES L   1      10.179  -9.612  -1.682  1.00  0.00    +0.0458  H
BRANCH 21 26
ATOM     23 C10  DES L   1      10.891  -9.578  -6.431  1.00  0.00    -0.0103  A
ATOM     24 C11  DES L   1      11.979  -8.960  -5.805  1.00  0.00    -0.0551  A
ATOM     25 C12  DES L   1      12.058  -8.908  -4.411  1.00  0.00    -0.0574  A
ATOM     26 C13  DES L   1      11.059  -9.482  -3.609  1.00  0.00    -0.0341  A
ATOM     27 C30  DES L   1       9.976 -10.108  -4.242  1.00  0.00    -0.0574  A
ATOM     28 C31  DES L   1       9.896 -10.158  -5.636  1.00  0.00    -0.0551  A
ATOM     29 H41  DES L   1      12.778  -8.522  -6.400  1.00  0.00    +0.0621  H
ATOM     30 H42  DES L   1      12.918  -8.419  -3.955  1.00  0.00    +0.0621  H
ATOM     31 H55  DES L   1       9.179 -10.575  -3.667  1.00  0.00    +0.0621  H
ATOM     32 H56  DES L   1       9.052 -10.666  -6.102  1.00  0.00    +0.0621  H
BRANCH 23 33
ATOM     33  C9  DES L   1      10.813  -9.665  -7.932  1.00  0.00    +0.1178  C
ATOM     34 H39  DES L   1      11.635 -10.266  -8.338  1.00  0.00    +0.0749  H
ATOM     35 H40  DES L   1       9.891 -10.177  -8.231  1.00  0.00    +0.0749  H
BRANCH 33 36
ATOM     36  O8  DES L   1      10.760  -8.341  -8.477  1.00  0.00    -0.4564 OA
BRANCH 36 37
ATOM     37  C6  DES L   1       9.629  -7.642  -8.223  1.00  0.00    +0.3395  C
ATOM     38  O7  DES L   1       9.537  -6.652  -7.513  1.00  0.00    -0.2450 OA
BRANCH 37 43
ATOM     39  C1  DES L   1       5.055 -10.003 -10.900  1.00  0.00    -0.0397  C
ATOM     40  C2  DES L   1       6.256  -9.411 -10.221  1.00  0.00    -0.0504  A
ATOM     41  C3  DES L   1       6.349  -9.408  -8.825  1.00  0.00    -0.0581  A
ATOM     42  C4  DES L   1       7.454  -8.831  -8.192  1.00  0.00    -0.0475  A
ATOM     43  C5  DES L   1       8.474  -8.240  -8.947  1.00  0.00    +0.0590  A
ATOM     44 C32  DES L   1       8.377  -8.232 -10.344  1.00  0.00    -0.0475  A
ATOM     45 C33  DES L   1       7.271  -8.810 -10.975  1.00  0.00    -0.0581  A
ATOM     46 H34  DES L   1       4.280  -9.240 -11.021  1.00  0.00    +0.0278  H
ATOM     47 H35  DES L   1       5.319 -10.399 -11.886  1.00  0.00    +0.0278  H
ATOM     48 H36  DES L   1       4.646 -10.833 -10.316  1.00  0.00    +0.0278  H
ATOM     49 H37  DES L   1       5.564  -9.856  -8.220  1.00  0.00    +0.0620  H
ATOM     50 H38  DES L   1       7.512  -8.845  -7.105  1.00  0.00    +0.0626  H
ATOM     51 H57  DES L   1       9.156  -7.784 -10.957  1.00  0.00    +0.0626  H
ATOM     52 H58  DES L   1       7.210  -8.791 -12.062  1.00  0.00    +0.0620  H
ENDBRANCH 37 43
ENDBRANCH 36 37
ENDBRANCH 33 36
ENDBRANCH 23 33
ENDBRANCH 21 26
BRANCH 21 53
ATOM     53 C15  DES L   1      12.133 -10.425  -1.491  1.00  0.00    +0.0085  C
ATOM     54 N16  DES L   1      11.946 -10.669  -0.048  1.00  0.00    -0.3289 NA
ATOM     55 H44  DES L   1      11.995 -11.379  -2.013  1.00  0.00    +0.0432  H
ATOM     56 H45  DES L   1      13.172 -10.115  -1.654  1.00  0.00    +0.0432  H
ATOM     57 H46  DES L   1      12.648 -11.348   0.256  1.00  0.00    +0.1182 HD
ATOM     58 H47  DES L   1      12.187  -9.807   0.454  1.00  0.00    +0.1182 HD
ENDBRANCH 21 53
ENDBRANCH 17 21
ENDBRANCH 1 19
TORSDOF 8
ENDMDL
MODEL 9
REMARK VINA RESULT:    -6.928      1.876      3.016
REMARK INTER + INTRA:         -11.507
REMARK INTER:                 -10.316
REMARK INTRA:                  -1.191
REMARK UNBOUND:                -1.339
ROOT
ATOM      1 C20  DES L   1      11.159  -4.671   3.262  1.00  0.00    +0.0423  A
ATOM      2 C21  DES L   1      10.754  -3.414   3.723  1.00  0.00    -0.0377  A
ATOM      3 C22  DES L   1       9.725  -3.295   4.661  1.00  0.00    -0.0506  A
ATOM      4 C23  DES L   1       9.081  -4.440   5.153  1.00  0.00    +0.0004  A
ATOM      5 C24  DES L   1       8.047  -4.387   6.092  1.00  0.00    +0.0353  A
ATOM      6 N25  DES L   1       7.404  -5.470   6.589  1.00  0.00    -0.2626 NA
ATOM      7 C26  DES L   1       7.810  -6.672   6.128  1.00  0.00    +0.0281  A
ATOM      8 C27  DES L   1       8.823  -6.842   5.199  1.00  0.00    -0.0358  A
ATOM      9 C28  DES L   1       9.478  -5.711   4.697  1.00  0.00    -0.0131  A
ATOM     10 C29  DES L   1      10.516  -5.811   3.751  1.00  0.00    -0.0305  A
ATOM     11 H49  DES L   1      11.235  -2.509   3.358  1.00  0.00    +0.0638  H
ATOM     12 H50  DES L   1       9.430  -2.305   5.002  1.00  0.00    +0.0625  H
ATOM     13 H51  DES L   1       7.692  -3.438   6.485  1.00  0.00    +0.0836  H
ATOM     14 H52  DES L   1       7.281  -7.527   6.538  1.00  0.00    +0.0830  H
ATOM     15 H53  DES L   1       9.096  -7.841   4.874  1.00  0.00    +0.0639  H
ATOM     16 H54  DES L   1      10.807  -6.800   3.408  1.00  0.00    +0.0644  H
ENDROOT
BRANCH 1 19
ATOM     17 C17  DES L   1      13.567  -4.714   2.539  1.00  0.00    +0.2339  C
ATOM     18 O18  DES L   1      14.114  -4.703   3.641  1.00  0.00    -0.2722 OA
ATOM     19 N19  DES L   1      12.200  -4.698   2.317  1.00  0.00    -0.3256  N
ATOM     20 H48  DES L   1      11.924  -4.698   1.331  1.00  0.00    +0.1686 HD
BRANCH 17 21
ATOM     21 C14  DES L   1      14.411  -4.792   1.255  1.00  0.00    +0.0752  C
ATOM     22 H43  DES L   1      15.367  -5.212   1.604  1.00  0.00    +0.0458  H
BRANCH 21 26
ATOM     23 C10  DES L   1      12.948  -7.615  -1.719  1.00  0.00    -0.0103  A
ATOM     24 C11  DES L   1      13.518  -8.058  -0.520  1.00  0.00    -0.0551  A
ATOM     25 C12  DES L   1      13.977  -7.139   0.427  1.00  0.00    -0.0574  A
ATOM     26 C13  DES L   1      13.867  -5.757   0.206  1.00  0.00    -0.0341  A
ATOM     27 C30  DES L   1      13.286  -5.320  -0.993  1.00  0.00    -0.0574  A
ATOM     28 C31  DES L   1      12.829  -6.239  -1.942  1.00  0.00    -0.0551  A
ATOM     29 H41  DES L   1      13.601  -9.123  -0.312  1.00  0.00    +0.0621  H
ATOM     30 H42  DES L   1      14.416  -7.516   1.350  1.00  0.00    +0.0621  H
ATOM     31 H55  DES L   1      13.170  -4.261  -1.211  1.00  0.00    +0.0621  H
ATOM     32 H56  DES L   1      12.367  -5.872  -2.857  1.00  0.00    +0.0621  H
BRANCH 23 33
ATOM     33  C9  DES L   1      12.425  -8.598  -2.733  1.00  0.00    +0.1178  C
ATOM     34 H39  DES L   1      13.223  -9.255  -3.097  1.00  0.00    +0.0749  H
ATOM     35 H40  DES L   1      11.683  -9.258  -2.268  1.00  0.00    +0.0749  H
BRANCH 33 36
ATOM     36  O8  DES L   1      11.762  -7.882  -3.782  1.00  0.00    -0.4564 OA
BRANCH 36 37
ATOM     37  C6  DES L   1      12.367  -7.915  -4.993  1.00  0.00    +0.3395  C
ATOM     38  O7  DES L   1      13.571  -7.916  -5.197  1.00  0.00    -0.2450 OA
BRANCH 37 43
ATOM     39  C1  DES L   1       8.509  -8.006  -9.326  1.00  0.00    -0.0397  C
ATOM     40  C2  DES L   1       9.486  -7.971  -8.188  1.00  0.00    -0.0504  A
ATOM     41  C3  DES L   1      10.654  -7.206  -8.280  1.00  0.00    -0.0581  A
ATOM     42  C4  DES L   1      11.578  -7.197  -7.231  1.00  0.00    -0.0475  A
ATOM     43  C5  DES L   1      11.352  -7.962  -6.080  1.00  0.00    +0.0590  A
ATOM     44 C32  DES L   1      10.189  -8.738  -5.990  1.00  0.00    -0.0475  A
ATOM     45 C33  DES L   1       9.266  -8.745  -7.041  1.00  0.00    -0.0581  A
ATOM     46 H34  DES L   1       8.775  -8.807 -10.023  1.00  0.00    +0.0278  H
ATOM     47 H35  DES L   1       7.491  -8.176  -8.962  1.00  0.00    +0.0278  H
ATOM     48 H36  DES L   1       8.506  -7.054  -9.867  1.00  0.00    +0.0278  H
ATOM     49 H37  DES L   1      10.853  -6.609  -9.168  1.00  0.00    +0.0620  H
ATOM     50 H38  DES L   1      12.477  -6.589  -7.319  1.00  0.00    +0.0626  H
ATOM     51 H57  DES L   1       9.984  -9.338  -5.108  1.00  0.00    +0.0626  H
ATOM     52 H58  DES L   1       8.370  -9.357  -6.956  1.00  0.00    +0.0620  H
ENDBRANCH 37 43
ENDBRANCH 36 37
ENDBRANCH 33 36
ENDBRANCH 23 33
ENDBRANCH 21 26
BRANCH 21 53
ATOM     53 C15  DES L   1      14.759  -3.407   0.660  1.00  0.00    +0.0085  C
ATOM     54 N16  DES L   1      15.045  -2.366   1.667  1.00  0.00    -0.3289 NA
ATOM     55 H44  DES L   1      15.641  -3.502   0.016  1.00  0.00    +0.0432  H
ATOM     56 H45  DES L   1      13.934  -3.056   0.029  1.00  0.00    +0.0432  H
ATOM     57 H46  DES L   1      15.225  -1.487   1.176  1.00  0.00    +0.1182 HD
ATOM     58 H47  DES L   1      14.184  -2.193   2.197  1.00  0.00    +0.1182 HD
ENDBRANCH 21 53
ENDBRANCH 17 21
ENDBRANCH 1 19
TORSDOF 8
ENDMDL
MODEL 10
REMARK VINA RESULT:    -6.889      4.523     10.267
REMARK INTER + INTRA:         -11.450
REMARK INTER:                  -9.304
REMARK INTRA:                  -2.146
REMARK UNBOUND:                -1.339
ROOT
ATOM      1 C20  DES L   1      12.533  -8.053   0.626  1.00  0.00    +0.0423  A
ATOM      2 C21  DES L   1      11.876  -7.093  -0.150  1.00  0.00    -0.0377  A
ATOM      3 C22  DES L   1      11.260  -7.448  -1.353  1.00  0.00    -0.0506  A
ATOM      4 C23  DES L   1      11.294  -8.777  -1.801  1.00  0.00    +0.0004  A
ATOM      5 C24  DES L   1      10.697  -9.194  -2.993  1.00  0.00    +0.0353  A
ATOM      6 N25  DES L   1      10.710 -10.467  -3.455  1.00  0.00    -0.2626 NA
ATOM      7 C26  DES L   1      11.352 -11.375  -2.691  1.00  0.00    +0.0281  A
ATOM      8 C27  DES L   1      11.977 -11.073  -1.492  1.00  0.00    -0.0358  A
ATOM      9 C28  DES L   1      11.953  -9.753  -1.029  1.00  0.00    -0.0131  A
ATOM     10 C29  DES L   1      12.568  -9.377   0.180  1.00  0.00    -0.0305  A
ATOM     11 H49  DES L   1      11.835  -6.055   0.172  1.00  0.00    +0.0638  H
ATOM     12 H50  DES L   1      10.756  -6.680  -1.937  1.00  0.00    +0.0625  H
ATOM     13 H51  DES L   1      10.172  -8.492  -3.636  1.00  0.00    +0.0836  H
ATOM     14 H52  DES L   1      11.351 -12.389  -3.080  1.00  0.00    +0.0830  H
ATOM     15 H53  DES L   1      12.475 -11.859  -0.931  1.00  0.00    +0.0639  H
ATOM     16 H54  DES L   1      13.075 -10.143   0.760  1.00  0.00    +0.0644  H
ENDROOT
BRANCH 1 19
ATOM     17 C17  DES L   1      14.449  -7.268   2.052  1.00  0.00    +0.2339  C
ATOM     18 O18  DES L   1      15.354  -7.303   1.221  1.00  0.00    -0.2722 OA
ATOM     19 N19  DES L   1      13.127  -7.609   1.821  1.00  0.00    -0.3256  N
ATOM     20 H48  DES L   1      12.512  -7.530   2.636  1.00  0.00    +0.1686 HD
BRANCH 17 21
ATOM     21 C14  DES L   1      14.729  -6.774   3.483  1.00  0.00    +0.0752  C
ATOM     22 H43  DES L   1      15.767  -6.411   3.428  1.00  0.00    +0.0458  H
BRANCH 21 26
ATOM     23 C10  DES L   1      12.368  -3.315   4.673  1.00  0.00    -0.0103  A
ATOM     24 C11  DES L   1      13.088  -3.321   3.473  1.00  0.00    -0.0551  A
ATOM     25 C12  DES L   1      13.836  -4.441   3.103  1.00  0.00    -0.0574  A
ATOM     26 C13  DES L   1      13.873  -5.587   3.913  1.00  0.00    -0.0341  A
ATOM     27 C30  DES L   1      13.141  -5.578   5.110  1.00  0.00    -0.0574  A
ATOM     28 C31  DES L   1      12.395  -4.456   5.482  1.00  0.00    -0.0551  A
ATOM     29 H41  DES L   1      13.065  -2.455   2.815  1.00  0.00    +0.0621  H
ATOM     30 H42  DES L   1      14.386  -4.413   2.163  1.00  0.00    +0.0621  H
ATOM     31 H55  DES L   1      13.129  -6.442   5.771  1.00  0.00    +0.0621  H
ATOM     32 H56  DES L   1      11.822  -4.483   6.408  1.00  0.00    +0.0621  H
BRANCH 23 33
ATOM     33  C9  DES L   1      11.536  -2.122   5.067  1.00  0.00    +0.1178  C
ATOM     34 H39  DES L   1      11.555  -1.968   6.152  1.00  0.00    +0.0749  H
ATOM     35 H40  DES L   1      11.956  -1.210   4.626  1.00  0.00    +0.0749  H
BRANCH 33 36
ATOM     36  O8  DES L   1      10.212  -2.280   4.543  1.00  0.00    -0.4564 OA
BRANCH 36 37
ATOM     37  C6  DES L   1       9.242  -2.530   5.454  1.00  0.00    +0.3395  C
ATOM     38  O7  DES L   1       8.735  -1.716   6.210  1.00  0.00    -0.2450 OA
BRANCH 37 43
ATOM     39  C1  DES L   1       7.658  -8.112   5.450  1.00  0.00    -0.0397  C
ATOM     40  C2  DES L   1       8.095  -6.676   5.442  1.00  0.00    -0.0504  A
ATOM     41  C3  DES L   1       8.041  -5.914   6.615  1.00  0.00    -0.0581  A
ATOM     42  C4  DES L   1       8.421  -4.569   6.601  1.00  0.00    -0.0475  A
ATOM     43  C5  DES L   1       8.848  -3.965   5.412  1.00  0.00    +0.0590  A
ATOM     44 C32  DES L   1       8.891  -4.723   4.235  1.00  0.00    -0.0475  A
ATOM     45 C33  DES L   1       8.511  -6.069   4.251  1.00  0.00    -0.0581  A
ATOM     46 H34  DES L   1       6.586  -8.178   5.241  1.00  0.00    +0.0278  H
ATOM     47 H35  DES L   1       8.202  -8.690   4.696  1.00  0.00    +0.0278  H
ATOM     48 H36  DES L   1       7.858  -8.576   6.421  1.00  0.00    +0.0278  H
ATOM     49 H37  DES L   1       7.707  -6.362   7.548  1.00  0.00    +0.0620  H
ATOM     50 H38  DES L   1       8.380  -3.995   7.525  1.00  0.00    +0.0626  H
ATOM     51 H57  DES L   1       9.222  -4.283   3.298  1.00  0.00    +0.0626  H
ATOM     52 H58  DES L   1       8.547  -6.642   3.327  1.00  0.00    +0.0620  H
ENDBRANCH 37 43
ENDBRANCH 36 37
ENDBRANCH 33 36
ENDBRANCH 23 33
ENDBRANCH 21 26
BRANCH 21 53
ATOM     53 C15  DES L   1      14.741  -7.907   4.535  1.00  0.00    +0.0085  C
ATOM     54 N16  DES L   1      14.108  -9.162   4.086  1.00  0.00    -0.3289 NA
ATOM     55 H44  DES L   1      15.778  -8.134   4.811  1.00  0.00    +0.0432  H
ATOM     56 H45  DES L   1      14.230  -7.573   5.446  1.00  0.00    +0.0432  H
ATOM     57 H46  DES L   1      14.134  -9.829   4.862  1.00  0.00    +0.1182 HD
ATOM     58 H47  DES L   1      13.110  -8.979   3.939  1.00  0.00    +0.1182 HD
ENDBRANCH 21 53
ENDBRANCH 17 21
ENDBRANCH 1 19
TORSDOF 8
ENDMDL
MODEL 11
REMARK VINA RESULT:    -6.790      2.679      4.323
REMARK INTER + INTRA:         -11.303
REMARK INTER:                  -9.950
REMARK INTRA:                  -1.354
REMARK UNBOUND:                -1.339
ROOT
ATOM      1 C20  DES L   1      11.956  -6.428  -0.358  1.00  0.00    +0.0423  A
ATOM      2 C21  DES L   1      11.243  -6.315   0.841  1.00  0.00    -0.0377  A
ATOM      3 C22  DES L   1      11.674  -5.448   1.848  1.00  0.00    -0.0506  A
ATOM      4 C23  DES L   1      12.833  -4.678   1.671  1.00  0.00    +0.0004  A
ATOM      5 C24  DES L   1      13.314  -3.793   2.640  1.00  0.00    +0.0353  A
ATOM      6 N25  DES L   1      14.427  -3.034   2.503  1.00  0.00    -0.2626 NA
ATOM      7 C26  DES L   1      15.100  -3.162   1.340  1.00  0.00    +0.0281  A
ATOM      8 C27  DES L   1      14.714  -4.007   0.312  1.00  0.00    -0.0358  A
ATOM      9 C28  DES L   1      13.560  -4.783   0.471  1.00  0.00    -0.0131  A
ATOM     10 C29  DES L   1      13.111  -5.662  -0.534  1.00  0.00    -0.0305  A
ATOM     11 H49  DES L   1      10.342  -6.901   1.005  1.00  0.00    +0.0638  H
ATOM     12 H50  DES L   1      11.100  -5.380   2.770  1.00  0.00    +0.0625  H
ATOM     13 H51  DES L   1      12.800  -3.664   3.589  1.00  0.00    +0.0836  H
ATOM     14 H52  DES L   1      15.990  -2.546   1.251  1.00  0.00    +0.0830  H
ATOM     15 H53  DES L   1      15.307  -4.057  -0.596  1.00  0.00    +0.0639  H
ATOM     16 H54  DES L   1      13.687  -5.732  -1.452  1.00  0.00    +0.0644  H
ENDROOT
BRANCH 1 19
ATOM     17 C17  DES L   1      11.990  -8.530  -1.736  1.00  0.00    +0.2339  C
ATOM     18 O18  DES L   1      13.037  -9.029  -1.328  1.00  0.00    -0.2722 OA
ATOM     19 N19  DES L   1      11.452  -7.326  -1.316  1.00  0.00    -0.3256  N
ATOM     20 H48  DES L   1      10.576  -7.061  -1.776  1.00  0.00    +0.1686 HD
BRANCH 17 21
ATOM     21 C14  DES L   1      11.132  -9.273  -2.775  1.00  0.00    +0.0752  C
ATOM     22 H43  DES L   1      10.103  -8.994  -2.502  1.00  0.00    +0.0458  H
BRANCH 21 26
ATOM     23 C10  DES L   1      11.702  -8.045  -6.913  1.00  0.00    -0.0103  A
ATOM     24 C11  DES L   1      10.571  -8.771  -6.523  1.00  0.00    -0.0551  A
ATOM     25 C12  DES L   1      10.400  -9.153  -5.190  1.00  0.00    -0.0574  A
ATOM     26 C13  DES L   1      11.346  -8.807  -4.212  1.00  0.00    -0.0341  A
ATOM     27 C30  DES L   1      12.472  -8.071  -4.607  1.00  0.00    -0.0574  A
ATOM     28 C31  DES L   1      12.645  -7.692  -5.942  1.00  0.00    -0.0551  A
ATOM     29 H41  DES L   1       9.811  -9.038  -7.255  1.00  0.00    +0.0621  H
ATOM     30 H42  DES L   1       9.509  -9.718  -4.920  1.00  0.00    +0.0621  H
ATOM     31 H55  DES L   1      13.232  -7.771  -3.889  1.00  0.00    +0.0621  H
ATOM     32 H56  DES L   1      13.520  -7.106  -6.218  1.00  0.00    +0.0621  H
BRANCH 23 33
ATOM     33  C9  DES L   1      11.881  -7.605  -8.342  1.00  0.00    +0.1178  C
ATOM     34 H39  DES L   1      12.692  -6.873  -8.433  1.00  0.00    +0.0749  H
ATOM     35 H40  DES L   1      12.177  -8.458  -8.963  1.00  0.00    +0.0749  H
BRANCH 33 36
ATOM     36  O8  DES L   1      10.629  -7.125  -8.846  1.00  0.00    -0.4564 OA
BRANCH 36 37
ATOM     37  C6  DES L   1      10.345  -7.449 -10.130  1.00  0.00    +0.3395  C
ATOM     38  O7  DES L   1      11.070  -7.265 -11.097  1.00  0.00    -0.2450 OA
BRANCH 37 43
ATOM     39  C1  DES L   1       5.150  -9.980 -10.644  1.00  0.00    -0.0397  C
ATOM     40  C2  DES L   1       6.480  -9.300 -10.504  1.00  0.00    -0.0504  A
ATOM     41  C3  DES L   1       7.343  -9.199 -11.601  1.00  0.00    -0.0581  A
ATOM     42  C4  DES L   1       8.594  -8.591 -11.462  1.00  0.00    -0.0475  A
ATOM     43  C5  DES L   1       9.004  -8.088 -10.222  1.00  0.00    +0.0590  A
ATOM     44 C32  DES L   1       8.147  -8.198  -9.120  1.00  0.00    -0.0475  A
ATOM     45 C33  DES L   1       6.896  -8.806  -9.261  1.00  0.00    -0.0581  A
ATOM     46 H34  DES L   1       5.254 -11.050 -10.445  1.00  0.00    +0.0278  H
ATOM     47 H35  DES L   1       4.420  -9.558  -9.946  1.00  0.00    +0.0278  H
ATOM     48 H36  DES L   1       4.748  -9.845 -11.654  1.00  0.00    +0.0278  H
ATOM     49 H37  DES L   1       7.046  -9.589 -12.572  1.00  0.00    +0.0620  H
ATOM     50 H38  DES L   1       9.248  -8.514 -12.330  1.00  0.00    +0.0626  H
ATOM     51 H57  DES L   1       8.436  -7.813  -8.145  1.00  0.00    +0.0626  H
ATOM     52 H58  DES L   1       6.244  -8.888  -8.393  1.00  0.00    +0.0620  H
ENDBRANCH 37 43
ENDBRANCH 36 37
ENDBRANCH 33 36
ENDBRANCH 23 33
ENDBRANCH 21 26
BRANCH 21 53
ATOM     53 C15  DES L   1      11.193 -10.813  -2.638  1.00  0.00    +0.0085  C
ATOM     54 N16  DES L   1      10.983 -11.311  -1.265  1.00  0.00    -0.3289 NA
ATOM     55 H44  DES L   1      10.426 -11.264  -3.279  1.00  0.00    +0.0432  H
ATOM     56 H45  DES L   1      12.165 -11.179  -2.990  1.00  0.00    +0.0432  H
ATOM     57 H46  DES L   1      11.079 -12.329  -1.275  1.00  0.00    +0.1182 HD
ATOM     58 H47  DES L   1      11.765 -10.985  -0.686  1.00  0.00    +0.1182 HD
ENDBRANCH 21 53
ENDBRANCH 17 21
ENDBRANCH 1 19
TORSDOF 8
ENDMDL
MODEL 12
REMARK VINA RESULT:    -6.785      3.179     10.930
REMARK INTER + INTRA:         -11.296
REMARK INTER:                 -10.415
REMARK INTRA:                  -0.881
REMARK UNBOUND:                -1.339
ROOT
ATOM      1 C20  DES L   1      10.329  -8.427  -6.284  1.00  0.00    +0.0423  A
ATOM      2 C21  DES L   1      11.109  -7.714  -7.200  1.00  0.00    -0.0377  A
ATOM      3 C22  DES L   1      10.648  -7.474  -8.497  1.00  0.00    -0.0506  A
ATOM      4 C23  DES L   1       9.391  -7.949  -8.899  1.00  0.00    +0.0004  A
ATOM      5 C24  DES L   1       8.873  -7.742 -10.181  1.00  0.00    +0.0353  A
ATOM      6 N25  DES L   1       7.666  -8.184 -10.604  1.00  0.00    -0.2626 NA
ATOM      7 C26  DES L   1       6.932  -8.872  -9.704  1.00  0.00    +0.0281  A
ATOM      8 C27  DES L   1       7.345  -9.136  -8.408  1.00  0.00    -0.0358  A
ATOM      9 C28  DES L   1       8.596  -8.669  -7.988  1.00  0.00    -0.0131  A
ATOM     10 C29  DES L   1       9.077  -8.902  -6.686  1.00  0.00    -0.0305  A
ATOM     11 H49  DES L   1      12.088  -7.334  -6.915  1.00  0.00    +0.0638  H
ATOM     12 H50  DES L   1      11.276  -6.917  -9.188  1.00  0.00    +0.0625  H
ATOM     13 H51  DES L   1       9.435  -7.193 -10.933  1.00  0.00    +0.0836  H
ATOM     14 H52  DES L   1       5.967  -9.219 -10.063  1.00  0.00    +0.0830  H
ATOM     15 H53  DES L   1       6.699  -9.697  -7.740  1.00  0.00    +0.0639  H
ATOM     16 H54  DES L   1       8.451  -9.462  -5.998  1.00  0.00    +0.0644  H
ENDROOT
BRANCH 1 19
ATOM     17 C17  DES L   1      12.075  -8.165  -4.495  1.00  0.00    +0.2339  C
ATOM     18 O18  DES L   1      12.900  -7.489  -5.108  1.00  0.00    -0.2722 OA
ATOM     19 N19  DES L   1      10.872  -8.624  -5.001  1.00  0.00    -0.3256  N
ATOM     20 H48  DES L   1      10.315  -9.185  -4.350  1.00  0.00    +0.1686 HD
BRANCH 17 21
ATOM     21 C14  DES L   1      12.320  -8.537  -3.022  1.00  0.00    +0.0752  C
ATOM     22 H43  DES L   1      13.097  -9.315  -3.081  1.00  0.00    +0.0458  H
BRANCH 21 26
ATOM     23 C10  DES L   1      13.886  -5.234  -0.658  1.00  0.00    -0.0103  A
ATOM     24 C11  DES L   1      12.508  -5.425  -0.810  1.00  0.00    -0.0551  A
ATOM     25 C12  DES L   1      12.021  -6.494  -1.567  1.00  0.00    -0.0574  A
ATOM     26 C13  DES L   1      12.897  -7.404  -2.178  1.00  0.00    -0.0341  A
ATOM     27 C30  DES L   1      14.277  -7.212  -2.015  1.00  0.00    -0.0574  A
ATOM     28 C31  DES L   1      14.764  -6.142  -1.260  1.00  0.00    -0.0551  A
ATOM     29 H41  DES L   1      11.804  -4.747  -0.332  1.00  0.00    +0.0621  H
ATOM     30 H42  DES L   1      10.943  -6.615  -1.666  1.00  0.00    +0.0621  H
ATOM     31 H55  DES L   1      14.999  -7.893  -2.461  1.00  0.00    +0.0621  H
ATOM     32 H56  DES L   1      15.840  -6.026  -1.134  1.00  0.00    +0.0621  H
BRANCH 23 33
ATOM     33  C9  DES L   1      14.419  -4.101   0.180  1.00  0.00    +0.1178  C
ATOM     34 H39  DES L   1      15.411  -3.786  -0.166  1.00  0.00    +0.0749  H
ATOM     35 H40  DES L   1      13.772  -3.222   0.078  1.00  0.00    +0.0749  H
BRANCH 33 36
ATOM     36  O8  DES L   1      14.399  -4.487   1.560  1.00  0.00    -0.4564 OA
BRANCH 36 37
ATOM     37  C6  DES L   1      13.871  -3.584   2.418  1.00  0.00    +0.3395  C
ATOM     38  O7  DES L   1      14.372  -2.518   2.743  1.00  0.00    -0.2450 OA
BRANCH 37 43
ATOM     39  C1  DES L   1       8.703  -5.275   4.443  1.00  0.00    -0.0397  C
ATOM     40  C2  DES L   1      10.052  -4.857   3.937  1.00  0.00    -0.0504  A
ATOM     41  C3  DES L   1      10.479  -3.531   4.072  1.00  0.00    -0.0581  A
ATOM     42  C4  DES L   1      11.724  -3.136   3.576  1.00  0.00    -0.0475  A
ATOM     43  C5  DES L   1      12.554  -4.058   2.926  1.00  0.00    +0.0590  A
ATOM     44 C32  DES L   1      12.124  -5.383   2.781  1.00  0.00    -0.0475  A
ATOM     45 C33  DES L   1      10.878  -5.776   3.278  1.00  0.00    -0.0581  A
ATOM     46 H34  DES L   1       7.950  -5.133   3.661  1.00  0.00    +0.0278  H
ATOM     47 H35  DES L   1       8.707  -6.328   4.744  1.00  0.00    +0.0278  H
ATOM     48 H36  DES L   1       8.416  -4.688   5.321  1.00  0.00    +0.0278  H
ATOM     49 H37  DES L   1       9.847  -2.797   4.567  1.00  0.00    +0.0620  H
ATOM     50 H38  DES L   1      12.042  -2.101   3.697  1.00  0.00    +0.0626  H
ATOM     51 H57  DES L   1      12.748  -6.122   2.285  1.00  0.00    +0.0626  H
ATOM     52 H58  DES L   1      10.558  -6.809   3.152  1.00  0.00    +0.0620  H
ENDBRANCH 37 43
ENDBRANCH 36 37
ENDBRANCH 33 36
ENDBRANCH 23 33
ENDBRANCH 21 26
BRANCH 21 53
ATOM     53 C15  DES L   1      11.105  -9.216  -2.347  1.00  0.00    +0.0085  C
ATOM     54 N16  DES L   1      10.928 -10.638  -2.701  1.00  0.00    -0.3289 NA
ATOM     55 H44  DES L   1      11.213  -9.152  -1.258  1.00  0.00    +0.0432  H
ATOM     56 H45  DES L   1      10.185  -8.681  -2.613  1.00  0.00    +0.0432  H
ATOM     57 H46  DES L   1      10.083 -10.980  -2.236  1.00  0.00    +0.1182 HD
ATOM     58 H47  DES L   1      10.710 -10.692  -3.702  1.00  0.00    +0.1182 HD
ENDBRANCH 21 53
ENDBRANCH 17 21
ENDBRANCH 1 19
TORSDOF 8
ENDMDL
MODEL 13
REMARK VINA RESULT:    -6.746      4.903      8.282
REMARK INTER + INTRA:         -11.239
REMARK INTER:                 -10.051
REMARK INTRA:                  -1.188
REMARK UNBOUND:                -1.339
ROOT
ATOM      1 C20  DES L   1       9.017  -6.466   5.795  1.00  0.00    +0.0423  A
ATOM      2 C21  DES L   1       7.981  -6.791   4.911  1.00  0.00    -0.0377  A
ATOM      3 C22  DES L   1       7.353  -8.037   4.974  1.00  0.00    -0.0506  A
ATOM      4 C23  DES L   1       7.755  -8.984   5.928  1.00  0.00    +0.0004  A
ATOM      5 C24  DES L   1       7.167 -10.247   6.042  1.00  0.00    +0.0353  A
ATOM      6 N25  DES L   1       7.528 -11.184   6.949  1.00  0.00    -0.2626 NA
ATOM      7 C26  DES L   1       8.531 -10.851   7.789  1.00  0.00    +0.0281  A
ATOM      8 C27  DES L   1       9.185  -9.630   7.766  1.00  0.00    -0.0358  A
ATOM      9 C28  DES L   1       8.796  -8.671   6.822  1.00  0.00    -0.0131  A
ATOM     10 C29  DES L   1       9.418  -7.411   6.743  1.00  0.00    -0.0305  A
ATOM     11 H49  DES L   1       7.649  -6.076   4.162  1.00  0.00    +0.0638  H
ATOM     12 H50  DES L   1       6.551  -8.262   4.275  1.00  0.00    +0.0625  H
ATOM     13 H51  DES L   1       6.358 -10.552   5.383  1.00  0.00    +0.0836  H
ATOM     14 H52  DES L   1       8.806 -11.617   8.507  1.00  0.00    +0.0830  H
ATOM     15 H53  DES L   1       9.984  -9.432   8.474  1.00  0.00    +0.0639  H
ATOM     16 H54  DES L   1      10.222  -7.188   7.439  1.00  0.00    +0.0644  H
ENDROOT
BRANCH 1 19
ATOM     17 C17  DES L   1       9.495  -4.105   6.511  1.00  0.00    +0.2339  C
ATOM     18 O18  DES L   1       8.860  -4.075   7.564  1.00  0.00    -0.2722 OA
ATOM     19 N19  DES L   1       9.594  -5.191   5.659  1.00  0.00    -0.3256  N
ATOM     20 H48  DES L   1      10.157  -5.031   4.819  1.00  0.00    +0.1686 HD
BRANCH 17 21
ATOM     21 C14  DES L   1      10.307  -2.877   6.061  1.00  0.00    +0.0752  C
ATOM     22 H43  DES L   1      10.637  -2.428   7.010  1.00  0.00    +0.0458  H
BRANCH 21 26
ATOM     23 C10  DES L   1      13.849  -3.839   3.719  1.00  0.00    -0.0103  A
ATOM     24 C11  DES L   1      12.941  -2.865   3.290  1.00  0.00    -0.0551  A
ATOM     25 C12  DES L   1      11.812  -2.563   4.056  1.00  0.00    -0.0574  A
ATOM     26 C13  DES L   1      11.570  -3.217   5.275  1.00  0.00    -0.0341  A
ATOM     27 C30  DES L   1      12.489  -4.186   5.704  1.00  0.00    -0.0574  A
ATOM     28 C31  DES L   1      13.617  -4.489   4.936  1.00  0.00    -0.0551  A
ATOM     29 H41  DES L   1      13.112  -2.328   2.359  1.00  0.00    +0.0621  H
ATOM     30 H42  DES L   1      11.124  -1.800   3.694  1.00  0.00    +0.0621  H
ATOM     31 H55  DES L   1      12.353  -4.717   6.643  1.00  0.00    +0.0621  H
ATOM     32 H56  DES L   1      14.323  -5.233   5.301  1.00  0.00    +0.0621  H
BRANCH 23 33
ATOM     33  C9  DES L   1      15.084  -4.150   2.914  1.00  0.00    +0.1178  C
ATOM     34 H39  DES L   1      15.530  -3.236   2.505  1.00  0.00    +0.0749  H
ATOM     35 H40  DES L   1      15.850  -4.594   3.560  1.00  0.00    +0.0749  H
BRANCH 33 36
ATOM     36  O8  DES L   1      14.758  -5.118   1.909  1.00  0.00    -0.4564 OA
BRANCH 36 37
ATOM     37  C6  DES L   1      14.309  -4.619   0.733  1.00  0.00    +0.3395  C
ATOM     38  O7  DES L   1      14.592  -3.531   0.256  1.00  0.00    -0.2450 OA
BRANCH 37 43
ATOM     39  C1  DES L   1      10.911  -8.450  -1.995  1.00  0.00    -0.0397  C
ATOM     40  C2  DES L   1      11.768  -7.440  -1.291  1.00  0.00    -0.0504  A
ATOM     41  C3  DES L   1      12.984  -7.031  -1.849  1.00  0.00    -0.0581  A
ATOM     42  C4  DES L   1      13.796  -6.111  -1.180  1.00  0.00    -0.0475  A
ATOM     43  C5  DES L   1      13.408  -5.597   0.064  1.00  0.00    +0.0590  A
ATOM     44 C32  DES L   1      12.197  -6.013   0.630  1.00  0.00    -0.0475  A
ATOM     45 C33  DES L   1      11.386  -6.934  -0.042  1.00  0.00    -0.0581  A
ATOM     46 H34  DES L   1      11.196  -9.461  -1.688  1.00  0.00    +0.0278  H
ATOM     47 H35  DES L   1       9.852  -8.295  -1.763  1.00  0.00    +0.0278  H
ATOM     48 H36  DES L   1      11.020  -8.366  -3.081  1.00  0.00    +0.0278  H
ATOM     49 H37  DES L   1      13.307  -7.423  -2.811  1.00  0.00    +0.0620  H
ATOM     50 H38  DES L   1      14.735  -5.800  -1.634  1.00  0.00    +0.0626  H
ATOM     51 H57  DES L   1      11.867  -5.629   1.592  1.00  0.00    +0.0626  H
ATOM     52 H58  DES L   1      10.450  -7.249   0.415  1.00  0.00    +0.0620  H
ENDBRANCH 37 43
ENDBRANCH 36 37
ENDBRANCH 33 36
ENDBRANCH 23 33
ENDBRANCH 21 26
BRANCH 21 53
ATOM     53 C15  DES L   1       9.451  -1.793   5.365  1.00  0.00    +0.0085  C
ATOM     54 N16  DES L   1       8.570  -1.036   6.275  1.00  0.00    -0.3289 NA
ATOM     55 H44  DES L   1      10.113  -1.076   4.865  1.00  0.00    +0.0432  H
ATOM     56 H45  DES L   1       8.828  -2.253   4.589  1.00  0.00    +0.0432  H
ATOM     57 H46  DES L   1       8.024  -0.376   5.716  1.00  0.00    +0.1182 HD
ATOM     58 H47  DES L   1       7.873  -1.686   6.657  1.00  0.00    +0.1182 HD
ENDBRANCH 21 53
ENDBRANCH 17 21
ENDBRANCH 1 19
TORSDOF 8
ENDMDL
MODEL 14
REMARK VINA RESULT:    -6.737      2.836      5.180
REMARK INTER + INTRA:         -11.226
REMARK INTER:                  -9.769
REMARK INTRA:                  -1.457
REMARK UNBOUND:                -1.339
ROOT
ATOM      1 C20  DES L   1      12.179  -7.007  -2.019  1.00  0.00    +0.0423  A
ATOM      2 C21  DES L   1      11.076  -7.197  -1.181  1.00  0.00    -0.0377  A
ATOM      3 C22  DES L   1      11.012  -6.573   0.068  1.00  0.00    -0.0506  A
ATOM      4 C23  DES L   1      12.060  -5.746   0.500  1.00  0.00    +0.0004  A
ATOM      5 C24  DES L   1      12.055  -5.095   1.736  1.00  0.00    +0.0353  A
ATOM      6 N25  DES L   1      13.047  -4.290   2.185  1.00  0.00    -0.2626 NA
ATOM      7 C26  DES L   1      14.102  -4.124   1.361  1.00  0.00    +0.0281  A
ATOM      8 C27  DES L   1      14.212  -4.719   0.115  1.00  0.00    -0.0358  A
ATOM      9 C28  DES L   1      13.176  -5.547  -0.333  1.00  0.00    -0.0131  A
ATOM     10 C29  DES L   1      13.224  -6.184  -1.588  1.00  0.00    -0.0305  A
ATOM     11 H49  DES L   1      10.250  -7.833  -1.490  1.00  0.00    +0.0638  H
ATOM     12 H50  DES L   1      10.142  -6.739   0.699  1.00  0.00    +0.0625  H
ATOM     13 H51  DES L   1      11.223  -5.205   2.427  1.00  0.00    +0.0836  H
ATOM     14 H52  DES L   1      14.887  -3.476   1.740  1.00  0.00    +0.0830  H
ATOM     15 H53  DES L   1      15.093  -4.539  -0.493  1.00  0.00    +0.0639  H
ATOM     16 H54  DES L   1      14.094  -6.021  -2.216  1.00  0.00    +0.0644  H
ENDROOT
BRANCH 1 19
ATOM     17 C17  DES L   1      12.141  -9.036  -3.502  1.00  0.00    +0.2339  C
ATOM     18 O18  DES L   1      12.139  -9.919  -2.646  1.00  0.00    -0.2722 OA
ATOM     19 N19  DES L   1      12.161  -7.674  -3.257  1.00  0.00    -0.3256  N
ATOM     20 H48  DES L   1      12.172  -7.085  -4.095  1.00  0.00    +0.1686 HD
BRANCH 17 21
ATOM     21 C14  DES L   1      12.075  -9.405  -4.995  1.00  0.00    +0.0752  C
ATOM     22 H43  DES L   1      12.367 -10.466  -5.008  1.00  0.00    +0.0458  H
BRANCH 21 26
ATOM     23 C10  DES L   1       8.069  -9.302  -6.697  1.00  0.00    -0.0103  A
ATOM     24 C11  DES L   1       8.363 -10.101  -5.587  1.00  0.00    -0.0551  A
ATOM     25 C12  DES L   1       9.652 -10.118  -5.048  1.00  0.00    -0.0574  A
ATOM     26 C13  DES L   1      10.675  -9.328  -5.597  1.00  0.00    -0.0341  A
ATOM     27 C30  DES L   1      10.372  -8.523  -6.704  1.00  0.00    -0.0574  A
ATOM     28 C31  DES L   1       9.083  -8.508  -7.245  1.00  0.00    -0.0551  A
ATOM     29 H41  DES L   1       7.586 -10.710  -5.128  1.00  0.00    +0.0621  H
ATOM     30 H42  DES L   1       9.848 -10.751  -4.184  1.00  0.00    +0.0621  H
ATOM     31 H55  DES L   1      11.125  -7.887  -7.163  1.00  0.00    +0.0621  H
ATOM     32 H56  DES L   1       8.870  -7.859  -8.094  1.00  0.00    +0.0621  H
BRANCH 23 33
ATOM     33  C9  DES L   1       6.675  -9.255  -7.266  1.00  0.00    +0.1178  C
ATOM     34 H39  DES L   1       5.945  -9.666  -6.559  1.00  0.00    +0.0749  H
ATOM     35 H40  DES L   1       6.375  -8.215  -7.437  1.00  0.00    +0.0749  H
BRANCH 33 36
ATOM     36  O8  DES L   1       6.664  -9.918  -8.537  1.00  0.00    -0.4564 OA
BRANCH 36 37
ATOM     37  C6  DES L   1       6.347  -9.145  -9.602  1.00  0.00    +0.3395  C
ATOM     38  O7  DES L   1       5.332  -8.478  -9.733  1.00  0.00    -0.2450 OA
BRANCH 37 43
ATOM     39  C1  DES L   1      10.623  -9.223 -13.524  1.00  0.00    -0.0397  C
ATOM     40  C2  DES L   1       9.497  -9.203 -12.531  1.00  0.00    -0.0504  A
ATOM     41  C3  DES L   1       9.377  -8.149 -11.619  1.00  0.00    -0.0581  A
ATOM     42  C4  DES L   1       8.346  -8.145 -10.676  1.00  0.00    -0.0475  A
ATOM     43  C5  DES L   1       7.427  -9.201 -10.625  1.00  0.00    +0.0590  A
ATOM     44 C32  DES L   1       7.552 -10.262 -11.530  1.00  0.00    -0.0475  A
ATOM     45 C33  DES L   1       8.585 -10.264 -12.473  1.00  0.00    -0.0581  A
ATOM     46 H34  DES L   1      11.494  -9.724 -13.091  1.00  0.00    +0.0278  H
ATOM     47 H35  DES L   1      10.329  -9.749 -14.438  1.00  0.00    +0.0278  H
ATOM     48 H36  DES L   1      10.907  -8.206 -13.813  1.00  0.00    +0.0278  H
ATOM     49 H37  DES L   1      10.083  -7.322 -11.637  1.00  0.00    +0.0620  H
ATOM     50 H38  DES L   1       8.264  -7.312  -9.979  1.00  0.00    +0.0626  H
ATOM     51 H57  DES L   1       6.852 -11.093 -11.518  1.00  0.00    +0.0626  H
ATOM     52 H58  DES L   1       8.670 -11.099 -13.166  1.00  0.00    +0.0620  H
ENDBRANCH 37 43
ENDBRANCH 36 37
ENDBRANCH 33 36
ENDBRANCH 23 33
ENDBRANCH 21 26
BRANCH 21 53
ATOM     53 C15  DES L   1      13.130  -8.673  -5.858  1.00  0.00    +0.0085  C
ATOM     54 N16  DES L   1      14.364  -8.311  -5.135  1.00  0.00    -0.3289 NA
ATOM     55 H44  DES L   1      13.412  -9.312  -6.703  1.00  0.00    +0.0432  H
ATOM     56 H45  DES L   1      12.698  -7.757  -6.276  1.00  0.00    +0.0432  H
ATOM     57 H46  DES L   1      14.976  -7.803  -5.779  1.00  0.00    +0.1182 HD
ATOM     58 H47  DES L   1      14.120  -7.622  -4.415  1.00  0.00    +0.1182 HD
ENDBRANCH 21 53
ENDBRANCH 17 21
ENDBRANCH 1 19
TORSDOF 8
ENDMDL
MODEL 15
REMARK VINA RESULT:    -6.678      3.423      5.917
REMARK INTER + INTRA:         -11.140
REMARK INTER:                  -9.218
REMARK INTRA:                  -1.922
REMARK UNBOUND:                -1.339
ROOT
ATOM      1 C20  DES L   1      12.037  -7.984  -1.997  1.00  0.00    +0.0423  A
ATOM      2 C21  DES L   1      11.080  -7.348  -1.200  1.00  0.00    -0.0377  A
ATOM      3 C22  DES L   1      11.428  -6.259  -0.397  1.00  0.00    -0.0506  A
ATOM      4 C23  DES L   1      12.749  -5.787  -0.380  1.00  0.00    +0.0004  A
ATOM      5 C24  DES L   1      13.159  -4.703   0.401  1.00  0.00    +0.0353  A
ATOM      6 N25  DES L   1      14.424  -4.220   0.442  1.00  0.00    -0.2626 NA
ATOM      7 C26  DES L   1      15.331  -4.851  -0.332  1.00  0.00    +0.0281  A
ATOM      8 C27  DES L   1      15.036  -5.934  -1.144  1.00  0.00    -0.0358  A
ATOM      9 C28  DES L   1      13.722  -6.418  -1.176  1.00  0.00    -0.0131  A
ATOM     10 C29  DES L   1      13.354  -7.515  -1.978  1.00  0.00    -0.0305  A
ATOM     11 H49  DES L   1      10.048  -7.693  -1.194  1.00  0.00    +0.0638  H
ATOM     12 H50  DES L   1      10.662  -5.783   0.212  1.00  0.00    +0.0625  H
ATOM     13 H51  DES L   1      12.458  -4.170   1.038  1.00  0.00    +0.0836  H
ATOM     14 H52  DES L   1      16.339  -4.450  -0.283  1.00  0.00    +0.0830  H
ATOM     15 H53  DES L   1      15.820  -6.391  -1.740  1.00  0.00    +0.0639  H
ATOM     16 H54  DES L   1      14.119  -7.991  -2.583  1.00  0.00    +0.0644  H
ENDROOT
BRANCH 1 19
ATOM     17 C17  DES L   1      11.217  -9.087  -4.102  1.00  0.00    +0.2339  C
ATOM     18 O18  DES L   1      11.191  -8.112  -4.851  1.00  0.00    -0.2722 OA
ATOM     19 N19  DES L   1      11.600  -9.074  -2.772  1.00  0.00    -0.3256  N
ATOM     20 H48  DES L   1      11.547  -9.980  -2.298  1.00  0.00    +0.1686 HD
BRANCH 17 21
ATOM     21 C14  DES L   1      10.842 -10.482  -4.633  1.00  0.00    +0.0752  C
ATOM     22 H43  DES L   1      10.618 -11.051  -3.718  1.00  0.00    +0.0458  H
BRANCH 21 26
ATOM     23 C10  DES L   1       7.296 -10.534  -7.159  1.00  0.00    -0.0103  A
ATOM     24 C11  DES L   1       8.492 -11.127  -7.578  1.00  0.00    -0.0551  A
ATOM     25 C12  DES L   1       9.619 -11.107  -6.754  1.00  0.00    -0.0574  A
ATOM     26 C13  DES L   1       9.576 -10.507  -5.485  1.00  0.00    -0.0341  A
ATOM     27 C30  DES L   1       8.373  -9.923  -5.066  1.00  0.00    -0.0574  A
ATOM     28 C31  DES L   1       7.245  -9.940  -5.893  1.00  0.00    -0.0551  A
ATOM     29 H41  DES L   1       8.551 -11.616  -8.549  1.00  0.00    +0.0621  H
ATOM     30 H42  DES L   1      10.535 -11.578  -7.110  1.00  0.00    +0.0621  H
ATOM     31 H55  DES L   1       8.283  -9.451  -4.090  1.00  0.00    +0.0621  H
ATOM     32 H56  DES L   1       6.318  -9.494  -5.535  1.00  0.00    +0.0621  H
BRANCH 23 33
ATOM     33  C9  DES L   1       6.068 -10.575  -8.029  1.00  0.00    +0.1178  C
ATOM     34 H39  DES L   1       6.130 -11.388  -8.763  1.00  0.00    +0.0749  H
ATOM     35 H40  DES L   1       5.183 -10.790  -7.419  1.00  0.00    +0.0749  H
BRANCH 33 36
ATOM     36  O8  DES L   1       5.872  -9.288  -8.628  1.00  0.00    -0.4564 OA
BRANCH 36 37
ATOM     37  C6  DES L   1       5.937  -9.250  -9.979  1.00  0.00    +0.3395  C
ATOM     38  O7  DES L   1       5.021  -9.488 -10.752  1.00  0.00    -0.2450 OA
BRANCH 37 43
ATOM     39  C1  DES L   1      11.228  -7.791 -11.860  1.00  0.00    -0.0397  C
ATOM     40  C2  DES L   1       9.872  -8.182 -11.351  1.00  0.00    -0.0504  A
ATOM     41  C3  DES L   1       9.014  -8.953 -12.143  1.00  0.00    -0.0581  A
ATOM     42  C4  DES L   1       7.740  -9.294 -11.681  1.00  0.00    -0.0475  A
ATOM     43  C5  DES L   1       7.302  -8.857 -10.424  1.00  0.00    +0.0590  A
ATOM     44 C32  DES L   1       8.155  -8.076  -9.634  1.00  0.00    -0.0475  A
ATOM     45 C33  DES L   1       9.429  -7.736 -10.100  1.00  0.00    -0.0581  A
ATOM     46 H34  DES L   1      11.163  -6.846 -12.409  1.00  0.00    +0.0278  H
ATOM     47 H35  DES L   1      11.937  -7.673 -11.034  1.00  0.00    +0.0278  H
ATOM     48 H36  DES L   1      11.632  -8.560 -12.526  1.00  0.00    +0.0278  H
ATOM     49 H37  DES L   1       9.332  -9.298 -13.125  1.00  0.00    +0.0620  H
ATOM     50 H38  DES L   1       7.090  -9.902 -12.308  1.00  0.00    +0.0626  H
ATOM     51 H57  DES L   1       7.844  -7.726  -8.654  1.00  0.00    +0.0626  H
ATOM     52 H58  DES L   1      10.077  -7.125  -9.475  1.00  0.00    +0.0620  H
ENDBRANCH 37 43
ENDBRANCH 36 37
ENDBRANCH 33 36
ENDBRANCH 23 33
ENDBRANCH 21 26
BRANCH 21 53
ATOM     53 C15  DES L   1      12.021 -11.224  -5.304  1.00  0.00    +0.0085  C
ATOM     54 N16  DES L   1      13.289 -10.469  -5.315  1.00  0.00    -0.3289 NA
ATOM     55 H44  DES L   1      12.200 -12.170  -4.779  1.00  0.00    +0.0432  H
ATOM     56 H45  DES L   1      11.763 -11.474  -6.340  1.00  0.00    +0.0432  H
ATOM     57 H46  DES L   1      13.990 -11.026  -5.811  1.00  0.00    +0.1182 HD
ATOM     58 H47  DES L   1      13.159  -9.639  -5.904  1.00  0.00    +0.1182 HD
ENDBRANCH 21 53
ENDBRANCH 17 21
ENDBRANCH 1 19
TORSDOF 8
ENDMDL
MODEL 16
REMARK VINA RESULT:    -6.663      1.873      2.900
REMARK INTER + INTRA:         -11.118
REMARK INTER:                  -9.688
REMARK INTRA:                  -1.430
REMARK UNBOUND:                -1.339
ROOT
ATOM      1 C20  DES L   1      11.533  -4.828   3.058  1.00  0.00    +0.0423  A
ATOM      2 C21  DES L   1      11.138  -5.918   3.841  1.00  0.00    -0.0377  A
ATOM      3 C22  DES L   1      10.323  -5.734   4.961  1.00  0.00    -0.0506  A
ATOM      4 C23  DES L   1       9.889  -4.448   5.317  1.00  0.00    +0.0004  A
ATOM      5 C24  DES L   1       9.073  -4.200   6.424  1.00  0.00    +0.0353  A
ATOM      6 N25  DES L   1       8.636  -2.974   6.797  1.00  0.00    -0.2626 NA
ATOM      7 C26  DES L   1       9.032  -1.937   6.029  1.00  0.00    +0.0281  A
ATOM      8 C27  DES L   1       9.839  -2.067   4.910  1.00  0.00    -0.0358  A
ATOM      9 C28  DES L   1      10.281  -3.343   4.539  1.00  0.00    -0.0131  A
ATOM     10 C29  DES L   1      11.103  -3.547   3.414  1.00  0.00    -0.0305  A
ATOM     11 H49  DES L   1      11.460  -6.925   3.589  1.00  0.00    +0.0638  H
ATOM     12 H50  DES L   1      10.031  -6.600   5.551  1.00  0.00    +0.0625  H
ATOM     13 H51  DES L   1       8.735  -5.008   7.066  1.00  0.00    +0.0836  H
ATOM     14 H52  DES L   1       8.671  -0.963   6.345  1.00  0.00    +0.0830  H
ATOM     15 H53  DES L   1      10.117  -1.186   4.340  1.00  0.00    +0.0639  H
ATOM     16 H54  DES L   1      11.397  -2.682   2.827  1.00  0.00    +0.0644  H
ENDROOT
BRANCH 1 19
ATOM     17 C17  DES L   1      13.708  -5.395   1.933  1.00  0.00    +0.2339  C
ATOM     18 O18  DES L   1      14.441  -5.460   2.918  1.00  0.00    -0.2722 OA
ATOM     19 N19  DES L   1      12.356  -5.103   1.950  1.00  0.00    -0.3256  N
ATOM     20 H48  DES L   1      11.907  -5.081   1.030  1.00  0.00    +0.1686 HD
BRANCH 17 21
ATOM     21 C14  DES L   1      14.269  -5.693   0.531  1.00  0.00    +0.0752  C
ATOM     22 H43  DES L   1      15.247  -6.152   0.739  1.00  0.00    +0.0458  H
BRANCH 21 26
ATOM     23 C10  DES L   1      12.036  -8.705  -1.683  1.00  0.00    -0.0103  A
ATOM     24 C11  DES L   1      12.469  -8.942  -0.374  1.00  0.00    -0.0551  A
ATOM     25 C12  DES L   1      13.179  -7.963   0.325  1.00  0.00    -0.0574  A
ATOM     26 C13  DES L   1      13.462  -6.719  -0.260  1.00  0.00    -0.0341  A
ATOM     27 C30  DES L   1      13.018  -6.484  -1.569  1.00  0.00    -0.0574  A
ATOM     28 C31  DES L   1      12.310  -7.464  -2.270  1.00  0.00    -0.0551  A
ATOM     29 H41  DES L   1      12.248  -9.889   0.113  1.00  0.00    +0.0621  H
ATOM     30 H42  DES L   1      13.502  -8.179   1.343  1.00  0.00    +0.0621  H
ATOM     31 H55  DES L   1      13.204  -5.535  -2.067  1.00  0.00    +0.0621  H
ATOM     32 H56  DES L   1      11.961  -7.249  -3.279  1.00  0.00    +0.0621  H
BRANCH 23 33
ATOM     33  C9  DES L   1      11.245  -9.744  -2.434  1.00  0.00    +0.1178  C
ATOM     34 H39  DES L   1      11.902 -10.519  -2.847  1.00  0.00    +0.0749  H
ATOM     35 H40  DES L   1      10.562 -10.262  -1.751  1.00  0.00    +0.0749  H
BRANCH 33 36
ATOM     36  O8  DES L   1      10.444  -9.095  -3.429  1.00  0.00    -0.4564 OA
BRANCH 36 37
ATOM     37  C6  DES L   1       9.945  -9.896  -4.400  1.00  0.00    +0.3395  C
ATOM     38  O7  DES L   1       9.554 -11.045  -4.257  1.00  0.00    -0.2450 OA
BRANCH 37 43
ATOM     39  C1  DES L   1       9.997  -7.037  -9.448  1.00  0.00    -0.0397  C
ATOM     40  C2  DES L   1       9.959  -7.763  -8.136  1.00  0.00    -0.0504  A
ATOM     41  C3  DES L   1      10.991  -7.600  -7.206  1.00  0.00    -0.0581  A
ATOM     42  C4  DES L   1      10.970  -8.298  -5.995  1.00  0.00    -0.0475  A
ATOM     43  C5  DES L   1       9.920  -9.179  -5.704  1.00  0.00    +0.0590  A
ATOM     44 C32  DES L   1       8.891  -9.352  -6.638  1.00  0.00    -0.0475  A
ATOM     45 C33  DES L   1       8.916  -8.652  -7.848  1.00  0.00    -0.0581  A
ATOM     46 H34  DES L   1      10.531  -7.636 -10.192  1.00  0.00    +0.0278  H
ATOM     47 H35  DES L   1       8.985  -6.837  -9.814  1.00  0.00    +0.0278  H
ATOM     48 H36  DES L   1      10.501  -6.070  -9.345  1.00  0.00    +0.0278  H
ATOM     49 H37  DES L   1      11.819  -6.925  -7.415  1.00  0.00    +0.0620  H
ATOM     50 H38  DES L   1      11.779  -8.152  -5.281  1.00  0.00    +0.0626  H
ATOM     51 H57  DES L   1       8.062 -10.026  -6.438  1.00  0.00    +0.0626  H
ATOM     52 H58  DES L   1       8.110  -8.803  -8.565  1.00  0.00    +0.0620  H
ENDBRANCH 37 43
ENDBRANCH 36 37
ENDBRANCH 33 36
ENDBRANCH 23 33
ENDBRANCH 21 26
BRANCH 21 53
ATOM     53 C15  DES L   1      14.576  -4.420  -0.293  1.00  0.00    +0.0085  C
ATOM     54 N16  DES L   1      14.663  -3.183   0.506  1.00  0.00    -0.3289 NA
ATOM     55 H44  DES L   1      15.531  -4.549  -0.816  1.00  0.00    +0.0432  H
ATOM     56 H45  DES L   1      13.804  -4.278  -1.060  1.00  0.00    +0.0432  H
ATOM     57 H46  DES L   1      14.830  -2.400  -0.131  1.00  0.00    +0.1182 HD
ATOM     58 H47  DES L   1      13.735  -2.996   0.904  1.00  0.00    +0.1182 HD
ENDBRANCH 21 53
ENDBRANCH 17 21
ENDBRANCH 1 19
TORSDOF 8
ENDMDL
MODEL 17
REMARK VINA RESULT:    -6.449      2.543      4.478
REMARK INTER + INTRA:         -10.803
REMARK INTER:                  -9.043
REMARK INTRA:                  -1.760
REMARK UNBOUND:                -1.339
ROOT
ATOM      1 C20  DES L   1      11.939  -6.628  -1.296  1.00  0.00    +0.0423  A
ATOM      2 C21  DES L   1      13.095  -5.896  -1.585  1.00  0.00    -0.0377  A
ATOM      3 C22  DES L   1      13.680  -5.074  -0.617  1.00  0.00    -0.0506  A
ATOM      4 C23  DES L   1      13.112  -4.972   0.661  1.00  0.00    +0.0004  A
ATOM      5 C24  DES L   1      13.649  -4.169   1.671  1.00  0.00    +0.0353  A
ATOM      6 N25  DES L   1      13.128  -4.047   2.915  1.00  0.00    -0.2626 NA
ATOM      7 C26  DES L   1      12.011  -4.760   3.169  1.00  0.00    +0.0281  A
ATOM      8 C27  DES L   1      11.394  -5.587   2.245  1.00  0.00    -0.0358  A
ATOM      9 C28  DES L   1      11.947  -5.703   0.964  1.00  0.00    -0.0131  A
ATOM     10 C29  DES L   1      11.372  -6.525  -0.023  1.00  0.00    -0.0305  A
ATOM     11 H49  DES L   1      13.557  -5.956  -2.567  1.00  0.00    +0.0638  H
ATOM     12 H50  DES L   1      14.580  -4.517  -0.869  1.00  0.00    +0.0625  H
ATOM     13 H51  DES L   1      14.547  -3.580   1.503  1.00  0.00    +0.0836  H
ATOM     14 H52  DES L   1      11.609  -4.646   4.171  1.00  0.00    +0.0830  H
ATOM     15 H53  DES L   1      10.496  -6.130   2.522  1.00  0.00    +0.0639  H
ATOM     16 H54  DES L   1      10.472  -7.078   0.228  1.00  0.00    +0.0644  H
ENDROOT
BRANCH 1 19
ATOM     17 C17  DES L   1      11.992  -8.526  -2.944  1.00  0.00    +0.2339  C
ATOM     18 O18  DES L   1      13.097  -8.998  -2.681  1.00  0.00    -0.2722 OA
ATOM     19 N19  DES L   1      11.416  -7.427  -2.329  1.00  0.00    -0.3256  N
ATOM     20 H48  DES L   1      10.493  -7.167  -2.687  1.00  0.00    +0.1686 HD
BRANCH 17 21
ATOM     21 C14  DES L   1      11.101  -9.187  -4.011  1.00  0.00    +0.0752  C
ATOM     22 H43  DES L   1      10.153  -8.633  -3.930  1.00  0.00    +0.0458  H
BRANCH 21 26
ATOM     23 C10  DES L   1      12.568  -8.758  -8.088  1.00  0.00    -0.0103  A
ATOM     24 C11  DES L   1      12.117  -9.992  -7.607  1.00  0.00    -0.0551  A
ATOM     25 C12  DES L   1      11.644 -10.112  -6.298  1.00  0.00    -0.0574  A
ATOM     26 C13  DES L   1      11.596  -9.000  -5.442  1.00  0.00    -0.0341  A
ATOM     27 C30  DES L   1      12.041  -7.764  -5.933  1.00  0.00    -0.0574  A
ATOM     28 C31  DES L   1      12.517  -7.645  -7.242  1.00  0.00    -0.0551  A
ATOM     29 H41  DES L   1      12.125 -10.868  -8.253  1.00  0.00    +0.0621  H
ATOM     30 H42  DES L   1      11.300 -11.087  -5.955  1.00  0.00    +0.0621  H
ATOM     31 H55  DES L   1      12.018  -6.870  -5.314  1.00  0.00    +0.0621  H
ATOM     32 H56  DES L   1      12.840  -6.669  -7.602  1.00  0.00    +0.0621  H
BRANCH 23 33
ATOM     33  C9  DES L   1      13.053  -8.613  -9.506  1.00  0.00    +0.1178  C
ATOM     34 H39  DES L   1      13.429  -7.600  -9.695  1.00  0.00    +0.0749  H
ATOM     35 H40  DES L   1      13.902  -9.285  -9.683  1.00  0.00    +0.0749  H
BRANCH 33 36
ATOM     36  O8  DES L   1      12.006  -9.003 -10.403  1.00  0.00    -0.4564 OA
BRANCH 36 37
ATOM     37  C6  DES L   1      11.222  -8.001 -10.867  1.00  0.00    +0.3395  C
ATOM     38  O7  DES L   1      11.602  -7.006 -11.464  1.00  0.00    -0.2450 OA
BRANCH 37 43
ATOM     39  C1  DES L   1       5.625  -9.117  -9.824  1.00  0.00    -0.0397  C
ATOM     40  C2  DES L   1       7.068  -8.801 -10.084  1.00  0.00    -0.0504  A
ATOM     41  C3  DES L   1       7.596  -8.913 -11.375  1.00  0.00    -0.0581  A
ATOM     42  C4  DES L   1       8.947  -8.646 -11.612  1.00  0.00    -0.0475  A
ATOM     43  C5  DES L   1       9.792  -8.276 -10.559  1.00  0.00    +0.0590  A
ATOM     44 C32  DES L   1       9.268  -8.173  -9.264  1.00  0.00    -0.0475  A
ATOM     45 C33  DES L   1       7.916  -8.441  -9.029  1.00  0.00    -0.0581  A
ATOM     46 H34  DES L   1       5.510 -10.180  -9.594  1.00  0.00    +0.0278  H
ATOM     47 H35  DES L   1       5.241  -8.529  -8.984  1.00  0.00    +0.0278  H
ATOM     48 H36  DES L   1       5.009  -8.875 -10.696  1.00  0.00    +0.0278  H
ATOM     49 H37  DES L   1       6.959  -9.206 -12.207  1.00  0.00    +0.0620  H
ATOM     50 H38  DES L   1       9.338  -8.732 -12.625  1.00  0.00    +0.0626  H
ATOM     51 H57  DES L   1       9.898  -7.884  -8.427  1.00  0.00    +0.0626  H
ATOM     52 H58  DES L   1       7.527  -8.361  -8.016  1.00  0.00    +0.0620  H
ENDBRANCH 37 43
ENDBRANCH 36 37
ENDBRANCH 33 36
ENDBRANCH 23 33
ENDBRANCH 21 26
BRANCH 21 53
ATOM     53 C15  DES L   1      10.749 -10.659  -3.694  1.00  0.00    +0.0085  C
ATOM     54 N16  DES L   1      10.925 -11.036  -2.278  1.00  0.00    -0.3289 NA
ATOM     55 H44  DES L   1       9.703 -10.847  -3.963  1.00  0.00    +0.0432  H
ATOM     56 H45  DES L   1      11.365 -11.328  -4.306  1.00  0.00    +0.0432  H
ATOM     57 H46  DES L   1      10.704 -12.031  -2.182  1.00  0.00    +0.1182 HD
ATOM     58 H47  DES L   1      11.924 -10.973  -2.055  1.00  0.00    +0.1182 HD
ENDBRANCH 21 53
ENDBRANCH 17 21
ENDBRANCH 1 19
TORSDOF 8
ENDMDL
MODEL 18
REMARK VINA RESULT:    -6.441      7.950     12.564
REMARK INTER + INTRA:         -10.792
REMARK INTER:                  -8.015
REMARK INTRA:                  -2.777
REMARK UNBOUND:                -1.339
ROOT
ATOM      1 C20  DES L   1       9.402  -9.547 -11.814  1.00  0.00    +0.0423  A
ATOM      2 C21  DES L   1      10.370 -10.555 -11.736  1.00  0.00    -0.0377  A
ATOM      3 C22  DES L   1      11.600 -10.416 -12.383  1.00  0.00    -0.0506  A
ATOM      4 C23  DES L   1      11.882  -9.259 -13.124  1.00  0.00    +0.0004  A
ATOM      5 C24  DES L   1      13.093  -9.061 -13.793  1.00  0.00    +0.0353  A
ATOM      6 N25  DES L   1      13.400  -7.958 -14.517  1.00  0.00    -0.2626 NA
ATOM      7 C26  DES L   1      12.451  -7.001 -14.581  1.00  0.00    +0.0281  A
ATOM      8 C27  DES L   1      11.217  -7.092 -13.958  1.00  0.00    -0.0358  A
ATOM      9 C28  DES L   1      10.918  -8.238 -13.213  1.00  0.00    -0.0131  A
ATOM     10 C29  DES L   1       9.683  -8.396 -12.555  1.00  0.00    -0.0305  A
ATOM     11 H49  DES L   1      10.177 -11.463 -11.168  1.00  0.00    +0.0638  H
ATOM     12 H50  DES L   1      12.333 -11.216 -12.304  1.00  0.00    +0.0625  H
ATOM     13 H51  DES L   1      13.881  -9.810 -13.765  1.00  0.00    +0.0836  H
ATOM     14 H52  DES L   1      12.717  -6.126 -15.168  1.00  0.00    +0.0830  H
ATOM     15 H53  DES L   1      10.503  -6.280 -14.055  1.00  0.00    +0.0639  H
ATOM     16 H54  DES L   1       8.950  -7.599 -12.637  1.00  0.00    +0.0644  H
ENDROOT
BRANCH 1 19
ATOM     17 C17  DES L   1       7.149 -10.611 -11.484  1.00  0.00    +0.2339  C
ATOM     18 O18  DES L   1       7.107 -11.323 -12.487  1.00  0.00    -0.2722 OA
ATOM     19 N19  DES L   1       8.192  -9.771 -11.134  1.00  0.00    -0.3256  N
ATOM     20 H48  DES L   1       8.049  -9.243 -10.268  1.00  0.00    +0.1686 HD
BRANCH 17 21
ATOM     21 C14  DES L   1       5.994 -10.637 -10.467  1.00  0.00    +0.0752  C
ATOM     22 H43  DES L   1       5.525 -11.618 -10.639  1.00  0.00    +0.0458  H
BRANCH 21 26
ATOM     23 C10  DES L   1       7.316 -10.469  -6.322  1.00  0.00    -0.0103  A
ATOM     24 C11  DES L   1       6.684  -9.376  -6.925  1.00  0.00    -0.0551  A
ATOM     25 C12  DES L   1       6.261  -9.448  -8.254  1.00  0.00    -0.0574  A
ATOM     26 C13  DES L   1       6.445 -10.617  -9.009  1.00  0.00    -0.0341  A
ATOM     27 C30  DES L   1       7.071 -11.712  -8.397  1.00  0.00    -0.0574  A
ATOM     28 C31  DES L   1       7.497 -11.640  -7.068  1.00  0.00    -0.0551  A
ATOM     29 H41  DES L   1       6.511  -8.463  -6.359  1.00  0.00    +0.0621  H
ATOM     30 H42  DES L   1       5.772  -8.579  -8.694  1.00  0.00    +0.0621  H
ATOM     31 H55  DES L   1       7.232 -12.644  -8.935  1.00  0.00    +0.0621  H
ATOM     32 H56  DES L   1       7.965 -12.511  -6.612  1.00  0.00    +0.0621  H
BRANCH 23 33
ATOM     33  C9  DES L   1       7.751 -10.411  -4.881  1.00  0.00    +0.1178  C
ATOM     34 H39  DES L   1       6.896 -10.239  -4.216  1.00  0.00    +0.0749  H
ATOM     35 H40  DES L   1       8.177 -11.375  -4.579  1.00  0.00    +0.0749  H
BRANCH 33 36
ATOM     36  O8  DES L   1       8.781  -9.426  -4.741  1.00  0.00    -0.4564 OA
BRANCH 36 37
ATOM     37  C6  DES L   1      10.042  -9.849  -4.997  1.00  0.00    +0.3395  C
ATOM     38  O7  DES L   1      10.684 -10.646  -4.330  1.00  0.00    -0.2450 OA
BRANCH 37 43
ATOM     39  C1  DES L   1      12.108  -7.516  -9.891  1.00  0.00    -0.0397  C
ATOM     40  C2  DES L   1      11.593  -8.103  -8.610  1.00  0.00    -0.0504  A
ATOM     41  C3  DES L   1      11.671  -9.481  -8.381  1.00  0.00    -0.0581  A
ATOM     42  C4  DES L   1      11.165 -10.031  -7.200  1.00  0.00    -0.0475  A
ATOM     43  C5  DES L   1      10.563  -9.212  -6.237  1.00  0.00    +0.0590  A
ATOM     44 C32  DES L   1      10.473  -7.833  -6.469  1.00  0.00    -0.0475  A
ATOM     45 C33  DES L   1      10.980  -7.286  -7.652  1.00  0.00    -0.0581  A
ATOM     46 H34  DES L   1      11.317  -7.514 -10.646  1.00  0.00    +0.0278  H
ATOM     47 H35  DES L   1      12.456  -6.489  -9.739  1.00  0.00    +0.0278  H
ATOM     48 H36  DES L   1      12.958  -8.092 -10.270  1.00  0.00    +0.0278  H
ATOM     49 H37  DES L   1      12.130 -10.137  -9.118  1.00  0.00    +0.0620  H
ATOM     50 H38  DES L   1      11.243 -11.105  -7.036  1.00  0.00    +0.0626  H
ATOM     51 H57  DES L   1      10.015  -7.172  -5.739  1.00  0.00    +0.0626  H
ATOM     52 H58  DES L   1      10.898  -6.213  -7.818  1.00  0.00    +0.0620  H
ENDBRANCH 37 43
ENDBRANCH 36 37
ENDBRANCH 33 36
ENDBRANCH 23 33
ENDBRANCH 21 26
BRANCH 21 53
ATOM     53 C15  DES L   1       4.891  -9.593 -10.759  1.00  0.00    +0.0085  C
ATOM     54 N16  DES L   1       3.517 -10.075 -10.518  1.00  0.00    -0.3289 NA
ATOM     55 H44  DES L   1       5.052  -8.710 -10.129  1.00  0.00    +0.0432  H
ATOM     56 H45  DES L   1       4.959  -9.262 -11.803  1.00  0.00    +0.0432  H
ATOM     57 H46  DES L   1       2.866  -9.329 -10.775  1.00  0.00    +0.1182 HD
ATOM     58 H47  DES L   1       3.322 -10.827 -11.188  1.00  0.00    +0.1182 HD
ENDBRANCH 21 53
ENDBRANCH 17 21
ENDBRANCH 1 19
TORSDOF 8
ENDMDL
MODEL 19
REMARK VINA RESULT:    -6.419      3.232      6.406
REMARK INTER + INTRA:         -10.759
REMARK INTER:                  -8.743
REMARK INTRA:                  -2.016
REMARK UNBOUND:                -1.339
ROOT
ATOM      1 C20  DES L   1      12.712  -8.071  -3.703  1.00  0.00    +0.0423  A
ATOM      2 C21  DES L   1      14.043  -7.744  -3.423  1.00  0.00    -0.0377  A
ATOM      3 C22  DES L   1      14.385  -7.101  -2.230  1.00  0.00    -0.0506  A
ATOM      4 C23  DES L   1      13.392  -6.774  -1.294  1.00  0.00    +0.0004  A
ATOM      5 C24  DES L   1      13.670  -6.132  -0.084  1.00  0.00    +0.0353  A
ATOM      6 N25  DES L   1      12.739  -5.802   0.842  1.00  0.00    -0.2626 NA
ATOM      7 C26  DES L   1      11.462  -6.125   0.549  1.00  0.00    +0.0281  A
ATOM      8 C27  DES L   1      11.073  -6.760  -0.618  1.00  0.00    -0.0358  A
ATOM      9 C28  DES L   1      12.049  -7.096  -1.564  1.00  0.00    -0.0131  A
ATOM     10 C29  DES L   1      11.724  -7.743  -2.771  1.00  0.00    -0.0305  A
ATOM     11 H49  DES L   1      14.833  -7.986  -4.130  1.00  0.00    +0.0638  H
ATOM     12 H50  DES L   1      15.428  -6.859  -2.038  1.00  0.00    +0.0625  H
ATOM     13 H51  DES L   1      14.686  -5.856   0.187  1.00  0.00    +0.0836  H
ATOM     14 H52  DES L   1      10.731  -5.850   1.304  1.00  0.00    +0.0830  H
ATOM     15 H53  DES L   1      10.024  -6.989  -0.785  1.00  0.00    +0.0639  H
ATOM     16 H54  DES L   1      10.682  -7.981  -2.963  1.00  0.00    +0.0644  H
ENDROOT
BRANCH 1 19
ATOM     17 C17  DES L   1      12.423  -8.166  -6.198  1.00  0.00    +0.2339  C
ATOM     18 O18  DES L   1      12.611  -6.983  -6.474  1.00  0.00    -0.2722 OA
ATOM     19 N19  DES L   1      12.458  -8.715  -4.928  1.00  0.00    -0.3256  N
ATOM     20 H48  DES L   1      12.266  -9.719  -4.885  1.00  0.00    +0.1686 HD
BRANCH 17 21
ATOM     21 C14  DES L   1      12.161  -9.190  -7.317  1.00  0.00    +0.0752  C
ATOM     22 H43  DES L   1      12.621 -10.112  -6.931  1.00  0.00    +0.0458  H
BRANCH 21 26
ATOM     23 C10  DES L   1       7.925 -10.036  -7.866  1.00  0.00    -0.0103  A
ATOM     24 C11  DES L   1       8.353  -8.867  -7.227  1.00  0.00    -0.0551  A
ATOM     25 C12  DES L   1       9.715  -8.607  -7.064  1.00  0.00    -0.0574  A
ATOM     26 C13  DES L   1      10.684  -9.501  -7.547  1.00  0.00    -0.0341  A
ATOM     27 C30  DES L   1      10.250 -10.667  -8.194  1.00  0.00    -0.0574  A
ATOM     28 C31  DES L   1       8.886 -10.928  -8.355  1.00  0.00    -0.0551  A
ATOM     29 H41  DES L   1       7.625  -8.146  -6.859  1.00  0.00    +0.0621  H
ATOM     30 H42  DES L   1      10.015  -7.688  -6.562  1.00  0.00    +0.0621  H
ATOM     31 H55  DES L   1      10.959 -11.389  -8.593  1.00  0.00    +0.0621  H
ATOM     32 H56  DES L   1       8.577 -11.832  -8.877  1.00  0.00    +0.0621  H
BRANCH 23 33
ATOM     33  C9  DES L   1       6.458 -10.311  -8.071  1.00  0.00    +0.1178  C
ATOM     34 H39  DES L   1       6.301 -11.286  -8.547  1.00  0.00    +0.0749  H
ATOM     35 H40  DES L   1       5.948 -10.364  -7.103  1.00  0.00    +0.0749  H
BRANCH 33 36
ATOM     36  O8  DES L   1       5.875  -9.226  -8.803  1.00  0.00    -0.4564 OA
BRANCH 36 37
ATOM     37  C6  DES L   1       5.566  -9.484 -10.095  1.00  0.00    +0.3395  C
ATOM     38  O7  DES L   1       4.446  -9.672 -10.545  1.00  0.00    -0.2450 OA
BRANCH 37 43
ATOM     39  C1  DES L   1      10.405  -9.392 -13.295  1.00  0.00    -0.0397  C
ATOM     40  C2  DES L   1       9.138  -9.419 -12.492  1.00  0.00    -0.0504  A
ATOM     41  C3  DES L   1       8.774  -8.320 -11.706  1.00  0.00    -0.0581  A
ATOM     42  C4  DES L   1       7.609  -8.357 -10.936  1.00  0.00    -0.0475  A
ATOM     43  C5  DES L   1       6.797  -9.498 -10.932  1.00  0.00    +0.0590  A
ATOM     44 C32  DES L   1       7.165 -10.603 -11.710  1.00  0.00    -0.0475  A
ATOM     45 C33  DES L   1       8.332 -10.564 -12.479  1.00  0.00    -0.0581  A
ATOM     46 H34  DES L   1      11.238  -9.764 -12.692  1.00  0.00    +0.0278  H
ATOM     47 H35  DES L   1      10.313 -10.011 -14.193  1.00  0.00    +0.0278  H
ATOM     48 H36  DES L   1      10.636  -8.374 -13.626  1.00  0.00    +0.0278  H
ATOM     49 H37  DES L   1       9.394  -7.426 -11.689  1.00  0.00    +0.0620  H
ATOM     50 H38  DES L   1       7.338  -7.489 -10.336  1.00  0.00    +0.0626  H
ATOM     51 H57  DES L   1       6.553 -11.501 -11.730  1.00  0.00    +0.0626  H
ATOM     52 H58  DES L   1       8.605 -11.434 -13.074  1.00  0.00    +0.0620  H
ENDBRANCH 37 43
ENDBRANCH 36 37
ENDBRANCH 33 36
ENDBRANCH 23 33
ENDBRANCH 21 26
BRANCH 21 53
ATOM     53 C15  DES L   1      12.909  -8.872  -8.632  1.00  0.00    +0.0085  C
ATOM     54 N16  DES L   1      12.316  -7.775  -9.421  1.00  0.00    -0.3289 NA
ATOM     55 H44  DES L   1      13.945  -8.597  -8.402  1.00  0.00    +0.0432  H
ATOM     56 H45  DES L   1      12.946  -9.767  -9.265  1.00  0.00    +0.0432  H
ATOM     57 H46  DES L   1      12.858  -7.670 -10.282  1.00  0.00    +0.1182 HD
ATOM     58 H47  DES L   1      11.388  -8.077  -9.737  1.00  0.00    +0.1182 HD
ENDBRANCH 21 53
ENDBRANCH 17 21
ENDBRANCH 1 19
TORSDOF 8
ENDMDL
MODEL 20
REMARK VINA RESULT:    -6.378      5.518     12.369
REMARK INTER + INTRA:         -10.700
REMARK INTER:                  -9.747
REMARK INTRA:                  -0.953
REMARK UNBOUND:                -1.339
ROOT
ATOM      1 C20  DES L   1      10.635  -8.418 -11.739  1.00  0.00    +0.0423  A
ATOM      2 C21  DES L   1      10.291  -8.006 -13.031  1.00  0.00    -0.0377  A
ATOM      3 C22  DES L   1      11.192  -7.275 -13.811  1.00  0.00    -0.0506  A
ATOM      4 C23  DES L   1      12.458  -6.944 -13.305  1.00  0.00    +0.0004  A
ATOM      5 C24  DES L   1      13.402  -6.217 -14.035  1.00  0.00    +0.0353  A
ATOM      6 N25  DES L   1      14.632  -5.879 -13.580  1.00  0.00    -0.2626 NA
ATOM      7 C26  DES L   1      14.940  -6.285 -12.331  1.00  0.00    +0.0281  A
ATOM      8 C27  DES L   1      14.083  -7.010 -11.519  1.00  0.00    -0.0358  A
ATOM      9 C28  DES L   1      12.816  -7.351 -12.007  1.00  0.00    -0.0131  A
ATOM     10 C29  DES L   1      11.895  -8.086 -11.235  1.00  0.00    -0.0305  A
ATOM     11 H49  DES L   1       9.316  -8.248 -13.448  1.00  0.00    +0.0638  H
ATOM     12 H50  DES L   1      10.898  -6.968 -14.812  1.00  0.00    +0.0625  H
ATOM     13 H51  DES L   1      13.190  -5.872 -15.044  1.00  0.00    +0.0836  H
ATOM     14 H52  DES L   1      15.930  -6.003 -11.985  1.00  0.00    +0.0830  H
ATOM     15 H53  DES L   1      14.401  -7.301 -10.523  1.00  0.00    +0.0639  H
ATOM     16 H54  DES L   1      12.188  -8.388 -10.234  1.00  0.00    +0.0644  H
ENDROOT
BRANCH 1 19
ATOM     17 C17  DES L   1       8.352  -8.804 -10.759  1.00  0.00    +0.2339  C
ATOM     18 O18  DES L   1       7.795  -7.767 -11.116  1.00  0.00    -0.2722 OA
ATOM     19 N19  DES L   1       9.667  -9.146 -11.024  1.00  0.00    -0.3256  N
ATOM     20 H48  DES L   1       9.965 -10.047 -10.638  1.00  0.00    +0.1686 HD
BRANCH 17 21
ATOM     21 C14  DES L   1       7.568  -9.877  -9.983  1.00  0.00    +0.0752  C
ATOM     22 H43  DES L   1       7.846 -10.813 -10.491  1.00  0.00    +0.0458  H
BRANCH 21 26
ATOM     23 C10  DES L   1       8.864 -10.237  -5.842  1.00  0.00    -0.0103  A
ATOM     24 C11  DES L   1       8.912  -9.009  -6.511  1.00  0.00    -0.0551  A
ATOM     25 C12  DES L   1       8.487  -8.909  -7.838  1.00  0.00    -0.0574  A
ATOM     26 C13  DES L   1       7.991 -10.028  -8.525  1.00  0.00    -0.0341  A
ATOM     27 C30  DES L   1       7.937 -11.254  -7.846  1.00  0.00    -0.0574  A
ATOM     28 C31  DES L   1       8.365 -11.355  -6.519  1.00  0.00    -0.0551  A
ATOM     29 H41  DES L   1       9.274  -8.119  -6.000  1.00  0.00    +0.0621  H
ATOM     30 H42  DES L   1       8.538  -7.938  -8.331  1.00  0.00    +0.0621  H
ATOM     31 H55  DES L   1       7.555 -12.151  -8.329  1.00  0.00    +0.0621  H
ATOM     32 H56  DES L   1       8.295 -12.315  -6.010  1.00  0.00    +0.0621  H
BRANCH 23 33
ATOM     33  C9  DES L   1       9.294 -10.348  -4.403  1.00  0.00    +0.1178  C
ATOM     34 H39  DES L   1       8.429 -10.466  -3.740  1.00  0.00    +0.0749  H
ATOM     35 H40  DES L   1       9.904 -11.248  -4.262  1.00  0.00    +0.0749  H
BRANCH 33 36
ATOM     36  O8  DES L   1      10.113  -9.221  -4.068  1.00  0.00    -0.4564 OA
BRANCH 36 37
ATOM     37  C6  DES L   1      11.278  -9.503  -3.440  1.00  0.00    +0.3395  C
ATOM     38  O7  DES L   1      11.881 -10.565  -3.481  1.00  0.00    -0.2450 OA
BRANCH 37 43
ATOM     39  C1  DES L   1      13.273  -4.872  -0.570  1.00  0.00    -0.0397  C
ATOM     40  C2  DES L   1      12.759  -6.085  -1.287  1.00  0.00    -0.0504  A
ATOM     41  C3  DES L   1      13.467  -6.622  -2.368  1.00  0.00    -0.0581  A
ATOM     42  C4  DES L   1      12.973  -7.735  -3.054  1.00  0.00    -0.0475  A
ATOM     43  C5  DES L   1      11.757  -8.318  -2.676  1.00  0.00    +0.0590  A
ATOM     44 C32  DES L   1      11.041  -7.776  -1.602  1.00  0.00    -0.0475  A
ATOM     45 C33  DES L   1      11.538  -6.662  -0.917  1.00  0.00    -0.0581  A
ATOM     46 H34  DES L   1      12.893  -3.965  -1.049  1.00  0.00    +0.0278  H
ATOM     47 H35  DES L   1      12.960  -4.876   0.479  1.00  0.00    +0.0278  H
ATOM     48 H36  DES L   1      14.368  -4.846  -0.581  1.00  0.00    +0.0278  H
ATOM     49 H37  DES L   1      14.410  -6.180  -2.682  1.00  0.00    +0.0620  H
ATOM     50 H38  DES L   1      13.543  -8.143  -3.888  1.00  0.00    +0.0626  H
ATOM     51 H57  DES L   1      10.097  -8.210  -1.283  1.00  0.00    +0.0626  H
ATOM     52 H58  DES L   1      10.966  -6.251  -0.087  1.00  0.00    +0.0620  H
ENDBRANCH 37 43
ENDBRANCH 36 37
ENDBRANCH 33 36
ENDBRANCH 23 33
ENDBRANCH 21 26
BRANCH 21 53
ATOM     53 C15  DES L   1       6.035  -9.758 -10.144  1.00  0.00    +0.0085  C
ATOM     54 N16  DES L   1       5.452  -8.541  -9.546  1.00  0.00    -0.3289 NA
ATOM     55 H44  DES L   1       5.781  -9.761 -11.211  1.00  0.00    +0.0432  H
ATOM     56 H45  DES L   1       5.544 -10.629  -9.693  1.00  0.00    +0.0432  H
ATOM     57 H46  DES L   1       4.437  -8.577  -9.673  1.00  0.00    +0.1182 HD
ATOM     58 H47  DES L   1       5.585  -8.592  -8.530  1.00  0.00    +0.1182 HD
ENDBRANCH 21 53
ENDBRANCH 17 21
ENDBRANCH 1 19
TORSDOF 8
ENDMDL
