MODEL 1
REMARK VINA RESULT:    -7.318      0.000      0.000
REMARK INTER + INTRA:         -11.867
REMARK INTER:                 -10.740
REMARK INTRA:                  -1.127
REMARK UNBOUND:                -1.127
ROOT
ATOM      1 C19  DES L   1      11.011  -4.568   3.100  1.00  0.00    +0.0423  A
ATOM      2 C20  DES L   1      10.681  -3.332   3.654  1.00  0.00    -0.0377  A
ATOM      3 C21  DES L   1       9.725  -3.244   4.671  1.00  0.00    -0.0506  A
ATOM      4 C22  DES L   1       9.082  -4.398   5.150  1.00  0.00    +0.0004  A
ATOM      5 C23  DES L   1       8.120  -4.368   6.163  1.00  0.00    +0.0353  A
ATOM      6 N24  DES L   1       7.482  -5.460   6.647  1.00  0.00    -0.2626 NA
ATOM      7 C25  DES L   1       7.817  -6.644   6.098  1.00  0.00    +0.0281  A
ATOM      8 C26  DES L   1       8.757  -6.791   5.089  1.00  0.00    -0.0358  A
ATOM      9 C27  DES L   1       9.406  -5.651   4.599  1.00  0.00    -0.0131  A
ATOM     10 C28  DES L   1      10.370  -5.721   3.577  1.00  0.00    -0.0305  A
ATOM     11 H47  DES L   1      11.152  -2.413   3.320  1.00  0.00    +0.0638  H
ATOM     12 H48  DES L   1       9.488  -2.268   5.087  1.00  0.00    +0.0625  H
ATOM     13 H49  DES L   1       7.825  -3.432   6.630  1.00  0.00    +0.0836  H
ATOM     14 H50  DES L   1       7.293  -7.506   6.502  1.00  0.00    +0.0830  H
ATOM     15 H51  DES L   1       8.973  -7.779   4.696  1.00  0.00    +0.0639  H
ATOM     16 H52  DES L   1      10.621  -6.690   3.151  1.00  0.00    +0.0644  H
ENDROOT
BRANCH 1 19
ATOM     17 C16  DES L   1      13.281  -5.147   2.189  1.00  0.00    +0.2339  C
ATOM     18 O17  DES L   1      13.859  -5.426   3.239  1.00  0.00    -0.2722 OA
ATOM     19 N18  DES L   1      11.962  -4.744   2.077  1.00  0.00    -0.3256  N
ATOM     20 H46  DES L   1      11.651  -4.544   1.123  1.00  0.00    +0.1686 HD
BRANCH 17 21
ATOM     21 C13  DES L   1      14.014  -5.276   0.843  1.00  0.00    +0.0752  C
ATOM     22 H41  DES L   1      14.958  -5.776   1.113  1.00  0.00    +0.0458  H
BRANCH 21 26
ATOM     23  C9  DES L   1      12.035  -7.947  -1.969  1.00  0.00    -0.0103  A
ATOM     24 C10  DES L   1      12.858  -6.917  -2.441  1.00  0.00    -0.0551  A
ATOM     25 C11  DES L   1      13.494  -6.047  -1.551  1.00  0.00    -0.0574  A
ATOM     26 C12  DES L   1      13.315  -6.179  -0.167  1.00  0.00    -0.0341  A
ATOM     27 C29  DES L   1      12.483  -7.211   0.300  1.00  0.00    -0.0574  A
ATOM     28 C30  DES L   1      11.846  -8.079  -0.590  1.00  0.00    -0.0551  A
ATOM     29 H39  DES L   1      12.997  -6.776  -3.513  1.00  0.00    +0.0621  H
ATOM     30 H40  DES L   1      14.120  -5.260  -1.966  1.00  0.00    +0.0621  H
ATOM     31 H53  DES L   1      12.313  -7.341   1.368  1.00  0.00    +0.0621  H
ATOM     32 H54  DES L   1      11.190  -8.855  -0.200  1.00  0.00    +0.0621  H
BRANCH 23 33
ATOM     33  C8  DES L   1      11.325  -8.860  -2.936  1.00  0.00    +0.1179  C
ATOM     34 H37  DES L   1      11.847  -9.818  -3.043  1.00  0.00    +0.0749  H
ATOM     35 H38  DES L   1      10.329  -9.104  -2.549  1.00  0.00    +0.0749  H
BRANCH 33 36
ATOM     36  O7  DES L   1      11.146  -8.184  -4.185  1.00  0.00    -0.4564 OA
BRANCH 36 37
ATOM     37  C5  DES L   1      11.378  -8.933  -5.292  1.00  0.00    +0.3398  C
ATOM     38  O6  DES L   1      11.891 -10.040  -5.322  1.00  0.00    -0.2449 OA
BRANCH 37 42
ATOM     39  C1  DES L   1      10.150  -6.674  -8.722  1.00  0.00    -0.0615  A
ATOM     40  C2  DES L   1      11.427  -6.512  -8.196  1.00  0.00    -0.0610  A
ATOM     41  C3  DES L   1      11.821  -7.258  -7.085  1.00  0.00    -0.0475  A
ATOM     42  C4  DES L   1      10.936  -8.176  -6.494  1.00  0.00    +0.0619  A
ATOM     43 C31  DES L   1       9.644  -8.351  -7.027  1.00  0.00    -0.0365  A
ATOM     44 C32  DES L   1       8.654  -9.320  -6.441  1.00  0.00    -0.0389  C
ATOM     45 C33  DES L   1       9.264  -7.583  -8.142  1.00  0.00    -0.0581  A
ATOM     46 H34  DES L   1       9.839  -6.091  -9.586  1.00  0.00    +0.0618  H
ATOM     47 H35  DES L   1      12.116  -5.803  -8.647  1.00  0.00    +0.0618  H
ATOM     48 H36  DES L   1      12.818  -7.111  -6.677  1.00  0.00    +0.0626  H
ATOM     49 H55  DES L   1       9.116 -10.302  -6.292  1.00  0.00    +0.0278  H
ATOM     50 H56  DES L   1       8.271  -8.942  -5.488  1.00  0.00    +0.0278  H
ATOM     51 H57  DES L   1       7.800  -9.471  -7.110  1.00  0.00    +0.0278  H
ATOM     52 H58  DES L   1       8.269  -7.693  -8.570  1.00  0.00    +0.0620  H
ENDBRANCH 37 42
ENDBRANCH 36 37
ENDBRANCH 33 36
ENDBRANCH 23 33
ENDBRANCH 21 26
BRANCH 21 53
ATOM     53 C14  DES L   1      14.424  -3.915   0.233  1.00  0.00    +0.0085  C
ATOM     54 N15  DES L   1      14.686  -2.857   1.229  1.00  0.00    -0.3289 NA
ATOM     55 H42  DES L   1      13.640  -3.559  -0.446  1.00  0.00    +0.0432  H
ATOM     56 H43  DES L   1      15.334  -4.045  -0.364  1.00  0.00    +0.0432  H
ATOM     57 H44  DES L   1      13.804  -2.654   1.713  1.00  0.00    +0.1182 HD
ATOM     58 H45  DES L   1      14.905  -1.993   0.726  1.00  0.00    +0.1182 HD
ENDBRANCH 21 53
ENDBRANCH 17 21
ENDBRANCH 1 19
TORSDOF 8
ENDMDL
MODEL 2
REMARK VINA RESULT:    -7.241      3.771     10.814
REMARK INTER + INTRA:         -11.755
REMARK INTER:                 -10.729
REMARK INTRA:                  -1.026
REMARK UNBOUND:                -1.127
ROOT
ATOM      1 C19  DES L   1       8.828  -9.530  -6.251  1.00  0.00    +0.0423  A
ATOM      2 C20  DES L   1       7.468  -9.632  -5.966  1.00  0.00    -0.0377  A
ATOM      3 C21  DES L   1       6.517  -9.474  -6.979  1.00  0.00    -0.0506  A
ATOM      4 C22  DES L   1       6.917  -9.209  -8.299  1.00  0.00    +0.0004  A
ATOM      5 C23  DES L   1       6.010  -9.041  -9.349  1.00  0.00    +0.0353  A
ATOM      6 N24  DES L   1       6.361  -8.785 -10.632  1.00  0.00    -0.2626 NA
ATOM      7 C25  DES L   1       7.681  -8.691 -10.886  1.00  0.00    +0.0281  A
ATOM      8 C26  DES L   1       8.667  -8.840  -9.923  1.00  0.00    -0.0358  A
ATOM      9 C27  DES L   1       8.286  -9.103  -8.601  1.00  0.00    -0.0131  A
ATOM     10 C28  DES L   1       9.229  -9.266  -7.570  1.00  0.00    -0.0305  A
ATOM     11 H47  DES L   1       7.110  -9.838  -4.962  1.00  0.00    +0.0638  H
ATOM     12 H48  DES L   1       5.462  -9.560  -6.728  1.00  0.00    +0.0625  H
ATOM     13 H49  DES L   1       4.938  -9.111  -9.183  1.00  0.00    +0.0836  H
ATOM     14 H50  DES L   1       7.939  -8.485 -11.922  1.00  0.00    +0.0830  H
ATOM     15 H51  DES L   1       9.711  -8.750 -10.204  1.00  0.00    +0.0639  H
ATOM     16 H52  DES L   1      10.289  -9.184  -7.803  1.00  0.00    +0.0644  H
ENDROOT
BRANCH 1 19
ATOM     17 C16  DES L   1      10.895  -8.818  -5.012  1.00  0.00    +0.2339  C
ATOM     18 O17  DES L   1      11.114  -7.746  -5.575  1.00  0.00    -0.2722 OA
ATOM     19 N18  DES L   1       9.848  -9.678  -5.293  1.00  0.00    -0.3256  N
ATOM     20 H46  DES L   1       9.828 -10.532  -4.730  1.00  0.00    +0.1686 HD
BRANCH 17 21
ATOM     21 C13  DES L   1      11.798  -9.286  -3.858  1.00  0.00    +0.0752  C
ATOM     22 H41  DES L   1      12.782  -9.412  -4.337  1.00  0.00    +0.0458  H
BRANCH 21 26
ATOM     23  C9  DES L   1      12.210  -6.324  -0.693  1.00  0.00    -0.0103  A
ATOM     24 C10  DES L   1      13.174  -6.407  -1.704  1.00  0.00    -0.0551  A
ATOM     25 C11  DES L   1      13.060  -7.357  -2.723  1.00  0.00    -0.0574  A
ATOM     26 C12  DES L   1      11.983  -8.255  -2.749  1.00  0.00    -0.0341  A
ATOM     27 C29  DES L   1      11.022  -8.170  -1.728  1.00  0.00    -0.0574  A
ATOM     28 C30  DES L   1      11.138  -7.222  -0.709  1.00  0.00    -0.0551  A
ATOM     29 H39  DES L   1      14.034  -5.737  -1.697  1.00  0.00    +0.0621  H
ATOM     30 H40  DES L   1      13.837  -7.385  -3.485  1.00  0.00    +0.0621  H
ATOM     31 H53  DES L   1      10.176  -8.855  -1.710  1.00  0.00    +0.0621  H
ATOM     32 H54  DES L   1      10.390  -7.194   0.081  1.00  0.00    +0.0621  H
BRANCH 23 33
ATOM     33  C8  DES L   1      12.358  -5.319   0.421  1.00  0.00    +0.1179  C
ATOM     34 H37  DES L   1      13.296  -5.462   0.971  1.00  0.00    +0.0749  H
ATOM     35 H38  DES L   1      12.408  -4.308   0.003  1.00  0.00    +0.0749  H
BRANCH 33 36
ATOM     36  O7  DES L   1      11.206  -5.375   1.269  1.00  0.00    -0.4564 OA
BRANCH 36 37
ATOM     37  C5  DES L   1      11.454  -5.651   2.574  1.00  0.00    +0.3398  C
ATOM     38  O6  DES L   1      11.986  -6.657   3.012  1.00  0.00    -0.2449 OA
BRANCH 37 42
ATOM     39  C1  DES L   1      10.059  -2.431   5.036  1.00  0.00    -0.0615  A
ATOM     40  C2  DES L   1      11.331  -2.383   4.473  1.00  0.00    -0.0610  A
ATOM     41  C3  DES L   1      11.772  -3.432   3.666  1.00  0.00    -0.0475  A
ATOM     42  C4  DES L   1      10.940  -4.536   3.414  1.00  0.00    +0.0619  A
ATOM     43 C31  DES L   1       9.648  -4.586   3.975  1.00  0.00    -0.0365  A
ATOM     44 C32  DES L   1       8.711  -5.739   3.739  1.00  0.00    -0.0389  C
ATOM     45 C33  DES L   1       9.226  -3.524   4.792  1.00  0.00    -0.0581  A
ATOM     46 H34  DES L   1       9.714  -1.617   5.669  1.00  0.00    +0.0618  H
ATOM     47 H35  DES L   1      11.980  -1.533   4.665  1.00  0.00    +0.0618  H
ATOM     48 H36  DES L   1      12.774  -3.386   3.243  1.00  0.00    +0.0626  H
ATOM     49 H55  DES L   1       8.648  -5.973   2.671  1.00  0.00    +0.0278  H
ATOM     50 H56  DES L   1       9.047  -6.620   4.293  1.00  0.00    +0.0278  H
ATOM     51 H57  DES L   1       7.696  -5.501   4.072  1.00  0.00    +0.0278  H
ATOM     52 H58  DES L   1       8.235  -3.540   5.244  1.00  0.00    +0.0620  H
ENDBRANCH 37 42
ENDBRANCH 36 37
ENDBRANCH 33 36
ENDBRANCH 23 33
ENDBRANCH 21 26
BRANCH 21 53
ATOM     53 C14  DES L   1      11.421 -10.682  -3.309  1.00  0.00    +0.0085  C
ATOM     54 N15  DES L   1      11.823 -11.805  -4.178  1.00  0.00    -0.3289 NA
ATOM     55 H42  DES L   1      10.338 -10.740  -3.153  1.00  0.00    +0.0432  H
ATOM     56 H43  DES L   1      11.897 -10.827  -2.332  1.00  0.00    +0.0432  H
ATOM     57 H44  DES L   1      11.293 -11.733  -5.053  1.00  0.00    +0.1182 HD
ATOM     58 H45  DES L   1      11.492 -12.674  -3.750  1.00  0.00    +0.1182 HD
ENDBRANCH 21 53
ENDBRANCH 17 21
ENDBRANCH 1 19
TORSDOF 8
ENDMDL
MODEL 3
REMARK VINA RESULT:    -7.123      1.121      1.992
REMARK INTER + INTRA:         -11.581
REMARK INTER:                 -10.261
REMARK INTRA:                  -1.320
REMARK UNBOUND:                -1.127
ROOT
ATOM      1 C19  DES L   1      11.165  -5.060   2.836  1.00  0.00    +0.0423  A
ATOM      2 C20  DES L   1      10.563  -6.075   3.576  1.00  0.00    -0.0377  A
ATOM      3 C21  DES L   1       9.788  -5.769   4.700  1.00  0.00    -0.0506  A
ATOM      4 C22  DES L   1       9.605  -4.435   5.100  1.00  0.00    +0.0004  A
ATOM      5 C23  DES L   1       8.843  -4.073   6.214  1.00  0.00    +0.0353  A
ATOM      6 N24  DES L   1       8.647  -2.798   6.628  1.00  0.00    -0.2626 NA
ATOM      7 C25  DES L   1       9.237  -1.832   5.897  1.00  0.00    +0.0281  A
ATOM      8 C26  DES L   1      10.014  -2.077   4.774  1.00  0.00    -0.0358  A
ATOM      9 C27  DES L   1      10.208  -3.401   4.362  1.00  0.00    -0.0131  A
ATOM     10 C28  DES L   1      10.983  -3.726   3.234  1.00  0.00    -0.0305  A
ATOM     11 H47  DES L   1      10.672  -7.121   3.305  1.00  0.00    +0.0638  H
ATOM     12 H48  DES L   1       9.329  -6.582   5.259  1.00  0.00    +0.0625  H
ATOM     13 H49  DES L   1       8.351  -4.824   6.827  1.00  0.00    +0.0836  H
ATOM     14 H50  DES L   1       9.065  -0.818   6.246  1.00  0.00    +0.0830  H
ATOM     15 H51  DES L   1      10.458  -1.245   4.236  1.00  0.00    +0.0639  H
ATOM     16 H52  DES L   1      11.449  -2.927   2.662  1.00  0.00    +0.0644  H
ENDROOT
BRANCH 1 19
ATOM     17 C16  DES L   1      13.195  -5.893   1.610  1.00  0.00    +0.2339  C
ATOM     18 O17  DES L   1      13.829  -6.359   2.555  1.00  0.00    -0.2722 OA
ATOM     19 N18  DES L   1      11.956  -5.281   1.693  1.00  0.00    -0.3256  N
ATOM     20 H46  DES L   1      11.581  -4.942   0.803  1.00  0.00    +0.1686 HD
BRANCH 17 21
ATOM     21 C13  DES L   1      13.745  -6.002   0.178  1.00  0.00    +0.0752  C
ATOM     22 H41  DES L   1      14.761  -6.404   0.324  1.00  0.00    +0.0458  H
BRANCH 21 26
ATOM     23  C9  DES L   1      11.597  -8.767  -2.410  1.00  0.00    -0.0103  A
ATOM     24 C10  DES L   1      11.582  -8.951  -1.022  1.00  0.00    -0.0551  A
ATOM     25 C11  DES L   1      12.273  -8.076  -0.179  1.00  0.00    -0.0574  A
ATOM     26 C12  DES L   1      13.004  -7.001  -0.704  1.00  0.00    -0.0341  A
ATOM     27 C29  DES L   1      13.020  -6.826  -2.098  1.00  0.00    -0.0574  A
ATOM     28 C30  DES L   1      12.331  -7.702  -2.941  1.00  0.00    -0.0551  A
ATOM     29 H39  DES L   1      11.041  -9.791  -0.588  1.00  0.00    +0.0621  H
ATOM     30 H40  DES L   1      12.234  -8.263   0.892  1.00  0.00    +0.0621  H
ATOM     31 H53  DES L   1      13.583  -6.008  -2.544  1.00  0.00    +0.0621  H
ATOM     32 H54  DES L   1      12.380  -7.554  -4.018  1.00  0.00    +0.0621  H
BRANCH 23 33
ATOM     33  C8  DES L   1      10.878  -9.734  -3.316  1.00  0.00    +0.1179  C
ATOM     34 H37  DES L   1      11.557 -10.501  -3.706  1.00  0.00    +0.0749  H
ATOM     35 H38  DES L   1      10.113 -10.275  -2.746  1.00  0.00    +0.0749  H
BRANCH 33 36
ATOM     36  O7  DES L   1      10.207  -9.009  -4.351  1.00  0.00    -0.4564 OA
BRANCH 36 37
ATOM     37  C5  DES L   1      10.257  -9.572  -5.584  1.00  0.00    +0.3398  C
ATOM     38  O6  DES L   1      10.220 -10.764  -5.837  1.00  0.00    -0.2449 OA
BRANCH 37 42
ATOM     39  C1  DES L   1      10.720  -6.425  -8.458  1.00  0.00    -0.0615  A
ATOM     40  C2  DES L   1      11.742  -6.707  -7.557  1.00  0.00    -0.0610  A
ATOM     41  C3  DES L   1      11.586  -7.739  -6.632  1.00  0.00    -0.0475  A
ATOM     42  C4  DES L   1      10.404  -8.499  -6.604  1.00  0.00    +0.0619  A
ATOM     43 C31  DES L   1       9.368  -8.222  -7.520  1.00  0.00    -0.0365  A
ATOM     44 C32  DES L   1       8.083  -9.002  -7.542  1.00  0.00    -0.0389  C
ATOM     45 C33  DES L   1       9.542  -7.173  -8.439  1.00  0.00    -0.0581  A
ATOM     46 H34  DES L   1      10.838  -5.618  -9.178  1.00  0.00    +0.0618  H
ATOM     47 H35  DES L   1      12.659  -6.123  -7.572  1.00  0.00    +0.0618  H
ATOM     48 H36  DES L   1      12.388  -7.940  -5.925  1.00  0.00    +0.0626  H
ATOM     49 H55  DES L   1       8.282 -10.078  -7.542  1.00  0.00    +0.0278  H
ATOM     50 H56  DES L   1       7.464  -8.739  -6.678  1.00  0.00    +0.0278  H
ATOM     51 H57  DES L   1       7.502  -8.788  -8.446  1.00  0.00    +0.0278  H
ATOM     52 H58  DES L   1       8.756  -6.933  -9.153  1.00  0.00    +0.0620  H
ENDBRANCH 37 42
ENDBRANCH 36 37
ENDBRANCH 33 36
ENDBRANCH 23 33
ENDBRANCH 21 26
BRANCH 21 53
ATOM     53 C14  DES L   1      13.936  -4.632  -0.514  1.00  0.00    +0.0085  C
ATOM     54 N15  DES L   1      14.359  -3.547   0.393  1.00  0.00    -0.3289 NA
ATOM     55 H42  DES L   1      13.002  -4.326  -1.000  1.00  0.00    +0.0432  H
ATOM     56 H43  DES L   1      14.694  -4.726  -1.301  1.00  0.00    +0.0432  H
ATOM     57 H44  DES L   1      13.600  -3.381   1.063  1.00  0.00    +0.1182 HD
ATOM     58 H45  DES L   1      14.415  -2.681  -0.150  1.00  0.00    +0.1182 HD
ENDBRANCH 21 53
ENDBRANCH 17 21
ENDBRANCH 1 19
TORSDOF 8
ENDMDL
MODEL 4
REMARK VINA RESULT:    -7.105      3.023     10.143
REMARK INTER + INTRA:         -11.554
REMARK INTER:                  -9.704
REMARK INTRA:                  -1.850
REMARK UNBOUND:                -1.127
ROOT
ATOM      1 C19  DES L   1      11.287  -8.679  -4.635  1.00  0.00    +0.0423  A
ATOM      2 C20  DES L   1      10.238  -9.594  -4.688  1.00  0.00    -0.0377  A
ATOM      3 C21  DES L   1       9.373  -9.618  -5.788  1.00  0.00    -0.0506  A
ATOM      4 C22  DES L   1       9.550  -8.722  -6.855  1.00  0.00    +0.0004  A
ATOM      5 C23  DES L   1       8.717  -8.702  -7.977  1.00  0.00    +0.0353  A
ATOM      6 N24  DES L   1       8.858  -7.852  -9.022  1.00  0.00    -0.2626 NA
ATOM      7 C25  DES L   1       9.881  -6.977  -8.951  1.00  0.00    +0.0281  A
ATOM      8 C26  DES L   1      10.768  -6.909  -7.887  1.00  0.00    -0.0358  A
ATOM      9 C27  DES L   1      10.605  -7.794  -6.814  1.00  0.00    -0.0131  A
ATOM     10 C28  DES L   1      11.465  -7.784  -5.701  1.00  0.00    -0.0305  A
ATOM     11 H47  DES L   1      10.062 -10.309  -3.890  1.00  0.00    +0.0638  H
ATOM     12 H48  DES L   1       8.563 -10.344  -5.804  1.00  0.00    +0.0625  H
ATOM     13 H49  DES L   1       7.883  -9.393  -8.071  1.00  0.00    +0.0836  H
ATOM     14 H50  DES L   1       9.975  -6.306  -9.800  1.00  0.00    +0.0830  H
ATOM     15 H51  DES L   1      11.568  -6.175  -7.901  1.00  0.00    +0.0639  H
ATOM     16 H52  DES L   1      12.282  -7.066  -5.668  1.00  0.00    +0.0644  H
ENDROOT
BRANCH 1 19
ATOM     17 C16  DES L   1      12.038  -7.964  -2.346  1.00  0.00    +0.2339  C
ATOM     18 O17  DES L   1      11.031  -7.360  -1.978  1.00  0.00    -0.2722 OA
ATOM     19 N18  DES L   1      12.202  -8.590  -3.568  1.00  0.00    -0.3256  N
ATOM     20 H46  DES L   1      13.112  -9.036  -3.706  1.00  0.00    +0.1686 HD
BRANCH 17 21
ATOM     21 C13  DES L   1      13.241  -8.112  -1.399  1.00  0.00    +0.0752  C
ATOM     22 H41  DES L   1      14.083  -8.308  -2.083  1.00  0.00    +0.0458  H
BRANCH 21 26
ATOM     23  C9  DES L   1      14.186  -4.532   0.894  1.00  0.00    -0.0103  A
ATOM     24 C10  DES L   1      13.869  -4.430  -0.466  1.00  0.00    -0.0551  A
ATOM     25 C11  DES L   1      13.570  -5.571  -1.217  1.00  0.00    -0.0574  A
ATOM     26 C12  DES L   1      13.592  -6.843  -0.628  1.00  0.00    -0.0341  A
ATOM     27 C29  DES L   1      13.917  -6.940   0.735  1.00  0.00    -0.0574  A
ATOM     28 C30  DES L   1      14.217  -5.799   1.485  1.00  0.00    -0.0551  A
ATOM     29 H39  DES L   1      13.866  -3.457  -0.955  1.00  0.00    +0.0621  H
ATOM     30 H40  DES L   1      13.334  -5.440  -2.271  1.00  0.00    +0.0621  H
ATOM     31 H53  DES L   1      13.952  -7.911   1.225  1.00  0.00    +0.0621  H
ATOM     32 H54  DES L   1      14.487  -5.907   2.533  1.00  0.00    +0.0621  H
BRANCH 23 33
ATOM     33  C8  DES L   1      14.540  -3.302   1.689  1.00  0.00    +0.1179  C
ATOM     34 H37  DES L   1      15.579  -2.996   1.517  1.00  0.00    +0.0749  H
ATOM     35 H38  DES L   1      13.922  -2.459   1.360  1.00  0.00    +0.0749  H
BRANCH 33 36
ATOM     36  O7  DES L   1      14.252  -3.530   3.073  1.00  0.00    -0.4564 OA
BRANCH 36 37
ATOM     37  C5  DES L   1      13.120  -2.944   3.537  1.00  0.00    +0.3398  C
ATOM     38  O6  DES L   1      12.942  -1.749   3.707  1.00  0.00    -0.2449 OA
BRANCH 37 42
ATOM     39  C1  DES L   1      10.164  -5.930   4.384  1.00  0.00    -0.0615  A
ATOM     40  C2  DES L   1      10.199  -5.312   3.138  1.00  0.00    -0.0610  A
ATOM     41  C3  DES L   1      11.170  -4.348   2.869  1.00  0.00    -0.0475  A
ATOM     42  C4  DES L   1      12.117  -3.998   3.846  1.00  0.00    +0.0619  A
ATOM     43 C31  DES L   1      12.092  -4.627   5.107  1.00  0.00    -0.0365  A
ATOM     44 C32  DES L   1      13.080  -4.298   6.192  1.00  0.00    -0.0389  C
ATOM     45 C33  DES L   1      11.100  -5.590   5.361  1.00  0.00    -0.0581  A
ATOM     46 H34  DES L   1       9.405  -6.680   4.598  1.00  0.00    +0.0618  H
ATOM     47 H35  DES L   1       9.469  -5.577   2.377  1.00  0.00    +0.0618  H
ATOM     48 H36  DES L   1      11.177  -3.864   1.895  1.00  0.00    +0.0626  H
ATOM     49 H55  DES L   1      14.103  -4.318   5.803  1.00  0.00    +0.0278  H
ATOM     50 H56  DES L   1      12.863  -3.313   6.617  1.00  0.00    +0.0278  H
ATOM     51 H57  DES L   1      13.037  -5.030   7.006  1.00  0.00    +0.0278  H
ATOM     52 H58  DES L   1      11.052  -6.086   6.329  1.00  0.00    +0.0620  H
ENDBRANCH 37 42
ENDBRANCH 36 37
ENDBRANCH 33 36
ENDBRANCH 23 33
ENDBRANCH 21 26
BRANCH 21 53
ATOM     53 C14  DES L   1      13.153  -9.354  -0.481  1.00  0.00    +0.0085  C
ATOM     54 N15  DES L   1      11.909 -10.135  -0.634  1.00  0.00    -0.3289 NA
ATOM     55 H42  DES L   1      13.239  -9.049   0.568  1.00  0.00    +0.0432  H
ATOM     56 H43  DES L   1      13.996 -10.022  -0.695  1.00  0.00    +0.0432  H
ATOM     57 H44  DES L   1      11.127  -9.546  -0.327  1.00  0.00    +0.1182 HD
ATOM     58 H45  DES L   1      11.931 -10.904   0.041  1.00  0.00    +0.1182 HD
ENDBRANCH 21 53
ENDBRANCH 17 21
ENDBRANCH 1 19
TORSDOF 8
ENDMDL
MODEL 5
REMARK VINA RESULT:    -7.095      3.325     10.340
REMARK INTER + INTRA:         -11.540
REMARK INTER:                 -10.627
REMARK INTRA:                  -0.913
REMARK UNBOUND:                -1.127
ROOT
ATOM      1 C19  DES L   1      10.412  -8.475  -6.376  1.00  0.00    +0.0423  A
ATOM      2 C20  DES L   1      10.978  -7.777  -7.441  1.00  0.00    -0.0377  A
ATOM      3 C21  DES L   1      10.268  -7.607  -8.635  1.00  0.00    -0.0506  A
ATOM      4 C22  DES L   1       8.974  -8.134  -8.778  1.00  0.00    +0.0004  A
ATOM      5 C23  DES L   1       8.220  -7.994  -9.946  1.00  0.00    +0.0353  A
ATOM      6 N24  DES L   1       6.972  -8.490 -10.118  1.00  0.00    -0.2626 NA
ATOM      7 C25  DES L   1       6.443  -9.160  -9.075  1.00  0.00    +0.0281  A
ATOM      8 C26  DES L   1       7.100  -9.358  -7.870  1.00  0.00    -0.0358  A
ATOM      9 C27  DES L   1       8.391  -8.840  -7.711  1.00  0.00    -0.0131  A
ATOM     10 C28  DES L   1       9.119  -9.002  -6.518  1.00  0.00    -0.0305  A
ATOM     11 H47  DES L   1      11.973  -7.348  -7.378  1.00  0.00    +0.0638  H
ATOM     12 H48  DES L   1      10.734  -7.057  -9.449  1.00  0.00    +0.0625  H
ATOM     13 H49  DES L   1       8.613  -7.460 -10.808  1.00  0.00    +0.0836  H
ATOM     14 H50  DES L   1       5.441  -9.548  -9.235  1.00  0.00    +0.0830  H
ATOM     15 H51  DES L   1       6.608  -9.910  -7.074  1.00  0.00    +0.0639  H
ATOM     16 H52  DES L   1       8.668  -9.547  -5.691  1.00  0.00    +0.0644  H
ENDROOT
BRANCH 1 19
ATOM     17 C16  DES L   1      12.251  -8.155  -4.693  1.00  0.00    +0.2339  C
ATOM     18 O17  DES L   1      12.971  -7.380  -5.320  1.00  0.00    -0.2722 OA
ATOM     19 N18  DES L   1      11.056  -8.689  -5.143  1.00  0.00    -0.3256  N
ATOM     20 H46  DES L   1      10.594  -9.326  -4.489  1.00  0.00    +0.1686 HD
BRANCH 17 21
ATOM     21 C13  DES L   1      12.627  -8.578  -3.263  1.00  0.00    +0.0752  C
ATOM     22 H41  DES L   1      13.417  -9.331  -3.418  1.00  0.00    +0.0458  H
BRANCH 21 26
ATOM     23  C9  DES L   1      14.448  -5.481  -0.803  1.00  0.00    -0.0103  A
ATOM     24 C10  DES L   1      13.115  -5.356  -1.214  1.00  0.00    -0.0551  A
ATOM     25 C11  DES L   1      12.519  -6.338  -2.010  1.00  0.00    -0.0574  A
ATOM     26 C12  DES L   1      13.244  -7.465  -2.423  1.00  0.00    -0.0341  A
ATOM     27 C29  DES L   1      14.583  -7.581  -2.012  1.00  0.00    -0.0574  A
ATOM     28 C30  DES L   1      15.179  -6.598  -1.218  1.00  0.00    -0.0551  A
ATOM     29 H39  DES L   1      12.535  -4.480  -0.927  1.00  0.00    +0.0621  H
ATOM     30 H40  DES L   1      11.482  -6.194  -2.307  1.00  0.00    +0.0621  H
ATOM     31 H53  DES L   1      15.180  -8.438  -2.318  1.00  0.00    +0.0621  H
ATOM     32 H54  DES L   1      16.224  -6.704  -0.934  1.00  0.00    +0.0621  H
BRANCH 23 33
ATOM     33  C8  DES L   1      15.094  -4.401   0.026  1.00  0.00    +0.1179  C
ATOM     34 H37  DES L   1      15.985  -4.772   0.548  1.00  0.00    +0.0749  H
ATOM     35 H38  DES L   1      15.445  -3.594  -0.627  1.00  0.00    +0.0749  H
BRANCH 33 36
ATOM     36  O7  DES L   1      14.125  -3.839   0.918  1.00  0.00    -0.4564 OA
BRANCH 36 37
ATOM     37  C5  DES L   1      14.046  -4.426   2.138  1.00  0.00    +0.3398  C
ATOM     38  O6  DES L   1      14.816  -5.255   2.593  1.00  0.00    -0.2449 OA
BRANCH 37 42
ATOM     39  C1  DES L   1      10.616  -2.956   4.247  1.00  0.00    -0.0615  A
ATOM     40  C2  DES L   1      11.833  -2.287   4.336  1.00  0.00    -0.0610  A
ATOM     41  C3  DES L   1      12.941  -2.768   3.639  1.00  0.00    -0.0475  A
ATOM     42  C4  DES L   1      12.837  -3.922   2.843  1.00  0.00    +0.0619  A
ATOM     43 C31  DES L   1      11.605  -4.599   2.743  1.00  0.00    -0.0365  A
ATOM     44 C32  DES L   1      11.430  -5.836   1.906  1.00  0.00    -0.0389  C
ATOM     45 C33  DES L   1      10.502  -4.103   3.460  1.00  0.00    -0.0581  A
ATOM     46 H34  DES L   1       9.751  -2.584   4.792  1.00  0.00    +0.0618  H
ATOM     47 H35  DES L   1      11.921  -1.394   4.950  1.00  0.00    +0.0618  H
ATOM     48 H36  DES L   1      13.889  -2.242   3.728  1.00  0.00    +0.0626  H
ATOM     49 H55  DES L   1      11.838  -5.684   0.901  1.00  0.00    +0.0278  H
ATOM     50 H56  DES L   1      11.923  -6.689   2.382  1.00  0.00    +0.0278  H
ATOM     51 H57  DES L   1      10.371  -6.087   1.783  1.00  0.00    +0.0278  H
ATOM     52 H58  DES L   1       9.540  -4.609   3.407  1.00  0.00    +0.0620  H
ENDBRANCH 37 42
ENDBRANCH 36 37
ENDBRANCH 33 36
ENDBRANCH 23 33
ENDBRANCH 21 26
BRANCH 21 53
ATOM     53 C14  DES L   1      11.488  -9.316  -2.520  1.00  0.00    +0.0085  C
ATOM     54 N15  DES L   1      10.252  -8.525  -2.362  1.00  0.00    -0.3289 NA
ATOM     55 H42  DES L   1      11.830  -9.620  -1.524  1.00  0.00    +0.0432  H
ATOM     56 H43  DES L   1      11.233 -10.231  -3.068  1.00  0.00    +0.0432  H
ATOM     57 H44  DES L   1      10.464  -7.726  -1.755  1.00  0.00    +0.1182 HD
ATOM     58 H45  DES L   1       9.583  -9.083  -1.826  1.00  0.00    +0.1182 HD
ENDBRANCH 21 53
ENDBRANCH 17 21
ENDBRANCH 1 19
TORSDOF 8
ENDMDL
MODEL 6
REMARK VINA RESULT:    -7.008      3.130      5.323
REMARK INTER + INTRA:         -11.412
REMARK INTER:                 -10.067
REMARK INTRA:                  -1.345
REMARK UNBOUND:                -1.127
ROOT
ATOM      1 C19  DES L   1      13.305  -6.457  -0.200  1.00  0.00    +0.0423  A
ATOM      2 C20  DES L   1      14.372  -5.744  -0.744  1.00  0.00    -0.0377  A
ATOM      3 C21  DES L   1      14.848  -4.589  -0.113  1.00  0.00    -0.0506  A
ATOM      4 C22  DES L   1      14.260  -4.131   1.077  1.00  0.00    +0.0004  A
ATOM      5 C23  DES L   1      14.695  -2.985   1.749  1.00  0.00    +0.0353  A
ATOM      6 N24  DES L   1      14.151  -2.516   2.897  1.00  0.00    -0.2626 NA
ATOM      7 C25  DES L   1      13.122  -3.221   3.406  1.00  0.00    +0.0281  A
ATOM      8 C26  DES L   1      12.610  -4.371   2.825  1.00  0.00    -0.0358  A
ATOM      9 C27  DES L   1      13.183  -4.841   1.637  1.00  0.00    -0.0131  A
ATOM     10 C28  DES L   1      12.717  -6.001   0.990  1.00  0.00    -0.0305  A
ATOM     11 H47  DES L   1      14.861  -6.059  -1.660  1.00  0.00    +0.0638  H
ATOM     12 H48  DES L   1      15.683  -4.053  -0.559  1.00  0.00    +0.0625  H
ATOM     13 H49  DES L   1      15.522  -2.391   1.369  1.00  0.00    +0.0836  H
ATOM     14 H50  DES L   1      12.702  -2.827   4.327  1.00  0.00    +0.0830  H
ATOM     15 H51  DES L   1      11.777  -4.886   3.295  1.00  0.00    +0.0639  H
ATOM     16 H52  DES L   1      11.884  -6.551   1.423  1.00  0.00    +0.0644  H
ENDROOT
BRANCH 1 19
ATOM     17 C16  DES L   1      11.553  -7.790  -1.411  1.00  0.00    +0.2339  C
ATOM     18 O17  DES L   1      10.715  -6.909  -1.596  1.00  0.00    -0.2722 OA
ATOM     19 N18  DES L   1      12.768  -7.627  -0.768  1.00  0.00    -0.3256  N
ATOM     20 H46  DES L   1      13.336  -8.474  -0.697  1.00  0.00    +0.1686 HD
BRANCH 17 21
ATOM     21 C13  DES L   1      11.316  -9.211  -1.952  1.00  0.00    +0.0752  C
ATOM     22 H41  DES L   1      10.315  -9.467  -1.570  1.00  0.00    +0.0458  H
BRANCH 21 26
ATOM     23  C9  DES L   1      11.072  -9.574  -6.284  1.00  0.00    -0.0103  A
ATOM     24 C10  DES L   1      12.015  -8.716  -5.705  1.00  0.00    -0.0551  A
ATOM     25 C11  DES L   1      12.101  -8.583  -4.315  1.00  0.00    -0.0574  A
ATOM     26 C12  DES L   1      11.238  -9.298  -3.472  1.00  0.00    -0.0341  A
ATOM     27 C29  DES L   1      10.290 -10.152  -4.060  1.00  0.00    -0.0574  A
ATOM     28 C30  DES L   1      10.203 -10.282  -5.448  1.00  0.00    -0.0551  A
ATOM     29 H39  DES L   1      12.683  -8.131  -6.337  1.00  0.00    +0.0621  H
ATOM     30 H40  DES L   1      12.847  -7.902  -3.913  1.00  0.00    +0.0621  H
ATOM     31 H53  DES L   1       9.598 -10.717  -3.438  1.00  0.00    +0.0621  H
ATOM     32 H54  DES L   1       9.444 -10.935  -5.875  1.00  0.00    +0.0621  H
BRANCH 23 33
ATOM     33  C8  DES L   1      10.962  -9.685  -7.783  1.00  0.00    +0.1179  C
ATOM     34 H37  DES L   1      11.787 -10.271  -8.205  1.00  0.00    +0.0749  H
ATOM     35 H38  DES L   1      10.046 -10.227  -8.047  1.00  0.00    +0.0749  H
BRANCH 33 36
ATOM     36  O7  DES L   1      10.864  -8.376  -8.352  1.00  0.00    -0.4564 OA
BRANCH 36 37
ATOM     37  C5  DES L   1       9.687  -7.735  -8.142  1.00  0.00    +0.3398  C
ATOM     38  O6  DES L   1       9.473  -6.872  -7.307  1.00  0.00    -0.2449 OA
BRANCH 37 42
ATOM     39  C1  DES L   1       6.744  -9.213 -10.886  1.00  0.00    -0.0615  A
ATOM     40  C2  DES L   1       7.861  -8.529 -11.357  1.00  0.00    -0.0610  A
ATOM     41  C3  DES L   1       8.817  -8.060 -10.457  1.00  0.00    -0.0475  A
ATOM     42  C4  DES L   1       8.664  -8.276  -9.076  1.00  0.00    +0.0619  A
ATOM     43 C31  DES L   1       7.539  -8.975  -8.595  1.00  0.00    -0.0365  A
ATOM     44 C32  DES L   1       7.321  -9.241  -7.130  1.00  0.00    -0.0389  C
ATOM     45 C33  DES L   1       6.583  -9.433  -9.517  1.00  0.00    -0.0581  A
ATOM     46 H34  DES L   1       5.995  -9.578 -11.586  1.00  0.00    +0.0618  H
ATOM     47 H35  DES L   1       7.986  -8.358 -12.423  1.00  0.00    +0.0618  H
ATOM     48 H36  DES L   1       9.678  -7.516 -10.838  1.00  0.00    +0.0626  H
ATOM     49 H55  DES L   1       8.225  -9.657  -6.674  1.00  0.00    +0.0278  H
ATOM     50 H56  DES L   1       7.037  -8.317  -6.616  1.00  0.00    +0.0278  H
ATOM     51 H57  DES L   1       6.521  -9.971  -6.973  1.00  0.00    +0.0278  H
ATOM     52 H58  DES L   1       5.701  -9.970  -9.172  1.00  0.00    +0.0620  H
ENDBRANCH 37 42
ENDBRANCH 36 37
ENDBRANCH 33 36
ENDBRANCH 23 33
ENDBRANCH 21 26
BRANCH 21 53
ATOM     53 C14  DES L   1      12.274 -10.266  -1.348  1.00  0.00    +0.0085  C
ATOM     54 N15  DES L   1      12.013 -10.582   0.070  1.00  0.00    -0.3289 NA
ATOM     55 H42  DES L   1      13.311  -9.922  -1.437  1.00  0.00    +0.0432  H
ATOM     56 H43  DES L   1      12.192 -11.198  -1.920  1.00  0.00    +0.0432  H
ATOM     57 H44  DES L   1      12.199  -9.737   0.621  1.00  0.00    +0.1182 HD
ATOM     58 H45  DES L   1      12.721 -11.252   0.383  1.00  0.00    +0.1182 HD
ENDBRANCH 21 53
ENDBRANCH 17 21
ENDBRANCH 1 19
TORSDOF 8
ENDMDL
MODEL 7
REMARK VINA RESULT:    -7.005      3.434      7.173
REMARK INTER + INTRA:         -11.408
REMARK INTER:                  -9.290
REMARK INTRA:                  -2.118
REMARK UNBOUND:                -1.127
ROOT
ATOM      1 C19  DES L   1      11.867  -8.229  -2.203  1.00  0.00    +0.0423  A
ATOM      2 C20  DES L   1      13.006  -7.576  -2.671  1.00  0.00    -0.0377  A
ATOM      3 C21  DES L   1      13.527  -6.477  -1.980  1.00  0.00    -0.0506  A
ATOM      4 C22  DES L   1      12.912  -6.015  -0.805  1.00  0.00    +0.0004  A
ATOM      5 C23  DES L   1      13.390  -4.922  -0.076  1.00  0.00    +0.0353  A
ATOM      6 N24  DES L   1      12.822  -4.451   1.059  1.00  0.00    -0.2626 NA
ATOM      7 C25  DES L   1      11.723  -5.098   1.495  1.00  0.00    +0.0281  A
ATOM      8 C26  DES L   1      11.164  -6.192   0.852  1.00  0.00    -0.0358  A
ATOM      9 C27  DES L   1      11.763  -6.665  -0.322  1.00  0.00    -0.0131  A
ATOM     10 C28  DES L   1      11.253  -7.769  -1.029  1.00  0.00    -0.0305  A
ATOM     11 H47  DES L   1      13.518  -7.897  -3.573  1.00  0.00    +0.0638  H
ATOM     12 H48  DES L   1      14.418  -5.987  -2.368  1.00  0.00    +0.0625  H
ATOM     13 H49  DES L   1      14.274  -4.377  -0.396  1.00  0.00    +0.0836  H
ATOM     14 H50  DES L   1      11.285  -4.703   2.408  1.00  0.00    +0.0830  H
ATOM     15 H51  DES L   1      10.276  -6.661   1.264  1.00  0.00    +0.0639  H
ATOM     16 H52  DES L   1      10.363  -8.272  -0.655  1.00  0.00    +0.0644  H
ENDROOT
BRANCH 1 19
ATOM     17 C16  DES L   1      10.744  -9.422  -4.108  1.00  0.00    +0.2339  C
ATOM     18 O17  DES L   1      10.688  -8.503  -4.924  1.00  0.00    -0.2722 OA
ATOM     19 N18  DES L   1      11.281  -9.341  -2.836  1.00  0.00    -0.3256  N
ATOM     20 H46  DES L   1      11.232 -10.206  -2.291  1.00  0.00    +0.1686 HD
BRANCH 17 21
ATOM     21 C13  DES L   1      10.229 -10.823  -4.484  1.00  0.00    +0.0752  C
ATOM     22 H41  DES L   1       9.714 -11.160  -3.570  1.00  0.00    +0.0458  H
BRANCH 21 26
ATOM     23  C9  DES L   1       7.174 -10.861  -7.587  1.00  0.00    -0.0103  A
ATOM     24 C10  DES L   1       8.428 -11.434  -7.831  1.00  0.00    -0.0551  A
ATOM     25 C11  DES L   1       9.422 -11.422  -6.847  1.00  0.00    -0.0574  A
ATOM     26 C12  DES L   1       9.188 -10.830  -5.598  1.00  0.00    -0.0341  A
ATOM     27 C29  DES L   1       7.930 -10.251  -5.362  1.00  0.00    -0.0574  A
ATOM     28 C30  DES L   1       6.938 -10.261  -6.346  1.00  0.00    -0.0551  A
ATOM     29 H39  DES L   1       8.645 -11.881  -8.800  1.00  0.00    +0.0621  H
ATOM     30 H40  DES L   1      10.382 -11.876  -7.086  1.00  0.00    +0.0621  H
ATOM     31 H53  DES L   1       7.713  -9.775  -4.407  1.00  0.00    +0.0621  H
ATOM     32 H54  DES L   1       5.980  -9.786  -6.142  1.00  0.00    +0.0621  H
BRANCH 23 33
ATOM     33  C8  DES L   1       6.120 -10.846  -8.664  1.00  0.00    +0.1179  C
ATOM     34 H37  DES L   1       5.659 -11.833  -8.790  1.00  0.00    +0.0749  H
ATOM     35 H38  DES L   1       5.306 -10.171  -8.374  1.00  0.00    +0.0749  H
BRANCH 33 36
ATOM     36  O7  DES L   1       6.686 -10.339  -9.877  1.00  0.00    -0.4564 OA
BRANCH 36 37
ATOM     37  C5  DES L   1       6.725  -8.988  -9.982  1.00  0.00    +0.3398  C
ATOM     38  O6  DES L   1       5.835  -8.212  -9.677  1.00  0.00    -0.2449 OA
BRANCH 37 42
ATOM     39  C1  DES L   1      10.485  -7.897 -11.730  1.00  0.00    -0.0615  A
ATOM     40  C2  DES L   1       9.468  -8.419 -12.523  1.00  0.00    -0.0610  A
ATOM     41  C3  DES L   1       8.245  -8.763 -11.946  1.00  0.00    -0.0475  A
ATOM     42  C4  DES L   1       8.030  -8.582 -10.569  1.00  0.00    +0.0619  A
ATOM     43 C31  DES L   1       9.054  -8.046  -9.762  1.00  0.00    -0.0365  A
ATOM     44 C32  DES L   1       8.883  -7.826  -8.284  1.00  0.00    -0.0389  C
ATOM     45 C33  DES L   1      10.282  -7.714 -10.361  1.00  0.00    -0.0581  A
ATOM     46 H34  DES L   1      11.441  -7.632 -12.176  1.00  0.00    +0.0618  H
ATOM     47 H35  DES L   1       9.627  -8.563 -13.588  1.00  0.00    +0.0618  H
ATOM     48 H36  DES L   1       7.464  -9.182 -12.577  1.00  0.00    +0.0626  H
ATOM     49 H55  DES L   1       7.949  -7.294  -8.077  1.00  0.00    +0.0278  H
ATOM     50 H56  DES L   1       8.891  -8.784  -7.755  1.00  0.00    +0.0278  H
ATOM     51 H57  DES L   1       9.694  -7.212  -7.877  1.00  0.00    +0.0278  H
ATOM     52 H58  DES L   1      11.092  -7.305  -9.760  1.00  0.00    +0.0620  H
ENDBRANCH 37 42
ENDBRANCH 36 37
ENDBRANCH 33 36
ENDBRANCH 23 33
ENDBRANCH 21 26
BRANCH 21 53
ATOM     53 C14  DES L   1      11.360 -11.849  -4.726  1.00  0.00    +0.0085  C
ATOM     54 N15  DES L   1      12.667 -11.247  -5.055  1.00  0.00    -0.3289 NA
ATOM     55 H42  DES L   1      11.081 -12.527  -5.541  1.00  0.00    +0.0432  H
ATOM     56 H43  DES L   1      11.491 -12.462  -3.826  1.00  0.00    +0.0432  H
ATOM     57 H44  DES L   1      12.575 -10.765  -5.957  1.00  0.00    +0.1182 HD
ATOM     58 H45  DES L   1      13.331 -12.004  -5.238  1.00  0.00    +0.1182 HD
ENDBRANCH 21 53
ENDBRANCH 17 21
ENDBRANCH 1 19
TORSDOF 8
ENDMDL
MODEL 8
REMARK VINA RESULT:    -6.991      3.557     10.677
REMARK INTER + INTRA:         -11.387
REMARK INTER:                 -10.566
REMARK INTRA:                  -0.821
REMARK UNBOUND:                -1.127
ROOT
ATOM      1 C19  DES L   1      10.373  -8.642  -6.547  1.00  0.00    +0.0423  A
ATOM      2 C20  DES L   1      10.888  -7.965  -7.651  1.00  0.00    -0.0377  A
ATOM      3 C21  DES L   1      10.104  -7.770  -8.793  1.00  0.00    -0.0506  A
ATOM      4 C22  DES L   1       8.785  -8.252  -8.845  1.00  0.00    +0.0004  A
ATOM      5 C23  DES L   1       7.958  -8.086  -9.959  1.00  0.00    +0.0353  A
ATOM      6 N24  DES L   1       6.685  -8.538 -10.043  1.00  0.00    -0.2626 NA
ATOM      7 C25  DES L   1       6.206  -9.188  -8.964  1.00  0.00    +0.0281  A
ATOM      8 C26  DES L   1       6.937  -9.410  -7.807  1.00  0.00    -0.0358  A
ATOM      9 C27  DES L   1       8.253  -8.937  -7.738  1.00  0.00    -0.0131  A
ATOM     10 C28  DES L   1       9.056  -9.124  -6.598  1.00  0.00    -0.0305  A
ATOM     11 H47  DES L   1      11.900  -7.571  -7.658  1.00  0.00    +0.0638  H
ATOM     12 H48  DES L   1      10.531  -7.237  -9.639  1.00  0.00    +0.0625  H
ATOM     13 H49  DES L   1       8.309  -7.566 -10.847  1.00  0.00    +0.0836  H
ATOM     14 H50  DES L   1       5.182  -9.541  -9.053  1.00  0.00    +0.0830  H
ATOM     15 H51  DES L   1       6.482  -9.943  -6.978  1.00  0.00    +0.0639  H
ATOM     16 H52  DES L   1       8.644  -9.653  -5.741  1.00  0.00    +0.0644  H
ENDROOT
BRANCH 1 19
ATOM     17 C16  DES L   1      12.246  -8.256  -4.917  1.00  0.00    +0.2339  C
ATOM     18 O17  DES L   1      12.853  -7.364  -5.508  1.00  0.00    -0.2722 OA
ATOM     19 N18  DES L   1      11.092  -8.878  -5.361  1.00  0.00    -0.3256  N
ATOM     20 H46  DES L   1      10.730  -9.608  -4.742  1.00  0.00    +0.1686 HD
BRANCH 17 21
ATOM     21 C13  DES L   1      12.730  -8.742  -3.540  1.00  0.00    +0.0752  C
ATOM     22 H41  DES L   1      13.827  -8.764  -3.647  1.00  0.00    +0.0458  H
BRANCH 21 26
ATOM     23  C9  DES L   1      11.967  -6.004  -0.242  1.00  0.00    -0.0103  A
ATOM     24 C10  DES L   1      11.071  -7.047  -0.509  1.00  0.00    -0.0551  A
ATOM     25 C11  DES L   1      11.299  -7.930  -1.569  1.00  0.00    -0.0574  A
ATOM     26 C12  DES L   1      12.423  -7.785  -2.394  1.00  0.00    -0.0341  A
ATOM     27 C29  DES L   1      13.314  -6.733  -2.125  1.00  0.00    -0.0574  A
ATOM     28 C30  DES L   1      13.085  -5.849  -1.067  1.00  0.00    -0.0551  A
ATOM     29 H39  DES L   1      10.177  -7.170   0.102  1.00  0.00    +0.0621  H
ATOM     30 H40  DES L   1      10.572  -8.722  -1.738  1.00  0.00    +0.0621  H
ATOM     31 H53  DES L   1      14.194  -6.583  -2.748  1.00  0.00    +0.0621  H
ATOM     32 H54  DES L   1      13.781  -5.031  -0.896  1.00  0.00    +0.0621  H
BRANCH 23 33
ATOM     33  C8  DES L   1      11.697  -5.036   0.881  1.00  0.00    +0.1179  C
ATOM     34 H37  DES L   1      12.625  -4.712   1.365  1.00  0.00    +0.0749  H
ATOM     35 H38  DES L   1      11.235  -4.126   0.481  1.00  0.00    +0.0749  H
BRANCH 33 36
ATOM     36  O7  DES L   1      10.766  -5.618   1.800  1.00  0.00    -0.4564 OA
BRANCH 36 37
ATOM     37  C5  DES L   1      11.210  -5.748   3.075  1.00  0.00    +0.3398  C
ATOM     38  O6  DES L   1      11.983  -6.595   3.489  1.00  0.00    -0.2449 OA
BRANCH 37 42
ATOM     39  C1  DES L   1       9.463  -2.709   5.543  1.00  0.00    -0.0615  A
ATOM     40  C2  DES L   1      10.633  -2.451   4.835  1.00  0.00    -0.0610  A
ATOM     41  C3  DES L   1      11.188  -3.443   4.027  1.00  0.00    -0.0475  A
ATOM     42  C4  DES L   1      10.574  -4.703   3.921  1.00  0.00    +0.0619  A
ATOM     43 C31  DES L   1       9.384  -4.967   4.629  1.00  0.00    -0.0365  A
ATOM     44 C32  DES L   1       8.679  -6.293   4.553  1.00  0.00    -0.0389  C
ATOM     45 C33  DES L   1       8.845  -3.957   5.444  1.00  0.00    -0.0581  A
ATOM     46 H34  DES L   1       9.030  -1.938   6.176  1.00  0.00    +0.0618  H
ATOM     47 H35  DES L   1      11.114  -1.480   4.913  1.00  0.00    +0.0618  H
ATOM     48 H36  DES L   1      12.110  -3.231   3.490  1.00  0.00    +0.0626  H
ATOM     49 H55  DES L   1       8.551  -6.604   3.511  1.00  0.00    +0.0278  H
ATOM     50 H56  DES L   1       9.241  -7.054   5.102  1.00  0.00    +0.0278  H
ATOM     51 H57  DES L   1       7.677  -6.237   4.991  1.00  0.00    +0.0278  H
ATOM     52 H58  DES L   1       7.931  -4.136   6.008  1.00  0.00    +0.0620  H
ENDBRANCH 37 42
ENDBRANCH 36 37
ENDBRANCH 33 36
ENDBRANCH 23 33
ENDBRANCH 21 26
BRANCH 21 53
ATOM     53 C14  DES L   1      12.316 -10.198  -3.221  1.00  0.00    +0.0085  C
ATOM     54 N15  DES L   1      12.732 -11.185  -4.237  1.00  0.00    -0.3289 NA
ATOM     55 H42  DES L   1      11.227 -10.259  -3.111  1.00  0.00    +0.0432  H
ATOM     56 H43  DES L   1      12.755 -10.498  -2.263  1.00  0.00    +0.0432  H
ATOM     57 H44  DES L   1      12.233 -10.972  -5.107  1.00  0.00    +0.1182 HD
ATOM     58 H45  DES L   1      12.375 -12.102  -3.956  1.00  0.00    +0.1182 HD
ENDBRANCH 21 53
ENDBRANCH 17 21
ENDBRANCH 1 19
TORSDOF 8
ENDMDL
MODEL 9
REMARK VINA RESULT:    -6.965      2.256      3.813
REMARK INTER + INTRA:         -11.348
REMARK INTER:                 -10.299
REMARK INTRA:                  -1.050
REMARK UNBOUND:                -1.127
ROOT
ATOM      1 C19  DES L   1      12.089  -5.793   1.839  1.00  0.00    +0.0423  A
ATOM      2 C20  DES L   1      13.161  -4.923   2.025  1.00  0.00    -0.0377  A
ATOM      3 C21  DES L   1      13.034  -3.809   2.861  1.00  0.00    -0.0506  A
ATOM      4 C22  DES L   1      11.825  -3.549   3.527  1.00  0.00    +0.0004  A
ATOM      5 C23  DES L   1      11.643  -2.452   4.373  1.00  0.00    +0.0353  A
ATOM      6 N24  DES L   1      10.492  -2.172   5.029  1.00  0.00    -0.2626 NA
ATOM      7 C25  DES L   1       9.468  -3.027   4.837  1.00  0.00    +0.0281  A
ATOM      8 C26  DES L   1       9.537  -4.146   4.021  1.00  0.00    -0.0358  A
ATOM      9 C27  DES L   1      10.735  -4.419   3.349  1.00  0.00    -0.0131  A
ATOM     10 C28  DES L   1      10.880  -5.535   2.505  1.00  0.00    -0.0305  A
ATOM     11 H47  DES L   1      14.117  -5.082   1.535  1.00  0.00    +0.0638  H
ATOM     12 H48  DES L   1      13.888  -3.148   2.989  1.00  0.00    +0.0625  H
ATOM     13 H49  DES L   1      12.446  -1.742   4.554  1.00  0.00    +0.0836  H
ATOM     14 H50  DES L   1       8.555  -2.784   5.374  1.00  0.00    +0.0830  H
ATOM     15 H51  DES L   1       8.668  -4.789   3.915  1.00  0.00    +0.0639  H
ATOM     16 H52  DES L   1      10.037  -6.209   2.366  1.00  0.00    +0.0644  H
ENDROOT
BRANCH 1 19
ATOM     17 C16  DES L   1      11.496  -7.151  -0.191  1.00  0.00    +0.2339  C
ATOM     18 O17  DES L   1      10.759  -6.351  -0.766  1.00  0.00    -0.2722 OA
ATOM     19 N18  DES L   1      12.133  -6.935   1.019  1.00  0.00    -0.3256  N
ATOM     20 H46  DES L   1      12.701  -7.718   1.353  1.00  0.00    +0.1686 HD
BRANCH 17 21
ATOM     21 C13  DES L   1      11.815  -8.511  -0.834  1.00  0.00    +0.0752  C
ATOM     22 H41  DES L   1      10.986  -9.155  -0.496  1.00  0.00    +0.0458  H
BRANCH 21 26
ATOM     23  C9  DES L   1      11.662  -8.618  -5.184  1.00  0.00    -0.0103  A
ATOM     24 C10  DES L   1      12.640  -7.854  -4.536  1.00  0.00    -0.0551  A
ATOM     25 C11  DES L   1      12.697  -7.804  -3.140  1.00  0.00    -0.0574  A
ATOM     26 C12  DES L   1      11.771  -8.509  -2.358  1.00  0.00    -0.0341  A
ATOM     27 C29  DES L   1      10.788  -9.268  -3.015  1.00  0.00    -0.0574  A
ATOM     28 C30  DES L   1      10.730  -9.316  -4.410  1.00  0.00    -0.0551  A
ATOM     29 H39  DES L   1      13.358  -7.278  -5.118  1.00  0.00    +0.0621  H
ATOM     30 H40  DES L   1      13.473  -7.193  -2.683  1.00  0.00    +0.0621  H
ATOM     31 H53  DES L   1      10.047  -9.823  -2.442  1.00  0.00    +0.0621  H
ATOM     32 H54  DES L   1       9.944  -9.895  -4.891  1.00  0.00    +0.0621  H
BRANCH 23 33
ATOM     33  C8  DES L   1      11.585  -8.639  -6.689  1.00  0.00    +0.1179  C
ATOM     34 H37  DES L   1      11.958  -7.706  -7.125  1.00  0.00    +0.0749  H
ATOM     35 H38  DES L   1      12.232  -9.432  -7.081  1.00  0.00    +0.0749  H
BRANCH 33 36
ATOM     36  O7  DES L   1      10.245  -8.942  -7.093  1.00  0.00    -0.4564 OA
BRANCH 36 37
ATOM     37  C5  DES L   1       9.515  -7.886  -7.531  1.00  0.00    +0.3398  C
ATOM     38  O6  DES L   1       9.625  -6.729  -7.163  1.00  0.00    -0.2449 OA
BRANCH 37 42
ATOM     39  C1  DES L   1       6.643  -9.177 -10.440  1.00  0.00    -0.0615  A
ATOM     40  C2  DES L   1       7.769  -8.462 -10.836  1.00  0.00    -0.0610  A
ATOM     41  C3  DES L   1       8.702  -8.054  -9.883  1.00  0.00    -0.0475  A
ATOM     42  C4  DES L   1       8.516  -8.363  -8.525  1.00  0.00    +0.0619  A
ATOM     43 C31  DES L   1       7.382  -9.095  -8.119  1.00  0.00    -0.0365  A
ATOM     44 C32  DES L   1       7.129  -9.459  -6.682  1.00  0.00    -0.0389  C
ATOM     45 C33  DES L   1       6.449  -9.489  -9.094  1.00  0.00    -0.0581  A
ATOM     46 H34  DES L   1       5.912  -9.493 -11.181  1.00  0.00    +0.0618  H
ATOM     47 H35  DES L   1       7.919  -8.219 -11.885  1.00  0.00    +0.0618  H
ATOM     48 H36  DES L   1       9.571  -7.485 -10.206  1.00  0.00    +0.0626  H
ATOM     49 H55  DES L   1       8.022  -9.905  -6.233  1.00  0.00    +0.0278  H
ATOM     50 H56  DES L   1       6.830  -8.572  -6.113  1.00  0.00    +0.0278  H
ATOM     51 H57  DES L   1       6.327 -10.199  -6.594  1.00  0.00    +0.0278  H
ATOM     52 H58  DES L   1       5.560 -10.049  -8.807  1.00  0.00    +0.0620  H
ENDBRANCH 37 42
ENDBRANCH 36 37
ENDBRANCH 33 36
ENDBRANCH 23 33
ENDBRANCH 21 26
BRANCH 21 53
ATOM     53 C14  DES L   1      13.102  -9.166  -0.281  1.00  0.00    +0.0085  C
ATOM     54 N15  DES L   1      12.922  -9.873   1.003  1.00  0.00    -0.3289 NA
ATOM     55 H42  DES L   1      13.879  -8.405  -0.146  1.00  0.00    +0.0432  H
ATOM     56 H43  DES L   1      13.483  -9.890  -1.011  1.00  0.00    +0.0432  H
ATOM     57 H44  DES L   1      12.674  -9.176   1.714  1.00  0.00    +0.1182 HD
ATOM     58 H45  DES L   1      13.833 -10.230   1.301  1.00  0.00    +0.1182 HD
ENDBRANCH 21 53
ENDBRANCH 17 21
ENDBRANCH 1 19
TORSDOF 8
ENDMDL
MODEL 10
REMARK VINA RESULT:    -6.921      1.509      2.009
REMARK INTER + INTRA:         -11.284
REMARK INTER:                  -9.650
REMARK INTRA:                  -1.635
REMARK UNBOUND:                -1.127
ROOT
ATOM      1 C19  DES L   1      12.091  -4.538   3.070  1.00  0.00    +0.0423  A
ATOM      2 C20  DES L   1      12.508  -3.241   3.364  1.00  0.00    -0.0377  A
ATOM      3 C21  DES L   1      11.810  -2.467   4.298  1.00  0.00    -0.0506  A
ATOM      4 C22  DES L   1      10.681  -2.984   4.953  1.00  0.00    +0.0004  A
ATOM      5 C23  DES L   1       9.947  -2.256   5.893  1.00  0.00    +0.0353  A
ATOM      6 N24  DES L   1       8.855  -2.723   6.543  1.00  0.00    -0.2626 NA
ATOM      7 C25  DES L   1       8.471  -3.980   6.245  1.00  0.00    +0.0281  A
ATOM      8 C26  DES L   1       9.123  -4.792   5.330  1.00  0.00    -0.0358  A
ATOM      9 C27  DES L   1      10.250  -4.291   4.666  1.00  0.00    -0.0131  A
ATOM     10 C28  DES L   1      10.963  -5.056   3.725  1.00  0.00    -0.0305  A
ATOM     11 H47  DES L   1      13.376  -2.798   2.886  1.00  0.00    +0.0638  H
ATOM     12 H48  DES L   1      12.158  -1.459   4.508  1.00  0.00    +0.0625  H
ATOM     13 H49  DES L   1      10.228  -1.240   6.160  1.00  0.00    +0.0836  H
ATOM     14 H50  DES L   1       7.592  -4.334   6.778  1.00  0.00    +0.0830  H
ATOM     15 H51  DES L   1       8.753  -5.795   5.141  1.00  0.00    +0.0639  H
ATOM     16 H52  DES L   1      10.631  -6.068   3.502  1.00  0.00    +0.0644  H
ENDROOT
BRANCH 1 19
ATOM     17 C16  DES L   1      12.409  -5.618   0.823  1.00  0.00    +0.2339  C
ATOM     18 O17  DES L   1      11.468  -5.110   0.215  1.00  0.00    -0.2722 OA
ATOM     19 N18  DES L   1      12.736  -5.383   2.147  1.00  0.00    -0.3256  N
ATOM     20 H46  DES L   1      13.549  -5.902   2.490  1.00  0.00    +0.1686 HD
BRANCH 17 21
ATOM     21 C13  DES L   1      13.374  -6.574   0.099  1.00  0.00    +0.0752  C
ATOM     22 H41  DES L   1      13.794  -7.181   0.917  1.00  0.00    +0.0458  H
BRANCH 21 26
ATOM     23  C9  DES L   1      11.388  -9.254  -2.699  1.00  0.00    -0.0103  A
ATOM     24 C10  DES L   1      11.415  -9.562  -1.334  1.00  0.00    -0.0551  A
ATOM     25 C11  DES L   1      12.055  -8.715  -0.424  1.00  0.00    -0.0574  A
ATOM     26 C12  DES L   1      12.692  -7.544  -0.859  1.00  0.00    -0.0341  A
ATOM     27 C29  DES L   1      12.667  -7.245  -2.232  1.00  0.00    -0.0574  A
ATOM     28 C30  DES L   1      12.029  -8.092  -3.141  1.00  0.00    -0.0551  A
ATOM     29 H39  DES L   1      10.947 -10.476  -0.970  1.00  0.00    +0.0621  H
ATOM     30 H40  DES L   1      12.052  -8.999   0.627  1.00  0.00    +0.0621  H
ATOM     31 H53  DES L   1      13.157  -6.349  -2.609  1.00  0.00    +0.0621  H
ATOM     32 H54  DES L   1      12.045  -7.846  -4.201  1.00  0.00    +0.0621  H
BRANCH 23 33
ATOM     33  C8  DES L   1      10.726 -10.189  -3.679  1.00  0.00    +0.1179  C
ATOM     34 H37  DES L   1      11.433 -10.931  -4.068  1.00  0.00    +0.0749  H
ATOM     35 H38  DES L   1       9.941 -10.761  -3.171  1.00  0.00    +0.0749  H
BRANCH 33 36
ATOM     36  O7  DES L   1      10.097  -9.426  -4.715  1.00  0.00    -0.4564 OA
BRANCH 36 37
ATOM     37  C5  DES L   1      10.394  -9.808  -5.982  1.00  0.00    +0.3398  C
ATOM     38  O6  DES L   1      10.568 -10.951  -6.371  1.00  0.00    -0.2449 OA
BRANCH 37 42
ATOM     39  C1  DES L   1      10.784  -6.279  -8.383  1.00  0.00    -0.0615  A
ATOM     40  C2  DES L   1      11.844  -6.708  -7.592  1.00  0.00    -0.0610  A
ATOM     41  C3  DES L   1      11.710  -7.863  -6.820  1.00  0.00    -0.0475  A
ATOM     42  C4  DES L   1      10.513  -8.599  -6.840  1.00  0.00    +0.0619  A
ATOM     43 C31  DES L   1       9.439  -8.173  -7.646  1.00  0.00    -0.0365  A
ATOM     44 C32  DES L   1       8.135  -8.919  -7.712  1.00  0.00    -0.0389  C
ATOM     45 C33  DES L   1       9.590  -7.002  -8.409  1.00  0.00    -0.0581  A
ATOM     46 H34  DES L   1      10.884  -5.377  -8.983  1.00  0.00    +0.0618  H
ATOM     47 H35  DES L   1      12.772  -6.144  -7.571  1.00  0.00    +0.0618  H
ATOM     48 H36  DES L   1      12.543  -8.179  -6.196  1.00  0.00    +0.0626  H
ATOM     49 H55  DES L   1       8.308  -9.987  -7.881  1.00  0.00    +0.0278  H
ATOM     50 H56  DES L   1       7.569  -8.777  -6.786  1.00  0.00    +0.0278  H
ATOM     51 H57  DES L   1       7.514  -8.564  -8.541  1.00  0.00    +0.0278  H
ATOM     52 H58  DES L   1       8.774  -6.646  -9.036  1.00  0.00    +0.0620  H
ENDBRANCH 37 42
ENDBRANCH 36 37
ENDBRANCH 33 36
ENDBRANCH 23 33
ENDBRANCH 21 26
BRANCH 21 53
ATOM     53 C14  DES L   1      14.582  -5.855  -0.547  1.00  0.00    +0.0085  C
ATOM     54 N15  DES L   1      14.599  -4.393  -0.344  1.00  0.00    -0.3289 NA
ATOM     55 H42  DES L   1      14.598  -6.051  -1.626  1.00  0.00    +0.0432  H
ATOM     56 H43  DES L   1      15.510  -6.263  -0.131  1.00  0.00    +0.0432  H
ATOM     57 H44  DES L   1      13.787  -3.997  -0.831  1.00  0.00    +0.1182 HD
ATOM     58 H45  DES L   1      15.407  -4.012  -0.843  1.00  0.00    +0.1182 HD
ENDBRANCH 21 53
ENDBRANCH 17 21
ENDBRANCH 1 19
TORSDOF 8
ENDMDL
MODEL 11
REMARK VINA RESULT:    -6.865      3.059     10.424
REMARK INTER + INTRA:         -11.202
REMARK INTER:                  -9.745
REMARK INTRA:                  -1.456
REMARK UNBOUND:                -1.127
ROOT
ATOM      1 C19  DES L   1      12.304  -8.228  -5.517  1.00  0.00    +0.0423  A
ATOM      2 C20  DES L   1      13.342  -8.596  -6.371  1.00  0.00    -0.0377  A
ATOM      3 C21  DES L   1      13.166  -8.557  -7.758  1.00  0.00    -0.0506  A
ATOM      4 C22  DES L   1      11.941  -8.147  -8.312  1.00  0.00    +0.0004  A
ATOM      5 C23  DES L   1      11.710  -8.089  -9.689  1.00  0.00    +0.0353  A
ATOM      6 N24  DES L   1      10.544  -7.699 -10.255  1.00  0.00    -0.2626 NA
ATOM      7 C25  DES L   1       9.555  -7.347  -9.411  1.00  0.00    +0.0281  A
ATOM      8 C26  DES L   1       9.673  -7.365  -8.029  1.00  0.00    -0.0358  A
ATOM      9 C27  DES L   1      10.886  -7.773  -7.461  1.00  0.00    -0.0131  A
ATOM     10 C28  DES L   1      11.081  -7.818  -6.068  1.00  0.00    -0.0305  A
ATOM     11 H47  DES L   1      14.307  -8.918  -5.992  1.00  0.00    +0.0638  H
ATOM     12 H48  DES L   1      13.993  -8.848  -8.402  1.00  0.00    +0.0625  H
ATOM     13 H49  DES L   1      12.484  -8.365 -10.401  1.00  0.00    +0.0836  H
ATOM     14 H50  DES L   1       8.628  -7.037  -9.887  1.00  0.00    +0.0830  H
ATOM     15 H51  DES L   1       8.831  -7.067  -7.413  1.00  0.00    +0.0639  H
ATOM     16 H52  DES L   1      10.265  -7.528  -5.409  1.00  0.00    +0.0644  H
ENDROOT
BRANCH 1 19
ATOM     17 C16  DES L   1      13.459  -7.832  -3.320  1.00  0.00    +0.2339  C
ATOM     18 O17  DES L   1      14.530  -7.384  -3.728  1.00  0.00    -0.2722 OA
ATOM     19 N18  DES L   1      12.399  -8.237  -4.112  1.00  0.00    -0.3256  N
ATOM     20 H46  DES L   1      11.589  -8.594  -3.600  1.00  0.00    +0.1686 HD
BRANCH 17 21
ATOM     21 C13  DES L   1      13.190  -7.940  -1.809  1.00  0.00    +0.0752  C
ATOM     22 H41  DES L   1      13.809  -8.797  -1.499  1.00  0.00    +0.0458  H
BRANCH 21 26
ATOM     23  C9  DES L   1      14.556  -4.579   0.598  1.00  0.00    -0.0103  A
ATOM     24 C10  DES L   1      13.657  -4.368  -0.454  1.00  0.00    -0.0551  A
ATOM     25 C11  DES L   1      13.215  -5.436  -1.241  1.00  0.00    -0.0574  A
ATOM     26 C12  DES L   1      13.669  -6.740  -1.000  1.00  0.00    -0.0341  A
ATOM     27 C29  DES L   1      14.576  -6.945   0.054  1.00  0.00    -0.0574  A
ATOM     28 C30  DES L   1      15.020  -5.877   0.838  1.00  0.00    -0.0551  A
ATOM     29 H39  DES L   1      13.305  -3.361  -0.678  1.00  0.00    +0.0621  H
ATOM     30 H40  DES L   1      12.520  -5.220  -2.049  1.00  0.00    +0.0621  H
ATOM     31 H53  DES L   1      14.957  -7.942   0.266  1.00  0.00    +0.0621  H
ATOM     32 H54  DES L   1      15.739  -6.063   1.633  1.00  0.00    +0.0621  H
BRANCH 23 33
ATOM     33  C8  DES L   1      15.055  -3.419   1.420  1.00  0.00    +0.1179  C
ATOM     34 H37  DES L   1      15.918  -3.702   2.034  1.00  0.00    +0.0749  H
ATOM     35 H38  DES L   1      15.409  -2.621   0.756  1.00  0.00    +0.0749  H
BRANCH 33 36
ATOM     36  O7  DES L   1      13.976  -2.884   2.194  1.00  0.00    -0.4564 OA
BRANCH 36 37
ATOM     37  C5  DES L   1      13.754  -3.495   3.384  1.00  0.00    +0.3398  C
ATOM     38  O6  DES L   1      14.583  -4.073   4.067  1.00  0.00    -0.2449 OA
BRANCH 37 42
ATOM     39  C1  DES L   1       9.618  -3.145   4.455  1.00  0.00    -0.0615  A
ATOM     40  C2  DES L   1      10.521  -2.147   4.810  1.00  0.00    -0.0610  A
ATOM     41  C3  DES L   1      11.863  -2.266   4.449  1.00  0.00    -0.0475  A
ATOM     42  C4  DES L   1      12.310  -3.385   3.726  1.00  0.00    +0.0619  A
ATOM     43 C31  DES L   1      11.398  -4.395   3.357  1.00  0.00    -0.0365  A
ATOM     44 C32  DES L   1      11.815  -5.613   2.580  1.00  0.00    -0.0389  C
ATOM     45 C33  DES L   1      10.052  -4.260   3.737  1.00  0.00    -0.0581  A
ATOM     46 H34  DES L   1       8.571  -3.056   4.738  1.00  0.00    +0.0618  H
ATOM     47 H35  DES L   1      10.182  -1.280   5.370  1.00  0.00    +0.0618  H
ATOM     48 H36  DES L   1      12.559  -1.485   4.744  1.00  0.00    +0.0626  H
ATOM     49 H55  DES L   1      12.410  -5.330   1.705  1.00  0.00    +0.0278  H
ATOM     50 H56  DES L   1      12.393  -6.290   3.218  1.00  0.00    +0.0278  H
ATOM     51 H57  DES L   1      10.946  -6.165   2.207  1.00  0.00    +0.0278  H
ATOM     52 H58  DES L   1       9.327  -5.028   3.471  1.00  0.00    +0.0620  H
ENDBRANCH 37 42
ENDBRANCH 36 37
ENDBRANCH 33 36
ENDBRANCH 23 33
ENDBRANCH 21 26
BRANCH 21 53
ATOM     53 C14  DES L   1      11.733  -8.337  -1.471  1.00  0.00    +0.0085  C
ATOM     54 N15  DES L   1      10.721  -7.346  -1.888  1.00  0.00    -0.3289 NA
ATOM     55 H42  DES L   1      11.631  -8.496  -0.392  1.00  0.00    +0.0432  H
ATOM     56 H43  DES L   1      11.494  -9.287  -1.962  1.00  0.00    +0.0432  H
ATOM     57 H44  DES L   1      10.876  -6.489  -1.345  1.00  0.00    +0.1182 HD
ATOM     58 H45  DES L   1       9.803  -7.680  -1.583  1.00  0.00    +0.1182 HD
ENDBRANCH 21 53
ENDBRANCH 17 21
ENDBRANCH 1 19
TORSDOF 8
ENDMDL
MODEL 12
REMARK VINA RESULT:    -6.863      1.898      2.892
REMARK INTER + INTRA:         -11.200
REMARK INTER:                 -10.253
REMARK INTRA:                  -0.947
REMARK UNBOUND:                -1.127
ROOT
ATOM      1 C19  DES L   1      10.910  -5.608   2.447  1.00  0.00    +0.0423  A
ATOM      2 C20  DES L   1       9.773  -6.234   2.954  1.00  0.00    -0.0377  A
ATOM      3 C21  DES L   1       9.030  -5.635   3.977  1.00  0.00    -0.0506  A
ATOM      4 C22  DES L   1       9.419  -4.395   4.510  1.00  0.00    +0.0004  A
ATOM      5 C23  DES L   1       8.716  -3.752   5.532  1.00  0.00    +0.0353  A
ATOM      6 N24  DES L   1       9.063  -2.558   6.069  1.00  0.00    -0.2626 NA
ATOM      7 C25  DES L   1      10.165  -1.970   5.563  1.00  0.00    +0.0281  A
ATOM      8 C26  DES L   1      10.937  -2.516   4.550  1.00  0.00    -0.0358  A
ATOM      9 C27  DES L   1      10.565  -3.753   4.008  1.00  0.00    -0.0131  A
ATOM     10 C28  DES L   1      11.299  -4.369   2.978  1.00  0.00    -0.0305  A
ATOM     11 H47  DES L   1       9.430  -7.191   2.573  1.00  0.00    +0.0638  H
ATOM     12 H48  DES L   1       8.146  -6.145   4.352  1.00  0.00    +0.0625  H
ATOM     13 H49  DES L   1       7.822  -4.195   5.964  1.00  0.00    +0.0836  H
ATOM     14 H50  DES L   1      10.424  -1.013   6.008  1.00  0.00    +0.0830  H
ATOM     15 H51  DES L   1      11.814  -1.983   4.195  1.00  0.00    +0.0639  H
ATOM     16 H52  DES L   1      12.186  -3.873   2.589  1.00  0.00    +0.0644  H
ENDROOT
BRANCH 1 19
ATOM     17 C16  DES L   1      11.486  -6.114   0.054  1.00  0.00    +0.2339  C
ATOM     18 O17  DES L   1      10.514  -5.605  -0.504  1.00  0.00    -0.2722 OA
ATOM     19 N18  DES L   1      11.711  -6.140   1.419  1.00  0.00    -0.3256  N
ATOM     20 H46  DES L   1      12.569  -6.618   1.706  1.00  0.00    +0.1686 HD
BRANCH 17 21
ATOM     21 C13  DES L   1      12.607  -6.758  -0.779  1.00  0.00    +0.0752  C
ATOM     22 H41  DES L   1      13.109  -7.426  -0.060  1.00  0.00    +0.0458  H
BRANCH 21 26
ATOM     23  C9  DES L   1      11.198  -9.367  -3.968  1.00  0.00    -0.0103  A
ATOM     24 C10  DES L   1      12.096  -8.332  -4.255  1.00  0.00    -0.0551  A
ATOM     25 C11  DES L   1      12.552  -7.482  -3.243  1.00  0.00    -0.0574  A
ATOM     26 C12  DES L   1      12.112  -7.640  -1.921  1.00  0.00    -0.0341  A
ATOM     27 C29  DES L   1      11.206  -8.676  -1.641  1.00  0.00    -0.0574  A
ATOM     28 C30  DES L   1      10.749  -9.524  -2.652  1.00  0.00    -0.0551  A
ATOM     29 H39  DES L   1      12.436  -8.172  -5.277  1.00  0.00    +0.0621  H
ATOM     30 H40  DES L   1      13.246  -6.690  -3.516  1.00  0.00    +0.0621  H
ATOM     31 H53  DES L   1      10.836  -8.825  -0.628  1.00  0.00    +0.0621  H
ATOM     32 H54  DES L   1      10.031 -10.305  -2.409  1.00  0.00    +0.0621  H
BRANCH 23 33
ATOM     33  C8  DES L   1      10.683 -10.258  -5.069  1.00  0.00    +0.1179  C
ATOM     34 H37  DES L   1      11.409 -11.039  -5.327  1.00  0.00    +0.0749  H
ATOM     35 H38  DES L   1       9.785 -10.786  -4.728  1.00  0.00    +0.0749  H
BRANCH 33 36
ATOM     36  O7  DES L   1      10.308  -9.457  -6.194  1.00  0.00    -0.4564 OA
BRANCH 36 37
ATOM     37  C5  DES L   1       8.985  -9.171  -6.290  1.00  0.00    +0.3398  C
ATOM     38  O6  DES L   1       8.169  -9.211  -5.385  1.00  0.00    -0.2449 OA
BRANCH 37 42
ATOM     39  C1  DES L   1       8.093  -8.090 -10.342  1.00  0.00    -0.0615  A
ATOM     40  C2  DES L   1       9.300  -7.708  -9.764  1.00  0.00    -0.0610  A
ATOM     41  C3  DES L   1       9.584  -8.072  -8.448  1.00  0.00    -0.0475  A
ATOM     42  C4  DES L   1       8.663  -8.826  -7.701  1.00  0.00    +0.0619  A
ATOM     43 C31  DES L   1       7.443  -9.223  -8.284  1.00  0.00    -0.0365  A
ATOM     44 C32  DES L   1       6.419 -10.033  -7.538  1.00  0.00    -0.0389  C
ATOM     45 C33  DES L   1       7.171  -8.839  -9.609  1.00  0.00    -0.0581  A
ATOM     46 H34  DES L   1       7.867  -7.805 -11.367  1.00  0.00    +0.0618  H
ATOM     47 H35  DES L   1      10.017  -7.124 -10.335  1.00  0.00    +0.0618  H
ATOM     48 H36  DES L   1      10.526  -7.755  -8.005  1.00  0.00    +0.0626  H
ATOM     49 H55  DES L   1       6.886 -10.900  -7.059  1.00  0.00    +0.0278  H
ATOM     50 H56  DES L   1       5.922  -9.415  -6.785  1.00  0.00    +0.0278  H
ATOM     51 H57  DES L   1       5.649 -10.422  -8.213  1.00  0.00    +0.0278  H
ATOM     52 H58  DES L   1       6.234  -9.126 -10.082  1.00  0.00    +0.0620  H
ENDBRANCH 37 42
ENDBRANCH 36 37
ENDBRANCH 33 36
ENDBRANCH 23 33
ENDBRANCH 21 26
BRANCH 21 53
ATOM     53 C14  DES L   1      13.689  -5.752  -1.236  1.00  0.00    +0.0085  C
ATOM     54 N15  DES L   1      13.444  -4.360  -0.808  1.00  0.00    -0.3289 NA
ATOM     55 H42  DES L   1      13.772  -5.764  -2.329  1.00  0.00    +0.0432  H
ATOM     56 H43  DES L   1      14.662  -6.059  -0.835  1.00  0.00    +0.0432  H
ATOM     57 H44  DES L   1      12.591  -4.033  -1.274  1.00  0.00    +0.1182 HD
ATOM     58 H45  DES L   1      14.188  -3.772  -1.195  1.00  0.00    +0.1182 HD
ENDBRANCH 21 53
ENDBRANCH 17 21
ENDBRANCH 1 19
TORSDOF 8
ENDMDL
MODEL 13
REMARK VINA RESULT:    -6.842      1.591      2.615
REMARK INTER + INTRA:         -11.168
REMARK INTER:                 -10.446
REMARK INTRA:                  -0.722
REMARK UNBOUND:                -1.127
ROOT
ATOM      1 C19  DES L   1      11.869  -4.901   2.854  1.00  0.00    +0.0423  A
ATOM      2 C20  DES L   1      12.255  -3.625   3.260  1.00  0.00    -0.0377  A
ATOM      3 C21  DES L   1      11.523  -2.941   4.237  1.00  0.00    -0.0506  A
ATOM      4 C22  DES L   1      10.390  -3.528   4.824  1.00  0.00    +0.0004  A
ATOM      5 C23  DES L   1       9.624  -2.890   5.803  1.00  0.00    +0.0353  A
ATOM      6 N24  DES L   1       8.527  -3.427   6.389  1.00  0.00    -0.2626 NA
ATOM      7 C25  DES L   1       8.173  -4.662   5.983  1.00  0.00    +0.0281  A
ATOM      8 C26  DES L   1       8.860  -5.386   5.020  1.00  0.00    -0.0358  A
ATOM      9 C27  DES L   1       9.991  -4.815   4.424  1.00  0.00    -0.0131  A
ATOM     10 C28  DES L   1      10.738  -5.490   3.441  1.00  0.00    -0.0305  A
ATOM     11 H47  DES L   1      13.124  -3.130   2.838  1.00  0.00    +0.0638  H
ATOM     12 H48  DES L   1      11.848  -1.946   4.535  1.00  0.00    +0.0625  H
ATOM     13 H49  DES L   1       9.879  -1.894   6.156  1.00  0.00    +0.0836  H
ATOM     14 H50  DES L   1       7.291  -5.073   6.466  1.00  0.00    +0.0830  H
ATOM     15 H51  DES L   1       8.513  -6.377   4.745  1.00  0.00    +0.0639  H
ATOM     16 H52  DES L   1      10.429  -6.486   3.131  1.00  0.00    +0.0644  H
ENDROOT
BRANCH 1 19
ATOM     17 C16  DES L   1      12.302  -5.731   0.522  1.00  0.00    +0.2339  C
ATOM     18 O17  DES L   1      11.416  -5.126  -0.080  1.00  0.00    -0.2722 OA
ATOM     19 N18  DES L   1      12.549  -5.658   1.882  1.00  0.00    -0.3256  N
ATOM     20 H46  DES L   1      13.323  -6.240   2.212  1.00  0.00    +0.1686 HD
BRANCH 17 21
ATOM     21 C13  DES L   1      13.285  -6.632  -0.246  1.00  0.00    +0.0752  C
ATOM     22 H41  DES L   1      13.588  -7.379   0.505  1.00  0.00    +0.0458  H
BRANCH 21 26
ATOM     23  C9  DES L   1      11.498  -8.742  -3.609  1.00  0.00    -0.0103  A
ATOM     24 C10  DES L   1      11.017  -8.957  -2.312  1.00  0.00    -0.0551  A
ATOM     25 C11  DES L   1      11.586  -8.292  -1.221  1.00  0.00    -0.0574  A
ATOM     26 C12  DES L   1      12.655  -7.404  -1.400  1.00  0.00    -0.0341  A
ATOM     27 C29  DES L   1      13.138  -7.198  -2.704  1.00  0.00    -0.0574  A
ATOM     28 C30  DES L   1      12.571  -7.864  -3.793  1.00  0.00    -0.0551  A
ATOM     29 H39  DES L   1      10.202  -9.659  -2.141  1.00  0.00    +0.0621  H
ATOM     30 H40  DES L   1      11.179  -8.495  -0.232  1.00  0.00    +0.0621  H
ATOM     31 H53  DES L   1      13.972  -6.522  -2.882  1.00  0.00    +0.0621  H
ATOM     32 H54  DES L   1      12.980  -7.701  -4.789  1.00  0.00    +0.0621  H
BRANCH 23 33
ATOM     33  C8  DES L   1      10.904  -9.489  -4.776  1.00  0.00    +0.1179  C
ATOM     34 H37  DES L   1      11.674  -9.790  -5.496  1.00  0.00    +0.0749  H
ATOM     35 H38  DES L   1      10.444 -10.419  -4.424  1.00  0.00    +0.0749  H
BRANCH 33 36
ATOM     36  O7  DES L   1       9.869  -8.697  -5.371  1.00  0.00    -0.4564 OA
BRANCH 36 37
ATOM     37  C5  DES L   1      10.110  -8.280  -6.638  1.00  0.00    +0.3398  C
ATOM     38  O6  DES L   1      11.125  -7.738  -7.042  1.00  0.00    -0.2449 OA
BRANCH 37 42
ATOM     39  C1  DES L   1       6.656  -9.163  -9.019  1.00  0.00    -0.0615  A
ATOM     40  C2  DES L   1       6.725  -9.593  -7.698  1.00  0.00    -0.0610  A
ATOM     41  C3  DES L   1       7.849  -9.294  -6.929  1.00  0.00    -0.0475  A
ATOM     42  C4  DES L   1       8.913  -8.556  -7.477  1.00  0.00    +0.0619  A
ATOM     43 C31  DES L   1       8.844  -8.110  -8.813  1.00  0.00    -0.0365  A
ATOM     44 C32  DES L   1       9.947  -7.315  -9.454  1.00  0.00    -0.0389  C
ATOM     45 C33  DES L   1       7.706  -8.430  -9.573  1.00  0.00    -0.0581  A
ATOM     46 H34  DES L   1       5.782  -9.398  -9.622  1.00  0.00    +0.0618  H
ATOM     47 H35  DES L   1       5.907 -10.165  -7.267  1.00  0.00    +0.0618  H
ATOM     48 H36  DES L   1       7.895  -9.648  -5.901  1.00  0.00    +0.0626  H
ATOM     49 H55  DES L   1      10.246  -6.479  -8.813  1.00  0.00    +0.0278  H
ATOM     50 H56  DES L   1      10.811  -7.957  -9.654  1.00  0.00    +0.0278  H
ATOM     51 H57  DES L   1       9.624  -6.883 -10.407  1.00  0.00    +0.0278  H
ATOM     52 H58  DES L   1       7.630  -8.104 -10.610  1.00  0.00    +0.0620  H
ENDBRANCH 37 42
ENDBRANCH 36 37
ENDBRANCH 33 36
ENDBRANCH 23 33
ENDBRANCH 21 26
BRANCH 21 53
ATOM     53 C14  DES L   1      14.587  -5.907  -0.661  1.00  0.00    +0.0085  C
ATOM     54 N15  DES L   1      14.618  -4.470  -0.322  1.00  0.00    -0.3289 NA
ATOM     55 H42  DES L   1      14.741  -6.007  -1.742  1.00  0.00    +0.0432  H
ATOM     56 H43  DES L   1      15.441  -6.386  -0.167  1.00  0.00    +0.0432  H
ATOM     57 H44  DES L   1      13.889  -4.001  -0.871  1.00  0.00    +0.1182 HD
ATOM     58 H45  DES L   1      15.495  -4.079  -0.674  1.00  0.00    +0.1182 HD
ENDBRANCH 21 53
ENDBRANCH 17 21
ENDBRANCH 1 19
TORSDOF 8
ENDMDL
MODEL 14
REMARK VINA RESULT:    -6.833      7.989     12.637
REMARK INTER + INTRA:         -11.155
REMARK INTER:                  -8.610
REMARK INTRA:                  -2.545
REMARK UNBOUND:                -1.127
ROOT
ATOM      1 C19  DES L   1      10.549  -8.368 -12.120  1.00  0.00    +0.0423  A
ATOM      2 C20  DES L   1      10.346  -7.801 -13.376  1.00  0.00    -0.0377  A
ATOM      3 C21  DES L   1      11.362  -7.064 -13.994  1.00  0.00    -0.0506  A
ATOM      4 C22  DES L   1      12.602  -6.884 -13.359  1.00  0.00    +0.0004  A
ATOM      5 C23  DES L   1      13.651  -6.158 -13.929  1.00  0.00    +0.0353  A
ATOM      6 N24  DES L   1      14.857  -5.966 -13.345  1.00  0.00    -0.2626 NA
ATOM      7 C25  DES L   1      15.033  -6.524 -12.132  1.00  0.00    +0.0281  A
ATOM      8 C26  DES L   1      14.063  -7.264 -11.473  1.00  0.00    -0.0358  A
ATOM      9 C27  DES L   1      12.820  -7.452 -12.091  1.00  0.00    -0.0131  A
ATOM     10 C28  DES L   1      11.788  -8.190 -11.484  1.00  0.00    -0.0305  A
ATOM     11 H47  DES L   1       9.406  -7.913 -13.908  1.00  0.00    +0.0638  H
ATOM     12 H48  DES L   1      11.176  -6.633 -14.975  1.00  0.00    +0.0625  H
ATOM     13 H49  DES L   1      13.547  -5.694 -14.907  1.00  0.00    +0.0836  H
ATOM     14 H50  DES L   1      16.008  -6.358 -11.682  1.00  0.00    +0.0830  H
ATOM     15 H51  DES L   1      14.278  -7.683 -10.495  1.00  0.00    +0.0639  H
ATOM     16 H52  DES L   1      11.956  -8.630 -10.503  1.00  0.00    +0.0644  H
ENDROOT
BRANCH 1 19
ATOM     17 C16  DES L   1       8.294  -8.759 -11.082  1.00  0.00    +0.2339  C
ATOM     18 O17  DES L   1       7.764  -7.676 -11.325  1.00  0.00    -0.2722 OA
ATOM     19 N18  DES L   1       9.582  -9.124 -11.431  1.00  0.00    -0.3256  N
ATOM     20 H46  DES L   1       9.859 -10.065 -11.138  1.00  0.00    +0.1686 HD
BRANCH 17 21
ATOM     21 C13  DES L   1       7.499  -9.867 -10.370  1.00  0.00    +0.0752  C
ATOM     22 H41  DES L   1       7.838 -10.788 -10.871  1.00  0.00    +0.0458  H
BRANCH 21 26
ATOM     23  C9  DES L   1       8.540 -10.242  -6.159  1.00  0.00    -0.0103  A
ATOM     24 C10  DES L   1       8.187 -11.378  -6.897  1.00  0.00    -0.0551  A
ATOM     25 C11  DES L   1       7.843 -11.273  -8.248  1.00  0.00    -0.0574  A
ATOM     26 C12  DES L   1       7.834 -10.027  -8.891  1.00  0.00    -0.0341  A
ATOM     27 C29  DES L   1       8.184  -8.890  -8.143  1.00  0.00    -0.0574  A
ATOM     28 C30  DES L   1       8.525  -8.995  -6.792  1.00  0.00    -0.0551  A
ATOM     29 H39  DES L   1       8.162 -12.356  -6.417  1.00  0.00    +0.0621  H
ATOM     30 H40  DES L   1       7.572 -12.184  -8.778  1.00  0.00    +0.0621  H
ATOM     31 H53  DES L   1       8.181  -7.905  -8.605  1.00  0.00    +0.0621  H
ATOM     32 H54  DES L   1       8.770  -8.095  -6.233  1.00  0.00    +0.0621  H
BRANCH 23 33
ATOM     33  C8  DES L   1       8.876 -10.358  -4.694  1.00  0.00    +0.1179  C
ATOM     34 H37  DES L   1       7.972 -10.361  -4.073  1.00  0.00    +0.0749  H
ATOM     35 H38  DES L   1       9.372 -11.317  -4.504  1.00  0.00    +0.0749  H
BRANCH 33 36
ATOM     36  O7  DES L   1       9.794  -9.321  -4.332  1.00  0.00    -0.4564 OA
BRANCH 36 37
ATOM     37  C5  DES L   1      11.102  -9.679  -4.319  1.00  0.00    +0.3398  C
ATOM     38  O6  DES L   1      11.685 -10.260  -3.419  1.00  0.00    -0.2449 OA
BRANCH 37 42
ATOM     39  C1  DES L   1      12.895  -8.279  -7.952  1.00  0.00    -0.0615  A
ATOM     40  C2  DES L   1      12.525  -7.377  -6.960  1.00  0.00    -0.0610  A
ATOM     41  C3  DES L   1      11.950  -7.843  -5.778  1.00  0.00    -0.0475  A
ATOM     42  C4  DES L   1      11.745  -9.219  -5.579  1.00  0.00    +0.0619  A
ATOM     43 C31  DES L   1      12.127 -10.138  -6.577  1.00  0.00    -0.0365  A
ATOM     44 C32  DES L   1      11.937 -11.622  -6.422  1.00  0.00    -0.0389  C
ATOM     45 C33  DES L   1      12.696  -9.647  -7.765  1.00  0.00    -0.0581  A
ATOM     46 H34  DES L   1      13.341  -7.918  -8.877  1.00  0.00    +0.0618  H
ATOM     47 H35  DES L   1      12.679  -6.311  -7.107  1.00  0.00    +0.0618  H
ATOM     48 H36  DES L   1      11.654  -7.124  -5.017  1.00  0.00    +0.0626  H
ATOM     49 H55  DES L   1      12.322 -11.962  -5.455  1.00  0.00    +0.0278  H
ATOM     50 H56  DES L   1      10.876 -11.880  -6.510  1.00  0.00    +0.0278  H
ATOM     51 H57  DES L   1      12.481 -12.176  -7.193  1.00  0.00    +0.0278  H
ATOM     52 H58  DES L   1      12.994 -10.334  -8.556  1.00  0.00    +0.0620  H
ENDBRANCH 37 42
ENDBRANCH 36 37
ENDBRANCH 33 36
ENDBRANCH 23 33
ENDBRANCH 21 26
BRANCH 21 53
ATOM     53 C14  DES L   1       5.975  -9.792 -10.625  1.00  0.00    +0.0085  C
ATOM     54 N15  DES L   1       5.276  -8.761  -9.833  1.00  0.00    -0.3289 NA
ATOM     55 H42  DES L   1       5.513 -10.762 -10.409  1.00  0.00    +0.0432  H
ATOM     56 H43  DES L   1       5.796  -9.578 -11.686  1.00  0.00    +0.0432  H
ATOM     57 H44  DES L   1       5.347  -9.022  -8.843  1.00  0.00    +0.1182 HD
ATOM     58 H45  DES L   1       4.276  -8.822 -10.042  1.00  0.00    +0.1182 HD
ENDBRANCH 21 53
ENDBRANCH 17 21
ENDBRANCH 1 19
TORSDOF 8
ENDMDL
MODEL 15
REMARK VINA RESULT:    -6.814      2.893      9.926
REMARK INTER + INTRA:         -11.128
REMARK INTER:                  -9.629
REMARK INTRA:                  -1.499
REMARK UNBOUND:                -1.127
ROOT
ATOM      1 C19  DES L   1      11.663  -8.101  -5.253  1.00  0.00    +0.0423  A
ATOM      2 C20  DES L   1      11.908  -7.326  -6.385  1.00  0.00    -0.0377  A
ATOM      3 C21  DES L   1      11.004  -7.325  -7.453  1.00  0.00    -0.0506  A
ATOM      4 C22  DES L   1       9.837  -8.105  -7.402  1.00  0.00    +0.0004  A
ATOM      5 C23  DES L   1       8.901  -8.142  -8.439  1.00  0.00    +0.0353  A
ATOM      6 N24  DES L   1       7.767  -8.882  -8.422  1.00  0.00    -0.2626 NA
ATOM      7 C25  DES L   1       7.549  -9.623  -7.318  1.00  0.00    +0.0281  A
ATOM      8 C26  DES L   1       8.409  -9.662  -6.230  1.00  0.00    -0.0358  A
ATOM      9 C27  DES L   1       9.578  -8.891  -6.265  1.00  0.00    -0.0131  A
ATOM     10 C28  DES L   1      10.497  -8.880  -5.200  1.00  0.00    -0.0305  A
ATOM     11 H47  DES L   1      12.794  -6.705  -6.471  1.00  0.00    +0.0638  H
ATOM     12 H48  DES L   1      11.220  -6.710  -8.323  1.00  0.00    +0.0625  H
ATOM     13 H49  DES L   1       9.042  -7.557  -9.344  1.00  0.00    +0.0836  H
ATOM     14 H50  DES L   1       6.633 -10.208  -7.326  1.00  0.00    +0.0830  H
ATOM     15 H51  DES L   1       8.166 -10.284  -5.375  1.00  0.00    +0.0639  H
ATOM     16 H52  DES L   1      10.297  -9.488  -4.321  1.00  0.00    +0.0644  H
ENDROOT
BRANCH 1 19
ATOM     17 C16  DES L   1      12.239  -7.821  -2.823  1.00  0.00    +0.2339  C
ATOM     18 O17  DES L   1      11.162  -7.402  -2.402  1.00  0.00    -0.2722 OA
ATOM     19 N18  DES L   1      12.518  -8.157  -4.136  1.00  0.00    -0.3256  N
ATOM     20 H46  DES L   1      13.474  -8.479  -4.306  1.00  0.00    +0.1686 HD
BRANCH 17 21
ATOM     21 C13  DES L   1      13.411  -8.056  -1.854  1.00  0.00    +0.0752  C
ATOM     22 H41  DES L   1      14.255  -8.287  -2.524  1.00  0.00    +0.0458  H
BRANCH 21 26
ATOM     23  C9  DES L   1      14.565  -4.605   0.537  1.00  0.00    -0.0103  A
ATOM     24 C10  DES L   1      13.680  -4.449  -0.536  1.00  0.00    -0.0551  A
ATOM     25 C11  DES L   1      13.306  -5.546  -1.318  1.00  0.00    -0.0574  A
ATOM     26 C12  DES L   1      13.816  -6.825  -1.051  1.00  0.00    -0.0341  A
ATOM     27 C29  DES L   1      14.709  -6.973   0.024  1.00  0.00    -0.0574  A
ATOM     28 C30  DES L   1      15.084  -5.876   0.803  1.00  0.00    -0.0551  A
ATOM     29 H39  DES L   1      13.286  -3.463  -0.780  1.00  0.00    +0.0621  H
ATOM     30 H40  DES L   1      12.618  -5.374  -2.143  1.00  0.00    +0.0621  H
ATOM     31 H53  DES L   1      15.132  -7.948   0.257  1.00  0.00    +0.0621  H
ATOM     32 H54  DES L   1      15.795  -6.018   1.616  1.00  0.00    +0.0621  H
BRANCH 23 33
ATOM     33  C8  DES L   1      14.991  -3.412   1.354  1.00  0.00    +0.1179  C
ATOM     34 H37  DES L   1      15.855  -3.646   1.988  1.00  0.00    +0.0749  H
ATOM     35 H38  DES L   1      15.319  -2.606   0.688  1.00  0.00    +0.0749  H
BRANCH 33 36
ATOM     36  O7  DES L   1      13.873  -2.921   2.101  1.00  0.00    -0.4564 OA
BRANCH 36 37
ATOM     37  C5  DES L   1      13.688  -3.492   3.317  1.00  0.00    +0.3398  C
ATOM     38  O6  DES L   1      14.543  -4.029   4.002  1.00  0.00    -0.2449 OA
BRANCH 37 42
ATOM     39  C1  DES L   1       9.570  -3.186   4.469  1.00  0.00    -0.0615  A
ATOM     40  C2  DES L   1      10.475  -2.192   4.829  1.00  0.00    -0.0610  A
ATOM     41  C3  DES L   1      11.811  -2.296   4.442  1.00  0.00    -0.0475  A
ATOM     42  C4  DES L   1      12.250  -3.397   3.687  1.00  0.00    +0.0619  A
ATOM     43 C31  DES L   1      11.336  -4.403   3.312  1.00  0.00    -0.0365  A
ATOM     44 C32  DES L   1      11.745  -5.602   2.502  1.00  0.00    -0.0389  C
ATOM     45 C33  DES L   1       9.997  -4.283   3.719  1.00  0.00    -0.0581  A
ATOM     46 H34  DES L   1       8.528  -3.108   4.772  1.00  0.00    +0.0618  H
ATOM     47 H35  DES L   1      10.142  -1.338   5.413  1.00  0.00    +0.0618  H
ATOM     48 H36  DES L   1      12.509  -1.518   4.742  1.00  0.00    +0.0626  H
ATOM     49 H55  DES L   1      12.323  -5.297   1.623  1.00  0.00    +0.0278  H
ATOM     50 H56  DES L   1      12.337  -6.290   3.115  1.00  0.00    +0.0278  H
ATOM     51 H57  DES L   1      10.872  -6.150   2.133  1.00  0.00    +0.0278  H
ATOM     52 H58  DES L   1       9.271  -5.049   3.450  1.00  0.00    +0.0620  H
ENDBRANCH 37 42
ENDBRANCH 36 37
ENDBRANCH 33 36
ENDBRANCH 23 33
ENDBRANCH 21 26
BRANCH 21 53
ATOM     53 C14  DES L   1      13.231  -9.309  -0.964  1.00  0.00    +0.0085  C
ATOM     54 N15  DES L   1      11.860  -9.498  -0.452  1.00  0.00    -0.3289 NA
ATOM     55 H42  DES L   1      13.913  -9.258  -0.107  1.00  0.00    +0.0432  H
ATOM     56 H43  DES L   1      13.501 -10.202  -1.539  1.00  0.00    +0.0432  H
ATOM     57 H44  DES L   1      11.647  -8.717   0.178  1.00  0.00    +0.1182 HD
ATOM     58 H45  DES L   1      11.857 -10.323   0.154  1.00  0.00    +0.1182 HD
ENDBRANCH 21 53
ENDBRANCH 17 21
ENDBRANCH 1 19
TORSDOF 8
ENDMDL
MODEL 16
REMARK VINA RESULT:    -6.805      8.730     13.492
REMARK INTER + INTRA:         -11.115
REMARK INTER:                  -8.716
REMARK INTRA:                  -2.399
REMARK UNBOUND:                -1.127
ROOT
ATOM      1 C19  DES L   1       8.884  -9.820 -12.310  1.00  0.00    +0.0423  A
ATOM      2 C20  DES L   1       9.482 -10.878 -12.991  1.00  0.00    -0.0377  A
ATOM      3 C21  DES L   1      10.568 -10.650 -13.843  1.00  0.00    -0.0506  A
ATOM      4 C22  DES L   1      11.073  -9.351 -14.024  1.00  0.00    +0.0004  A
ATOM      5 C23  DES L   1      12.155  -9.066 -14.861  1.00  0.00    +0.0353  A
ATOM      6 N24  DES L   1      12.666  -7.828 -15.058  1.00  0.00    -0.2626 NA
ATOM      7 C25  DES L   1      12.074  -6.820 -14.388  1.00  0.00    +0.0281  A
ATOM      8 C26  DES L   1      10.997  -6.988 -13.532  1.00  0.00    -0.0358  A
ATOM      9 C27  DES L   1      10.479  -8.275 -13.342  1.00  0.00    -0.0131  A
ATOM     10 C28  DES L   1       9.388  -8.523 -12.489  1.00  0.00    -0.0305  A
ATOM     11 H47  DES L   1       9.129 -11.899 -12.883  1.00  0.00    +0.0638  H
ATOM     12 H48  DES L   1      11.016 -11.494 -14.361  1.00  0.00    +0.0625  H
ATOM     13 H49  DES L   1      12.658  -9.853 -15.417  1.00  0.00    +0.0836  H
ATOM     14 H50  DES L   1      12.502  -5.836 -14.561  1.00  0.00    +0.0830  H
ATOM     15 H51  DES L   1      10.572  -6.126 -13.027  1.00  0.00    +0.0639  H
ATOM     16 H52  DES L   1       8.928  -7.690 -11.960  1.00  0.00    +0.0644  H
ENDROOT
BRANCH 1 19
ATOM     17 C16  DES L   1       6.708 -10.818 -11.545  1.00  0.00    +0.2339  C
ATOM     18 O17  DES L   1       6.516 -11.620 -12.458  1.00  0.00    -0.2722 OA
ATOM     19 N18  DES L   1       7.791  -9.964 -11.435  1.00  0.00    -0.3256  N
ATOM     20 H46  DES L   1       7.780  -9.357 -10.610  1.00  0.00    +0.1686 HD
BRANCH 17 21
ATOM     21 C13  DES L   1       5.721 -10.735 -10.367  1.00  0.00    +0.0752  C
ATOM     22 H41  DES L   1       5.192 -11.701 -10.408  1.00  0.00    +0.0458  H
BRANCH 21 26
ATOM     23  C9  DES L   1       7.650 -10.408  -6.478  1.00  0.00    -0.0103  A
ATOM     24 C10  DES L   1       7.720 -11.608  -7.196  1.00  0.00    -0.0551  A
ATOM     25 C11  DES L   1       7.099 -11.731  -8.443  1.00  0.00    -0.0574  A
ATOM     26 C12  DES L   1       6.385 -10.659  -8.997  1.00  0.00    -0.0341  A
ATOM     27 C29  DES L   1       6.314  -9.460  -8.269  1.00  0.00    -0.0574  A
ATOM     28 C30  DES L   1       6.932  -9.338  -7.022  1.00  0.00    -0.0551  A
ATOM     29 H39  DES L   1       8.249 -12.464  -6.779  1.00  0.00    +0.0621  H
ATOM     30 H40  DES L   1       7.178 -12.685  -8.960  1.00  0.00    +0.0621  H
ATOM     31 H53  DES L   1       5.762  -8.608  -8.663  1.00  0.00    +0.0621  H
ATOM     32 H54  DES L   1       6.842  -8.404  -6.471  1.00  0.00    +0.0621  H
BRANCH 23 33
ATOM     33  C8  DES L   1       8.292 -10.294  -5.119  1.00  0.00    +0.1179  C
ATOM     34 H37  DES L   1       7.542 -10.278  -4.319  1.00  0.00    +0.0749  H
ATOM     35 H38  DES L   1       8.914 -11.176  -4.929  1.00  0.00    +0.0749  H
BRANCH 33 36
ATOM     36  O7  DES L   1       9.154  -9.151  -5.093  1.00  0.00    -0.4564 OA
BRANCH 36 37
ATOM     37  C5  DES L   1      10.393  -9.343  -5.609  1.00  0.00    +0.3398  C
ATOM     38  O6  DES L   1      11.307  -9.958  -5.086  1.00  0.00    -0.2449 OA
BRANCH 37 42
ATOM     39  C1  DES L   1      10.592  -7.287  -9.366  1.00  0.00    -0.0615  A
ATOM     40  C2  DES L   1      10.298  -6.589  -8.199  1.00  0.00    -0.0610  A
ATOM     41  C3  DES L   1      10.244  -7.265  -6.980  1.00  0.00    -0.0475  A
ATOM     42  C4  DES L   1      10.488  -8.648  -6.921  1.00  0.00    +0.0619  A
ATOM     43 C31  DES L   1      10.795  -9.359  -8.098  1.00  0.00    -0.0365  A
ATOM     44 C32  DES L   1      11.069 -10.838  -8.098  1.00  0.00    -0.0389  C
ATOM     45 C33  DES L   1      10.835  -8.661  -9.317  1.00  0.00    -0.0581  A
ATOM     46 H34  DES L   1      10.631  -6.763 -10.318  1.00  0.00    +0.0618  H
ATOM     47 H35  DES L   1      10.107  -5.519  -8.237  1.00  0.00    +0.0618  H
ATOM     48 H36  DES L   1      10.001  -6.707  -6.078  1.00  0.00    +0.0626  H
ATOM     49 H55  DES L   1      11.798 -11.096  -7.324  1.00  0.00    +0.0278  H
ATOM     50 H56  DES L   1      10.141 -11.396  -7.936  1.00  0.00    +0.0278  H
ATOM     51 H57  DES L   1      11.492 -11.164  -9.054  1.00  0.00    +0.0278  H
ATOM     52 H58  DES L   1      11.062  -9.186 -10.243  1.00  0.00    +0.0620  H
ENDBRANCH 37 42
ENDBRANCH 36 37
ENDBRANCH 33 36
ENDBRANCH 23 33
ENDBRANCH 21 26
BRANCH 21 53
ATOM     53 C14  DES L   1       4.630  -9.655 -10.555  1.00  0.00    +0.0085  C
ATOM     54 N15  DES L   1       3.249 -10.177 -10.537  1.00  0.00    -0.3289 NA
ATOM     55 H42  DES L   1       4.784  -9.130 -11.505  1.00  0.00    +0.0432  H
ATOM     56 H43  DES L   1       4.717  -8.909  -9.757  1.00  0.00    +0.0432  H
ATOM     57 H44  DES L   1       3.132 -10.789 -11.351  1.00  0.00    +0.1182 HD
ATOM     58 H45  DES L   1       2.610  -9.396 -10.711  1.00  0.00    +0.1182 HD
ENDBRANCH 21 53
ENDBRANCH 17 21
ENDBRANCH 1 19
TORSDOF 8
ENDMDL
MODEL 17
REMARK VINA RESULT:    -6.795      3.559     10.595
REMARK INTER + INTRA:         -11.100
REMARK INTER:                 -10.129
REMARK INTRA:                  -0.971
REMARK UNBOUND:                -1.127
ROOT
ATOM      1 C19  DES L   1       9.526  -9.053  -6.124  1.00  0.00    +0.0423  A
ATOM      2 C20  DES L   1       8.323  -9.577  -5.656  1.00  0.00    -0.0377  A
ATOM      3 C21  DES L   1       7.208  -9.655  -6.498  1.00  0.00    -0.0506  A
ATOM      4 C22  DES L   1       7.284  -9.207  -7.827  1.00  0.00    +0.0004  A
ATOM      5 C23  DES L   1       6.203  -9.260  -8.711  1.00  0.00    +0.0353  A
ATOM      6 N24  DES L   1       6.241  -8.838  -9.997  1.00  0.00    -0.2626 NA
ATOM      7 C25  DES L   1       7.415  -8.336 -10.429  1.00  0.00    +0.0281  A
ATOM      8 C26  DES L   1       8.551  -8.236  -9.640  1.00  0.00    -0.0358  A
ATOM      9 C27  DES L   1       8.492  -8.676  -8.312  1.00  0.00    -0.0131  A
ATOM     10 C28  DES L   1       9.604  -8.606  -7.452  1.00  0.00    -0.0305  A
ATOM     11 H47  DES L   1       8.215  -9.939  -4.638  1.00  0.00    +0.0638  H
ATOM     12 H48  DES L   1       6.282 -10.069  -6.106  1.00  0.00    +0.0625  H
ATOM     13 H49  DES L   1       5.241  -9.659  -8.398  1.00  0.00    +0.0836  H
ATOM     14 H50  DES L   1       7.423  -8.004 -11.463  1.00  0.00    +0.0830  H
ATOM     15 H51  DES L   1       9.461  -7.819 -10.060  1.00  0.00    +0.0639  H
ATOM     16 H52  DES L   1      10.539  -8.196  -7.827  1.00  0.00    +0.0644  H
ENDROOT
BRANCH 1 19
ATOM     17 C16  DES L   1      11.192  -9.833  -4.412  1.00  0.00    +0.2339  C
ATOM     18 O17  DES L   1      10.679 -10.906  -4.098  1.00  0.00    -0.2722 OA
ATOM     19 N18  DES L   1      10.693  -8.942  -5.345  1.00  0.00    -0.3256  N
ATOM     20 H46  DES L   1      11.250  -8.092  -5.471  1.00  0.00    +0.1686 HD
BRANCH 17 21
ATOM     21 C13  DES L   1      12.528  -9.400  -3.783  1.00  0.00    +0.0752  C
ATOM     22 H41  DES L   1      13.073  -8.946  -4.626  1.00  0.00    +0.0458  H
BRANCH 21 26
ATOM     23  C9  DES L   1      12.039  -6.311  -0.754  1.00  0.00    -0.0103  A
ATOM     24 C10  DES L   1      13.165  -6.305  -1.585  1.00  0.00    -0.0551  A
ATOM     25 C11  DES L   1      13.340  -7.295  -2.558  1.00  0.00    -0.0574  A
ATOM     26 C12  DES L   1      12.397  -8.320  -2.715  1.00  0.00    -0.0341  A
ATOM     27 C29  DES L   1      11.272  -8.324  -1.873  1.00  0.00    -0.0574  A
ATOM     28 C30  DES L   1      11.099  -7.336  -0.900  1.00  0.00    -0.0551  A
ATOM     29 H39  DES L   1      13.925  -5.533  -1.470  1.00  0.00    +0.0621  H
ATOM     30 H40  DES L   1      14.234  -7.249  -3.177  1.00  0.00    +0.0621  H
ATOM     31 H53  DES L   1      10.522  -9.108  -1.960  1.00  0.00    +0.0621  H
ATOM     32 H54  DES L   1      10.229  -7.378  -0.248  1.00  0.00    +0.0621  H
BRANCH 23 33
ATOM     33  C8  DES L   1      11.874  -5.261   0.315  1.00  0.00    +0.1179  C
ATOM     34 H37  DES L   1      12.842  -4.944   0.720  1.00  0.00    +0.0749  H
ATOM     35 H38  DES L   1      11.421  -4.362  -0.117  1.00  0.00    +0.0749  H
BRANCH 33 36
ATOM     36  O7  DES L   1      10.983  -5.746   1.325  1.00  0.00    -0.4564 OA
BRANCH 36 37
ATOM     37  C5  DES L   1      11.505  -5.826   2.574  1.00  0.00    +0.3398  C
ATOM     38  O6  DES L   1      12.193  -6.733   3.014  1.00  0.00    -0.2449 OA
BRANCH 37 42
ATOM     39  C1  DES L   1      10.194  -2.397   4.787  1.00  0.00    -0.0615  A
ATOM     40  C2  DES L   1       9.313  -3.442   4.527  1.00  0.00    -0.0610  A
ATOM     41  C3  DES L   1       9.752  -4.558   3.814  1.00  0.00    -0.0475  A
ATOM     42  C4  DES L   1      11.079  -4.636   3.358  1.00  0.00    +0.0619  A
ATOM     43 C31  DES L   1      11.978  -3.584   3.626  1.00  0.00    -0.0365  A
ATOM     44 C32  DES L   1      13.410  -3.611   3.169  1.00  0.00    -0.0389  C
ATOM     45 C33  DES L   1      11.514  -2.465   4.339  1.00  0.00    -0.0581  A
ATOM     46 H34  DES L   1       9.853  -1.524   5.340  1.00  0.00    +0.0618  H
ATOM     47 H35  DES L   1       8.285  -3.388   4.875  1.00  0.00    +0.0618  H
ATOM     48 H36  DES L   1       9.049  -5.361   3.607  1.00  0.00    +0.0626  H
ATOM     49 H55  DES L   1      13.883  -4.562   3.434  1.00  0.00    +0.0278  H
ATOM     50 H56  DES L   1      13.466  -3.458   2.086  1.00  0.00    +0.0278  H
ATOM     51 H57  DES L   1      13.997  -2.821   3.649  1.00  0.00    +0.0278  H
ATOM     52 H58  DES L   1      12.185  -1.635   4.554  1.00  0.00    +0.0620  H
ENDBRANCH 37 42
ENDBRANCH 36 37
ENDBRANCH 33 36
ENDBRANCH 23 33
ENDBRANCH 21 26
BRANCH 21 53
ATOM     53 C14  DES L   1      13.401 -10.589  -3.316  1.00  0.00    +0.0085  C
ATOM     54 N15  DES L   1      12.834 -11.354  -2.188  1.00  0.00    -0.3289 NA
ATOM     55 H42  DES L   1      14.394 -10.229  -3.021  1.00  0.00    +0.0432  H
ATOM     56 H43  DES L   1      13.545 -11.283  -4.153  1.00  0.00    +0.0432  H
ATOM     57 H44  DES L   1      12.804 -10.735  -1.371  1.00  0.00    +0.1182 HD
ATOM     58 H45  DES L   1      13.503 -12.085  -1.931  1.00  0.00    +0.1182 HD
ENDBRANCH 21 53
ENDBRANCH 17 21
ENDBRANCH 1 19
TORSDOF 8
ENDMDL
MODEL 18
REMARK VINA RESULT:    -6.757      2.985      5.587
REMARK INTER + INTRA:         -11.044
REMARK INTER:                  -9.298
REMARK INTRA:                  -1.745
REMARK UNBOUND:                -1.127
ROOT
ATOM      1 C19  DES L   1      12.469  -6.145  -0.774  1.00  0.00    +0.0423  A
ATOM      2 C20  DES L   1      13.400  -5.191  -1.177  1.00  0.00    -0.0377  A
ATOM      3 C21  DES L   1      13.977  -4.324  -0.242  1.00  0.00    -0.0506  A
ATOM      4 C22  DES L   1      13.626  -4.401   1.116  1.00  0.00    +0.0004  A
ATOM      5 C23  DES L   1      14.169  -3.561   2.091  1.00  0.00    +0.0353  A
ATOM      6 N24  DES L   1      13.854  -3.609   3.407  1.00  0.00    -0.2626 NA
ATOM      7 C25  DES L   1      12.952  -4.540   3.775  1.00  0.00    +0.0281  A
ATOM      8 C26  DES L   1      12.350  -5.425   2.893  1.00  0.00    -0.0358  A
ATOM      9 C27  DES L   1      12.687  -5.360   1.535  1.00  0.00    -0.0131  A
ATOM     10 C28  DES L   1      12.118  -6.225   0.582  1.00  0.00    -0.0305  A
ATOM     11 H47  DES L   1      13.706  -5.093  -2.214  1.00  0.00    +0.0638  H
ATOM     12 H48  DES L   1      14.702  -3.589  -0.585  1.00  0.00    +0.0625  H
ATOM     13 H49  DES L   1      14.900  -2.799   1.832  1.00  0.00    +0.0836  H
ATOM     14 H50  DES L   1      12.715  -4.561   4.835  1.00  0.00    +0.0830  H
ATOM     15 H51  DES L   1      11.631  -6.149   3.265  1.00  0.00    +0.0639  H
ATOM     16 H52  DES L   1      11.392  -6.967   0.907  1.00  0.00    +0.0644  H
ENDROOT
BRANCH 1 19
ATOM     17 C16  DES L   1      12.404  -8.137  -2.306  1.00  0.00    +0.2339  C
ATOM     18 O17  DES L   1      13.580  -8.492  -2.233  1.00  0.00    -0.2722 OA
ATOM     19 N18  DES L   1      11.845  -7.055  -1.648  1.00  0.00    -0.3256  N
ATOM     20 H46  DES L   1      10.850  -6.903  -1.835  1.00  0.00    +0.1686 HD
BRANCH 17 21
ATOM     21 C13  DES L   1      11.402  -8.944  -3.149  1.00  0.00    +0.0752  C
ATOM     22 H41  DES L   1      10.448  -8.417  -2.988  1.00  0.00    +0.0458  H
BRANCH 21 26
ATOM     23  C9  DES L   1      12.128  -8.732  -7.437  1.00  0.00    -0.0103  A
ATOM     24 C10  DES L   1      11.747  -9.944  -6.850  1.00  0.00    -0.0551  A
ATOM     25 C11  DES L   1      11.517 -10.030  -5.474  1.00  0.00    -0.0574  A
ATOM     26 C12  DES L   1      11.673  -8.907  -4.649  1.00  0.00    -0.0341  A
ATOM     27 C29  DES L   1      12.062  -7.695  -5.244  1.00  0.00    -0.0574  A
ATOM     28 C30  DES L   1      12.294  -7.610  -6.619  1.00  0.00    -0.0551  A
ATOM     29 H39  DES L   1      11.640 -10.839  -7.463  1.00  0.00    +0.0621  H
ATOM     30 H40  DES L   1      11.227 -10.995  -5.064  1.00  0.00    +0.0621  H
ATOM     31 H53  DES L   1      12.201  -6.803  -4.635  1.00  0.00    +0.0621  H
ATOM     32 H54  DES L   1      12.615  -6.663  -7.048  1.00  0.00    +0.0621  H
BRANCH 23 33
ATOM     33  C8  DES L   1      12.407  -8.655  -8.916  1.00  0.00    +0.1179  C
ATOM     34 H37  DES L   1      12.950  -7.739  -9.176  1.00  0.00    +0.0749  H
ATOM     35 H38  DES L   1      13.060  -9.484  -9.212  1.00  0.00    +0.0749  H
BRANCH 33 36
ATOM     36  O7  DES L   1      11.181  -8.797  -9.641  1.00  0.00    -0.4564 OA
BRANCH 36 37
ATOM     37  C5  DES L   1      10.322  -7.752  -9.543  1.00  0.00    +0.3398  C
ATOM     38  O6  DES L   1      10.608  -6.569  -9.629  1.00  0.00    -0.2449 OA
BRANCH 37 42
ATOM     39  C1  DES L   1       6.415  -9.302  -8.702  1.00  0.00    -0.0615  A
ATOM     40  C2  DES L   1       7.307  -9.052  -7.665  1.00  0.00    -0.0610  A
ATOM     41  C3  DES L   1       8.573  -8.539  -7.948  1.00  0.00    -0.0475  A
ATOM     42  C4  DES L   1       8.953  -8.270  -9.274  1.00  0.00    +0.0619  A
ATOM     43 C31  DES L   1       8.050  -8.514 -10.328  1.00  0.00    -0.0365  A
ATOM     44 C32  DES L   1       8.397  -8.243 -11.766  1.00  0.00    -0.0389  C
ATOM     45 C33  DES L   1       6.782  -9.039 -10.022  1.00  0.00    -0.0581  A
ATOM     46 H34  DES L   1       5.428  -9.706  -8.484  1.00  0.00    +0.0618  H
ATOM     47 H35  DES L   1       7.021  -9.258  -6.637  1.00  0.00    +0.0618  H
ATOM     48 H36  DES L   1       9.265  -8.360  -7.128  1.00  0.00    +0.0626  H
ATOM     49 H55  DES L   1       8.817  -7.239 -11.880  1.00  0.00    +0.0278  H
ATOM     50 H56  DES L   1       9.111  -8.988 -12.131  1.00  0.00    +0.0278  H
ATOM     51 H57  DES L   1       7.509  -8.290 -12.405  1.00  0.00    +0.0278  H
ATOM     52 H58  DES L   1       6.067  -9.244 -10.817  1.00  0.00    +0.0620  H
ENDBRANCH 37 42
ENDBRANCH 36 37
ENDBRANCH 33 36
ENDBRANCH 23 33
ENDBRANCH 21 26
BRANCH 21 53
ATOM     53 C14  DES L   1      11.176 -10.382  -2.625  1.00  0.00    +0.0085  C
ATOM     54 N15  DES L   1      11.192 -10.502  -1.154  1.00  0.00    -0.3289 NA
ATOM     55 H42  DES L   1      11.942 -11.052  -3.032  1.00  0.00    +0.0432  H
ATOM     56 H43  DES L   1      10.205 -10.748  -2.981  1.00  0.00    +0.0432  H
ATOM     57 H44  DES L   1      12.136 -10.267  -0.829  1.00  0.00    +0.1182 HD
ATOM     58 H45  DES L   1      11.077 -11.490  -0.914  1.00  0.00    +0.1182 HD
ENDBRANCH 21 53
ENDBRANCH 17 21
ENDBRANCH 1 19
TORSDOF 8
ENDMDL
MODEL 19
REMARK VINA RESULT:    -6.697      3.224      6.189
REMARK INTER + INTRA:         -10.956
REMARK INTER:                  -9.146
REMARK INTRA:                  -1.810
REMARK UNBOUND:                -1.127
ROOT
ATOM      1 C19  DES L   1      11.552  -6.800  -0.933  1.00  0.00    +0.0423  A
ATOM      2 C20  DES L   1      10.886  -6.661   0.283  1.00  0.00    -0.0377  A
ATOM      3 C21  DES L   1      11.393  -5.819   1.278  1.00  0.00    -0.0506  A
ATOM      4 C22  DES L   1      12.582  -5.100   1.068  1.00  0.00    +0.0004  A
ATOM      5 C23  DES L   1      13.134  -4.246   2.026  1.00  0.00    +0.0353  A
ATOM      6 N24  DES L   1      14.276  -3.539   1.856  1.00  0.00    -0.2626 NA
ATOM      7 C25  DES L   1      14.903  -3.687   0.673  1.00  0.00    +0.0281  A
ATOM      8 C26  DES L   1      14.446  -4.505  -0.348  1.00  0.00    -0.0358  A
ATOM      9 C27  DES L   1      13.264  -5.231  -0.155  1.00  0.00    -0.0131  A
ATOM     10 C28  DES L   1      12.739  -6.081  -1.145  1.00  0.00    -0.0305  A
ATOM     11 H47  DES L   1       9.963  -7.194   0.492  1.00  0.00    +0.0638  H
ATOM     12 H48  DES L   1      10.852  -5.730   2.217  1.00  0.00    +0.0625  H
ATOM     13 H49  DES L   1      12.656  -4.101   2.992  1.00  0.00    +0.0836  H
ATOM     14 H50  DES L   1      15.817  -3.110   0.559  1.00  0.00    +0.0830  H
ATOM     15 H51  DES L   1      15.007  -4.573  -1.275  1.00  0.00    +0.0639  H
ATOM     16 H52  DES L   1      13.266  -6.182  -2.091  1.00  0.00    +0.0644  H
ENDROOT
BRANCH 1 19
ATOM     17 C16  DES L   1      11.630  -8.832  -2.409  1.00  0.00    +0.2339  C
ATOM     18 O17  DES L   1      12.600  -9.407  -1.918  1.00  0.00    -0.2722 OA
ATOM     19 N18  DES L   1      11.109  -7.622  -1.986  1.00  0.00    -0.3256  N
ATOM     20 H46  DES L   1      10.302  -7.289  -2.520  1.00  0.00    +0.1686 HD
BRANCH 17 21
ATOM     21 C13  DES L   1      10.853  -9.478  -3.569  1.00  0.00    +0.0752  C
ATOM     22 H41  DES L   1       9.799  -9.288  -3.309  1.00  0.00    +0.0458  H
BRANCH 21 26
ATOM     23  C9  DES L   1      11.603  -7.524  -7.388  1.00  0.00    -0.0103  A
ATOM     24 C10  DES L   1      10.341  -8.065  -7.113  1.00  0.00    -0.0551  A
ATOM     25 C11  DES L   1      10.087  -8.702  -5.895  1.00  0.00    -0.0574  A
ATOM     26 C12  DES L   1      11.092  -8.822  -4.925  1.00  0.00    -0.0341  A
ATOM     27 C29  DES L   1      12.358  -8.283  -5.209  1.00  0.00    -0.0574  A
ATOM     28 C30  DES L   1      12.612  -7.649  -6.428  1.00  0.00    -0.0551  A
ATOM     29 H39  DES L   1       9.547  -8.007  -7.858  1.00  0.00    +0.0621  H
ATOM     30 H40  DES L   1       9.092  -9.110  -5.730  1.00  0.00    +0.0621  H
ATOM     31 H53  DES L   1      13.166  -8.363  -4.484  1.00  0.00    +0.0621  H
ATOM     32 H54  DES L   1      13.608  -7.260  -6.628  1.00  0.00    +0.0621  H
BRANCH 23 33
ATOM     33  C8  DES L   1      11.879  -6.870  -8.717  1.00  0.00    +0.1179  C
ATOM     34 H37  DES L   1      12.367  -5.896  -8.593  1.00  0.00    +0.0749  H
ATOM     35 H38  DES L   1      12.581  -7.484  -9.292  1.00  0.00    +0.0749  H
BRANCH 33 36
ATOM     36  O7  DES L   1      10.665  -6.790  -9.470  1.00  0.00    -0.4564 OA
BRANCH 36 37
ATOM     37  C5  DES L   1      10.671  -7.445 -10.658  1.00  0.00    +0.3398  C
ATOM     38  O6  DES L   1      11.417  -7.230 -11.599  1.00  0.00    -0.2449 OA
BRANCH 37 42
ATOM     39  C1  DES L   1       7.488 -10.317 -10.620  1.00  0.00    -0.0615  A
ATOM     40  C2  DES L   1       7.235  -8.994 -10.971  1.00  0.00    -0.0610  A
ATOM     41  C3  DES L   1       8.279  -8.069 -10.989  1.00  0.00    -0.0475  A
ATOM     42  C4  DES L   1       9.587  -8.464 -10.658  1.00  0.00    +0.0619  A
ATOM     43 C31  DES L   1       9.851  -9.804 -10.310  1.00  0.00    -0.0365  A
ATOM     44 C32  DES L   1      11.228 -10.286  -9.949  1.00  0.00    -0.0389  C
ATOM     45 C33  DES L   1       8.783 -10.718 -10.289  1.00  0.00    -0.0581  A
ATOM     46 H34  DES L   1       6.676 -11.039 -10.602  1.00  0.00    +0.0618  H
ATOM     47 H35  DES L   1       6.226  -8.682 -11.228  1.00  0.00    +0.0618  H
ATOM     48 H36  DES L   1       8.064  -7.036 -11.254  1.00  0.00    +0.0626  H
ATOM     49 H55  DES L   1      11.961  -9.960 -10.695  1.00  0.00    +0.0278  H
ATOM     50 H56  DES L   1      11.515  -9.914  -8.960  1.00  0.00    +0.0278  H
ATOM     51 H57  DES L   1      11.272 -11.380  -9.920  1.00  0.00    +0.0278  H
ATOM     52 H58  DES L   1       8.957 -11.758 -10.017  1.00  0.00    +0.0620  H
ENDBRANCH 37 42
ENDBRANCH 36 37
ENDBRANCH 33 36
ENDBRANCH 23 33
ENDBRANCH 21 26
BRANCH 21 53
ATOM     53 C14  DES L   1      10.997 -11.017  -3.624  1.00  0.00    +0.0085  C
ATOM     54 N15  DES L   1      10.665 -11.704  -2.360  1.00  0.00    -0.3289 NA
ATOM     55 H42  DES L   1      12.023 -11.286  -3.901  1.00  0.00    +0.0432  H
ATOM     56 H43  DES L   1      10.337 -11.415  -4.404  1.00  0.00    +0.0432  H
ATOM     57 H44  DES L   1      11.353 -11.417  -1.655  1.00  0.00    +0.1182 HD
ATOM     58 H45  DES L   1      10.833 -12.706  -2.488  1.00  0.00    +0.1182 HD
ENDBRANCH 21 53
ENDBRANCH 17 21
ENDBRANCH 1 19
TORSDOF 8
ENDMDL
MODEL 20
REMARK VINA RESULT:    -6.666      8.411     12.400
REMARK INTER + INTRA:         -10.910
REMARK INTER:                  -8.124
REMARK INTRA:                  -2.786
REMARK UNBOUND:                -1.127
ROOT
ATOM      1 C19  DES L   1       8.442  -9.868 -11.737  1.00  0.00    +0.0423  A
ATOM      2 C20  DES L   1       8.350 -10.964 -12.593  1.00  0.00    -0.0377  A
ATOM      3 C21  DES L   1       7.133 -11.635 -12.757  1.00  0.00    -0.0506  A
ATOM      4 C22  DES L   1       5.987 -11.216 -12.061  1.00  0.00    +0.0004  A
ATOM      5 C23  DES L   1       4.748 -11.850 -12.186  1.00  0.00    +0.0353  A
ATOM      6 N24  DES L   1       3.624 -11.473 -11.531  1.00  0.00    -0.2626 NA
ATOM      7 C25  DES L   1       3.736 -10.411 -10.710  1.00  0.00    +0.0281  A
ATOM      8 C26  DES L   1       4.914  -9.708 -10.509  1.00  0.00    -0.0358  A
ATOM      9 C27  DES L   1       6.067 -10.113 -11.194  1.00  0.00    -0.0131  A
ATOM     10 C28  DES L   1       7.298  -9.449 -11.042  1.00  0.00    -0.0305  A
ATOM     11 H47  DES L   1       9.206 -11.324 -13.155  1.00  0.00    +0.0638  H
ATOM     12 H48  DES L   1       7.090 -12.486 -13.433  1.00  0.00    +0.0625  H
ATOM     13 H49  DES L   1       4.619 -12.709 -12.840  1.00  0.00    +0.0836  H
ATOM     14 H50  DES L   1       2.822 -10.126 -10.195  1.00  0.00    +0.0830  H
ATOM     15 H51  DES L   1       4.926  -8.862  -9.830  1.00  0.00    +0.0639  H
ATOM     16 H52  DES L   1       7.360  -8.594 -10.371  1.00  0.00    +0.0644  H
ENDROOT
BRANCH 1 19
ATOM     17 C16  DES L   1      10.183  -8.148 -12.307  1.00  0.00    +0.2339  C
ATOM     18 O17  DES L   1       9.721  -7.732 -13.369  1.00  0.00    -0.2722 OA
ATOM     19 N18  DES L   1       9.625  -9.137 -11.517  1.00  0.00    -0.3256  N
ATOM     20 H46  DES L   1      10.153  -9.363 -10.671  1.00  0.00    +0.1686 HD
BRANCH 17 21
ATOM     21 C13  DES L   1      11.467  -7.531 -11.726  1.00  0.00    +0.0752  C
ATOM     22 H41  DES L   1      11.402  -6.473 -12.028  1.00  0.00    +0.0458  H
BRANCH 21 26
ATOM     23  C9  DES L   1      11.715  -7.681  -7.382  1.00  0.00    -0.0103  A
ATOM     24 C10  DES L   1      10.589  -7.125  -8.001  1.00  0.00    -0.0551  A
ATOM     25 C11  DES L   1      10.498  -7.063  -9.395  1.00  0.00    -0.0574  A
ATOM     26 C12  DES L   1      11.536  -7.547 -10.203  1.00  0.00    -0.0341  A
ATOM     27 C29  DES L   1      12.666  -8.098  -9.576  1.00  0.00    -0.0574  A
ATOM     28 C30  DES L   1      12.758  -8.157  -8.183  1.00  0.00    -0.0551  A
ATOM     29 H39  DES L   1       9.778  -6.720  -7.397  1.00  0.00    +0.0621  H
ATOM     30 H40  DES L   1       9.605  -6.618  -9.828  1.00  0.00    +0.0621  H
ATOM     31 H53  DES L   1      13.495  -8.477 -10.170  1.00  0.00    +0.0621  H
ATOM     32 H54  DES L   1      13.654  -8.570  -7.726  1.00  0.00    +0.0621  H
BRANCH 23 33
ATOM     33  C8  DES L   1      11.822  -7.713  -5.879  1.00  0.00    +0.1179  C
ATOM     34 H37  DES L   1      12.667  -8.328  -5.548  1.00  0.00    +0.0749  H
ATOM     35 H38  DES L   1      12.021  -6.704  -5.501  1.00  0.00    +0.0749  H
BRANCH 33 36
ATOM     36  O7  DES L   1      10.574  -8.140  -5.322  1.00  0.00    -0.4564 OA
BRANCH 36 37
ATOM     37  C5  DES L   1      10.418  -9.482  -5.204  1.00  0.00    +0.3398  C
ATOM     38  O6  DES L   1      11.099 -10.233  -4.525  1.00  0.00    -0.2449 OA
BRANCH 37 42
ATOM     39  C1  DES L   1       7.117 -10.760  -7.622  1.00  0.00    -0.0615  A
ATOM     40  C2  DES L   1       6.897  -9.979  -6.491  1.00  0.00    -0.0610  A
ATOM     41  C3  DES L   1       7.978  -9.561  -5.716  1.00  0.00    -0.0475  A
ATOM     42  C4  DES L   1       9.290  -9.920  -6.070  1.00  0.00    +0.0619  A
ATOM     43 C31  DES L   1       9.520 -10.703  -7.219  1.00  0.00    -0.0365  A
ATOM     44 C32  DES L   1      10.900 -11.116  -7.651  1.00  0.00    -0.0389  C
ATOM     45 C33  DES L   1       8.416 -11.122  -7.982  1.00  0.00    -0.0581  A
ATOM     46 H34  DES L   1       6.275 -11.090  -8.226  1.00  0.00    +0.0618  H
ATOM     47 H35  DES L   1       5.885  -9.699  -6.211  1.00  0.00    +0.0618  H
ATOM     48 H36  DES L   1       7.790  -8.962  -4.828  1.00  0.00    +0.0626  H
ATOM     49 H55  DES L   1      11.575 -10.254  -7.665  1.00  0.00    +0.0278  H
ATOM     50 H56  DES L   1      11.294 -11.885  -6.979  1.00  0.00    +0.0278  H
ATOM     51 H57  DES L   1      10.893 -11.529  -8.665  1.00  0.00    +0.0278  H
ATOM     52 H58  DES L   1       8.563 -11.734  -8.870  1.00  0.00    +0.0620  H
ENDBRANCH 37 42
ENDBRANCH 36 37
ENDBRANCH 33 36
ENDBRANCH 23 33
ENDBRANCH 21 26
BRANCH 21 53
ATOM     53 C14  DES L   1      12.760  -8.071 -12.382  1.00  0.00    +0.0085  C
ATOM     54 N15  DES L   1      12.789  -7.956 -13.853  1.00  0.00    -0.3289 NA
ATOM     55 H42  DES L   1      12.898  -9.126 -12.119  1.00  0.00    +0.0432  H
ATOM     56 H43  DES L   1      13.623  -7.523 -11.986  1.00  0.00    +0.0432  H
ATOM     57 H44  DES L   1      12.050  -8.559 -14.232  1.00  0.00    +0.1182 HD
ATOM     58 H45  DES L   1      13.659  -8.377 -14.189  1.00  0.00    +0.1182 HD
ENDBRANCH 21 53
ENDBRANCH 17 21
ENDBRANCH 1 19
TORSDOF 8
ENDMDL
