MODEL 1
REMARK VINA RESULT:    -7.164      0.000      0.000
REMARK INTER + INTRA:         -11.809
REMARK INTER:                 -10.514
REMARK INTRA:                  -1.295
REMARK UNBOUND:                -1.295
ROOT
ATOM      1 C19  DES L   1      11.006  -4.614   3.122  1.00  0.00    +0.0423  A
ATOM      2 C20  DES L   1      10.673  -3.371   3.657  1.00  0.00    -0.0377  A
ATOM      3 C21  DES L   1       9.710  -3.269   4.668  1.00  0.00    -0.0506  A
ATOM      4 C22  DES L   1       9.066  -4.417   5.158  1.00  0.00    +0.0004  A
ATOM      5 C23  DES L   1       8.097  -4.374   6.165  1.00  0.00    +0.0353  A
ATOM      6 N24  DES L   1       7.457  -5.459   6.660  1.00  0.00    -0.2626 NA
ATOM      7 C25  DES L   1       7.796  -6.650   6.129  1.00  0.00    +0.0281  A
ATOM      8 C26  DES L   1       8.741  -6.811   5.128  1.00  0.00    -0.0358  A
ATOM      9 C27  DES L   1       9.393  -5.677   4.627  1.00  0.00    -0.0131  A
ATOM     10 C28  DES L   1      10.363  -5.761   3.611  1.00  0.00    -0.0305  A
ATOM     11 H47  DES L   1      11.145  -2.456   3.314  1.00  0.00    +0.0638  H
ATOM     12 H48  DES L   1       9.471  -2.287   5.068  1.00  0.00    +0.0625  H
ATOM     13 H49  DES L   1       7.799  -3.432   6.618  1.00  0.00    +0.0836  H
ATOM     14 H50  DES L   1       7.270  -7.507   6.542  1.00  0.00    +0.0830  H
ATOM     15 H51  DES L   1       8.961  -7.804   4.750  1.00  0.00    +0.0639  H
ATOM     16 H52  DES L   1      10.617  -6.735   3.200  1.00  0.00    +0.0644  H
ENDROOT
BRANCH 1 19
ATOM     17 C16  DES L   1      13.310  -5.089   2.238  1.00  0.00    +0.2339  C
ATOM     18 O17  DES L   1      13.914  -5.228   3.301  1.00  0.00    -0.2722 OA
ATOM     19 N18  DES L   1      11.963  -4.803   2.107  1.00  0.00    -0.3256  N
ATOM     20 H46  DES L   1      11.632  -4.713   1.143  1.00  0.00    +0.1686 HD
BRANCH 17 21
ATOM     21 C13  DES L   1      14.045  -5.278   0.900  1.00  0.00    +0.0752  C
ATOM     22 H41  DES L   1      14.977  -5.789   1.189  1.00  0.00    +0.0458  H
BRANCH 21 26
ATOM     23  C9  DES L   1      12.050  -8.000  -1.852  1.00  0.00    -0.0103  A
ATOM     24 C10  DES L   1      12.565  -6.784  -2.318  1.00  0.00    -0.0551  A
ATOM     25 C11  DES L   1      13.201  -5.897  -1.446  1.00  0.00    -0.0574  A
ATOM     26 C12  DES L   1      13.330  -6.199  -0.083  1.00  0.00    -0.0341  A
ATOM     27 C29  DES L   1      12.806  -7.417   0.380  1.00  0.00    -0.0574  A
ATOM     28 C30  DES L   1      12.168  -8.303  -0.491  1.00  0.00    -0.0551  A
ATOM     29 H39  DES L   1      12.459  -6.513  -3.368  1.00  0.00    +0.0621  H
ATOM     30 H40  DES L   1      13.581  -4.963  -1.855  1.00  0.00    +0.0621  H
ATOM     31 H53  DES L   1      12.879  -7.684   1.433  1.00  0.00    +0.0621  H
ATOM     32 H54  DES L   1      11.752  -9.230  -0.100  1.00  0.00    +0.0621  H
BRANCH 23 33
ATOM     33  C8  DES L   1      11.335  -8.936  -2.791  1.00  0.00    +0.1179  C
ATOM     34 H37  DES L   1      11.886  -9.875  -2.921  1.00  0.00    +0.0749  H
ATOM     35 H38  DES L   1      10.364  -9.215  -2.366  1.00  0.00    +0.0749  H
BRANCH 33 36
ATOM     36  O7  DES L   1      11.083  -8.266  -4.031  1.00  0.00    -0.4564 OA
BRANCH 36 37
ATOM     37  C5  DES L   1      11.411  -8.963  -5.147  1.00  0.00    +0.3398  C
ATOM     38  O6  DES L   1      11.986 -10.038  -5.186  1.00  0.00    -0.2449 OA
BRANCH 37 42
ATOM     39  C1  DES L   1      10.238  -6.657  -8.565  1.00  0.00    -0.0615  A
ATOM     40  C2  DES L   1      11.500  -6.486  -8.004  1.00  0.00    -0.0610  A
ATOM     41  C3  DES L   1      11.875  -7.248  -6.897  1.00  0.00    -0.0475  A
ATOM     42  C4  DES L   1      10.990  -8.190  -6.346  1.00  0.00    +0.0619  A
ATOM     43 C31  DES L   1       9.714  -8.373  -6.916  1.00  0.00    -0.0365  A
ATOM     44 C32  DES L   1       8.724  -9.367  -6.374  1.00  0.00    -0.0389  C
ATOM     45 C33  DES L   1       9.352  -7.589  -8.025  1.00  0.00    -0.0581  A
ATOM     46 H34  DES L   1       9.941  -6.061  -9.426  1.00  0.00    +0.0618  H
ATOM     47 H35  DES L   1      12.190  -5.759  -8.424  1.00  0.00    +0.0618  H
ATOM     48 H36  DES L   1      12.860  -7.094  -6.461  1.00  0.00    +0.0626  H
ATOM     49 H55  DES L   1       9.196 -10.345  -6.232  1.00  0.00    +0.0278  H
ATOM     50 H56  DES L   1       8.311  -9.012  -5.425  1.00  0.00    +0.0278  H
ATOM     51 H57  DES L   1       7.890  -9.516  -7.067  1.00  0.00    +0.0278  H
ATOM     52 H58  DES L   1       8.369  -7.705  -8.481  1.00  0.00    +0.0620  H
ENDBRANCH 37 42
ENDBRANCH 36 37
ENDBRANCH 33 36
ENDBRANCH 23 33
ENDBRANCH 21 26
BRANCH 21 53
ATOM     53 C14  DES L   1      14.486  -3.946   0.248  1.00  0.00    +0.0085  C
ATOM     54 N15  DES L   1      14.689  -2.839   1.203  1.00  0.00    -0.3289 NA
ATOM     55 H42  DES L   1      13.741  -3.628  -0.491  1.00  0.00    +0.0432  H
ATOM     56 H43  DES L   1      15.428  -4.102  -0.290  1.00  0.00    +0.0432  H
ATOM     57 H44  DES L   1      13.781  -2.617   1.627  1.00  0.00    +0.1182 HD
ATOM     58 H45  DES L   1      14.935  -2.000   0.671  1.00  0.00    +0.1182 HD
ENDBRANCH 21 53
ENDBRANCH 17 21
ENDBRANCH 1 19
TORSDOF 8
ENDMDL
MODEL 2
REMARK VINA RESULT:    -7.118      3.830     10.777
REMARK INTER + INTRA:         -11.742
REMARK INTER:                 -10.716
REMARK INTRA:                  -1.026
REMARK UNBOUND:                -1.295
ROOT
ATOM      1 C19  DES L   1       8.842  -9.555  -6.288  1.00  0.00    +0.0423  A
ATOM      2 C20  DES L   1       7.496  -9.695  -5.958  1.00  0.00    -0.0377  A
ATOM      3 C21  DES L   1       6.508  -9.553  -6.938  1.00  0.00    -0.0506  A
ATOM      4 C22  DES L   1       6.857  -9.269  -8.269  1.00  0.00    +0.0004  A
ATOM      5 C23  DES L   1       5.912  -9.117  -9.288  1.00  0.00    +0.0353  A
ATOM      6 N24  DES L   1       6.214  -8.844 -10.579  1.00  0.00    -0.2626 NA
ATOM      7 C25  DES L   1       7.522  -8.715 -10.876  1.00  0.00    +0.0281  A
ATOM      8 C26  DES L   1       8.543  -8.845  -9.946  1.00  0.00    -0.0358  A
ATOM      9 C27  DES L   1       8.212  -9.126  -8.615  1.00  0.00    -0.0131  A
ATOM     10 C28  DES L   1       9.193  -9.273  -7.617  1.00  0.00    -0.0305  A
ATOM     11 H47  DES L   1       7.176  -9.916  -4.945  1.00  0.00    +0.0638  H
ATOM     12 H48  DES L   1       5.464  -9.668  -6.653  1.00  0.00    +0.0625  H
ATOM     13 H49  DES L   1       4.848  -9.215  -9.087  1.00  0.00    +0.0836  H
ATOM     14 H50  DES L   1       7.741  -8.496 -11.917  1.00  0.00    +0.0830  H
ATOM     15 H51  DES L   1       9.575  -8.726 -10.261  1.00  0.00    +0.0639  H
ATOM     16 H52  DES L   1      10.242  -9.163  -7.884  1.00  0.00    +0.0644  H
ENDROOT
BRANCH 1 19
ATOM     17 C16  DES L   1      10.934  -8.803  -5.116  1.00  0.00    +0.2339  C
ATOM     18 O17  DES L   1      11.112  -7.725  -5.682  1.00  0.00    -0.2722 OA
ATOM     19 N18  DES L   1       9.897  -9.684  -5.364  1.00  0.00    -0.3256  N
ATOM     20 H46  DES L   1       9.914 -10.540  -4.803  1.00  0.00    +0.1686 HD
BRANCH 17 21
ATOM     21 C13  DES L   1      11.886  -9.254  -3.994  1.00  0.00    +0.0752  C
ATOM     22 H41  DES L   1      12.864  -9.314  -4.497  1.00  0.00    +0.0458  H
BRANCH 21 26
ATOM     23  C9  DES L   1      12.207  -6.361  -0.756  1.00  0.00    -0.0103  A
ATOM     24 C10  DES L   1      13.183  -6.403  -1.758  1.00  0.00    -0.0551  A
ATOM     25 C11  DES L   1      13.098  -7.331  -2.800  1.00  0.00    -0.0574  A
ATOM     26 C12  DES L   1      12.039  -8.247  -2.860  1.00  0.00    -0.0341  A
ATOM     27 C29  DES L   1      11.065  -8.204  -1.847  1.00  0.00    -0.0574  A
ATOM     28 C30  DES L   1      11.152  -7.278  -0.805  1.00  0.00    -0.0551  A
ATOM     29 H39  DES L   1      14.030  -5.718  -1.724  1.00  0.00    +0.0621  H
ATOM     30 H40  DES L   1      13.884  -7.326  -3.553  1.00  0.00    +0.0621  H
ATOM     31 H53  DES L   1      10.232  -8.905  -1.855  1.00  0.00    +0.0621  H
ATOM     32 H54  DES L   1      10.395  -7.284  -0.023  1.00  0.00    +0.0621  H
BRANCH 23 33
ATOM     33  C8  DES L   1      12.323  -5.381   0.384  1.00  0.00    +0.1179  C
ATOM     34 H37  DES L   1      13.291  -5.468   0.892  1.00  0.00    +0.0749  H
ATOM     35 H38  DES L   1      12.280  -4.357  -0.004  1.00  0.00    +0.0749  H
BRANCH 33 36
ATOM     36  O7  DES L   1      11.214  -5.550   1.272  1.00  0.00    -0.4564 OA
BRANCH 36 37
ATOM     37  C5  DES L   1      11.534  -5.724   2.579  1.00  0.00    +0.3398  C
ATOM     38  O6  DES L   1      12.101  -6.690   3.062  1.00  0.00    -0.2449 OA
BRANCH 37 42
ATOM     39  C1  DES L   1      10.228  -2.345   4.871  1.00  0.00    -0.0615  A
ATOM     40  C2  DES L   1      11.512  -2.375   4.335  1.00  0.00    -0.0610  A
ATOM     41  C3  DES L   1      11.924  -3.475   3.583  1.00  0.00    -0.0475  A
ATOM     42  C4  DES L   1      11.051  -4.553   3.359  1.00  0.00    +0.0619  A
ATOM     43 C31  DES L   1       9.747  -4.525   3.892  1.00  0.00    -0.0365  A
ATOM     44 C32  DES L   1       8.766  -5.646   3.684  1.00  0.00    -0.0389  C
ATOM     45 C33  DES L   1       9.354  -3.411   4.655  1.00  0.00    -0.0581  A
ATOM     46 H34  DES L   1       9.905  -1.490   5.461  1.00  0.00    +0.0618  H
ATOM     47 H35  DES L   1      12.193  -1.545   4.505  1.00  0.00    +0.0618  H
ATOM     48 H36  DES L   1      12.935  -3.490   3.182  1.00  0.00    +0.0626  H
ATOM     49 H55  DES L   1       8.715  -5.923   2.626  1.00  0.00    +0.0278  H
ATOM     50 H56  DES L   1       9.052  -6.516   4.283  1.00  0.00    +0.0278  H
ATOM     51 H57  DES L   1       7.755  -5.351   3.984  1.00  0.00    +0.0278  H
ATOM     52 H58  DES L   1       8.354  -3.365   5.084  1.00  0.00    +0.0620  H
ENDBRANCH 37 42
ENDBRANCH 36 37
ENDBRANCH 33 36
ENDBRANCH 23 33
ENDBRANCH 21 26
BRANCH 21 53
ATOM     53 C14  DES L   1      11.595 -10.684  -3.479  1.00  0.00    +0.0085  C
ATOM     54 N15  DES L   1      11.936 -11.755  -4.436  1.00  0.00    -0.3289 NA
ATOM     55 H42  DES L   1      10.533 -10.779  -3.223  1.00  0.00    +0.0432  H
ATOM     56 H43  DES L   1      12.166 -10.860  -2.560  1.00  0.00    +0.0432  H
ATOM     57 H44  DES L   1      11.322 -11.657  -5.252  1.00  0.00    +0.1182 HD
ATOM     58 H45  DES L   1      11.668 -12.651  -4.020  1.00  0.00    +0.1182 HD
ENDBRANCH 21 53
ENDBRANCH 17 21
ENDBRANCH 1 19
TORSDOF 8
ENDMDL
MODEL 3
REMARK VINA RESULT:    -7.009      2.998     10.106
REMARK INTER + INTRA:         -11.582
REMARK INTER:                  -9.766
REMARK INTRA:                  -1.816
REMARK UNBOUND:                -1.295
ROOT
ATOM      1 C19  DES L   1      11.319  -8.639  -4.627  1.00  0.00    +0.0423  A
ATOM      2 C20  DES L   1      10.265  -9.548  -4.688  1.00  0.00    -0.0377  A
ATOM      3 C21  DES L   1       9.410  -9.570  -5.795  1.00  0.00    -0.0506  A
ATOM      4 C22  DES L   1       9.601  -8.677  -6.863  1.00  0.00    +0.0004  A
ATOM      5 C23  DES L   1       8.778  -8.655  -7.992  1.00  0.00    +0.0353  A
ATOM      6 N24  DES L   1       8.933  -7.809  -9.038  1.00  0.00    -0.2626 NA
ATOM      7 C25  DES L   1       9.960  -6.939  -8.959  1.00  0.00    +0.0281  A
ATOM      8 C26  DES L   1      10.838  -6.873  -7.888  1.00  0.00    -0.0358  A
ATOM      9 C27  DES L   1      10.661  -7.755  -6.814  1.00  0.00    -0.0131  A
ATOM     10 C28  DES L   1      11.511  -7.747  -5.693  1.00  0.00    -0.0305  A
ATOM     11 H47  DES L   1      10.078 -10.259  -3.889  1.00  0.00    +0.0638  H
ATOM     12 H48  DES L   1       8.596 -10.291  -5.816  1.00  0.00    +0.0625  H
ATOM     13 H49  DES L   1       7.941  -9.342  -8.091  1.00  0.00    +0.0836  H
ATOM     14 H50  DES L   1      10.066  -6.271  -9.809  1.00  0.00    +0.0830  H
ATOM     15 H51  DES L   1      11.642  -6.144  -7.896  1.00  0.00    +0.0639  H
ATOM     16 H52  DES L   1      12.332  -7.034  -5.656  1.00  0.00    +0.0644  H
ENDROOT
BRANCH 1 19
ATOM     17 C16  DES L   1      12.043  -7.946  -2.323  1.00  0.00    +0.2339  C
ATOM     18 O17  DES L   1      11.025  -7.361  -1.953  1.00  0.00    -0.2722 OA
ATOM     19 N18  DES L   1      12.224  -8.552  -3.553  1.00  0.00    -0.3256  N
ATOM     20 H46  DES L   1      13.142  -8.983  -3.691  1.00  0.00    +0.1686 HD
BRANCH 17 21
ATOM     21 C13  DES L   1      13.241  -8.090  -1.369  1.00  0.00    +0.0752  C
ATOM     22 H41  DES L   1      14.083  -8.307  -2.047  1.00  0.00    +0.0458  H
BRANCH 21 26
ATOM     23  C9  DES L   1      14.226  -4.486   0.867  1.00  0.00    -0.0103  A
ATOM     24 C10  DES L   1      13.820  -4.392  -0.470  1.00  0.00    -0.0551  A
ATOM     25 C11  DES L   1      13.508  -5.541  -1.203  1.00  0.00    -0.0574  A
ATOM     26 C12  DES L   1      13.603  -6.812  -0.620  1.00  0.00    -0.0341  A
ATOM     27 C29  DES L   1      14.017  -6.900   0.720  1.00  0.00    -0.0574  A
ATOM     28 C30  DES L   1      14.331  -5.752   1.452  1.00  0.00    -0.0551  A
ATOM     29 H39  DES L   1      13.759  -3.419  -0.955  1.00  0.00    +0.0621  H
ATOM     30 H40  DES L   1      13.201  -5.417  -2.240  1.00  0.00    +0.0621  H
ATOM     31 H53  DES L   1      14.111  -7.870   1.205  1.00  0.00    +0.0621  H
ATOM     32 H54  DES L   1      14.670  -5.852   2.481  1.00  0.00    +0.0621  H
BRANCH 23 33
ATOM     33  C8  DES L   1      14.594  -3.246   1.641  1.00  0.00    +0.1179  C
ATOM     34 H37  DES L   1      15.629  -2.941   1.445  1.00  0.00    +0.0749  H
ATOM     35 H38  DES L   1      13.969  -2.408   1.315  1.00  0.00    +0.0749  H
BRANCH 33 36
ATOM     36  O7  DES L   1      14.334  -3.459   3.033  1.00  0.00    -0.4564 OA
BRANCH 36 37
ATOM     37  C5  DES L   1      13.196  -2.893   3.506  1.00  0.00    +0.3398  C
ATOM     38  O6  DES L   1      12.995  -1.701   3.671  1.00  0.00    -0.2449 OA
BRANCH 37 42
ATOM     39  C1  DES L   1      10.311  -5.930   4.418  1.00  0.00    -0.0615  A
ATOM     40  C2  DES L   1      10.247  -5.242   3.210  1.00  0.00    -0.0610  A
ATOM     41  C3  DES L   1      11.196  -4.262   2.919  1.00  0.00    -0.0475  A
ATOM     42  C4  DES L   1      12.219  -3.965   3.835  1.00  0.00    +0.0619  A
ATOM     43 C31  DES L   1      12.294  -4.665   5.057  1.00  0.00    -0.0365  A
ATOM     44 C32  DES L   1      13.366  -4.395   6.076  1.00  0.00    -0.0389  C
ATOM     45 C33  DES L   1      11.323  -5.642   5.335  1.00  0.00    -0.0581  A
ATOM     46 H34  DES L   1       9.571  -6.692   4.649  1.00  0.00    +0.0618  H
ATOM     47 H35  DES L   1       9.458  -5.465   2.497  1.00  0.00    +0.0618  H
ATOM     48 H36  DES L   1      11.126  -3.724   1.976  1.00  0.00    +0.0626  H
ATOM     49 H55  DES L   1      14.355  -4.390   5.605  1.00  0.00    +0.0278  H
ATOM     50 H56  DES L   1      13.187  -3.436   6.571  1.00  0.00    +0.0278  H
ATOM     51 H57  DES L   1      13.387  -5.171   6.848  1.00  0.00    +0.0278  H
ATOM     52 H58  DES L   1      11.353  -6.193   6.274  1.00  0.00    +0.0620  H
ENDBRANCH 37 42
ENDBRANCH 36 37
ENDBRANCH 33 36
ENDBRANCH 23 33
ENDBRANCH 21 26
BRANCH 21 53
ATOM     53 C14  DES L   1      13.137  -9.316  -0.431  1.00  0.00    +0.0085  C
ATOM     54 N15  DES L   1      11.843 -10.024  -0.498  1.00  0.00    -0.3289 NA
ATOM     55 H42  DES L   1      13.303  -9.005   0.607  1.00  0.00    +0.0432  H
ATOM     56 H43  DES L   1      13.925 -10.034  -0.684  1.00  0.00    +0.0432  H
ATOM     57 H44  DES L   1      11.116  -9.387  -0.154  1.00  0.00    +0.1182 HD
ATOM     58 H45  DES L   1      11.860 -10.785   0.185  1.00  0.00    +0.1182 HD
ENDBRANCH 21 53
ENDBRANCH 17 21
ENDBRANCH 1 19
TORSDOF 8
ENDMDL
MODEL 4
REMARK VINA RESULT:    -7.007      4.185      6.686
REMARK INTER + INTRA:         -11.578
REMARK INTER:                  -9.407
REMARK INTRA:                  -2.171
REMARK UNBOUND:                -1.295
ROOT
ATOM      1 C19  DES L   1       8.972  -6.345   5.552  1.00  0.00    +0.0423  A
ATOM      2 C20  DES L   1       7.959  -6.730   4.676  1.00  0.00    -0.0377  A
ATOM      3 C21  DES L   1       7.349  -7.983   4.804  1.00  0.00    -0.0506  A
ATOM      4 C22  DES L   1       7.748  -8.872   5.816  1.00  0.00    +0.0004  A
ATOM      5 C23  DES L   1       7.174 -10.134   5.988  1.00  0.00    +0.0353  A
ATOM      6 N24  DES L   1       7.533 -11.015   6.952  1.00  0.00    -0.2626 NA
ATOM      7 C25  DES L   1       8.514 -10.622   7.789  1.00  0.00    +0.0281  A
ATOM      8 C26  DES L   1       9.152  -9.394   7.710  1.00  0.00    -0.0358  A
ATOM      9 C27  DES L   1       8.769  -8.496   6.706  1.00  0.00    -0.0131  A
ATOM     10 C28  DES L   1       9.371  -7.232   6.564  1.00  0.00    -0.0305  A
ATOM     11 H47  DES L   1       7.615  -6.077   3.880  1.00  0.00    +0.0638  H
ATOM     12 H48  DES L   1       6.560  -8.256   4.107  1.00  0.00    +0.0625  H
ATOM     13 H49  DES L   1       6.380 -10.485   5.334  1.00  0.00    +0.0836  H
ATOM     14 H50  DES L   1       8.786 -11.344   8.554  1.00  0.00    +0.0830  H
ATOM     15 H51  DES L   1       9.935  -9.148   8.421  1.00  0.00    +0.0639  H
ATOM     16 H52  DES L   1      10.161  -6.941   7.253  1.00  0.00    +0.0644  H
ENDROOT
BRANCH 1 19
ATOM     17 C16  DES L   1       9.554  -4.045   6.381  1.00  0.00    +0.2339  C
ATOM     18 O17  DES L   1       8.864  -4.012   7.399  1.00  0.00    -0.2722 OA
ATOM     19 N18  DES L   1       9.635  -5.105   5.495  1.00  0.00    -0.3256  N
ATOM     20 H46  DES L   1      10.254  -4.952   4.694  1.00  0.00    +0.1686 HD
BRANCH 17 21
ATOM     21 C13  DES L   1      10.463  -2.857   6.022  1.00  0.00    +0.0752  C
ATOM     22 H41  DES L   1      10.764  -2.459   7.005  1.00  0.00    +0.0458  H
BRANCH 21 26
ATOM     23  C9  DES L   1      14.071  -3.969   3.852  1.00  0.00    -0.0103  A
ATOM     24 C10  DES L   1      13.813  -4.520   5.113  1.00  0.00    -0.0551  A
ATOM     25 C11  DES L   1      12.663  -4.167   5.825  1.00  0.00    -0.0574  A
ATOM     26 C12  DES L   1      11.747  -3.247   5.298  1.00  0.00    -0.0341  A
ATOM     27 C29  DES L   1      12.014  -2.692   4.035  1.00  0.00    -0.0574  A
ATOM     28 C30  DES L   1      13.165  -3.043   3.324  1.00  0.00    -0.0551  A
ATOM     29 H39  DES L   1      14.519  -5.221   5.557  1.00  0.00    +0.0621  H
ATOM     30 H40  DES L   1      12.510  -4.620   6.803  1.00  0.00    +0.0621  H
ATOM     31 H53  DES L   1      11.330  -1.968   3.596  1.00  0.00    +0.0621  H
ATOM     32 H54  DES L   1      13.356  -2.581   2.358  1.00  0.00    +0.0621  H
BRANCH 23 33
ATOM     33  C8  DES L   1      15.330  -4.327   3.105  1.00  0.00    +0.1179  C
ATOM     34 H37  DES L   1      16.037  -3.490   3.084  1.00  0.00    +0.0749  H
ATOM     35 H38  DES L   1      15.847  -5.142   3.624  1.00  0.00    +0.0749  H
BRANCH 33 36
ATOM     36  O7  DES L   1      14.990  -4.799   1.797  1.00  0.00    -0.4564 OA
BRANCH 36 37
ATOM     37  C5  DES L   1      14.538  -6.077   1.738  1.00  0.00    +0.3398  C
ATOM     38  O6  DES L   1      14.974  -7.028   2.365  1.00  0.00    -0.2449 OA
BRANCH 37 42
ATOM     39  C1  DES L   1      11.393  -6.244  -1.170  1.00  0.00    -0.0615  A
ATOM     40  C2  DES L   1      12.723  -6.188  -1.578  1.00  0.00    -0.0610  A
ATOM     41  C3  DES L   1      13.739  -6.143  -0.624  1.00  0.00    -0.0475  A
ATOM     42  C4  DES L   1      13.431  -6.157   0.747  1.00  0.00    +0.0619  A
ATOM     43 C31  DES L   1      12.087  -6.222   1.166  1.00  0.00    -0.0365  A
ATOM     44 C32  DES L   1      11.695  -6.243   2.617  1.00  0.00    -0.0389  C
ATOM     45 C33  DES L   1      11.077  -6.258   0.189  1.00  0.00    -0.0581  A
ATOM     46 H34  DES L   1      10.598  -6.275  -1.912  1.00  0.00    +0.0618  H
ATOM     47 H35  DES L   1      12.968  -6.175  -2.636  1.00  0.00    +0.0618  H
ATOM     48 H36  DES L   1      14.773  -6.086  -0.957  1.00  0.00    +0.0626  H
ATOM     49 H55  DES L   1      12.277  -6.992   3.165  1.00  0.00    +0.0278  H
ATOM     50 H56  DES L   1      11.845  -5.256   3.066  1.00  0.00    +0.0278  H
ATOM     51 H57  DES L   1      10.640  -6.510   2.741  1.00  0.00    +0.0278  H
ATOM     52 H58  DES L   1      10.030  -6.301   0.484  1.00  0.00    +0.0620  H
ENDBRANCH 37 42
ENDBRANCH 36 37
ENDBRANCH 33 36
ENDBRANCH 23 33
ENDBRANCH 21 26
BRANCH 21 53
ATOM     53 C14  DES L   1       9.715  -1.701   5.317  1.00  0.00    +0.0085  C
ATOM     54 N15  DES L   1       8.695  -1.038   6.154  1.00  0.00    -0.3289 NA
ATOM     55 H42  DES L   1       9.223  -2.074   4.411  1.00  0.00    +0.0432  H
ATOM     56 H43  DES L   1      10.438  -0.940   5.004  1.00  0.00    +0.0432  H
ATOM     57 H44  DES L   1       7.958  -1.722   6.356  1.00  0.00    +0.1182 HD
ATOM     58 H45  DES L   1       8.232  -0.323   5.586  1.00  0.00    +0.1182 HD
ENDBRANCH 21 53
ENDBRANCH 17 21
ENDBRANCH 1 19
TORSDOF 8
ENDMDL
MODEL 5
REMARK VINA RESULT:    -6.969      1.174      2.050
REMARK INTER + INTRA:         -11.524
REMARK INTER:                 -10.259
REMARK INTRA:                  -1.265
REMARK UNBOUND:                -1.295
ROOT
ATOM      1 C19  DES L   1      10.998  -5.061   2.751  1.00  0.00    +0.0423  A
ATOM      2 C20  DES L   1      10.301  -6.064   3.421  1.00  0.00    -0.0377  A
ATOM      3 C21  DES L   1       9.517  -5.756   4.539  1.00  0.00    -0.0506  A
ATOM      4 C22  DES L   1       9.420  -4.433   5.002  1.00  0.00    +0.0004  A
ATOM      5 C23  DES L   1       8.654  -4.070   6.112  1.00  0.00    +0.0353  A
ATOM      6 N24  DES L   1       8.539  -2.806   6.584  1.00  0.00    -0.2626 NA
ATOM      7 C25  DES L   1       9.220  -1.852   5.920  1.00  0.00    +0.0281  A
ATOM      8 C26  DES L   1      10.011  -2.099   4.808  1.00  0.00    -0.0358  A
ATOM      9 C27  DES L   1      10.119  -3.412   4.334  1.00  0.00    -0.0131  A
ATOM     10 C28  DES L   1      10.902  -3.739   3.211  1.00  0.00    -0.0305  A
ATOM     11 H47  DES L   1      10.341  -7.100   3.101  1.00  0.00    +0.0638  H
ATOM     12 H48  DES L   1       8.982  -6.558   5.042  1.00  0.00    +0.0625  H
ATOM     13 H49  DES L   1       8.089  -4.811   6.672  1.00  0.00    +0.0836  H
ATOM     14 H50  DES L   1       9.113  -0.846   6.316  1.00  0.00    +0.0830  H
ATOM     15 H51  DES L   1      10.531  -1.277   4.325  1.00  0.00    +0.0639  H
ATOM     16 H52  DES L   1      11.443  -2.950   2.694  1.00  0.00    +0.0644  H
ENDROOT
BRANCH 1 19
ATOM     17 C16  DES L   1      13.013  -5.958   1.544  1.00  0.00    +0.2339  C
ATOM     18 O17  DES L   1      13.599  -6.488   2.487  1.00  0.00    -0.2722 OA
ATOM     19 N18  DES L   1      11.806  -5.285   1.620  1.00  0.00    -0.3256  N
ATOM     20 H46  DES L   1      11.471  -4.898   0.733  1.00  0.00    +0.1686 HD
BRANCH 17 21
ATOM     21 C13  DES L   1      13.593  -6.047   0.122  1.00  0.00    +0.0752  C
ATOM     22 H41  DES L   1      14.609  -6.442   0.285  1.00  0.00    +0.0458  H
BRANCH 21 26
ATOM     23  C9  DES L   1      11.518  -8.801  -2.536  1.00  0.00    -0.0103  A
ATOM     24 C10  DES L   1      11.488  -9.007  -1.152  1.00  0.00    -0.0551  A
ATOM     25 C11  DES L   1      12.155  -8.136  -0.286  1.00  0.00    -0.0574  A
ATOM     26 C12  DES L   1      12.878  -7.043  -0.785  1.00  0.00    -0.0341  A
ATOM     27 C29  DES L   1      12.910  -6.846  -2.175  1.00  0.00    -0.0574  A
ATOM     28 C30  DES L   1      12.245  -7.718  -3.041  1.00  0.00    -0.0551  A
ATOM     29 H39  DES L   1      10.952  -9.861  -0.738  1.00  0.00    +0.0621  H
ATOM     30 H40  DES L   1      12.104  -8.339   0.782  1.00  0.00    +0.0621  H
ATOM     31 H53  DES L   1      13.468  -6.013  -2.601  1.00  0.00    +0.0621  H
ATOM     32 H54  DES L   1      12.306  -7.553  -4.115  1.00  0.00    +0.0621  H
BRANCH 23 33
ATOM     33  C8  DES L   1      10.826  -9.765  -3.466  1.00  0.00    +0.1179  C
ATOM     34 H37  DES L   1      11.531 -10.485  -3.898  1.00  0.00    +0.0749  H
ATOM     35 H38  DES L   1      10.097 -10.360  -2.905  1.00  0.00    +0.0749  H
BRANCH 33 36
ATOM     36  O7  DES L   1      10.105  -9.030  -4.461  1.00  0.00    -0.4564 OA
BRANCH 36 37
ATOM     37  C5  DES L   1      10.058  -9.604  -5.690  1.00  0.00    +0.3398  C
ATOM     38  O6  DES L   1       9.941 -10.794  -5.928  1.00  0.00    -0.2449 OA
BRANCH 37 42
ATOM     39  C1  DES L   1      10.532  -6.504  -8.612  1.00  0.00    -0.0615  A
ATOM     40  C2  DES L   1      11.539  -6.752  -7.684  1.00  0.00    -0.0610  A
ATOM     41  C3  DES L   1      11.379  -7.769  -6.743  1.00  0.00    -0.0475  A
ATOM     42  C4  DES L   1      10.209  -8.548  -6.727  1.00  0.00    +0.0619  A
ATOM     43 C31  DES L   1       9.190  -8.306  -7.669  1.00  0.00    -0.0365  A
ATOM     44 C32  DES L   1       7.918  -9.107  -7.704  1.00  0.00    -0.0389  C
ATOM     45 C33  DES L   1       9.367  -7.271  -8.604  1.00  0.00    -0.0581  A
ATOM     46 H34  DES L   1      10.653  -5.709  -9.345  1.00  0.00    +0.0618  H
ATOM     47 H35  DES L   1      12.446  -6.154  -7.691  1.00  0.00    +0.0618  H
ATOM     48 H36  DES L   1      12.169  -7.943  -6.016  1.00  0.00    +0.0626  H
ATOM     49 H55  DES L   1       8.135 -10.180  -7.679  1.00  0.00    +0.0278  H
ATOM     50 H56  DES L   1       7.276  -8.838  -6.859  1.00  0.00    +0.0278  H
ATOM     51 H57  DES L   1       7.354  -8.920  -8.624  1.00  0.00    +0.0278  H
ATOM     52 H58  DES L   1       8.592  -7.058  -9.339  1.00  0.00    +0.0620  H
ENDBRANCH 37 42
ENDBRANCH 36 37
ENDBRANCH 33 36
ENDBRANCH 23 33
ENDBRANCH 21 26
BRANCH 21 53
ATOM     53 C14  DES L   1      13.786  -4.668  -0.551  1.00  0.00    +0.0085  C
ATOM     54 N15  DES L   1      14.343  -3.630   0.339  1.00  0.00    -0.3289 NA
ATOM     55 H42  DES L   1      12.828  -4.306  -0.941  1.00  0.00    +0.0432  H
ATOM     56 H43  DES L   1      14.464  -4.775  -1.406  1.00  0.00    +0.0432  H
ATOM     57 H44  DES L   1      13.656  -3.448   1.080  1.00  0.00    +0.1182 HD
ATOM     58 H45  DES L   1      14.390  -2.752  -0.186  1.00  0.00    +0.1182 HD
ENDBRANCH 21 53
ENDBRANCH 17 21
ENDBRANCH 1 19
TORSDOF 8
ENDMDL
MODEL 6
REMARK VINA RESULT:    -6.930      3.337     10.327
REMARK INTER + INTRA:         -11.466
REMARK INTER:                 -10.508
REMARK INTRA:                  -0.958
REMARK UNBOUND:                -1.295
ROOT
ATOM      1 C19  DES L   1      10.395  -8.447  -6.347  1.00  0.00    +0.0423  A
ATOM      2 C20  DES L   1      10.957  -7.724  -7.398  1.00  0.00    -0.0377  A
ATOM      3 C21  DES L   1      10.255  -7.554  -8.596  1.00  0.00    -0.0506  A
ATOM      4 C22  DES L   1       8.975  -8.109  -8.760  1.00  0.00    +0.0004  A
ATOM      5 C23  DES L   1       8.231  -7.971  -9.934  1.00  0.00    +0.0353  A
ATOM      6 N24  DES L   1       6.995  -8.492 -10.125  1.00  0.00    -0.2626 NA
ATOM      7 C25  DES L   1       6.471  -9.186  -9.096  1.00  0.00    +0.0281  A
ATOM      8 C26  DES L   1       7.119  -9.385  -7.887  1.00  0.00    -0.0358  A
ATOM      9 C27  DES L   1       8.397  -8.840  -7.707  1.00  0.00    -0.0131  A
ATOM     10 C28  DES L   1       9.116  -9.000  -6.509  1.00  0.00    -0.0305  A
ATOM     11 H47  DES L   1      11.941  -7.274  -7.319  1.00  0.00    +0.0638  H
ATOM     12 H48  DES L   1      10.717  -6.985  -9.399  1.00  0.00    +0.0625  H
ATOM     13 H49  DES L   1       8.620  -7.418 -10.785  1.00  0.00    +0.0836  H
ATOM     14 H50  DES L   1       5.479  -9.594  -9.271  1.00  0.00    +0.0830  H
ATOM     15 H51  DES L   1       6.632  -9.957  -7.103  1.00  0.00    +0.0639  H
ATOM     16 H52  DES L   1       8.669  -9.566  -5.694  1.00  0.00    +0.0644  H
ENDROOT
BRANCH 1 19
ATOM     17 C16  DES L   1      12.233  -8.146  -4.660  1.00  0.00    +0.2339  C
ATOM     18 O17  DES L   1      12.970  -7.389  -5.291  1.00  0.00    -0.2722 OA
ATOM     19 N18  DES L   1      11.031  -8.662  -5.110  1.00  0.00    -0.3256  N
ATOM     20 H46  DES L   1      10.555  -9.285  -4.452  1.00  0.00    +0.1686 HD
BRANCH 17 21
ATOM     21 C13  DES L   1      12.597  -8.563  -3.225  1.00  0.00    +0.0752  C
ATOM     22 H41  DES L   1      13.392  -9.312  -3.370  1.00  0.00    +0.0458  H
BRANCH 21 26
ATOM     23  C9  DES L   1      14.378  -5.451  -0.755  1.00  0.00    -0.0103  A
ATOM     24 C10  DES L   1      13.050  -5.331  -1.183  1.00  0.00    -0.0551  A
ATOM     25 C11  DES L   1      12.467  -6.319  -1.983  1.00  0.00    -0.0574  A
ATOM     26 C12  DES L   1      13.201  -7.445  -2.382  1.00  0.00    -0.0341  A
ATOM     27 C29  DES L   1      14.534  -7.556  -1.953  1.00  0.00    -0.0574  A
ATOM     28 C30  DES L   1      15.118  -6.567  -1.156  1.00  0.00    -0.0551  A
ATOM     29 H39  DES L   1      12.464  -4.456  -0.907  1.00  0.00    +0.0621  H
ATOM     30 H40  DES L   1      11.433  -6.179  -2.294  1.00  0.00    +0.0621  H
ATOM     31 H53  DES L   1      15.138  -8.411  -2.249  1.00  0.00    +0.0621  H
ATOM     32 H54  DES L   1      16.159  -6.670  -0.858  1.00  0.00    +0.0621  H
BRANCH 23 33
ATOM     33  C8  DES L   1      15.011  -4.366   0.078  1.00  0.00    +0.1179  C
ATOM     34 H37  DES L   1      15.904  -4.728   0.600  1.00  0.00    +0.0749  H
ATOM     35 H38  DES L   1      15.354  -3.553  -0.572  1.00  0.00    +0.0749  H
BRANCH 33 36
ATOM     36  O7  DES L   1      14.033  -3.817   0.969  1.00  0.00    -0.4564 OA
BRANCH 36 37
ATOM     37  C5  DES L   1      14.072  -4.290   2.239  1.00  0.00    +0.3398  C
ATOM     38  O6  DES L   1      14.964  -4.957   2.736  1.00  0.00    -0.2449 OA
BRANCH 37 42
ATOM     39  C1  DES L   1      10.524  -3.123   4.344  1.00  0.00    -0.0615  A
ATOM     40  C2  DES L   1      11.659  -2.319   4.382  1.00  0.00    -0.0610  A
ATOM     41  C3  DES L   1      12.805  -2.702   3.687  1.00  0.00    -0.0475  A
ATOM     42  C4  DES L   1      12.823  -3.895   2.944  1.00  0.00    +0.0619  A
ATOM     43 C31  DES L   1      11.673  -4.710   2.895  1.00  0.00    -0.0365  A
ATOM     44 C32  DES L   1      11.629  -5.995   2.115  1.00  0.00    -0.0389  C
ATOM     45 C33  DES L   1      10.531  -4.310   3.610  1.00  0.00    -0.0581  A
ATOM     46 H34  DES L   1       9.630  -2.828   4.888  1.00  0.00    +0.0618  H
ATOM     47 H35  DES L   1      11.653  -1.395   4.956  1.00  0.00    +0.0618  H
ATOM     48 H36  DES L   1      13.689  -2.069   3.737  1.00  0.00    +0.0626  H
ATOM     49 H55  DES L   1      12.005  -5.843   1.097  1.00  0.00    +0.0278  H
ATOM     50 H56  DES L   1      12.222  -6.765   2.618  1.00  0.00    +0.0278  H
ATOM     51 H57  DES L   1      10.605  -6.369   2.022  1.00  0.00    +0.0278  H
ATOM     52 H58  DES L   1       9.632  -4.923   3.595  1.00  0.00    +0.0620  H
ENDBRANCH 37 42
ENDBRANCH 36 37
ENDBRANCH 33 36
ENDBRANCH 23 33
ENDBRANCH 21 26
BRANCH 21 53
ATOM     53 C14  DES L   1      11.455  -9.305  -2.492  1.00  0.00    +0.0085  C
ATOM     54 N15  DES L   1      10.223  -8.509  -2.324  1.00  0.00    -0.3289 NA
ATOM     55 H42  DES L   1      11.794  -9.624  -1.500  1.00  0.00    +0.0432  H
ATOM     56 H43  DES L   1      11.194 -10.211  -3.051  1.00  0.00    +0.0432  H
ATOM     57 H44  DES L   1      10.439  -7.719  -1.706  1.00  0.00    +0.1182 HD
ATOM     58 H45  DES L   1       9.550  -9.070  -1.794  1.00  0.00    +0.1182 HD
ENDBRANCH 21 53
ENDBRANCH 17 21
ENDBRANCH 1 19
TORSDOF 8
ENDMDL
MODEL 7
REMARK VINA RESULT:    -6.904      3.089      9.883
REMARK INTER + INTRA:         -11.428
REMARK INTER:                  -9.318
REMARK INTRA:                  -2.110
REMARK UNBOUND:                -1.295
ROOT
ATOM      1 C19  DES L   1      11.965  -8.070  -0.924  1.00  0.00    +0.0423  A
ATOM      2 C20  DES L   1      11.905  -9.329  -0.331  1.00  0.00    -0.0377  A
ATOM      3 C21  DES L   1      11.633 -10.464  -1.102  1.00  0.00    -0.0506  A
ATOM      4 C22  DES L   1      11.418 -10.353  -2.486  1.00  0.00    +0.0004  A
ATOM      5 C23  DES L   1      11.144 -11.452  -3.304  1.00  0.00    +0.0353  A
ATOM      6 N24  DES L   1      10.932 -11.381  -4.640  1.00  0.00    -0.2626 NA
ATOM      7 C25  DES L   1      10.996 -10.154  -5.193  1.00  0.00    +0.0281  A
ATOM      8 C26  DES L   1      11.262  -8.996  -4.478  1.00  0.00    -0.0358  A
ATOM      9 C27  DES L   1      11.477  -9.088  -3.097  1.00  0.00    -0.0131  A
ATOM     10 C28  DES L   1      11.751  -7.957  -2.307  1.00  0.00    -0.0305  A
ATOM     11 H47  DES L   1      12.066  -9.467   0.734  1.00  0.00    +0.0638  H
ATOM     12 H48  DES L   1      11.593 -11.435  -0.613  1.00  0.00    +0.0625  H
ATOM     13 H49  DES L   1      11.085 -12.457  -2.894  1.00  0.00    +0.0836  H
ATOM     14 H50  DES L   1      10.823 -10.120  -6.265  1.00  0.00    +0.0830  H
ATOM     15 H51  DES L   1      11.297  -8.041  -4.994  1.00  0.00    +0.0639  H
ATOM     16 H52  DES L   1      11.797  -6.978  -2.779  1.00  0.00    +0.0644  H
ENDROOT
BRANCH 1 19
ATOM     17 C16  DES L   1      11.386  -6.155   0.597  1.00  0.00    +0.2339  C
ATOM     18 O17  DES L   1      10.218  -6.442   0.855  1.00  0.00    -0.2722 OA
ATOM     19 N18  DES L   1      12.234  -6.880  -0.222  1.00  0.00    -0.3256  N
ATOM     20 H46  DES L   1      13.172  -6.486  -0.330  1.00  0.00    +0.1686 HD
BRANCH 17 21
ATOM     21 C13  DES L   1      12.041  -4.921   1.242  1.00  0.00    +0.0752  C
ATOM     22 H41  DES L   1      11.421  -4.085   0.880  1.00  0.00    +0.0458  H
BRANCH 21 26
ATOM     23  C9  DES L   1      11.874  -4.740   5.589  1.00  0.00    -0.0103  A
ATOM     24 C10  DES L   1      12.147  -5.955   4.948  1.00  0.00    -0.0551  A
ATOM     25 C11  DES L   1      12.197  -6.030   3.553  1.00  0.00    -0.0574  A
ATOM     26 C12  DES L   1      11.964  -4.894   2.764  1.00  0.00    -0.0341  A
ATOM     27 C29  DES L   1      11.684  -3.680   3.413  1.00  0.00    -0.0574  A
ATOM     28 C30  DES L   1      11.632  -3.606   4.808  1.00  0.00    -0.0551  A
ATOM     29 H39  DES L   1      12.310  -6.858   5.535  1.00  0.00    +0.0621  H
ATOM     30 H40  DES L   1      12.409  -6.997   3.101  1.00  0.00    +0.0621  H
ATOM     31 H53  DES L   1      11.490  -2.779   2.835  1.00  0.00    +0.0621  H
ATOM     32 H54  DES L   1      11.392  -2.656   5.282  1.00  0.00    +0.0621  H
BRANCH 23 33
ATOM     33  C8  DES L   1      11.788  -4.673   7.092  1.00  0.00    +0.1179  C
ATOM     34 H37  DES L   1      12.777  -4.763   7.557  1.00  0.00    +0.0749  H
ATOM     35 H38  DES L   1      11.402  -3.694   7.397  1.00  0.00    +0.0749  H
BRANCH 33 36
ATOM     36  O7  DES L   1      10.864  -5.662   7.561  1.00  0.00    -0.4564 OA
BRANCH 36 37
ATOM     37  C5  DES L   1       9.553  -5.352   7.410  1.00  0.00    +0.3398  C
ATOM     38  O6  DES L   1       9.017  -4.301   7.722  1.00  0.00    -0.2449 OA
BRANCH 37 42
ATOM     39  C1  DES L   1       7.561  -8.777   5.772  1.00  0.00    -0.0615  A
ATOM     40  C2  DES L   1       8.061  -8.810   7.070  1.00  0.00    -0.0610  A
ATOM     41  C3  DES L   1       8.699  -7.688   7.597  1.00  0.00    -0.0475  A
ATOM     42  C4  DES L   1       8.839  -6.520   6.828  1.00  0.00    +0.0619  A
ATOM     43 C31  DES L   1       8.328  -6.477   5.515  1.00  0.00    -0.0365  A
ATOM     44 C32  DES L   1       8.443  -5.257   4.645  1.00  0.00    -0.0389  C
ATOM     45 C33  DES L   1       7.695  -7.622   5.000  1.00  0.00    -0.0581  A
ATOM     46 H34  DES L   1       7.066  -9.652   5.358  1.00  0.00    +0.0618  H
ATOM     47 H35  DES L   1       7.958  -9.710   7.671  1.00  0.00    +0.0618  H
ATOM     48 H36  DES L   1       9.096  -7.733   8.609  1.00  0.00    +0.0626  H
ATOM     49 H55  DES L   1       8.116  -4.363   5.186  1.00  0.00    +0.0278  H
ATOM     50 H56  DES L   1       9.476  -5.128   4.306  1.00  0.00    +0.0278  H
ATOM     51 H57  DES L   1       7.808  -5.340   3.756  1.00  0.00    +0.0278  H
ATOM     52 H58  DES L   1       7.297  -7.619   3.987  1.00  0.00    +0.0620  H
ENDBRANCH 37 42
ENDBRANCH 36 37
ENDBRANCH 33 36
ENDBRANCH 23 33
ENDBRANCH 21 26
BRANCH 21 53
ATOM     53 C14  DES L   1      13.468  -4.637   0.717  1.00  0.00    +0.0085  C
ATOM     54 N15  DES L   1      13.528  -4.273  -0.713  1.00  0.00    -0.3289 NA
ATOM     55 H42  DES L   1      14.104  -5.517   0.873  1.00  0.00    +0.0432  H
ATOM     56 H43  DES L   1      13.908  -3.814   1.292  1.00  0.00    +0.0432  H
ATOM     57 H44  DES L   1      13.222  -5.085  -1.259  1.00  0.00    +0.1182 HD
ATOM     58 H45  DES L   1      14.512  -4.149  -0.969  1.00  0.00    +0.1182 HD
ENDBRANCH 21 53
ENDBRANCH 17 21
ENDBRANCH 1 19
TORSDOF 8
ENDMDL
MODEL 8
REMARK VINA RESULT:    -6.899      3.457      7.186
REMARK INTER + INTRA:         -11.420
REMARK INTER:                  -9.312
REMARK INTRA:                  -2.108
REMARK UNBOUND:                -1.295
ROOT
ATOM      1 C19  DES L   1      11.736  -8.146  -2.149  1.00  0.00    +0.0423  A
ATOM      2 C20  DES L   1      12.818  -7.445  -2.677  1.00  0.00    -0.0377  A
ATOM      3 C21  DES L   1      13.350  -6.344  -1.997  1.00  0.00    -0.0506  A
ATOM      4 C22  DES L   1      12.803  -5.928  -0.772  1.00  0.00    +0.0004  A
ATOM      5 C23  DES L   1      13.293  -4.837  -0.051  1.00  0.00    +0.0353  A
ATOM      6 N24  DES L   1      12.789  -4.409   1.131  1.00  0.00    -0.2626 NA
ATOM      7 C25  DES L   1      11.744  -5.102   1.624  1.00  0.00    +0.0281  A
ATOM      8 C26  DES L   1      11.178  -6.200   0.995  1.00  0.00    -0.0358  A
ATOM      9 C27  DES L   1      11.710  -6.627  -0.228  1.00  0.00    -0.0131  A
ATOM     10 C28  DES L   1      11.189  -7.732  -0.925  1.00  0.00    -0.0305  A
ATOM     11 H47  DES L   1      13.278  -7.729  -3.619  1.00  0.00    +0.0638  H
ATOM     12 H48  DES L   1      14.196  -5.816  -2.432  1.00  0.00    +0.0625  H
ATOM     13 H49  DES L   1      14.135  -4.254  -0.416  1.00  0.00    +0.0836  H
ATOM     14 H50  DES L   1      11.357  -4.742   2.574  1.00  0.00    +0.0830  H
ATOM     15 H51  DES L   1      10.335  -6.708   1.454  1.00  0.00    +0.0639  H
ATOM     16 H52  DES L   1      10.344  -8.274  -0.504  1.00  0.00    +0.0644  H
ENDROOT
BRANCH 1 19
ATOM     17 C16  DES L   1      10.685  -9.385  -4.066  1.00  0.00    +0.2339  C
ATOM     18 O17  DES L   1      10.721  -8.505  -4.925  1.00  0.00    -0.2722 OA
ATOM     19 N18  DES L   1      11.144  -9.264  -2.766  1.00  0.00    -0.3256  N
ATOM     20 H46  DES L   1      11.024 -10.099  -2.187  1.00  0.00    +0.1686 HD
BRANCH 17 21
ATOM     21 C13  DES L   1      10.136 -10.780  -4.410  1.00  0.00    +0.0752  C
ATOM     22 H41  DES L   1       9.584 -11.069  -3.501  1.00  0.00    +0.0458  H
BRANCH 21 26
ATOM     23  C9  DES L   1       7.174 -10.835  -7.601  1.00  0.00    -0.0103  A
ATOM     24 C10  DES L   1       8.440 -11.396  -7.810  1.00  0.00    -0.0551  A
ATOM     25 C11  DES L   1       9.404 -11.379  -6.798  1.00  0.00    -0.0574  A
ATOM     26 C12  DES L   1       9.129 -10.793  -5.554  1.00  0.00    -0.0341  A
ATOM     27 C29  DES L   1       7.859 -10.226  -5.353  1.00  0.00    -0.0574  A
ATOM     28 C30  DES L   1       6.896 -10.241  -6.366  1.00  0.00    -0.0551  A
ATOM     29 H39  DES L   1       8.689 -11.838  -8.774  1.00  0.00    +0.0621  H
ATOM     30 H40  DES L   1      10.374 -11.824  -7.010  1.00  0.00    +0.0621  H
ATOM     31 H53  DES L   1       7.611  -9.755  -4.404  1.00  0.00    +0.0621  H
ATOM     32 H54  DES L   1       5.929  -9.775  -6.188  1.00  0.00    +0.0621  H
BRANCH 23 33
ATOM     33  C8  DES L   1       6.152 -10.826  -8.708  1.00  0.00    +0.1179  C
ATOM     34 H37  DES L   1       5.694 -11.813  -8.842  1.00  0.00    +0.0749  H
ATOM     35 H38  DES L   1       5.331 -10.149  -8.447  1.00  0.00    +0.0749  H
BRANCH 33 36
ATOM     36  O7  DES L   1       6.753 -10.327  -9.908  1.00  0.00    -0.4564 OA
BRANCH 36 37
ATOM     37  C5  DES L   1       6.804  -8.976 -10.016  1.00  0.00    +0.3398  C
ATOM     38  O6  DES L   1       5.912  -8.193  -9.732  1.00  0.00    -0.2449 OA
BRANCH 37 42
ATOM     39  C1  DES L   1      10.607  -7.916 -11.684  1.00  0.00    -0.0615  A
ATOM     40  C2  DES L   1       9.607  -8.442 -12.496  1.00  0.00    -0.0610  A
ATOM     41  C3  DES L   1       8.370  -8.775 -11.946  1.00  0.00    -0.0475  A
ATOM     42  C4  DES L   1       8.124  -8.581 -10.576  1.00  0.00    +0.0619  A
ATOM     43 C31  DES L   1       9.130  -8.040  -9.750  1.00  0.00    -0.0365  A
ATOM     44 C32  DES L   1       8.925  -7.806  -8.279  1.00  0.00    -0.0389  C
ATOM     45 C33  DES L   1      10.373  -7.719 -10.323  1.00  0.00    -0.0581  A
ATOM     46 H34  DES L   1      11.574  -7.658 -12.111  1.00  0.00    +0.0618  H
ATOM     47 H35  DES L   1       9.791  -8.596 -13.557  1.00  0.00    +0.0618  H
ATOM     48 H36  DES L   1       7.603  -9.197 -12.591  1.00  0.00    +0.0626  H
ATOM     49 H55  DES L   1       7.988  -7.269  -8.099  1.00  0.00    +0.0278  H
ATOM     50 H56  DES L   1       8.917  -8.759  -7.740  1.00  0.00    +0.0278  H
ATOM     51 H57  DES L   1       9.728  -7.191  -7.858  1.00  0.00    +0.0278  H
ATOM     52 H58  DES L   1      11.170  -7.307  -9.707  1.00  0.00    +0.0620  H
ENDBRANCH 37 42
ENDBRANCH 36 37
ENDBRANCH 33 36
ENDBRANCH 23 33
ENDBRANCH 21 26
BRANCH 21 53
ATOM     53 C14  DES L   1      11.240 -11.850  -4.583  1.00  0.00    +0.0085  C
ATOM     54 N15  DES L   1      12.601 -11.299  -4.744  1.00  0.00    -0.3289 NA
ATOM     55 H42  DES L   1      11.020 -12.475  -5.456  1.00  0.00    +0.0432  H
ATOM     56 H43  DES L   1      11.247 -12.509  -3.707  1.00  0.00    +0.0432  H
ATOM     57 H44  DES L   1      12.627 -10.773  -5.624  1.00  0.00    +0.1182 HD
ATOM     58 H45  DES L   1      13.245 -12.080  -4.893  1.00  0.00    +0.1182 HD
ENDBRANCH 21 53
ENDBRANCH 17 21
ENDBRANCH 1 19
TORSDOF 8
ENDMDL
MODEL 9
REMARK VINA RESULT:    -6.888      2.294      3.864
REMARK INTER + INTRA:         -11.404
REMARK INTER:                 -10.346
REMARK INTRA:                  -1.058
REMARK UNBOUND:                -1.295
ROOT
ATOM      1 C19  DES L   1      12.164  -5.807   1.914  1.00  0.00    +0.0423  A
ATOM      2 C20  DES L   1      13.241  -4.938   2.073  1.00  0.00    -0.0377  A
ATOM      3 C21  DES L   1      13.123  -3.802   2.881  1.00  0.00    -0.0506  A
ATOM      4 C22  DES L   1      11.918  -3.520   3.545  1.00  0.00    +0.0004  A
ATOM      5 C23  DES L   1      11.745  -2.401   4.363  1.00  0.00    +0.0353  A
ATOM      6 N24  DES L   1      10.598  -2.099   5.018  1.00  0.00    -0.2626 NA
ATOM      7 C25  DES L   1       9.570  -2.953   4.852  1.00  0.00    +0.0281  A
ATOM      8 C26  DES L   1       9.630  -4.093   4.065  1.00  0.00    -0.0358  A
ATOM      9 C27  DES L   1      10.823  -4.389   3.394  1.00  0.00    -0.0131  A
ATOM     10 C28  DES L   1      10.959  -5.527   2.578  1.00  0.00    -0.0305  A
ATOM     11 H47  DES L   1      14.194  -5.114   1.582  1.00  0.00    +0.0638  H
ATOM     12 H48  DES L   1      13.981  -3.142   2.987  1.00  0.00    +0.0625  H
ATOM     13 H49  DES L   1      12.552  -1.690   4.522  1.00  0.00    +0.0836  H
ATOM     14 H50  DES L   1       8.660  -2.692   5.386  1.00  0.00    +0.0830  H
ATOM     15 H51  DES L   1       8.758  -4.734   3.979  1.00  0.00    +0.0639  H
ATOM     16 H52  DES L   1      10.113  -6.200   2.461  1.00  0.00    +0.0644  H
ENDROOT
BRANCH 1 19
ATOM     17 C16  DES L   1      11.552  -7.215  -0.075  1.00  0.00    +0.2339  C
ATOM     18 O17  DES L   1      10.813  -6.428  -0.666  1.00  0.00    -0.2722 OA
ATOM     19 N18  DES L   1      12.199  -6.971   1.123  1.00  0.00    -0.3256  N
ATOM     20 H46  DES L   1      12.768  -7.746   1.473  1.00  0.00    +0.1686 HD
BRANCH 17 21
ATOM     21 C13  DES L   1      11.863  -8.593  -0.686  1.00  0.00    +0.0752  C
ATOM     22 H41  DES L   1      11.022  -9.219  -0.346  1.00  0.00    +0.0458  H
BRANCH 21 26
ATOM     23  C9  DES L   1      11.774  -8.790  -5.035  1.00  0.00    -0.0103  A
ATOM     24 C10  DES L   1      12.710  -7.973  -4.389  1.00  0.00    -0.0551  A
ATOM     25 C11  DES L   1      12.746  -7.894  -2.994  1.00  0.00    -0.0574  A
ATOM     26 C12  DES L   1      11.840  -8.622  -2.210  1.00  0.00    -0.0341  A
ATOM     27 C29  DES L   1      10.899  -9.435  -2.864  1.00  0.00    -0.0574  A
ATOM     28 C30  DES L   1      10.862  -9.512  -4.259  1.00  0.00    -0.0551  A
ATOM     29 H39  DES L   1      13.412  -7.379  -4.974  1.00  0.00    +0.0621  H
ATOM     30 H40  DES L   1      13.490  -7.242  -2.539  1.00  0.00    +0.0621  H
ATOM     31 H53  DES L   1      10.174 -10.009  -2.290  1.00  0.00    +0.0621  H
ATOM     32 H54  DES L   1      10.108 -10.133  -4.738  1.00  0.00    +0.0621  H
BRANCH 23 33
ATOM     33  C8  DES L   1      11.719  -8.844  -6.540  1.00  0.00    +0.1179  C
ATOM     34 H37  DES L   1      12.114  -7.926  -6.991  1.00  0.00    +0.0749  H
ATOM     35 H38  DES L   1      12.359  -9.656  -6.904  1.00  0.00    +0.0749  H
BRANCH 33 36
ATOM     36  O7  DES L   1      10.380  -9.135  -6.957  1.00  0.00    -0.4564 OA
BRANCH 36 37
ATOM     37  C5  DES L   1       9.627  -8.058  -7.290  1.00  0.00    +0.3398  C
ATOM     38  O6  DES L   1       9.822  -6.904  -6.946  1.00  0.00    -0.2449 OA
BRANCH 37 42
ATOM     39  C1  DES L   1       6.327  -9.262  -9.748  1.00  0.00    -0.0615  A
ATOM     40  C2  DES L   1       7.411  -8.593 -10.307  1.00  0.00    -0.0610  A
ATOM     41  C3  DES L   1       8.484  -8.213  -9.501  1.00  0.00    -0.0475  A
ATOM     42  C4  DES L   1       8.480  -8.504  -8.126  1.00  0.00    +0.0619  A
ATOM     43 C31  DES L   1       7.389  -9.190  -7.555  1.00  0.00    -0.0365  A
ATOM     44 C32  DES L   1       7.330  -9.534  -6.092  1.00  0.00    -0.0389  C
ATOM     45 C33  DES L   1       6.314  -9.556  -8.383  1.00  0.00    -0.0581  A
ATOM     46 H34  DES L   1       5.488  -9.557 -10.374  1.00  0.00    +0.0618  H
ATOM     47 H35  DES L   1       7.420  -8.363 -11.370  1.00  0.00    +0.0618  H
ATOM     48 H36  DES L   1       9.318  -7.678  -9.951  1.00  0.00    +0.0626  H
ATOM     49 H55  DES L   1       8.261 -10.009  -5.768  1.00  0.00    +0.0278  H
ATOM     50 H56  DES L   1       7.147  -8.633  -5.498  1.00  0.00    +0.0278  H
ATOM     51 H57  DES L   1       6.522 -10.242  -5.882  1.00  0.00    +0.0278  H
ATOM     52 H58  DES L   1       5.455 -10.081  -7.968  1.00  0.00    +0.0620  H
ENDBRANCH 37 42
ENDBRANCH 36 37
ENDBRANCH 33 36
ENDBRANCH 23 33
ENDBRANCH 21 26
BRANCH 21 53
ATOM     53 C14  DES L   1      13.134  -9.252  -0.101  1.00  0.00    +0.0085  C
ATOM     54 N15  DES L   1      12.893 -10.081   1.096  1.00  0.00    -0.3289 NA
ATOM     55 H42  DES L   1      13.868  -8.480   0.159  1.00  0.00    +0.0432  H
ATOM     56 H43  DES L   1      13.594  -9.891  -0.865  1.00  0.00    +0.0432  H
ATOM     57 H44  DES L   1      12.569  -9.463   1.848  1.00  0.00    +0.1182 HD
ATOM     58 H45  DES L   1      13.796 -10.433   1.427  1.00  0.00    +0.1182 HD
ENDBRANCH 21 53
ENDBRANCH 17 21
ENDBRANCH 1 19
TORSDOF 8
ENDMDL
MODEL 10
REMARK VINA RESULT:    -6.883      3.081      5.318
REMARK INTER + INTRA:         -11.397
REMARK INTER:                  -9.990
REMARK INTRA:                  -1.407
REMARK UNBOUND:                -1.295
ROOT
ATOM      1 C19  DES L   1      13.217  -6.397  -0.119  1.00  0.00    +0.0423  A
ATOM      2 C20  DES L   1      14.283  -5.661  -0.635  1.00  0.00    -0.0377  A
ATOM      3 C21  DES L   1      14.736  -4.512   0.022  1.00  0.00    -0.0506  A
ATOM      4 C22  DES L   1      14.125  -4.082   1.212  1.00  0.00    +0.0004  A
ATOM      5 C23  DES L   1      14.536  -2.943   1.909  1.00  0.00    +0.0353  A
ATOM      6 N24  DES L   1      13.970  -2.501   3.057  1.00  0.00    -0.2626 NA
ATOM      7 C25  DES L   1      12.943  -3.227   3.539  1.00  0.00    +0.0281  A
ATOM      8 C26  DES L   1      12.453  -4.373   2.931  1.00  0.00    -0.0358  A
ATOM      9 C27  DES L   1      13.049  -4.815   1.744  1.00  0.00    -0.0131  A
ATOM     10 C28  DES L   1      12.607  -5.968   1.070  1.00  0.00    -0.0305  A
ATOM     11 H47  DES L   1      14.789  -5.954  -1.550  1.00  0.00    +0.0638  H
ATOM     12 H48  DES L   1      15.570  -3.958  -0.402  1.00  0.00    +0.0625  H
ATOM     13 H49  DES L   1      15.361  -2.333   1.552  1.00  0.00    +0.0836  H
ATOM     14 H50  DES L   1      12.505  -2.855   4.461  1.00  0.00    +0.0830  H
ATOM     15 H51  DES L   1      11.620  -4.906   3.380  1.00  0.00    +0.0639  H
ATOM     16 H52  DES L   1      11.775  -6.536   1.481  1.00  0.00    +0.0644  H
ENDROOT
BRANCH 1 19
ATOM     17 C16  DES L   1      11.506  -7.726  -1.392  1.00  0.00    +0.2339  C
ATOM     18 O17  DES L   1      10.667  -6.848  -1.588  1.00  0.00    -0.2722 OA
ATOM     19 N18  DES L   1      12.703  -7.563  -0.716  1.00  0.00    -0.3256  N
ATOM     20 H46  DES L   1      13.274  -8.408  -0.639  1.00  0.00    +0.1686 HD
BRANCH 17 21
ATOM     21 C13  DES L   1      11.293  -9.142  -1.956  1.00  0.00    +0.0752  C
ATOM     22 H41  DES L   1      10.291  -9.415  -1.588  1.00  0.00    +0.0458  H
BRANCH 21 26
ATOM     23  C9  DES L   1      11.096  -9.443  -6.295  1.00  0.00    -0.0103  A
ATOM     24 C10  DES L   1      12.053  -8.618  -5.692  1.00  0.00    -0.0551  A
ATOM     25 C11  DES L   1      12.124  -8.505  -4.301  1.00  0.00    -0.0574  A
ATOM     26 C12  DES L   1      11.232  -9.207  -3.478  1.00  0.00    -0.0341  A
ATOM     27 C29  DES L   1      10.270 -10.028  -4.088  1.00  0.00    -0.0574  A
ATOM     28 C30  DES L   1      10.197 -10.139  -5.479  1.00  0.00    -0.0551  A
ATOM     29 H39  DES L   1      12.745  -8.044  -6.308  1.00  0.00    +0.0621  H
ATOM     30 H40  DES L   1      12.883  -7.849  -3.880  1.00  0.00    +0.0621  H
ATOM     31 H53  DES L   1       9.555 -10.583  -3.483  1.00  0.00    +0.0621  H
ATOM     32 H54  DES L   1       9.427 -10.766  -5.925  1.00  0.00    +0.0621  H
BRANCH 23 33
ATOM     33  C8  DES L   1      11.002  -9.533  -7.796  1.00  0.00    +0.1179  C
ATOM     34 H37  DES L   1      11.828 -10.119  -8.217  1.00  0.00    +0.0749  H
ATOM     35 H38  DES L   1      10.086 -10.064  -8.078  1.00  0.00    +0.0749  H
BRANCH 33 36
ATOM     36  O7  DES L   1      10.921  -8.215  -8.348  1.00  0.00    -0.4564 OA
BRANCH 36 37
ATOM     37  C5  DES L   1       9.716  -7.604  -8.224  1.00  0.00    +0.3398  C
ATOM     38  O6  DES L   1       9.425  -6.736  -7.419  1.00  0.00    -0.2449 OA
BRANCH 37 42
ATOM     39  C1  DES L   1       6.997  -9.203 -11.127  1.00  0.00    -0.0615  A
ATOM     40  C2  DES L   1       8.117  -8.486 -11.536  1.00  0.00    -0.0610  A
ATOM     41  C3  DES L   1       9.001  -7.977 -10.584  1.00  0.00    -0.0475  A
ATOM     42  C4  DES L   1       8.770  -8.187  -9.214  1.00  0.00    +0.0619  A
ATOM     43 C31  DES L   1       7.642  -8.920  -8.794  1.00  0.00    -0.0365  A
ATOM     44 C32  DES L   1       7.343  -9.180  -7.343  1.00  0.00    -0.0389  C
ATOM     45 C33  DES L   1       6.759  -9.416  -9.769  1.00  0.00    -0.0581  A
ATOM     46 H34  DES L   1       6.305  -9.598 -11.868  1.00  0.00    +0.0618  H
ATOM     47 H35  DES L   1       8.302  -8.319 -12.594  1.00  0.00    +0.0618  H
ATOM     48 H36  DES L   1       9.865  -7.408 -10.918  1.00  0.00    +0.0626  H
ATOM     49 H55  DES L   1       8.230  -9.562  -6.828  1.00  0.00    +0.0278  H
ATOM     50 H56  DES L   1       6.998  -8.262  -6.857  1.00  0.00    +0.0278  H
ATOM     51 H57  DES L   1       6.559  -9.935  -7.227  1.00  0.00    +0.0278  H
ATOM     52 H58  DES L   1       5.876  -9.980  -9.473  1.00  0.00    +0.0620  H
ENDBRANCH 37 42
ENDBRANCH 36 37
ENDBRANCH 33 36
ENDBRANCH 23 33
ENDBRANCH 21 26
BRANCH 21 53
ATOM     53 C14  DES L   1      12.256 -10.194  -1.357  1.00  0.00    +0.0085  C
ATOM     54 N15  DES L   1      11.933 -10.596   0.026  1.00  0.00    -0.3289 NA
ATOM     55 H42  DES L   1      13.283  -9.809  -1.370  1.00  0.00    +0.0432  H
ATOM     56 H43  DES L   1      12.241 -11.095  -1.980  1.00  0.00    +0.0432  H
ATOM     57 H44  DES L   1      12.057  -9.776   0.631  1.00  0.00    +0.1182 HD
ATOM     58 H45  DES L   1      12.649 -11.256   0.342  1.00  0.00    +0.1182 HD
ENDBRANCH 21 53
ENDBRANCH 17 21
ENDBRANCH 1 19
TORSDOF 8
ENDMDL
MODEL 11
REMARK VINA RESULT:    -6.833      3.123     10.467
REMARK INTER + INTRA:         -11.323
REMARK INTER:                  -9.913
REMARK INTRA:                  -1.411
REMARK UNBOUND:                -1.295
ROOT
ATOM      1 C19  DES L   1      12.507  -8.116  -5.366  1.00  0.00    +0.0423  A
ATOM      2 C20  DES L   1      13.565  -8.564  -6.154  1.00  0.00    -0.0377  A
ATOM      3 C21  DES L   1      13.487  -8.498  -7.550  1.00  0.00    -0.0506  A
ATOM      4 C22  DES L   1      12.342  -7.981  -8.178  1.00  0.00    +0.0004  A
ATOM      5 C23  DES L   1      12.211  -7.892  -9.566  1.00  0.00    +0.0353  A
ATOM      6 N24  DES L   1      11.122  -7.400 -10.204  1.00  0.00    -0.2626 NA
ATOM      7 C25  DES L   1      10.111  -6.972  -9.422  1.00  0.00    +0.0281  A
ATOM      8 C26  DES L   1      10.134  -7.012  -8.037  1.00  0.00    -0.0358  A
ATOM      9 C27  DES L   1      11.267  -7.526  -7.394  1.00  0.00    -0.0131  A
ATOM     10 C28  DES L   1      11.363  -7.599  -5.992  1.00  0.00    -0.0305  A
ATOM     11 H47  DES L   1      14.472  -8.969  -5.716  1.00  0.00    +0.0638  H
ATOM     12 H48  DES L   1      14.329  -8.853  -8.140  1.00  0.00    +0.0625  H
ATOM     13 H49  DES L   1      13.005  -8.227 -10.228  1.00  0.00    +0.0836  H
ATOM     14 H50  DES L   1       9.249  -6.580  -9.955  1.00  0.00    +0.0830  H
ATOM     15 H51  DES L   1       9.280  -6.649  -7.474  1.00  0.00    +0.0639  H
ATOM     16 H52  DES L   1      10.531  -7.247  -5.385  1.00  0.00    +0.0644  H
ENDROOT
BRANCH 1 19
ATOM     17 C16  DES L   1      13.523  -7.791  -3.091  1.00  0.00    +0.2339  C
ATOM     18 O17  DES L   1      14.635  -7.380  -3.418  1.00  0.00    -0.2722 OA
ATOM     19 N18  DES L   1      12.505  -8.145  -3.959  1.00  0.00    -0.3256  N
ATOM     20 H46  DES L   1      11.648  -8.476  -3.508  1.00  0.00    +0.1686 HD
BRANCH 17 21
ATOM     21 C13  DES L   1      13.147  -7.906  -1.603  1.00  0.00    +0.0752  C
ATOM     22 H41  DES L   1      13.753  -8.756  -1.251  1.00  0.00    +0.0458  H
BRANCH 21 26
ATOM     23  C9  DES L   1      14.263  -4.522   0.900  1.00  0.00    -0.0103  A
ATOM     24 C10  DES L   1      13.749  -4.305  -0.384  1.00  0.00    -0.0551  A
ATOM     25 C11  DES L   1      13.393  -5.381  -1.202  1.00  0.00    -0.0574  A
ATOM     26 C12  DES L   1      13.552  -6.702  -0.760  1.00  0.00    -0.0341  A
ATOM     27 C29  DES L   1      14.074  -6.914   0.527  1.00  0.00    -0.0574  A
ATOM     28 C30  DES L   1      14.432  -5.838   1.343  1.00  0.00    -0.0551  A
ATOM     29 H39  DES L   1      13.636  -3.289  -0.763  1.00  0.00    +0.0621  H
ATOM     30 H40  DES L   1      13.001  -5.161  -2.194  1.00  0.00    +0.0621  H
ATOM     31 H53  DES L   1      14.220  -7.925   0.902  1.00  0.00    +0.0621  H
ATOM     32 H54  DES L   1      14.855  -6.033   2.327  1.00  0.00    +0.0621  H
BRANCH 23 33
ATOM     33  C8  DES L   1      14.677  -3.358   1.763  1.00  0.00    +0.1179  C
ATOM     34 H37  DES L   1      15.747  -3.141   1.660  1.00  0.00    +0.0749  H
ATOM     35 H38  DES L   1      14.154  -2.452   1.437  1.00  0.00    +0.0749  H
BRANCH 33 36
ATOM     36  O7  DES L   1      14.292  -3.610   3.119  1.00  0.00    -0.4564 OA
BRANCH 36 37
ATOM     37  C5  DES L   1      13.149  -3.002   3.522  1.00  0.00    +0.3398  C
ATOM     38  O6  DES L   1      12.973  -1.802   3.648  1.00  0.00    -0.2449 OA
BRANCH 37 42
ATOM     39  C1  DES L   1      10.146  -5.948   4.349  1.00  0.00    -0.0615  A
ATOM     40  C2  DES L   1      10.337  -5.487   3.050  1.00  0.00    -0.0610  A
ATOM     41  C3  DES L   1      11.323  -4.535   2.790  1.00  0.00    -0.0475  A
ATOM     42  C4  DES L   1      12.127  -4.039   3.830  1.00  0.00    +0.0619  A
ATOM     43 C31  DES L   1      11.943  -4.508   5.146  1.00  0.00    -0.0365  A
ATOM     44 C32  DES L   1      12.775  -4.019   6.300  1.00  0.00    -0.0389  C
ATOM     45 C33  DES L   1      10.939  -5.461   5.389  1.00  0.00    -0.0581  A
ATOM     46 H34  DES L   1       9.375  -6.688   4.555  1.00  0.00    +0.0618  H
ATOM     47 H35  DES L   1       9.718  -5.865   2.240  1.00  0.00    +0.0618  H
ATOM     48 H36  DES L   1      11.452  -4.175   1.771  1.00  0.00    +0.0626  H
ATOM     49 H55  DES L   1      13.841  -4.056   6.052  1.00  0.00    +0.0278  H
ATOM     50 H56  DES L   1      12.490  -2.996   6.565  1.00  0.00    +0.0278  H
ATOM     51 H57  DES L   1      12.633  -4.646   7.187  1.00  0.00    +0.0278  H
ATOM     52 H58  DES L   1      10.770  -5.836   6.397  1.00  0.00    +0.0620  H
ENDBRANCH 37 42
ENDBRANCH 36 37
ENDBRANCH 33 36
ENDBRANCH 23 33
ENDBRANCH 21 26
BRANCH 21 53
ATOM     53 C14  DES L   1      11.675  -8.321  -1.372  1.00  0.00    +0.0085  C
ATOM     54 N15  DES L   1      10.687  -7.289  -1.742  1.00  0.00    -0.3289 NA
ATOM     55 H42  DES L   1      11.522  -8.579  -0.317  1.00  0.00    +0.0432  H
ATOM     56 H43  DES L   1      11.456  -9.220  -1.959  1.00  0.00    +0.0432  H
ATOM     57 H44  DES L   1      10.818  -6.487  -1.115  1.00  0.00    +0.1182 HD
ATOM     58 H45  DES L   1       9.754  -7.642  -1.512  1.00  0.00    +0.1182 HD
ENDBRANCH 21 53
ENDBRANCH 17 21
ENDBRANCH 1 19
TORSDOF 8
ENDMDL
MODEL 12
REMARK VINA RESULT:    -6.783      3.543     10.670
REMARK INTER + INTRA:         -11.250
REMARK INTER:                 -10.374
REMARK INTRA:                  -0.876
REMARK UNBOUND:                -1.295
ROOT
ATOM      1 C19  DES L   1      10.442  -8.542  -6.421  1.00  0.00    +0.0423  A
ATOM      2 C20  DES L   1      10.942  -7.770  -7.468  1.00  0.00    -0.0377  A
ATOM      3 C21  DES L   1      10.176  -7.558  -8.620  1.00  0.00    -0.0506  A
ATOM      4 C22  DES L   1       8.893  -8.117  -8.739  1.00  0.00    +0.0004  A
ATOM      5 C23  DES L   1       8.087  -7.938  -9.866  1.00  0.00    +0.0353  A
ATOM      6 N24  DES L   1       6.847  -8.463 -10.013  1.00  0.00    -0.2626 NA
ATOM      7 C25  DES L   1       6.383  -9.204  -8.988  1.00  0.00    +0.0281  A
ATOM      8 C26  DES L   1       7.096  -9.447  -7.824  1.00  0.00    -0.0358  A
ATOM      9 C27  DES L   1       8.378  -8.898  -7.689  1.00  0.00    -0.0131  A
ATOM     10 C28  DES L   1       9.160  -9.101  -6.538  1.00  0.00    -0.0305  A
ATOM     11 H47  DES L   1      11.926  -7.315  -7.423  1.00  0.00    +0.0638  H
ATOM     12 H48  DES L   1      10.591  -6.951  -9.422  1.00  0.00    +0.0625  H
ATOM     13 H49  DES L   1       8.426  -7.346 -10.712  1.00  0.00    +0.0836  H
ATOM     14 H50  DES L   1       5.386  -9.614  -9.127  1.00  0.00    +0.0830  H
ATOM     15 H51  DES L   1       6.655 -10.055  -7.040  1.00  0.00    +0.0639  H
ATOM     16 H52  DES L   1       8.761  -9.704  -5.725  1.00  0.00    +0.0644  H
ENDROOT
BRANCH 1 19
ATOM     17 C16  DES L   1      12.322  -8.229  -4.782  1.00  0.00    +0.2339  C
ATOM     18 O17  DES L   1      12.970  -7.367  -5.375  1.00  0.00    -0.2722 OA
ATOM     19 N18  DES L   1      11.144  -8.802  -5.229  1.00  0.00    -0.3256  N
ATOM     20 H46  DES L   1      10.747  -9.512  -4.608  1.00  0.00    +0.1686 HD
BRANCH 17 21
ATOM     21 C13  DES L   1      12.777  -8.727  -3.400  1.00  0.00    +0.0752  C
ATOM     22 H41  DES L   1      13.872  -8.799  -3.502  1.00  0.00    +0.0458  H
BRANCH 21 26
ATOM     23  C9  DES L   1      11.893  -5.942  -0.172  1.00  0.00    -0.0103  A
ATOM     24 C10  DES L   1      13.028  -5.752  -0.970  1.00  0.00    -0.0551  A
ATOM     25 C11  DES L   1      13.329  -6.642  -2.005  1.00  0.00    -0.0574  A
ATOM     26 C12  DES L   1      12.508  -7.749  -2.262  1.00  0.00    -0.0341  A
ATOM     27 C29  DES L   1      11.374  -7.938  -1.453  1.00  0.00    -0.0574  A
ATOM     28 C30  DES L   1      11.075  -7.050  -0.417  1.00  0.00    -0.0551  A
ATOM     29 H39  DES L   1      13.696  -4.914  -0.779  1.00  0.00    +0.0621  H
ATOM     30 H40  DES L   1      14.224  -6.454  -2.595  1.00  0.00    +0.0621  H
ATOM     31 H53  DES L   1      10.717  -8.790  -1.616  1.00  0.00    +0.0621  H
ATOM     32 H54  DES L   1      10.202  -7.233   0.207  1.00  0.00    +0.0621  H
BRANCH 23 33
ATOM     33  C8  DES L   1      11.594  -4.999   0.965  1.00  0.00    +0.1179  C
ATOM     34 H37  DES L   1      12.513  -4.638   1.442  1.00  0.00    +0.0749  H
ATOM     35 H38  DES L   1      11.086  -4.107   0.581  1.00  0.00    +0.0749  H
BRANCH 33 36
ATOM     36  O7  DES L   1      10.703  -5.633   1.889  1.00  0.00    -0.4564 OA
BRANCH 36 37
ATOM     37  C5  DES L   1      11.202  -5.839   3.132  1.00  0.00    +0.3398  C
ATOM     38  O6  DES L   1      12.126  -6.579   3.428  1.00  0.00    -0.2449 OA
BRANCH 37 42
ATOM     39  C1  DES L   1       8.863  -3.560   5.909  1.00  0.00    -0.0615  A
ATOM     40  C2  DES L   1       8.440  -4.822   5.506  1.00  0.00    -0.0610  A
ATOM     41  C3  DES L   1       9.212  -5.560   4.609  1.00  0.00    -0.0475  A
ATOM     42  C4  DES L   1      10.419  -5.039   4.111  1.00  0.00    +0.0619  A
ATOM     43 C31  DES L   1      10.857  -3.764   4.523  1.00  0.00    -0.0365  A
ATOM     44 C32  DES L   1      12.140  -3.155   4.028  1.00  0.00    -0.0389  C
ATOM     45 C33  DES L   1      10.060  -3.033   5.420  1.00  0.00    -0.0581  A
ATOM     46 H34  DES L   1       8.261  -2.981   6.606  1.00  0.00    +0.0618  H
ATOM     47 H35  DES L   1       7.507  -5.231   5.886  1.00  0.00    +0.0618  H
ATOM     48 H36  DES L   1       8.861  -6.540   4.293  1.00  0.00    +0.0626  H
ATOM     49 H55  DES L   1      12.968  -3.865   4.122  1.00  0.00    +0.0278  H
ATOM     50 H56  DES L   1      12.034  -2.843   2.984  1.00  0.00    +0.0278  H
ATOM     51 H57  DES L   1      12.413  -2.271   4.614  1.00  0.00    +0.0278  H
ATOM     52 H58  DES L   1      10.371  -2.043   5.750  1.00  0.00    +0.0620  H
ENDBRANCH 37 42
ENDBRANCH 36 37
ENDBRANCH 33 36
ENDBRANCH 23 33
ENDBRANCH 21 26
BRANCH 21 53
ATOM     53 C14  DES L   1      12.295 -10.161  -3.074  1.00  0.00    +0.0085  C
ATOM     54 N15  DES L   1      12.613 -11.160  -4.113  1.00  0.00    -0.3289 NA
ATOM     55 H42  DES L   1      11.210 -10.162  -2.918  1.00  0.00    +0.0432  H
ATOM     56 H43  DES L   1      12.757 -10.493  -2.137  1.00  0.00    +0.0432  H
ATOM     57 H44  DES L   1      12.090 -10.911  -4.961  1.00  0.00    +0.1182 HD
ATOM     58 H45  DES L   1      12.217 -12.058  -3.824  1.00  0.00    +0.1182 HD
ENDBRANCH 21 53
ENDBRANCH 17 21
ENDBRANCH 1 19
TORSDOF 8
ENDMDL
MODEL 13
REMARK VINA RESULT:    -6.684      1.915      2.887
REMARK INTER + INTRA:         -11.105
REMARK INTER:                  -9.652
REMARK INTRA:                  -1.452
REMARK UNBOUND:                -1.295
ROOT
ATOM      1 C19  DES L   1      11.766  -5.109   2.787  1.00  0.00    +0.0423  A
ATOM      2 C20  DES L   1      12.127  -3.807   3.127  1.00  0.00    -0.0377  A
ATOM      3 C21  DES L   1      11.410  -3.103   4.100  1.00  0.00    -0.0506  A
ATOM      4 C22  DES L   1      10.315  -3.697   4.750  1.00  0.00    +0.0004  A
ATOM      5 C23  DES L   1       9.564  -3.040   5.728  1.00  0.00    +0.0353  A
ATOM      6 N24  DES L   1       8.504  -3.582   6.373  1.00  0.00    -0.2626 NA
ATOM      7 C25  DES L   1       8.173  -4.843   6.030  1.00  0.00    +0.0281  A
ATOM      8 C26  DES L   1       8.847  -5.587   5.075  1.00  0.00    -0.0358  A
ATOM      9 C27  DES L   1       9.940  -5.010   4.416  1.00  0.00    -0.0131  A
ATOM     10 C28  DES L   1      10.673  -5.704   3.436  1.00  0.00    -0.0305  A
ATOM     11 H47  DES L   1      12.967  -3.306   2.655  1.00  0.00    +0.0638  H
ATOM     12 H48  DES L   1      11.715  -2.088   4.346  1.00  0.00    +0.0625  H
ATOM     13 H49  DES L   1       9.802  -2.024   6.031  1.00  0.00    +0.0836  H
ATOM     14 H50  DES L   1       7.320  -5.258   6.561  1.00  0.00    +0.0830  H
ATOM     15 H51  DES L   1       8.521  -6.598   4.852  1.00  0.00    +0.0639  H
ATOM     16 H52  DES L   1      10.383  -6.720   3.177  1.00  0.00    +0.0644  H
ENDROOT
BRANCH 1 19
ATOM     17 C16  DES L   1      12.144  -6.022   0.476  1.00  0.00    +0.2339  C
ATOM     18 O17  DES L   1      11.221  -5.466  -0.119  1.00  0.00    -0.2722 OA
ATOM     19 N18  DES L   1      12.434  -5.886   1.822  1.00  0.00    -0.3256  N
ATOM     20 H46  DES L   1      13.236  -6.432   2.148  1.00  0.00    +0.1686 HD
BRANCH 17 21
ATOM     21 C13  DES L   1      13.126  -6.926  -0.289  1.00  0.00    +0.0752  C
ATOM     22 H41  DES L   1      13.425  -7.674   0.463  1.00  0.00    +0.0458  H
BRANCH 21 26
ATOM     23  C9  DES L   1      11.343  -9.227  -3.527  1.00  0.00    -0.0103  A
ATOM     24 C10  DES L   1      12.196  -8.155  -3.816  1.00  0.00    -0.0551  A
ATOM     25 C11  DES L   1      12.771  -7.403  -2.788  1.00  0.00    -0.0574  A
ATOM     26 C12  DES L   1      12.497  -7.697  -1.445  1.00  0.00    -0.0341  A
ATOM     27 C29  DES L   1      11.635  -8.769  -1.161  1.00  0.00    -0.0574  A
ATOM     28 C30  DES L   1      11.059  -9.520  -2.189  1.00  0.00    -0.0551  A
ATOM     29 H39  DES L   1      12.408  -7.890  -4.851  1.00  0.00    +0.0621  H
ATOM     30 H40  DES L   1      13.424  -6.577  -3.063  1.00  0.00    +0.0621  H
ATOM     31 H53  DES L   1      11.392  -9.023  -0.131  1.00  0.00    +0.0621  H
ATOM     32 H54  DES L   1      10.378 -10.331  -1.940  1.00  0.00    +0.0621  H
BRANCH 23 33
ATOM     33  C8  DES L   1      10.699 -10.012  -4.641  1.00  0.00    +0.1179  C
ATOM     34 H37  DES L   1      11.335 -10.039  -5.534  1.00  0.00    +0.0749  H
ATOM     35 H38  DES L   1      10.574 -11.056  -4.333  1.00  0.00    +0.0749  H
BRANCH 33 36
ATOM     36  O7  DES L   1       9.395  -9.484  -4.905  1.00  0.00    -0.4564 OA
BRANCH 36 37
ATOM     37  C5  DES L   1       9.241  -8.887  -6.113  1.00  0.00    +0.3398  C
ATOM     38  O6  DES L   1       9.823  -7.890  -6.507  1.00  0.00    -0.2449 OA
BRANCH 37 42
ATOM     39  C1  DES L   1       6.221 -11.024  -8.278  1.00  0.00    -0.0615  A
ATOM     40  C2  DES L   1       5.865 -10.154  -7.252  1.00  0.00    -0.0610  A
ATOM     41  C3  DES L   1       6.855  -9.457  -6.560  1.00  0.00    -0.0475  A
ATOM     42  C4  DES L   1       8.210  -9.623  -6.893  1.00  0.00    +0.0619  A
ATOM     43 C31  DES L   1       8.576 -10.496  -7.937  1.00  0.00    -0.0365  A
ATOM     44 C32  DES L   1      10.008 -10.714  -8.341  1.00  0.00    -0.0389  C
ATOM     45 C33  DES L   1       7.564 -11.196  -8.616  1.00  0.00    -0.0581  A
ATOM     46 H34  DES L   1       5.451 -11.572  -8.818  1.00  0.00    +0.0618  H
ATOM     47 H35  DES L   1       4.819 -10.021  -6.989  1.00  0.00    +0.0618  H
ATOM     48 H36  DES L   1       6.562  -8.790  -5.751  1.00  0.00    +0.0626  H
ATOM     49 H55  DES L   1      10.520  -9.756  -8.480  1.00  0.00    +0.0278  H
ATOM     50 H56  DES L   1      10.530 -11.309  -7.585  1.00  0.00    +0.0278  H
ATOM     51 H57  DES L   1      10.075 -11.249  -9.294  1.00  0.00    +0.0278  H
ATOM     52 H58  DES L   1       7.818 -11.883  -9.423  1.00  0.00    +0.0620  H
ENDBRANCH 37 42
ENDBRANCH 36 37
ENDBRANCH 33 36
ENDBRANCH 23 33
ENDBRANCH 21 26
BRANCH 21 53
ATOM     53 C14  DES L   1      14.432  -6.206  -0.701  1.00  0.00    +0.0085  C
ATOM     54 N15  DES L   1      14.429  -4.751  -0.448  1.00  0.00    -0.3289 NA
ATOM     55 H42  DES L   1      14.625  -6.367  -1.768  1.00  0.00    +0.0432  H
ATOM     56 H43  DES L   1      15.274  -6.640  -0.150  1.00  0.00    +0.0432  H
ATOM     57 H44  DES L   1      13.714  -4.327  -1.049  1.00  0.00    +0.1182 HD
ATOM     58 H45  DES L   1      15.313  -4.366  -0.792  1.00  0.00    +0.1182 HD
ENDBRANCH 21 53
ENDBRANCH 17 21
ENDBRANCH 1 19
TORSDOF 8
ENDMDL
MODEL 14
REMARK VINA RESULT:    -6.675      8.163     12.659
REMARK INTER + INTRA:         -11.091
REMARK INTER:                  -8.470
REMARK INTRA:                  -2.621
REMARK UNBOUND:                -1.295
ROOT
ATOM      1 C19  DES L   1      10.591  -8.318 -12.111  1.00  0.00    +0.0423  A
ATOM      2 C20  DES L   1      10.428  -7.765 -13.380  1.00  0.00    -0.0377  A
ATOM      3 C21  DES L   1      11.459  -7.027 -13.970  1.00  0.00    -0.0506  A
ATOM      4 C22  DES L   1      12.676  -6.833 -13.295  1.00  0.00    +0.0004  A
ATOM      5 C23  DES L   1      13.739  -6.105 -13.836  1.00  0.00    +0.0353  A
ATOM      6 N24  DES L   1      14.923  -5.899 -13.213  1.00  0.00    -0.2626 NA
ATOM      7 C25  DES L   1      15.061  -6.444 -11.989  1.00  0.00    +0.0281  A
ATOM      8 C26  DES L   1      14.073  -7.184 -11.356  1.00  0.00    -0.0358  A
ATOM      9 C27  DES L   1      12.854  -7.386 -12.015  1.00  0.00    -0.0131  A
ATOM     10 C28  DES L   1      11.806  -8.126 -11.436  1.00  0.00    -0.0305  A
ATOM     11 H47  DES L   1       9.508  -7.889 -13.942  1.00  0.00    +0.0638  H
ATOM     12 H48  DES L   1      11.305  -6.607 -14.961  1.00  0.00    +0.0625  H
ATOM     13 H49  DES L   1      13.665  -5.652 -14.822  1.00  0.00    +0.0836  H
ATOM     14 H50  DES L   1      16.019  -6.266 -11.508  1.00  0.00    +0.0830  H
ATOM     15 H51  DES L   1      14.258  -7.592 -10.367  1.00  0.00    +0.0639  H
ATOM     16 H52  DES L   1      11.944  -8.554 -10.445  1.00  0.00    +0.0644  H
ENDROOT
BRANCH 1 19
ATOM     17 C16  DES L   1       8.283  -8.745 -11.214  1.00  0.00    +0.2339  C
ATOM     18 O17  DES L   1       7.731  -7.700 -11.558  1.00  0.00    -0.2722 OA
ATOM     19 N18  DES L   1       9.607  -9.074 -11.448  1.00  0.00    -0.3256  N
ATOM     20 H46  DES L   1       9.897  -9.984 -11.081  1.00  0.00    +0.1686 HD
BRANCH 17 21
ATOM     21 C13  DES L   1       7.481  -9.843 -10.494  1.00  0.00    +0.0752  C
ATOM     22 H41  DES L   1       7.863 -10.775 -10.943  1.00  0.00    +0.0458  H
BRANCH 21 26
ATOM     23  C9  DES L   1       8.171 -10.193  -6.209  1.00  0.00    -0.0103  A
ATOM     24 C10  DES L   1       8.251  -8.941  -6.832  1.00  0.00    -0.0551  A
ATOM     25 C11  DES L   1       8.040  -8.814  -8.208  1.00  0.00    -0.0574  A
ATOM     26 C12  DES L   1       7.753  -9.937  -8.997  1.00  0.00    -0.0341  A
ATOM     27 C29  DES L   1       7.680 -11.191  -8.367  1.00  0.00    -0.0574  A
ATOM     28 C30  DES L   1       7.894 -11.318  -6.992  1.00  0.00    -0.0551  A
ATOM     29 H39  DES L   1       8.495  -8.055  -6.248  1.00  0.00    +0.0621  H
ATOM     30 H40  DES L   1       8.116  -7.821  -8.647  1.00  0.00    +0.0621  H
ATOM     31 H53  DES L   1       7.467 -12.087  -8.947  1.00  0.00    +0.0621  H
ATOM     32 H54  DES L   1       7.853 -12.305  -6.535  1.00  0.00    +0.0621  H
BRANCH 23 33
ATOM     33  C8  DES L   1       8.435 -10.328  -4.731  1.00  0.00    +0.1179  C
ATOM     34 H37  DES L   1       7.527 -10.153  -4.143  1.00  0.00    +0.0749  H
ATOM     35 H38  DES L   1       8.746 -11.353  -4.504  1.00  0.00    +0.0749  H
BRANCH 33 36
ATOM     36  O7  DES L   1       9.512  -9.461  -4.359  1.00  0.00    -0.4564 OA
BRANCH 36 37
ATOM     37  C5  DES L   1      10.755  -9.990  -4.481  1.00  0.00    +0.3398  C
ATOM     38  O6  DES L   1      11.265 -10.817  -3.744  1.00  0.00    -0.2449 OA
BRANCH 37 42
ATOM     39  C1  DES L   1      12.652  -8.139  -7.851  1.00  0.00    -0.0615  A
ATOM     40  C2  DES L   1      12.295  -7.378  -6.742  1.00  0.00    -0.0610  A
ATOM     41  C3  DES L   1      11.686  -7.991  -5.647  1.00  0.00    -0.0475  A
ATOM     42  C4  DES L   1      11.433  -9.374  -5.653  1.00  0.00    +0.0619  A
ATOM     43 C31  DES L   1      11.800 -10.151  -6.770  1.00  0.00    -0.0365  A
ATOM     44 C32  DES L   1      11.559 -11.634  -6.834  1.00  0.00    -0.0389  C
ATOM     45 C33  DES L   1      12.405  -9.513  -7.867  1.00  0.00    -0.0581  A
ATOM     46 H34  DES L   1      13.124  -7.663  -8.707  1.00  0.00    +0.0618  H
ATOM     47 H35  DES L   1      12.486  -6.309  -6.730  1.00  0.00    +0.0618  H
ATOM     48 H36  DES L   1      11.401  -7.381  -4.792  1.00  0.00    +0.0626  H
ATOM     49 H55  DES L   1      11.918 -12.124  -5.924  1.00  0.00    +0.0278  H
ATOM     50 H56  DES L   1      10.493 -11.840  -6.972  1.00  0.00    +0.0278  H
ATOM     51 H57  DES L   1      12.098 -12.089  -7.672  1.00  0.00    +0.0278  H
ATOM     52 H58  DES L   1      12.692 -10.087  -8.746  1.00  0.00    +0.0620  H
ENDBRANCH 37 42
ENDBRANCH 36 37
ENDBRANCH 33 36
ENDBRANCH 23 33
ENDBRANCH 21 26
BRANCH 21 53
ATOM     53 C14  DES L   1       5.969  -9.815 -10.820  1.00  0.00    +0.0085  C
ATOM     54 N15  DES L   1       5.201  -8.816 -10.051  1.00  0.00    -0.3289 NA
ATOM     55 H42  DES L   1       5.530 -10.802 -10.636  1.00  0.00    +0.0432  H
ATOM     56 H43  DES L   1       5.833  -9.594 -11.886  1.00  0.00    +0.0432  H
ATOM     57 H44  DES L   1       5.234  -9.086  -9.062  1.00  0.00    +0.1182 HD
ATOM     58 H45  DES L   1       4.214  -8.907 -10.307  1.00  0.00    +0.1182 HD
ENDBRANCH 21 53
ENDBRANCH 17 21
ENDBRANCH 1 19
TORSDOF 8
ENDMDL
MODEL 15
REMARK VINA RESULT:    -6.674      3.187      5.888
REMARK INTER + INTRA:         -11.090
REMARK INTER:                  -9.445
REMARK INTRA:                  -1.645
REMARK UNBOUND:                -1.295
ROOT
ATOM      1 C19  DES L   1      11.713  -6.798  -0.475  1.00  0.00    +0.0423  A
ATOM      2 C20  DES L   1      11.070  -6.621   0.748  1.00  0.00    -0.0377  A
ATOM      3 C21  DES L   1      11.558  -5.697   1.679  1.00  0.00    -0.0506  A
ATOM      4 C22  DES L   1      12.703  -4.934   1.395  1.00  0.00    +0.0004  A
ATOM      5 C23  DES L   1      13.233  -3.999   2.287  1.00  0.00    +0.0353  A
ATOM      6 N24  DES L   1      14.334  -3.248   2.047  1.00  0.00    -0.2626 NA
ATOM      7 C25  DES L   1      14.940  -3.434   0.858  1.00  0.00    +0.0281  A
ATOM      8 C26  DES L   1      14.501  -4.334  -0.102  1.00  0.00    -0.0358  A
ATOM      9 C27  DES L   1      13.361  -5.104   0.165  1.00  0.00    -0.0131  A
ATOM     10 C28  DES L   1      12.857  -6.036  -0.760  1.00  0.00    -0.0305  A
ATOM     11 H47  DES L   1      10.180  -7.185   1.012  1.00  0.00    +0.0638  H
ATOM     12 H48  DES L   1      11.035  -5.579   2.625  1.00  0.00    +0.0625  H
ATOM     13 H49  DES L   1      12.772  -3.821   3.255  1.00  0.00    +0.0836  H
ATOM     14 H50  DES L   1      15.820  -2.821   0.686  1.00  0.00    +0.0830  H
ATOM     15 H51  DES L   1      15.042  -4.429  -1.038  1.00  0.00    +0.0639  H
ATOM     16 H52  DES L   1      13.366  -6.167  -1.713  1.00  0.00    +0.0644  H
ENDROOT
BRANCH 1 19
ATOM     17 C16  DES L   1      11.943  -8.822  -1.947  1.00  0.00    +0.2339  C
ATOM     18 O17  DES L   1      13.045  -9.224  -1.575  1.00  0.00    -0.2722 OA
ATOM     19 N18  DES L   1      11.287  -7.703  -1.466  1.00  0.00    -0.3256  N
ATOM     20 H46  DES L   1      10.380  -7.514  -1.900  1.00  0.00    +0.1686 HD
BRANCH 17 21
ATOM     21 C13  DES L   1      11.149  -9.608  -3.005  1.00  0.00    +0.0752  C
ATOM     22 H41  DES L   1      10.105  -9.312  -2.814  1.00  0.00    +0.0458  H
BRANCH 21 26
ATOM     23  C9  DES L   1      12.073  -8.576  -7.133  1.00  0.00    -0.0103  A
ATOM     24 C10  DES L   1      12.269  -7.635  -6.115  1.00  0.00    -0.0551  A
ATOM     25 C11  DES L   1      11.970  -7.949  -4.786  1.00  0.00    -0.0574  A
ATOM     26 C12  DES L   1      11.459  -9.209  -4.444  1.00  0.00    -0.0341  A
ATOM     27 C29  DES L   1      11.259 -10.146  -5.471  1.00  0.00    -0.0574  A
ATOM     28 C30  DES L   1      11.555  -9.831  -6.800  1.00  0.00    -0.0551  A
ATOM     29 H39  DES L   1      12.644  -6.641  -6.355  1.00  0.00    +0.0621  H
ATOM     30 H40  DES L   1      12.136  -7.183  -4.031  1.00  0.00    +0.0621  H
ATOM     31 H53  DES L   1      10.856 -11.132  -5.246  1.00  0.00    +0.0621  H
ATOM     32 H54  DES L   1      11.369 -10.570  -7.577  1.00  0.00    +0.0621  H
BRANCH 23 33
ATOM     33  C8  DES L   1      12.365  -8.219  -8.568  1.00  0.00    +0.1179  C
ATOM     34 H37  DES L   1      12.779  -7.208  -8.656  1.00  0.00    +0.0749  H
ATOM     35 H38  DES L   1      13.133  -8.892  -8.967  1.00  0.00    +0.0749  H
BRANCH 33 36
ATOM     36  O7  DES L   1      11.183  -8.404  -9.355  1.00  0.00    -0.4564 OA
BRANCH 36 37
ATOM     37  C5  DES L   1      10.224  -7.458  -9.197  1.00  0.00    +0.3398  C
ATOM     38  O6  DES L   1      10.397  -6.251  -9.166  1.00  0.00    -0.2449 OA
BRANCH 37 42
ATOM     39  C1  DES L   1       6.461  -9.437  -8.649  1.00  0.00    -0.0615  A
ATOM     40  C2  DES L   1       7.265  -9.143  -7.552  1.00  0.00    -0.0610  A
ATOM     41  C3  DES L   1       8.483  -8.491  -7.740  1.00  0.00    -0.0475  A
ATOM     42  C4  DES L   1       8.905  -8.125  -9.030  1.00  0.00    +0.0619  A
ATOM     43 C31  DES L   1       8.091  -8.413 -10.144  1.00  0.00    -0.0365  A
ATOM     44 C32  DES L   1       8.486  -8.045 -11.547  1.00  0.00    -0.0389  C
ATOM     45 C33  DES L   1       6.871  -9.079  -9.934  1.00  0.00    -0.0581  A
ATOM     46 H34  DES L   1       5.512  -9.949  -8.506  1.00  0.00    +0.0618  H
ATOM     47 H35  DES L   1       6.946  -9.423  -6.552  1.00  0.00    +0.0618  H
ATOM     48 H36  DES L   1       9.107  -8.278  -6.874  1.00  0.00    +0.0626  H
ATOM     49 H55  DES L   1       8.804  -6.998 -11.598  1.00  0.00    +0.0278  H
ATOM     50 H56  DES L   1       9.293  -8.696 -11.898  1.00  0.00    +0.0278  H
ATOM     51 H57  DES L   1       7.644  -8.153 -12.239  1.00  0.00    +0.0278  H
ATOM     52 H58  DES L   1       6.226  -9.320 -10.777  1.00  0.00    +0.0620  H
ENDBRANCH 37 42
ENDBRANCH 36 37
ENDBRANCH 33 36
ENDBRANCH 23 33
ENDBRANCH 21 26
BRANCH 21 53
ATOM     53 C14  DES L   1      11.193 -11.140  -2.795  1.00  0.00    +0.0085  C
ATOM     54 N15  DES L   1      10.827 -11.577  -1.433  1.00  0.00    -0.3289 NA
ATOM     55 H42  DES L   1      12.198 -11.518  -3.017  1.00  0.00    +0.0432  H
ATOM     56 H43  DES L   1      10.503 -11.621  -3.498  1.00  0.00    +0.0432  H
ATOM     57 H44  DES L   1      11.538 -11.219  -0.785  1.00  0.00    +0.1182 HD
ATOM     58 H45  DES L   1      10.929 -12.594  -1.386  1.00  0.00    +0.1182 HD
ENDBRANCH 21 53
ENDBRANCH 17 21
ENDBRANCH 1 19
TORSDOF 8
ENDMDL
MODEL 16
REMARK VINA RESULT:    -6.568      3.367      6.773
REMARK INTER + INTRA:         -10.935
REMARK INTER:                  -9.010
REMARK INTRA:                  -1.925
REMARK UNBOUND:                -1.295
ROOT
ATOM      1 C19  DES L   1      12.142  -7.311  -2.254  1.00  0.00    +0.0423  A
ATOM      2 C20  DES L   1      11.077  -7.463  -1.369  1.00  0.00    -0.0377  A
ATOM      3 C21  DES L   1      11.058  -6.765  -0.156  1.00  0.00    -0.0506  A
ATOM      4 C22  DES L   1      12.111  -5.901   0.187  1.00  0.00    +0.0004  A
ATOM      5 C23  DES L   1      12.143  -5.180   1.384  1.00  0.00    +0.0353  A
ATOM      6 N24  DES L   1      13.141  -4.340   1.747  1.00  0.00    -0.2626 NA
ATOM      7 C25  DES L   1      14.160  -4.207   0.875  1.00  0.00    +0.0281  A
ATOM      8 C26  DES L   1      14.232  -4.872  -0.339  1.00  0.00    -0.0358  A
ATOM      9 C27  DES L   1      13.191  -5.739  -0.697  1.00  0.00    -0.0131  A
ATOM     10 C28  DES L   1      13.194  -6.448  -1.912  1.00  0.00    -0.0305  A
ATOM     11 H47  DES L   1      10.239  -8.116  -1.590  1.00  0.00    +0.0638  H
ATOM     12 H48  DES L   1      10.213  -6.901   0.515  1.00  0.00    +0.0625  H
ATOM     13 H49  DES L   1      11.339  -5.261   2.111  1.00  0.00    +0.0836  H
ATOM     14 H50  DES L   1      14.950  -3.528   1.186  1.00  0.00    +0.0830  H
ATOM     15 H51  DES L   1      15.087  -4.714  -0.989  1.00  0.00    +0.0639  H
ATOM     16 H52  DES L   1      14.030  -6.322  -2.597  1.00  0.00    +0.0644  H
ENDROOT
BRANCH 1 19
ATOM     17 C16  DES L   1      12.030  -9.312  -3.770  1.00  0.00    +0.2339  C
ATOM     18 O17  DES L   1      11.716 -10.175  -2.950  1.00  0.00    -0.2722 OA
ATOM     19 N18  DES L   1      12.238  -7.973  -3.493  1.00  0.00    -0.3256  N
ATOM     20 H46  DES L   1      12.503  -7.401  -4.299  1.00  0.00    +0.1686 HD
BRANCH 17 21
ATOM     21 C13  DES L   1      12.178  -9.676  -5.257  1.00  0.00    +0.0752  C
ATOM     22 H41  DES L   1      12.684 -10.655  -5.233  1.00  0.00    +0.0458  H
BRANCH 21 26
ATOM     23  C9  DES L   1       8.456 -10.266  -7.439  1.00  0.00    -0.0103  A
ATOM     24 C10  DES L   1       8.460  -9.535  -6.245  1.00  0.00    -0.0551  A
ATOM     25 C11  DES L   1       9.646  -9.343  -5.530  1.00  0.00    -0.0574  A
ATOM     26 C12  DES L   1      10.855  -9.887  -5.986  1.00  0.00    -0.0341  A
ATOM     27 C29  DES L   1      10.843 -10.625  -7.181  1.00  0.00    -0.0574  A
ATOM     28 C30  DES L   1       9.657 -10.819  -7.894  1.00  0.00    -0.0551  A
ATOM     29 H39  DES L   1       7.531  -9.120  -5.856  1.00  0.00    +0.0621  H
ATOM     30 H40  DES L   1       9.597  -8.770  -4.606  1.00  0.00    +0.0621  H
ATOM     31 H53  DES L   1      11.760 -11.070  -7.562  1.00  0.00    +0.0621  H
ATOM     32 H54  DES L   1       9.675 -11.414  -8.805  1.00  0.00    +0.0621  H
BRANCH 23 33
ATOM     33  C8  DES L   1       7.168 -10.499  -8.187  1.00  0.00    +0.1179  C
ATOM     34 H37  DES L   1       6.735 -11.477  -7.948  1.00  0.00    +0.0749  H
ATOM     35 H38  DES L   1       6.423  -9.758  -7.877  1.00  0.00    +0.0749  H
BRANCH 33 36
ATOM     36  O7  DES L   1       7.393 -10.320  -9.589  1.00  0.00    -0.4564 OA
BRANCH 36 37
ATOM     37  C5  DES L   1       7.294  -9.044 -10.037  1.00  0.00    +0.3398  C
ATOM     38  O6  DES L   1       6.358  -8.283  -9.853  1.00  0.00    -0.2449 OA
BRANCH 37 42
ATOM     39  C1  DES L   1      10.786  -8.176 -12.367  1.00  0.00    -0.0615  A
ATOM     40  C2  DES L   1       9.769  -8.966 -12.895  1.00  0.00    -0.0610  A
ATOM     41  C3  DES L   1       8.633  -9.235 -12.132  1.00  0.00    -0.0475  A
ATOM     42  C4  DES L   1       8.505  -8.711 -10.835  1.00  0.00    +0.0619  A
ATOM     43 C31  DES L   1       9.528  -7.904 -10.298  1.00  0.00    -0.0365  A
ATOM     44 C32  DES L   1       9.447  -7.312  -8.918  1.00  0.00    -0.0389  C
ATOM     45 C33  DES L   1      10.669  -7.652 -11.079  1.00  0.00    -0.0581  A
ATOM     46 H34  DES L   1      11.675  -7.967 -12.959  1.00  0.00    +0.0618  H
ATOM     47 H35  DES L   1       9.862  -9.375 -13.898  1.00  0.00    +0.0618  H
ATOM     48 H36  DES L   1       7.852  -9.865 -12.554  1.00  0.00    +0.0626  H
ATOM     49 H55  DES L   1       8.483  -6.817  -8.764  1.00  0.00    +0.0278  H
ATOM     50 H56  DES L   1       9.589  -8.092  -8.162  1.00  0.00    +0.0278  H
ATOM     51 H57  DES L   1      10.221  -6.553  -8.764  1.00  0.00    +0.0278  H
ATOM     52 H58  DES L   1      11.477  -7.037 -10.687  1.00  0.00    +0.0620  H
ENDBRANCH 37 42
ENDBRANCH 36 37
ENDBRANCH 33 36
ENDBRANCH 23 33
ENDBRANCH 21 26
BRANCH 21 53
ATOM     53 C14  DES L   1      13.133  -8.734  -6.028  1.00  0.00    +0.0085  C
ATOM     54 N15  DES L   1      12.564  -7.405  -6.328  1.00  0.00    -0.3289 NA
ATOM     55 H42  DES L   1      13.432  -9.199  -6.974  1.00  0.00    +0.0432  H
ATOM     56 H43  DES L   1      14.045  -8.583  -5.439  1.00  0.00    +0.0432  H
ATOM     57 H44  DES L   1      11.776  -7.536  -6.971  1.00  0.00    +0.1182 HD
ATOM     58 H45  DES L   1      13.253  -6.879  -6.872  1.00  0.00    +0.1182 HD
ENDBRANCH 21 53
ENDBRANCH 17 21
ENDBRANCH 1 19
TORSDOF 8
ENDMDL
MODEL 17
REMARK VINA RESULT:    -6.401      3.845      7.041
REMARK INTER + INTRA:         -10.690
REMARK INTER:                  -9.080
REMARK INTRA:                  -1.610
REMARK UNBOUND:                -1.295
ROOT
ATOM      1 C19  DES L   1      11.982  -7.364  -2.243  1.00  0.00    +0.0423  A
ATOM      2 C20  DES L   1      11.041  -7.571  -1.237  1.00  0.00    -0.0377  A
ATOM      3 C21  DES L   1      11.162  -6.916  -0.007  1.00  0.00    -0.0506  A
ATOM      4 C22  DES L   1      12.232  -6.038   0.233  1.00  0.00    +0.0004  A
ATOM      5 C23  DES L   1      12.402  -5.358   1.442  1.00  0.00    +0.0353  A
ATOM      6 N24  DES L   1      13.421  -4.506   1.706  1.00  0.00    -0.2626 NA
ATOM      7 C25  DES L   1      14.318  -4.319   0.719  1.00  0.00    +0.0281  A
ATOM      8 C26  DES L   1      14.248  -4.940  -0.519  1.00  0.00    -0.0358  A
ATOM      9 C27  DES L   1      13.189  -5.819  -0.774  1.00  0.00    -0.0131  A
ATOM     10 C28  DES L   1      13.052  -6.487  -2.005  1.00  0.00    -0.0305  A
ATOM     11 H47  DES L   1      10.195  -8.237  -1.375  1.00  0.00    +0.0638  H
ATOM     12 H48  DES L   1      10.412  -7.096   0.760  1.00  0.00    +0.0625  H
ATOM     13 H49  DES L   1      11.698  -5.483   2.261  1.00  0.00    +0.0836  H
ATOM     14 H50  DES L   1      15.127  -3.631   0.953  1.00  0.00    +0.0830  H
ATOM     15 H51  DES L   1      15.011  -4.739  -1.265  1.00  0.00    +0.0639  H
ATOM     16 H52  DES L   1      13.791  -6.317  -2.785  1.00  0.00    +0.0644  H
ENDROOT
BRANCH 1 19
ATOM     17 C16  DES L   1      12.102  -9.318  -3.818  1.00  0.00    +0.2339  C
ATOM     18 O17  DES L   1      12.331 -10.219  -3.012  1.00  0.00    -0.2722 OA
ATOM     19 N18  DES L   1      11.934  -7.981  -3.507  1.00  0.00    -0.3256  N
ATOM     20 H46  DES L   1      11.759  -7.370  -4.309  1.00  0.00    +0.1686 HD
BRANCH 17 21
ATOM     21 C13  DES L   1      11.933  -9.641  -5.313  1.00  0.00    +0.0752  C
ATOM     22 H41  DES L   1      12.241 -10.697  -5.383  1.00  0.00    +0.0458  H
BRANCH 21 26
ATOM     23  C9  DES L   1       7.831  -9.329  -6.739  1.00  0.00    -0.0103  A
ATOM     24 C10  DES L   1       8.161 -10.267  -5.754  1.00  0.00    -0.0551  A
ATOM     25 C11  DES L   1       9.475 -10.385  -5.291  1.00  0.00    -0.0574  A
ATOM     26 C12  DES L   1      10.493  -9.573  -5.809  1.00  0.00    -0.0341  A
ATOM     27 C29  DES L   1      10.157  -8.637  -6.802  1.00  0.00    -0.0574  A
ATOM     28 C30  DES L   1       8.844  -8.522  -7.266  1.00  0.00    -0.0551  A
ATOM     29 H39  DES L   1       7.394 -10.927  -5.349  1.00  0.00    +0.0621  H
ATOM     30 H40  DES L   1       9.682 -11.132  -4.527  1.00  0.00    +0.0621  H
ATOM     31 H53  DES L   1      10.922  -7.994  -7.235  1.00  0.00    +0.0621  H
ATOM     32 H54  DES L   1       8.618  -7.803  -8.052  1.00  0.00    +0.0621  H
BRANCH 23 33
ATOM     33  C8  DES L   1       6.419  -9.231  -7.258  1.00  0.00    +0.1179  C
ATOM     34 H37  DES L   1       5.686  -9.466  -6.477  1.00  0.00    +0.0749  H
ATOM     35 H38  DES L   1       6.209  -8.201  -7.565  1.00  0.00    +0.0749  H
BRANCH 33 36
ATOM     36  O7  DES L   1       6.280 -10.061  -8.416  1.00  0.00    -0.4564 OA
BRANCH 36 37
ATOM     37  C5  DES L   1       6.134  -9.400  -9.592  1.00  0.00    +0.3398  C
ATOM     38  O6  DES L   1       5.426  -8.427  -9.792  1.00  0.00    -0.2449 OA
BRANCH 37 42
ATOM     39  C1  DES L   1       8.556 -11.259 -12.601  1.00  0.00    -0.0615  A
ATOM     40  C2  DES L   1       9.143 -10.467 -11.619  1.00  0.00    -0.0610  A
ATOM     41  C3  DES L   1       8.347  -9.873 -10.639  1.00  0.00    -0.0475  A
ATOM     42  C4  DES L   1       6.956 -10.073 -10.633  1.00  0.00    +0.0619  A
ATOM     43 C31  DES L   1       6.357 -10.881 -11.621  1.00  0.00    -0.0365  A
ATOM     44 C32  DES L   1       4.876 -11.134 -11.665  1.00  0.00    -0.0389  C
ATOM     45 C33  DES L   1       7.175 -11.462 -12.604  1.00  0.00    -0.0581  A
ATOM     46 H34  DES L   1       9.174 -11.720 -13.369  1.00  0.00    +0.0618  H
ATOM     47 H35  DES L   1      10.218 -10.307 -11.618  1.00  0.00    +0.0618  H
ATOM     48 H36  DES L   1       8.819  -9.246  -9.886  1.00  0.00    +0.0626  H
ATOM     49 H55  DES L   1       4.505 -11.438 -10.680  1.00  0.00    +0.0278  H
ATOM     50 H56  DES L   1       4.347 -10.236 -12.000  1.00  0.00    +0.0278  H
ATOM     51 H57  DES L   1       4.631 -11.945 -12.359  1.00  0.00    +0.0278  H
ATOM     52 H58  DES L   1       6.739 -12.086 -13.383  1.00  0.00    +0.0620  H
ENDBRANCH 37 42
ENDBRANCH 36 37
ENDBRANCH 33 36
ENDBRANCH 23 33
ENDBRANCH 21 26
BRANCH 21 53
ATOM     53 C14  DES L   1      12.910  -8.862  -6.224  1.00  0.00    +0.0085  C
ATOM     54 N15  DES L   1      14.140  -8.405  -5.547  1.00  0.00    -0.3289 NA
ATOM     55 H42  DES L   1      12.406  -7.986  -6.648  1.00  0.00    +0.0432  H
ATOM     56 H43  DES L   1      13.209  -9.501  -7.064  1.00  0.00    +0.0432  H
ATOM     57 H44  DES L   1      13.870  -7.720  -4.832  1.00  0.00    +0.1182 HD
ATOM     58 H45  DES L   1      14.693  -7.868  -6.219  1.00  0.00    +0.1182 HD
ENDBRANCH 21 53
ENDBRANCH 17 21
ENDBRANCH 1 19
TORSDOF 8
ENDMDL
MODEL 18
REMARK VINA RESULT:    -6.399      3.463      6.812
REMARK INTER + INTRA:         -10.686
REMARK INTER:                  -9.155
REMARK INTRA:                  -1.531
REMARK UNBOUND:                -1.295
ROOT
ATOM      1 C19  DES L   1      12.236  -7.086  -1.956  1.00  0.00    +0.0423  A
ATOM      2 C20  DES L   1      11.156  -7.300  -1.101  1.00  0.00    -0.0377  A
ATOM      3 C21  DES L   1      11.080  -6.631   0.125  1.00  0.00    -0.0506  A
ATOM      4 C22  DES L   1      12.088  -5.734   0.514  1.00  0.00    +0.0004  A
ATOM      5 C23  DES L   1      12.063  -5.040   1.727  1.00  0.00    +0.0353  A
ATOM      6 N24  DES L   1      13.018  -4.169   2.132  1.00  0.00    -0.2626 NA
ATOM      7 C25  DES L   1      14.051  -3.976   1.290  1.00  0.00    +0.0281  A
ATOM      8 C26  DES L   1      14.179  -4.610   0.063  1.00  0.00    -0.0358  A
ATOM      9 C27  DES L   1      13.183  -5.509  -0.339  1.00  0.00    -0.0131  A
ATOM     10 C28  DES L   1      13.244  -6.189  -1.569  1.00  0.00    -0.0305  A
ATOM     11 H47  DES L   1      10.351  -7.981  -1.358  1.00  0.00    +0.0638  H
ATOM     12 H48  DES L   1      10.225  -6.816   0.772  1.00  0.00    +0.0625  H
ATOM     13 H49  DES L   1      11.245  -5.168   2.431  1.00  0.00    +0.0836  H
ATOM     14 H50  DES L   1      14.805  -3.273   1.635  1.00  0.00    +0.0830  H
ATOM     15 H51  DES L   1      15.042  -4.404  -0.561  1.00  0.00    +0.0639  H
ATOM     16 H52  DES L   1      14.090  -6.016  -2.230  1.00  0.00    +0.0644  H
ENDROOT
BRANCH 1 19
ATOM     17 C16  DES L   1      11.500  -8.549  -3.862  1.00  0.00    +0.2339  C
ATOM     18 O17  DES L   1      10.393  -8.888  -3.446  1.00  0.00    -0.2722 OA
ATOM     19 N18  DES L   1      12.388  -7.715  -3.206  1.00  0.00    -0.3256  N
ATOM     20 H46  DES L   1      13.269  -7.549  -3.699  1.00  0.00    +0.1686 HD
BRANCH 17 21
ATOM     21 C13  DES L   1      11.986  -9.019  -5.244  1.00  0.00    +0.0752  C
ATOM     22 H41  DES L   1      12.156 -10.098  -5.102  1.00  0.00    +0.0458  H
BRANCH 21 26
ATOM     23  C9  DES L   1       8.987  -8.530  -8.363  1.00  0.00    -0.0103  A
ATOM     24 C10  DES L   1       9.244  -9.799  -7.831  1.00  0.00    -0.0551  A
ATOM     25 C11  DES L   1      10.209  -9.973  -6.835  1.00  0.00    -0.0574  A
ATOM     26 C12  DES L   1      10.948  -8.883  -6.353  1.00  0.00    -0.0341  A
ATOM     27 C29  DES L   1      10.689  -7.613  -6.895  1.00  0.00    -0.0574  A
ATOM     28 C30  DES L   1       9.727  -7.440  -7.893  1.00  0.00    -0.0551  A
ATOM     29 H39  DES L   1       8.702 -10.668  -8.203  1.00  0.00    +0.0621  H
ATOM     30 H40  DES L   1      10.376 -10.980  -6.456  1.00  0.00    +0.0621  H
ATOM     31 H53  DES L   1      11.248  -6.744  -6.553  1.00  0.00    +0.0621  H
ATOM     32 H54  DES L   1       9.563  -6.448  -8.310  1.00  0.00    +0.0621  H
BRANCH 23 33
ATOM     33  C8  DES L   1       7.970  -8.355  -9.462  1.00  0.00    +0.1179  C
ATOM     34 H37  DES L   1       7.430  -9.288  -9.662  1.00  0.00    +0.0749  H
ATOM     35 H38  DES L   1       7.210  -7.631  -9.149  1.00  0.00    +0.0749  H
BRANCH 33 36
ATOM     36  O7  DES L   1       8.613  -7.826 -10.626  1.00  0.00    -0.4564 OA
BRANCH 36 37
ATOM     37  C5  DES L   1       9.233  -8.738 -11.415  1.00  0.00    +0.3398  C
ATOM     38  O6  DES L   1       8.923  -9.911 -11.547  1.00  0.00    -0.2449 OA
BRANCH 37 42
ATOM     39  C1  DES L   1      12.544  -6.908 -13.431  1.00  0.00    -0.0615  A
ATOM     40  C2  DES L   1      11.256  -6.783 -13.942  1.00  0.00    -0.0610  A
ATOM     41  C3  DES L   1      10.184  -7.374 -13.274  1.00  0.00    -0.0475  A
ATOM     42  C4  DES L   1      10.394  -8.094 -12.085  1.00  0.00    +0.0619  A
ATOM     43 C31  DES L   1      11.696  -8.217 -11.558  1.00  0.00    -0.0365  A
ATOM     44 C32  DES L   1      11.984  -8.971 -10.290  1.00  0.00    -0.0389  C
ATOM     45 C33  DES L   1      12.763  -7.621 -12.252  1.00  0.00    -0.0581  A
ATOM     46 H34  DES L   1      13.382  -6.450 -13.952  1.00  0.00    +0.0618  H
ATOM     47 H35  DES L   1      11.086  -6.228 -14.861  1.00  0.00    +0.0618  H
ATOM     48 H36  DES L   1       9.184  -7.279 -13.692  1.00  0.00    +0.0626  H
ATOM     49 H55  DES L   1      11.302  -8.660  -9.491  1.00  0.00    +0.0278  H
ATOM     50 H56  DES L   1      11.890 -10.049 -10.459  1.00  0.00    +0.0278  H
ATOM     51 H57  DES L   1      13.000  -8.776  -9.932  1.00  0.00    +0.0278  H
ATOM     52 H58  DES L   1      13.780  -7.706 -11.871  1.00  0.00    +0.0620  H
ENDBRANCH 37 42
ENDBRANCH 36 37
ENDBRANCH 33 36
ENDBRANCH 23 33
ENDBRANCH 21 26
BRANCH 21 53
ATOM     53 C14  DES L   1      13.359  -8.431  -5.646  1.00  0.00    +0.0085  C
ATOM     54 N15  DES L   1      14.512  -9.068  -4.979  1.00  0.00    -0.3289 NA
ATOM     55 H42  DES L   1      13.385  -7.358  -5.423  1.00  0.00    +0.0432  H
ATOM     56 H43  DES L   1      13.497  -8.539  -6.728  1.00  0.00    +0.0432  H
ATOM     57 H44  DES L   1      14.443  -8.870  -3.974  1.00  0.00    +0.1182 HD
ATOM     58 H45  DES L   1      15.362  -8.582  -5.277  1.00  0.00    +0.1182 HD
ENDBRANCH 21 53
ENDBRANCH 17 21
ENDBRANCH 1 19
TORSDOF 8
ENDMDL
MODEL 19
REMARK VINA RESULT:    -6.374      2.896     10.205
REMARK INTER + INTRA:         -10.650
REMARK INTER:                  -9.078
REMARK INTRA:                  -1.572
REMARK UNBOUND:                -1.295
ROOT
ATOM      1 C19  DES L   1      12.420  -7.976  -1.840  1.00  0.00    +0.0423  A
ATOM      2 C20  DES L   1      11.239  -8.716  -1.840  1.00  0.00    -0.0377  A
ATOM      3 C21  DES L   1      10.733  -9.243  -3.033  1.00  0.00    -0.0506  A
ATOM      4 C22  DES L   1      11.406  -9.037  -4.248  1.00  0.00    +0.0004  A
ATOM      5 C23  DES L   1      10.945  -9.540  -5.468  1.00  0.00    +0.0353  A
ATOM      6 N24  DES L   1      11.569  -9.359  -6.656  1.00  0.00    -0.2626 NA
ATOM      7 C25  DES L   1      12.709  -8.643  -6.633  1.00  0.00    +0.0281  A
ATOM      8 C26  DES L   1      13.258  -8.097  -5.483  1.00  0.00    -0.0358  A
ATOM      9 C27  DES L   1      12.599  -8.292  -4.262  1.00  0.00    -0.0131  A
ATOM     10 C28  DES L   1      13.094  -7.770  -3.054  1.00  0.00    -0.0305  A
ATOM     11 H47  DES L   1      10.684  -8.905  -0.926  1.00  0.00    +0.0638  H
ATOM     12 H48  DES L   1       9.810  -9.818  -3.003  1.00  0.00    +0.0625  H
ATOM     13 H49  DES L   1      10.030 -10.123  -5.525  1.00  0.00    +0.0836  H
ATOM     14 H50  DES L   1      13.193  -8.511  -7.598  1.00  0.00    +0.0830  H
ATOM     15 H51  DES L   1      14.181  -7.530  -5.544  1.00  0.00    +0.0639  H
ATOM     16 H52  DES L   1      14.017  -7.194  -3.064  1.00  0.00    +0.0644  H
ENDROOT
BRANCH 1 19
ATOM     17 C16  DES L   1      13.181  -6.076  -0.382  1.00  0.00    +0.2339  C
ATOM     18 O17  DES L   1      12.857  -5.127  -1.094  1.00  0.00    -0.2722 OA
ATOM     19 N18  DES L   1      12.998  -7.413  -0.687  1.00  0.00    -0.3256  N
ATOM     20 H46  DES L   1      13.338  -8.068   0.022  1.00  0.00    +0.1686 HD
BRANCH 17 21
ATOM     21 C13  DES L   1      13.808  -5.828   1.001  1.00  0.00    +0.0752  C
ATOM     22 H41  DES L   1      14.734  -5.278   0.767  1.00  0.00    +0.0458  H
BRANCH 21 26
ATOM     23  C9  DES L   1      11.538  -3.252   3.678  1.00  0.00    -0.0103  A
ATOM     24 C10  DES L   1      10.883  -4.244   2.938  1.00  0.00    -0.0551  A
ATOM     25 C11  DES L   1      11.598  -5.074   2.068  1.00  0.00    -0.0574  A
ATOM     26 C12  DES L   1      12.983  -4.926   1.911  1.00  0.00    -0.0341  A
ATOM     27 C29  DES L   1      13.633  -3.924   2.652  1.00  0.00    -0.0574  A
ATOM     28 C30  DES L   1      12.918  -3.094   3.519  1.00  0.00    -0.0551  A
ATOM     29 H39  DES L   1       9.804  -4.366   3.023  1.00  0.00    +0.0621  H
ATOM     30 H40  DES L   1      11.044  -5.827   1.512  1.00  0.00    +0.0621  H
ATOM     31 H53  DES L   1      14.706  -3.774   2.551  1.00  0.00    +0.0621  H
ATOM     32 H54  DES L   1      13.446  -2.313   4.064  1.00  0.00    +0.0621  H
BRANCH 23 33
ATOM     33  C8  DES L   1      10.757  -2.338   4.587  1.00  0.00    +0.1179  C
ATOM     34 H37  DES L   1      11.266  -2.193   5.547  1.00  0.00    +0.0749  H
ATOM     35 H38  DES L   1      10.682  -1.343   4.135  1.00  0.00    +0.0749  H
BRANCH 33 36
ATOM     36  O7  DES L   1       9.425  -2.841   4.737  1.00  0.00    -0.4564 OA
BRANCH 36 37
ATOM     37  C5  DES L   1       9.056  -3.145   6.007  1.00  0.00    +0.3398  C
ATOM     38  O6  DES L   1       8.783  -2.350   6.891  1.00  0.00    -0.2449 OA
BRANCH 37 42
ATOM     39  C1  DES L   1       8.999  -7.399   6.527  1.00  0.00    -0.0615  A
ATOM     40  C2  DES L   1       7.897  -6.745   5.986  1.00  0.00    -0.0610  A
ATOM     41  C3  DES L   1       7.929  -5.361   5.812  1.00  0.00    -0.0475  A
ATOM     42  C4  DES L   1       9.068  -4.622   6.177  1.00  0.00    +0.0619  A
ATOM     43 C31  DES L   1      10.190  -5.282   6.718  1.00  0.00    -0.0365  A
ATOM     44 C32  DES L   1      11.438  -4.547   7.123  1.00  0.00    -0.0389  C
ATOM     45 C33  DES L   1      10.135  -6.675   6.892  1.00  0.00    -0.0581  A
ATOM     46 H34  DES L   1       8.976  -8.478   6.667  1.00  0.00    +0.0618  H
ATOM     47 H35  DES L   1       7.013  -7.309   5.703  1.00  0.00    +0.0618  H
ATOM     48 H36  DES L   1       7.055  -4.861   5.400  1.00  0.00    +0.0626  H
ATOM     49 H55  DES L   1      11.769  -3.875   6.324  1.00  0.00    +0.0278  H
ATOM     50 H56  DES L   1      11.262  -3.976   8.040  1.00  0.00    +0.0278  H
ATOM     51 H57  DES L   1      12.264  -5.241   7.315  1.00  0.00    +0.0278  H
ATOM     52 H58  DES L   1      10.985  -7.209   7.314  1.00  0.00    +0.0620  H
ENDBRANCH 37 42
ENDBRANCH 36 37
ENDBRANCH 33 36
ENDBRANCH 23 33
ENDBRANCH 21 26
BRANCH 21 53
ATOM     53 C14  DES L   1      14.264  -7.125   1.711  1.00  0.00    +0.0085  C
ATOM     54 N15  DES L   1      13.158  -7.966   2.209  1.00  0.00    -0.3289 NA
ATOM     55 H42  DES L   1      14.914  -6.877   2.558  1.00  0.00    +0.0432  H
ATOM     56 H43  DES L   1      14.857  -7.730   1.014  1.00  0.00    +0.0432  H
ATOM     57 H44  DES L   1      12.669  -7.442   2.944  1.00  0.00    +0.1182 HD
ATOM     58 H45  DES L   1      13.563  -8.770   2.696  1.00  0.00    +0.1182 HD
ENDBRANCH 21 53
ENDBRANCH 17 21
ENDBRANCH 1 19
TORSDOF 8
ENDMDL
MODEL 20
REMARK VINA RESULT:    -6.238      7.099     10.894
REMARK INTER + INTRA:         -10.450
REMARK INTER:                  -7.746
REMARK INTRA:                  -2.704
REMARK UNBOUND:                -1.295
ROOT
ATOM      1 C19  DES L   1       8.821  -9.570  -7.105  1.00  0.00    +0.0423  A
ATOM      2 C20  DES L   1       8.525 -10.528  -6.137  1.00  0.00    -0.0377  A
ATOM      3 C21  DES L   1       9.307 -10.633  -4.981  1.00  0.00    -0.0506  A
ATOM      4 C22  DES L   1      10.400  -9.775  -4.778  1.00  0.00    +0.0004  A
ATOM      5 C23  DES L   1      11.214  -9.836  -3.644  1.00  0.00    +0.0353  A
ATOM      6 N24  DES L   1      12.275  -9.025  -3.416  1.00  0.00    -0.2626 NA
ATOM      7 C25  DES L   1      12.541  -8.105  -4.364  1.00  0.00    +0.0281  A
ATOM      8 C26  DES L   1      11.801  -7.955  -5.527  1.00  0.00    -0.0358  A
ATOM      9 C27  DES L   1      10.709  -8.804  -5.746  1.00  0.00    -0.0131  A
ATOM     10 C28  DES L   1       9.912  -8.711  -6.902  1.00  0.00    -0.0305  A
ATOM     11 H47  DES L   1       7.690 -11.212  -6.247  1.00  0.00    +0.0638  H
ATOM     12 H48  DES L   1       9.053 -11.389  -4.242  1.00  0.00    +0.0625  H
ATOM     13 H49  DES L   1      11.029 -10.564  -2.858  1.00  0.00    +0.0836  H
ATOM     14 H50  DES L   1      13.396  -7.465  -4.160  1.00  0.00    +0.0830  H
ATOM     15 H51  DES L   1      12.078  -7.190  -6.245  1.00  0.00    +0.0639  H
ATOM     16 H52  DES L   1      10.150  -7.960  -7.652  1.00  0.00    +0.0644  H
ENDROOT
BRANCH 1 19
ATOM     17 C16  DES L   1       6.719  -9.235  -8.442  1.00  0.00    +0.2339  C
ATOM     18 O17  DES L   1       5.895  -9.217  -7.529  1.00  0.00    -0.2722 OA
ATOM     19 N18  DES L   1       8.085  -9.397  -8.292  1.00  0.00    -0.3256  N
ATOM     20 H46  DES L   1       8.618  -9.396  -9.166  1.00  0.00    +0.1686 HD
BRANCH 17 21
ATOM     21 C13  DES L   1       6.268  -9.023  -9.897  1.00  0.00    +0.0752  C
ATOM     22 H41  DES L   1       6.033  -7.947  -9.938  1.00  0.00    +0.0458  H
BRANCH 21 26
ATOM     23  C9  DES L   1       9.359  -9.625 -12.904  1.00  0.00    -0.0103  A
ATOM     24 C10  DES L   1       8.564 -10.701 -12.491  1.00  0.00    -0.0551  A
ATOM     25 C11  DES L   1       7.573 -10.525 -11.521  1.00  0.00    -0.0574  A
ATOM     26 C12  DES L   1       7.359  -9.270 -10.933  1.00  0.00    -0.0341  A
ATOM     27 C29  DES L   1       8.164  -8.196 -11.348  1.00  0.00    -0.0574  A
ATOM     28 C30  DES L   1       9.157  -8.373 -12.315  1.00  0.00    -0.0551  A
ATOM     29 H39  DES L   1       8.724 -11.693 -12.914  1.00  0.00    +0.0621  H
ATOM     30 H40  DES L   1       6.984 -11.393 -11.230  1.00  0.00    +0.0621  H
ATOM     31 H53  DES L   1       8.034  -7.209 -10.909  1.00  0.00    +0.0621  H
ATOM     32 H54  DES L   1       9.780  -7.528 -12.600  1.00  0.00    +0.0621  H
BRANCH 23 33
ATOM     33  C8  DES L   1      10.450  -9.830 -13.924  1.00  0.00    +0.1179  C
ATOM     34 H37  DES L   1      10.612 -10.894 -14.132  1.00  0.00    +0.0749  H
ATOM     35 H38  DES L   1      10.151  -9.381 -14.879  1.00  0.00    +0.0749  H
BRANCH 33 36
ATOM     36  O7  DES L   1      11.639  -9.162 -13.491  1.00  0.00    -0.4564 OA
BRANCH 36 37
ATOM     37  C5  DES L   1      12.430  -9.869 -12.646  1.00  0.00    +0.3398  C
ATOM     38  O6  DES L   1      12.775 -11.032 -12.780  1.00  0.00    -0.2449 OA
BRANCH 37 42
ATOM     39  C1  DES L   1      13.574  -7.396  -9.337  1.00  0.00    -0.0615  A
ATOM     40  C2  DES L   1      14.103  -7.163 -10.603  1.00  0.00    -0.0610  A
ATOM     41  C3  DES L   1      13.718  -7.967 -11.675  1.00  0.00    -0.0475  A
ATOM     42  C4  DES L   1      12.796  -9.011 -11.487  1.00  0.00    +0.0619  A
ATOM     43 C31  DES L   1      12.250  -9.247 -10.209  1.00  0.00    -0.0365  A
ATOM     44 C32  DES L   1      11.258 -10.346  -9.946  1.00  0.00    -0.0389  C
ATOM     45 C33  DES L   1      12.658  -8.430  -9.140  1.00  0.00    -0.0581  A
ATOM     46 H34  DES L   1      13.876  -6.772  -8.498  1.00  0.00    +0.0618  H
ATOM     47 H35  DES L   1      14.817  -6.358 -10.755  1.00  0.00    +0.0618  H
ATOM     48 H36  DES L   1      14.149  -7.781 -12.656  1.00  0.00    +0.0626  H
ATOM     49 H55  DES L   1      10.447 -10.319 -10.682  1.00  0.00    +0.0278  H
ATOM     50 H56  DES L   1      11.754 -11.321  -9.976  1.00  0.00    +0.0278  H
ATOM     51 H57  DES L   1      10.794 -10.237  -8.960  1.00  0.00    +0.0278  H
ATOM     52 H58  DES L   1      12.259  -8.595  -8.141  1.00  0.00    +0.0620  H
ENDBRANCH 37 42
ENDBRANCH 36 37
ENDBRANCH 33 36
ENDBRANCH 23 33
ENDBRANCH 21 26
BRANCH 21 53
ATOM     53 C14  DES L   1       4.948  -9.751 -10.244  1.00  0.00    +0.0085  C
ATOM     54 N15  DES L   1       4.719 -10.992  -9.479  1.00  0.00    -0.3289 NA
ATOM     55 H42  DES L   1       4.928  -9.998 -11.312  1.00  0.00    +0.0432  H
ATOM     56 H43  DES L   1       4.103  -9.079 -10.052  1.00  0.00    +0.0432  H
ATOM     57 H44  DES L   1       5.448 -11.665  -9.743  1.00  0.00    +0.1182 HD
ATOM     58 H45  DES L   1       3.849 -11.416  -9.811  1.00  0.00    +0.1182 HD
ENDBRANCH 21 53
ENDBRANCH 17 21
ENDBRANCH 1 19
TORSDOF 8
ENDMDL
