MODEL 1
REMARK VINA RESULT:    -7.439      0.000      0.000
REMARK INTER + INTRA:         -12.881
REMARK INTER:                 -11.352
REMARK INTRA:                  -1.529
REMARK UNBOUND:                -1.529
ROOT
ATOM      1 C23  NAC L   1      11.968  -5.799   1.756  1.00  0.00    +0.0423  A
ATOM      2 C24  NAC L   1      13.083  -4.970   1.920  1.00  0.00    -0.0377  A
ATOM      3 C25  NAC L   1      13.026  -3.855   2.760  1.00  0.00    -0.0506  A
ATOM      4 C26  NAC L   1      11.844  -3.553   3.456  1.00  0.00    +0.0004  A
ATOM      5 C27  NAC L   1      11.723  -2.453   4.309  1.00  0.00    +0.0353  A
ATOM      6 N28  NAC L   1      10.601  -2.133   4.994  1.00  0.00    -0.2626 NA
ATOM      7 C29  NAC L   1       9.541  -2.950   4.826  1.00  0.00    +0.0281  A
ATOM      8 C30  NAC L   1       9.548  -4.067   4.006  1.00  0.00    -0.0358  A
ATOM      9 C31  NAC L   1      10.718  -4.383   3.302  1.00  0.00    -0.0131  A
ATOM     10 C32  NAC L   1      10.794  -5.501   2.451  1.00  0.00    -0.0305  A
ATOM     11 H55  NAC L   1      14.012  -5.178   1.394  1.00  0.00    +0.0638  H
ATOM     12 H56  NAC L   1      13.906  -3.226   2.870  1.00  0.00    +0.0625  H
ATOM     13 H57  NAC L   1      12.555  -1.774   4.472  1.00  0.00    +0.0836  H
ATOM     14 H58  NAC L   1       8.651  -2.677   5.386  1.00  0.00    +0.0830  H
ATOM     15 H59  NAC L   1       8.657  -4.680   3.919  1.00  0.00    +0.0639  H
ATOM     16 H60  NAC L   1       9.917  -6.136   2.354  1.00  0.00    +0.0644  H
ENDROOT
BRANCH 1 19
ATOM     17 C20  NAC L   1      11.497  -7.116  -0.335  1.00  0.00    +0.2344  C
ATOM     18 O21  NAC L   1      10.766  -6.316  -0.914  1.00  0.00    -0.2722 OA
ATOM     19 N22  NAC L   1      12.115  -6.899   0.890  1.00  0.00    -0.3256  N
ATOM     20 H54  NAC L   1      12.813  -7.591   1.163  1.00  0.00    +0.1686 HD
BRANCH 17 21
ATOM     21 C14  NAC L   1      11.871  -8.473  -0.946  1.00  0.00    +0.0803  C
ATOM     22 H47  NAC L   1      11.150  -9.215  -0.586  1.00  0.00    +0.0463  H
BRANCH 21 26
ATOM     23 C10  NAC L   1      11.553  -8.591  -5.287  1.00  0.00    -0.0103  A
ATOM     24 C11  NAC L   1      12.552  -7.825  -4.676  1.00  0.00    -0.0551  A
ATOM     25 C12  NAC L   1      12.656  -7.774  -3.283  1.00  0.00    -0.0574  A
ATOM     26 C13  NAC L   1      11.769  -8.492  -2.469  1.00  0.00    -0.0336  A
ATOM     27 C33  NAC L   1      10.777  -9.269  -3.088  1.00  0.00    -0.0574  A
ATOM     28 C34  NAC L   1      10.672  -9.321  -4.481  1.00  0.00    -0.0551  A
ATOM     29 H45  NAC L   1      13.260  -7.262  -5.283  1.00  0.00    +0.0621  H
ATOM     30 H46  NAC L   1      13.434  -7.152  -2.844  1.00  0.00    +0.0621  H
ATOM     31 H61  NAC L   1      10.074  -9.849  -2.492  1.00  0.00    +0.0621  H
ATOM     32 H62  NAC L   1       9.901  -9.939  -4.935  1.00  0.00    +0.0621  H
BRANCH 23 33
ATOM     33  C9  NAC L   1      11.453  -8.659  -6.788  1.00  0.00    +0.1179  C
ATOM     34 H43  NAC L   1      12.202  -9.336  -7.217  1.00  0.00    +0.0749  H
ATOM     35 H44  NAC L   1      11.664  -7.670  -7.214  1.00  0.00    +0.0749  H
BRANCH 33 36
ATOM     36  O8  NAC L   1      10.117  -9.011  -7.163  1.00  0.00    -0.4564 OA
BRANCH 36 37
ATOM     37  C6  NAC L   1       9.349  -7.992  -7.613  1.00  0.00    +0.3398  C
ATOM     38  O7  NAC L   1       9.563  -6.798  -7.476  1.00  0.00    -0.2449 OA
BRANCH 37 43
ATOM     39  C1  NAC L   1       5.097 -10.028 -10.975  1.00  0.00    -0.0397  C
ATOM     40  C2  NAC L   1       6.168  -9.478 -10.079  1.00  0.00    -0.0502  A
ATOM     41  C3  NAC L   1       7.235  -8.753 -10.615  1.00  0.00    -0.0580  A
ATOM     42  C4  NAC L   1       8.248  -8.276  -9.783  1.00  0.00    -0.0473  A
ATOM     43  C5  NAC L   1       8.216  -8.530  -8.404  1.00  0.00    +0.0619  A
ATOM     44 C35  NAC L   1       7.139  -9.242  -7.842  1.00  0.00    -0.0362  A
ATOM     45 C36  NAC L   1       7.024  -9.519  -6.369  1.00  0.00    -0.0389  C
ATOM     46 C37  NAC L   1       6.134  -9.728  -8.699  1.00  0.00    -0.0551  A
ATOM     47 H38  NAC L   1       4.135 -10.068 -10.453  1.00  0.00    +0.0278  H
ATOM     48 H39  NAC L   1       4.961  -9.394 -11.857  1.00  0.00    +0.0278  H
ATOM     49 H40  NAC L   1       5.366 -11.037 -11.302  1.00  0.00    +0.0278  H
ATOM     50 H41  NAC L   1       7.287  -8.555 -11.683  1.00  0.00    +0.0620  H
ATOM     51 H42  NAC L   1       9.073  -7.711 -10.213  1.00  0.00    +0.0626  H
ATOM     52 H63  NAC L   1       5.992  -9.764  -6.091  1.00  0.00    +0.0278  H
ATOM     53 H64  NAC L   1       7.303  -8.638  -5.781  1.00  0.00    +0.0278  H
ATOM     54 H65  NAC L   1       7.660 -10.365  -6.091  1.00  0.00    +0.0278  H
ATOM     55 H66  NAC L   1       5.307 -10.303  -8.285  1.00  0.00    +0.0623  H
ENDBRANCH 37 43
ENDBRANCH 36 37
ENDBRANCH 33 36
ENDBRANCH 23 33
ENDBRANCH 21 26
BRANCH 21 56
ATOM     56 C15  NAC L   1      13.273  -8.897  -0.468  1.00  0.00    +0.0334  C
ATOM     57 H48  NAC L   1      13.721  -8.115   0.157  1.00  0.00    +0.0497  H
ATOM     58 H49  NAC L   1      13.933  -9.029  -1.334  1.00  0.00    +0.0497  H
BRANCH 56 59
ATOM     59 N16  NAC L   1      13.375 -10.124   0.318  1.00  0.00    -0.3551  N
ATOM     60 C17  NAC L   1      13.362 -10.186   1.690  1.00  0.00    +0.2179  C
ATOM     61 C18  NAC L   1      13.377 -11.589   2.235  1.00  0.00    +0.0143  C
ATOM     62 O19  NAC L   1      13.402  -9.200   2.420  1.00  0.00    -0.2736 OA
ATOM     63 H50  NAC L   1      13.373 -10.996  -0.200  1.00  0.00    +0.1623 HD
ATOM     64 H51  NAC L   1      14.411 -11.941   2.290  1.00  0.00    +0.0325  H
ATOM     65 H52  NAC L   1      12.799 -12.261   1.596  1.00  0.00    +0.0325  H
ATOM     66 H53  NAC L   1      12.936 -11.594   3.235  1.00  0.00    +0.0325  H
ENDBRANCH 56 59
ENDBRANCH 21 56
ENDBRANCH 17 21
ENDBRANCH 1 19
TORSDOF 9
ENDMDL
MODEL 2
REMARK VINA RESULT:    -7.321      1.827      2.805
REMARK INTER + INTRA:         -12.702
REMARK INTER:                 -11.616
REMARK INTRA:                  -1.085
REMARK UNBOUND:                -1.529
ROOT
ATOM      1 C23  NAC L   1      11.597  -5.382   2.727  1.00  0.00    +0.0423  A
ATOM      2 C24  NAC L   1      12.020  -4.063   2.923  1.00  0.00    -0.0377  A
ATOM      3 C25  NAC L   1      11.367  -3.233   3.838  1.00  0.00    -0.0506  A
ATOM      4 C26  NAC L   1      10.275  -3.715   4.577  1.00  0.00    +0.0004  A
ATOM      5 C27  NAC L   1       9.581  -2.935   5.506  1.00  0.00    +0.0353  A
ATOM      6 N28  NAC L   1       8.527  -3.367   6.235  1.00  0.00    -0.2626 NA
ATOM      7 C29  NAC L   1       8.140  -4.643   6.034  1.00  0.00    +0.0281  A
ATOM      8 C30  NAC L   1       8.755  -5.506   5.141  1.00  0.00    -0.0358  A
ATOM      9 C31  NAC L   1       9.844  -5.041   4.392  1.00  0.00    -0.0131  A
ATOM     10 C32  NAC L   1      10.513  -5.863   3.466  1.00  0.00    -0.0305  A
ATOM     11 H55  NAC L   1      12.862  -3.662   2.364  1.00  0.00    +0.0638  H
ATOM     12 H56  NAC L   1      11.716  -2.211   3.970  1.00  0.00    +0.0625  H
ATOM     13 H57  NAC L   1       9.864  -1.903   5.696  1.00  0.00    +0.0836  H
ATOM     14 H58  NAC L   1       7.294  -4.970   6.631  1.00  0.00    +0.0830  H
ATOM     15 H59  NAC L   1       8.389  -6.522   5.032  1.00  0.00    +0.0639  H
ATOM     16 H60  NAC L   1      10.173  -6.888   3.345  1.00  0.00    +0.0644  H
ENDROOT
BRANCH 1 19
ATOM     17 C20  NAC L   1      12.195  -6.132   0.402  1.00  0.00    +0.2344  C
ATOM     18 O21  NAC L   1      11.487  -5.363  -0.245  1.00  0.00    -0.2722 OA
ATOM     19 N22  NAC L   1      12.312  -6.147   1.786  1.00  0.00    -0.3256  N
ATOM     20 H54  NAC L   1      13.055  -6.736   2.162  1.00  0.00    +0.1686 HD
BRANCH 17 21
ATOM     21 C14  NAC L   1      13.109  -7.164  -0.272  1.00  0.00    +0.0803  C
ATOM     22 H47  NAC L   1      13.239  -8.003   0.420  1.00  0.00    +0.0463  H
BRANCH 21 26
ATOM     23 C10  NAC L   1      11.377  -8.914  -3.863  1.00  0.00    -0.0103  A
ATOM     24 C11  NAC L   1      12.439  -8.008  -3.964  1.00  0.00    -0.0551  A
ATOM     25 C12  NAC L   1      12.996  -7.435  -2.819  1.00  0.00    -0.0574  A
ATOM     26 C13  NAC L   1      12.508  -7.758  -1.543  1.00  0.00    -0.0336  A
ATOM     27 C33  NAC L   1      11.450  -8.676  -1.448  1.00  0.00    -0.0574  A
ATOM     28 C34  NAC L   1      10.893  -9.250  -2.594  1.00  0.00    -0.0551  A
ATOM     29 H45  NAC L   1      12.843  -7.744  -4.941  1.00  0.00    +0.0621  H
ATOM     30 H46  NAC L   1      13.808  -6.721  -2.938  1.00  0.00    +0.0621  H
ATOM     31 H61  NAC L   1      11.049  -8.960  -0.477  1.00  0.00    +0.0621  H
ATOM     32 H62  NAC L   1      10.082  -9.966  -2.491  1.00  0.00    +0.0621  H
BRANCH 23 33
ATOM     33  C9  NAC L   1      10.789  -9.543  -5.099  1.00  0.00    +0.1179  C
ATOM     34 H43  NAC L   1      10.450 -10.570  -4.912  1.00  0.00    +0.0749  H
ATOM     35 H44  NAC L   1      11.561  -9.619  -5.874  1.00  0.00    +0.0749  H
BRANCH 33 36
ATOM     36  O8  NAC L   1       9.746  -8.707  -5.612  1.00  0.00    -0.4564 OA
BRANCH 36 37
ATOM     37  C6  NAC L   1       9.985  -8.155  -6.824  1.00  0.00    +0.3398  C
ATOM     38  O7  NAC L   1      10.998  -7.572  -7.177  1.00  0.00    -0.2449 OA
BRANCH 37 43
ATOM     39  C1  NAC L   1       5.369  -9.336 -10.115  1.00  0.00    -0.0397  C
ATOM     40  C2  NAC L   1       6.591  -9.054  -9.291  1.00  0.00    -0.0502  A
ATOM     41  C3  NAC L   1       6.628  -9.401  -7.939  1.00  0.00    -0.0580  A
ATOM     42  C4  NAC L   1       7.751  -9.102  -7.167  1.00  0.00    -0.0473  A
ATOM     43  C5  NAC L   1       8.849  -8.438  -7.735  1.00  0.00    +0.0619  A
ATOM     44 C35  NAC L   1       8.839  -8.098  -9.101  1.00  0.00    -0.0362  A
ATOM     45 C36  NAC L   1       9.995  -7.417  -9.781  1.00  0.00    -0.0389  C
ATOM     46 C37  NAC L   1       7.691  -8.394  -9.859  1.00  0.00    -0.0551  A
ATOM     47 H38  NAC L   1       5.638  -9.528 -11.159  1.00  0.00    +0.0278  H
ATOM     48 H39  NAC L   1       4.845 -10.224  -9.747  1.00  0.00    +0.0278  H
ATOM     49 H40  NAC L   1       4.687  -8.481 -10.076  1.00  0.00    +0.0278  H
ATOM     50 H41  NAC L   1       5.783  -9.904  -7.474  1.00  0.00    +0.0620  H
ATOM     51 H42  NAC L   1       7.767  -9.380  -6.115  1.00  0.00    +0.0626  H
ATOM     52 H63  NAC L   1       9.946  -7.548 -10.868  1.00  0.00    +0.0278  H
ATOM     53 H64  NAC L   1      10.949  -7.848  -9.458  1.00  0.00    +0.0278  H
ATOM     54 H65  NAC L   1       9.983  -6.345  -9.567  1.00  0.00    +0.0278  H
ATOM     55 H66  NAC L   1       7.655  -8.115 -10.911  1.00  0.00    +0.0623  H
ENDBRANCH 37 43
ENDBRANCH 36 37
ENDBRANCH 33 36
ENDBRANCH 23 33
ENDBRANCH 21 26
BRANCH 21 56
ATOM     56 C15  NAC L   1      14.496  -6.546  -0.538  1.00  0.00    +0.0334  C
ATOM     57 H48  NAC L   1      14.765  -6.642  -1.597  1.00  0.00    +0.0497  H
ATOM     58 H49  NAC L   1      15.257  -7.090   0.034  1.00  0.00    +0.0497  H
BRANCH 56 59
ATOM     59 N16  NAC L   1      14.676  -5.132  -0.220  1.00  0.00    -0.3551  N
ATOM     60 C17  NAC L   1      15.203  -4.647   0.952  1.00  0.00    +0.2179  C
ATOM     61 C18  NAC L   1      15.372  -3.152   0.970  1.00  0.00    +0.0143  C
ATOM     62 O19  NAC L   1      15.458  -5.346   1.928  1.00  0.00    -0.2736 OA
ATOM     63 H50  NAC L   1      14.470  -4.470  -0.960  1.00  0.00    +0.1623 HD
ATOM     64 H51  NAC L   1      14.429  -2.689   1.275  1.00  0.00    +0.0325  H
ATOM     65 H52  NAC L   1      15.656  -2.780  -0.018  1.00  0.00    +0.0325  H
ATOM     66 H53  NAC L   1      16.157  -2.884   1.682  1.00  0.00    +0.0325  H
ENDBRANCH 56 59
ENDBRANCH 21 56
ENDBRANCH 17 21
ENDBRANCH 1 19
TORSDOF 9
ENDMDL
MODEL 3
REMARK VINA RESULT:    -7.216      3.014     10.646
REMARK INTER + INTRA:         -12.542
REMARK INTER:                 -11.381
REMARK INTRA:                  -1.161
REMARK UNBOUND:                -1.529
ROOT
ATOM      1 C23  NAC L   1      10.277  -8.352  -6.379  1.00  0.00    +0.0423  A
ATOM      2 C24  NAC L   1      10.965  -7.538  -7.285  1.00  0.00    -0.0377  A
ATOM      3 C25  NAC L   1      10.461  -7.316  -8.570  1.00  0.00    -0.0506  A
ATOM      4 C26  NAC L   1       9.251  -7.906  -8.967  1.00  0.00    +0.0004  A
ATOM      5 C27  NAC L   1       8.695  -7.722 -10.236  1.00  0.00    +0.0353  A
ATOM      6 N28  NAC L   1       7.532  -8.274 -10.652  1.00  0.00    -0.2626 NA
ATOM      7 C29  NAC L   1       6.882  -9.049  -9.759  1.00  0.00    +0.0281  A
ATOM      8 C30  NAC L   1       7.339  -9.300  -8.475  1.00  0.00    -0.0358  A
ATOM      9 C31  NAC L   1       8.547  -8.722  -8.062  1.00  0.00    -0.0131  A
ATOM     10 C32  NAC L   1       9.070  -8.936  -6.773  1.00  0.00    -0.0305  A
ATOM     11 H55  NAC L   1      11.905  -7.069  -7.006  1.00  0.00    +0.0638  H
ATOM     12 H56  NAC L   1      11.016  -6.680  -9.256  1.00  0.00    +0.0625  H
ATOM     13 H57  NAC L   1       9.187  -7.103 -10.981  1.00  0.00    +0.0836  H
ATOM     14 H58  NAC L   1       5.950  -9.481 -10.112  1.00  0.00    +0.0830  H
ATOM     15 H59  NAC L   1       6.763  -9.935  -7.810  1.00  0.00    +0.0639  H
ATOM     16 H60  NAC L   1       8.507  -9.560  -6.085  1.00  0.00    +0.0644  H
ENDROOT
BRANCH 1 19
ATOM     17 C20  NAC L   1      12.125  -8.142  -4.686  1.00  0.00    +0.2344  C
ATOM     18 O21  NAC L   1      12.935  -7.501  -5.353  1.00  0.00    -0.2722 OA
ATOM     19 N22  NAC L   1      10.857  -8.522  -5.108  1.00  0.00    -0.3256  N
ATOM     20 H54  NAC L   1      10.248  -8.910  -4.388  1.00  0.00    +0.1686 HD
BRANCH 17 21
ATOM     21 C14  NAC L   1      12.409  -8.562  -3.237  1.00  0.00    +0.0803  C
ATOM     22 H47  NAC L   1      13.125  -9.391  -3.260  1.00  0.00    +0.0463  H
BRANCH 21 26
ATOM     23 C10  NAC L   1      14.335  -5.464  -0.860  1.00  0.00    -0.0103  A
ATOM     24 C11  NAC L   1      12.974  -5.368  -1.171  1.00  0.00    -0.0551  A
ATOM     25 C12  NAC L   1      12.349  -6.352  -1.941  1.00  0.00    -0.0574  A
ATOM     26 C13  NAC L   1      13.068  -7.460  -2.413  1.00  0.00    -0.0336  A
ATOM     27 C33  NAC L   1      14.431  -7.558  -2.086  1.00  0.00    -0.0574  A
ATOM     28 C34  NAC L   1      15.056  -6.574  -1.317  1.00  0.00    -0.0551  A
ATOM     29 H45  NAC L   1      12.388  -4.522  -0.813  1.00  0.00    +0.0621  H
ATOM     30 H46  NAC L   1      11.294  -6.232  -2.178  1.00  0.00    +0.0621  H
ATOM     31 H61  NAC L   1      15.022  -8.407  -2.425  1.00  0.00    +0.0621  H
ATOM     32 H62  NAC L   1      16.109  -6.680  -1.070  1.00  0.00    +0.0621  H
BRANCH 23 33
ATOM     33  C9  NAC L   1      15.003  -4.411  -0.016  1.00  0.00    +0.1179  C
ATOM     34 H43  NAC L   1      15.500  -3.650  -0.632  1.00  0.00    +0.0749  H
ATOM     35 H44  NAC L   1      15.795  -4.872   0.587  1.00  0.00    +0.0749  H
BRANCH 33 36
ATOM     36  O8  NAC L   1      14.048  -3.845   0.889  1.00  0.00    -0.4564 OA
BRANCH 36 37
ATOM     37  C6  NAC L   1      13.974  -4.438   2.102  1.00  0.00    +0.3398  C
ATOM     38  O7  NAC L   1      14.769  -5.230   2.581  1.00  0.00    -0.2449 OA
BRANCH 37 43
ATOM     39  C1  NAC L   1       9.575  -2.112   5.063  1.00  0.00    -0.0397  C
ATOM     40  C2  NAC L   1      10.708  -2.754   4.318  1.00  0.00    -0.0502  A
ATOM     41  C3  NAC L   1      11.988  -2.197   4.359  1.00  0.00    -0.0580  A
ATOM     42  C4  NAC L   1      13.029  -2.775   3.634  1.00  0.00    -0.0473  A
ATOM     43  C5  NAC L   1      12.802  -3.912   2.845  1.00  0.00    +0.0619  A
ATOM     44 C35  NAC L   1      11.524  -4.500   2.805  1.00  0.00    -0.0362  A
ATOM     45 C36  NAC L   1      11.219  -5.738   2.008  1.00  0.00    -0.0389  C
ATOM     46 C37  NAC L   1      10.482  -3.893   3.531  1.00  0.00    -0.0551  A
ATOM     47 H38  NAC L   1       8.848  -2.862   5.390  1.00  0.00    +0.0278  H
ATOM     48 H39  NAC L   1       9.937  -1.599   5.960  1.00  0.00    +0.0278  H
ATOM     49 H40  NAC L   1       9.069  -1.385   4.420  1.00  0.00    +0.0278  H
ATOM     50 H41  NAC L   1      12.184  -1.307   4.954  1.00  0.00    +0.0620  H
ATOM     51 H42  NAC L   1      14.022  -2.332   3.677  1.00  0.00    +0.0626  H
ATOM     52 H63  NAC L   1      10.304  -6.224   2.366  1.00  0.00    +0.0278  H
ATOM     53 H64  NAC L   1      12.023  -6.476   2.107  1.00  0.00    +0.0278  H
ATOM     54 H65  NAC L   1      11.078  -5.485   0.954  1.00  0.00    +0.0278  H
ATOM     55 H66  NAC L   1       9.480  -4.320   3.492  1.00  0.00    +0.0623  H
ENDBRANCH 37 43
ENDBRANCH 36 37
ENDBRANCH 33 36
ENDBRANCH 23 33
ENDBRANCH 21 26
BRANCH 21 56
ATOM     56 C15  NAC L   1      11.114  -9.068  -2.573  1.00  0.00    +0.0334  C
ATOM     57 H48  NAC L   1      10.335  -9.238  -3.326  1.00  0.00    +0.0497  H
ATOM     58 H49  NAC L   1      10.730  -8.304  -1.886  1.00  0.00    +0.0497  H
BRANCH 56 59
ATOM     59 N16  NAC L   1      11.188 -10.309  -1.807  1.00  0.00    -0.3551  N
ATOM     60 C17  NAC L   1      11.638 -10.412  -0.513  1.00  0.00    +0.2179  C
ATOM     61 C18  NAC L   1      11.508 -11.794   0.067  1.00  0.00    +0.0143  C
ATOM     62 O19  NAC L   1      12.161  -9.489   0.105  1.00  0.00    -0.2736 OA
ATOM     63 H50  NAC L   1      10.800 -11.137  -2.244  1.00  0.00    +0.1623 HD
ATOM     64 H51  NAC L   1      12.382 -12.386  -0.218  1.00  0.00    +0.0325  H
ATOM     65 H52  NAC L   1      10.602 -12.286  -0.297  1.00  0.00    +0.0325  H
ATOM     66 H53  NAC L   1      11.453 -11.727   1.157  1.00  0.00    +0.0325  H
ENDBRANCH 56 59
ENDBRANCH 21 56
ENDBRANCH 17 21
ENDBRANCH 1 19
TORSDOF 9
ENDMDL
MODEL 4
REMARK VINA RESULT:    -7.115      2.851     10.774
REMARK INTER + INTRA:         -12.388
REMARK INTER:                 -11.152
REMARK INTRA:                  -1.236
REMARK UNBOUND:                -1.529
ROOT
ATOM      1 C23  NAC L   1       9.371  -9.229  -6.133  1.00  0.00    +0.0423  A
ATOM      2 C24  NAC L   1       8.095  -9.614  -5.711  1.00  0.00    -0.0377  A
ATOM      3 C25  NAC L   1       7.018  -9.613  -6.602  1.00  0.00    -0.0506  A
ATOM      4 C26  NAC L   1       7.206  -9.227  -7.938  1.00  0.00    +0.0004  A
ATOM      5 C27  NAC L   1       6.171  -9.205  -8.877  1.00  0.00    +0.0353  A
ATOM      6 N28  NAC L   1       6.316  -8.839 -10.171  1.00  0.00    -0.2626 NA
ATOM      7 C29  NAC L   1       7.557  -8.478 -10.558  1.00  0.00    +0.0281  A
ATOM      8 C30  NAC L   1       8.656  -8.463  -9.714  1.00  0.00    -0.0358  A
ATOM      9 C31  NAC L   1       8.487  -8.843  -8.376  1.00  0.00    -0.0131  A
ATOM     10 C32  NAC L   1       9.559  -8.849  -7.465  1.00  0.00    -0.0305  A
ATOM     11 H55  NAC L   1       7.919  -9.917  -4.681  1.00  0.00    +0.0638  H
ATOM     12 H56  NAC L   1       6.035  -9.916  -6.247  1.00  0.00    +0.0625  H
ATOM     13 H57  NAC L   1       5.159  -9.490  -8.603  1.00  0.00    +0.0836  H
ATOM     14 H58  NAC L   1       7.651  -8.190 -11.601  1.00  0.00    +0.0830  H
ATOM     15 H59  NAC L   1       9.625  -8.161 -10.095  1.00  0.00    +0.0639  H
ATOM     16 H60  NAC L   1      10.543  -8.560  -7.824  1.00  0.00    +0.0644  H
ENDROOT
BRANCH 1 19
ATOM     17 C20  NAC L   1      11.481  -8.400  -5.044  1.00  0.00    +0.2344  C
ATOM     18 O21  NAC L   1      11.676  -7.394  -5.723  1.00  0.00    -0.2722 OA
ATOM     19 N22  NAC L   1      10.397  -9.259  -5.170  1.00  0.00    -0.3256  N
ATOM     20 H54  NAC L   1      10.296  -9.956  -4.432  1.00  0.00    +0.1686 HD
BRANCH 17 21
ATOM     21 C14  NAC L   1      12.417  -8.805  -3.896  1.00  0.00    +0.0803  C
ATOM     22 H47  NAC L   1      13.447  -8.759  -4.269  1.00  0.00    +0.0463  H
BRANCH 21 26
ATOM     23 C10  NAC L   1      12.180  -6.072  -0.515  1.00  0.00    -0.0103  A
ATOM     24 C11  NAC L   1      13.328  -6.104  -1.314  1.00  0.00    -0.0551  A
ATOM     25 C12  NAC L   1      13.418  -6.984  -2.396  1.00  0.00    -0.0574  A
ATOM     26 C13  NAC L   1      12.358  -7.848  -2.709  1.00  0.00    -0.0336  A
ATOM     27 C33  NAC L   1      11.203  -7.802  -1.911  1.00  0.00    -0.0574  A
ATOM     28 C34  NAC L   1      11.114  -6.923  -0.829  1.00  0.00    -0.0551  A
ATOM     29 H45  NAC L   1      14.165  -5.440  -1.099  1.00  0.00    +0.0621  H
ATOM     30 H46  NAC L   1      14.334  -6.993  -2.983  1.00  0.00    +0.0621  H
ATOM     31 H61  NAC L   1      10.355  -8.450  -2.126  1.00  0.00    +0.0621  H
ATOM     32 H62  NAC L   1      10.204  -6.900  -0.233  1.00  0.00    +0.0621  H
BRANCH 23 33
ATOM     33  C9  NAC L   1      12.080  -5.111   0.641  1.00  0.00    +0.1179  C
ATOM     34 H43  NAC L   1      12.035  -4.068   0.301  1.00  0.00    +0.0749  H
ATOM     35 H44  NAC L   1      12.983  -5.187   1.259  1.00  0.00    +0.0749  H
BRANCH 33 36
ATOM     36  O8  NAC L   1      10.964  -5.468   1.465  1.00  0.00    -0.4564 OA
BRANCH 36 37
ATOM     37  C6  NAC L   1      11.255  -5.721   2.761  1.00  0.00    +0.3398  C
ATOM     38  O7  NAC L   1      12.010  -6.580   3.189  1.00  0.00    -0.2449 OA
BRANCH 37 43
ATOM     39  C1  NAC L   1       8.858  -1.610   6.060  1.00  0.00    -0.0397  C
ATOM     40  C2  NAC L   1       9.474  -2.705   5.239  1.00  0.00    -0.0502  A
ATOM     41  C3  NAC L   1      10.748  -2.545   4.688  1.00  0.00    -0.0580  A
ATOM     42  C4  NAC L   1      11.301  -3.549   3.895  1.00  0.00    -0.0473  A
ATOM     43  C5  NAC L   1      10.581  -4.724   3.628  1.00  0.00    +0.0619  A
ATOM     44 C35  NAC L   1       9.305  -4.913   4.191  1.00  0.00    -0.0362  A
ATOM     45 C36  NAC L   1       8.494  -6.161   3.974  1.00  0.00    -0.0389  C
ATOM     46 C37  NAC L   1       8.757  -3.882   4.976  1.00  0.00    -0.0551  A
ATOM     47 H38  NAC L   1       8.192  -2.023   6.825  1.00  0.00    +0.0278  H
ATOM     48 H39  NAC L   1       9.627  -1.030   6.579  1.00  0.00    +0.0278  H
ATOM     49 H40  NAC L   1       8.283  -0.939   5.415  1.00  0.00    +0.0278  H
ATOM     50 H41  NAC L   1      11.318  -1.637   4.871  1.00  0.00    +0.0620  H
ATOM     51 H42  NAC L   1      12.295  -3.413   3.474  1.00  0.00    +0.0626  H
ATOM     52 H63  NAC L   1       7.719  -6.267   4.742  1.00  0.00    +0.0278  H
ATOM     53 H64  NAC L   1       9.124  -7.054   4.043  1.00  0.00    +0.0278  H
ATOM     54 H65  NAC L   1       8.002  -6.130   2.998  1.00  0.00    +0.0278  H
ATOM     55 H66  NAC L   1       7.760  -4.000   5.398  1.00  0.00    +0.0623  H
ENDBRANCH 37 43
ENDBRANCH 36 37
ENDBRANCH 33 36
ENDBRANCH 23 33
ENDBRANCH 21 26
BRANCH 21 56
ATOM     56 C15  NAC L   1      12.128 -10.256  -3.468  1.00  0.00    +0.0334  C
ATOM     57 H48  NAC L   1      12.303 -10.947  -4.303  1.00  0.00    +0.0497  H
ATOM     58 H49  NAC L   1      11.071 -10.354  -3.191  1.00  0.00    +0.0497  H
BRANCH 56 59
ATOM     59 N16  NAC L   1      12.898 -10.797  -2.351  1.00  0.00    -0.3551  N
ATOM     60 C17  NAC L   1      12.364 -11.247  -1.169  1.00  0.00    +0.2179  C
ATOM     61 C18  NAC L   1      13.378 -11.849  -0.235  1.00  0.00    +0.0143  C
ATOM     62 O19  NAC L   1      11.183 -11.119  -0.859  1.00  0.00    -0.2736 OA
ATOM     63 H50  NAC L   1      13.893 -10.921  -2.504  1.00  0.00    +0.1623 HD
ATOM     64 H51  NAC L   1      13.843 -11.052   0.351  1.00  0.00    +0.0325  H
ATOM     65 H52  NAC L   1      14.149 -12.388  -0.791  1.00  0.00    +0.0325  H
ATOM     66 H53  NAC L   1      12.879 -12.552   0.438  1.00  0.00    +0.0325  H
ENDBRANCH 56 59
ENDBRANCH 21 56
ENDBRANCH 17 21
ENDBRANCH 1 19
TORSDOF 9
ENDMDL
MODEL 5
REMARK VINA RESULT:    -7.073      2.032      2.988
REMARK INTER + INTRA:         -12.324
REMARK INTER:                 -11.283
REMARK INTRA:                  -1.040
REMARK UNBOUND:                -1.529
ROOT
ATOM      1 C23  NAC L   1      11.703  -5.271   2.892  1.00  0.00    +0.0423  A
ATOM      2 C24  NAC L   1      12.114  -3.987   3.263  1.00  0.00    -0.0377  A
ATOM      3 C25  NAC L   1      11.423  -3.274   4.247  1.00  0.00    -0.0506  A
ATOM      4 C26  NAC L   1      10.306  -3.841   4.880  1.00  0.00    +0.0004  A
ATOM      5 C27  NAC L   1       9.574  -3.180   5.869  1.00  0.00    +0.0353  A
ATOM      6 N28  NAC L   1       8.494  -3.697   6.499  1.00  0.00    -0.2626 NA
ATOM      7 C29  NAC L   1       8.121  -4.939   6.130  1.00  0.00    +0.0281  A
ATOM      8 C30  NAC L   1       8.772  -5.687   5.162  1.00  0.00    -0.0358  A
ATOM      9 C31  NAC L   1       9.888  -5.135   4.518  1.00  0.00    -0.0131  A
ATOM     10 C32  NAC L   1      10.595  -5.839   3.525  1.00  0.00    -0.0305  A
ATOM     11 H55  NAC L   1      12.975  -3.521   2.790  1.00  0.00    +0.0638  H
ATOM     12 H56  NAC L   1      11.762  -2.276   4.517  1.00  0.00    +0.0625  H
ATOM     13 H57  NAC L   1       9.845  -2.180   6.194  1.00  0.00    +0.0836  H
ATOM     14 H58  NAC L   1       7.253  -5.336   6.649  1.00  0.00    +0.0830  H
ATOM     15 H59  NAC L   1       8.415  -6.681   4.916  1.00  0.00    +0.0639  H
ATOM     16 H60  NAC L   1      10.263  -6.841   3.267  1.00  0.00    +0.0644  H
ENDROOT
BRANCH 1 19
ATOM     17 C20  NAC L   1      12.312  -5.822   0.514  1.00  0.00    +0.2344  C
ATOM     18 O21  NAC L   1      11.535  -5.070  -0.070  1.00  0.00    -0.2722 OA
ATOM     19 N22  NAC L   1      12.457  -5.916   1.893  1.00  0.00    -0.3256  N
ATOM     20 H54  NAC L   1      13.250  -6.468   2.219  1.00  0.00    +0.1686 HD
BRANCH 17 21
ATOM     21 C14  NAC L   1      13.290  -6.734  -0.239  1.00  0.00    +0.0803  C
ATOM     22 H47  NAC L   1      13.655  -7.491   0.464  1.00  0.00    +0.0463  H
BRANCH 21 26
ATOM     23 C10  NAC L   1      11.397  -8.980  -3.453  1.00  0.00    -0.0103  A
ATOM     24 C11  NAC L   1      12.468  -8.123  -3.730  1.00  0.00    -0.0551  A
ATOM     25 C12  NAC L   1      13.076  -7.391  -2.707  1.00  0.00    -0.0574  A
ATOM     26 C13  NAC L   1      12.633  -7.504  -1.381  1.00  0.00    -0.0336  A
ATOM     27 C33  NAC L   1      11.566  -8.375  -1.108  1.00  0.00    -0.0574  A
ATOM     28 C34  NAC L   1      10.958  -9.107  -2.131  1.00  0.00    -0.0551  A
ATOM     29 H45  NAC L   1      12.839  -8.021  -4.749  1.00  0.00    +0.0621  H
ATOM     30 H46  NAC L   1      13.894  -6.721  -2.964  1.00  0.00    +0.0621  H
ATOM     31 H61  NAC L   1      11.198  -8.497  -0.091  1.00  0.00    +0.0621  H
ATOM     32 H62  NAC L   1      10.140  -9.782  -1.889  1.00  0.00    +0.0621  H
BRANCH 23 33
ATOM     33  C9  NAC L   1      10.754  -9.781  -4.555  1.00  0.00    +0.1179  C
ATOM     34 H43  NAC L   1      10.115 -10.581  -4.158  1.00  0.00    +0.0749  H
ATOM     35 H44  NAC L   1      11.531 -10.282  -5.144  1.00  0.00    +0.0749  H
BRANCH 33 36
ATOM     36  O8  NAC L   1      10.047  -8.900  -5.436  1.00  0.00    -0.4564 OA
BRANCH 36 37
ATOM     37  C6  NAC L   1       8.771  -9.254  -5.712  1.00  0.00    +0.3398  C
ATOM     38  O7  NAC L   1       7.933  -9.652  -4.919  1.00  0.00    -0.2449 OA
BRANCH 37 43
ATOM     39  C1  NAC L   1       7.955  -8.186 -11.344  1.00  0.00    -0.0397  C
ATOM     40  C2  NAC L   1       8.129  -8.440  -9.875  1.00  0.00    -0.0502  A
ATOM     41  C3  NAC L   1       9.308  -8.065  -9.227  1.00  0.00    -0.0580  A
ATOM     42  C4  NAC L   1       9.481  -8.337  -7.870  1.00  0.00    -0.0473  A
ATOM     43  C5  NAC L   1       8.481  -9.001  -7.144  1.00  0.00    +0.0619  A
ATOM     44 C35  NAC L   1       7.276  -9.369  -7.774  1.00  0.00    -0.0362  A
ATOM     45 C36  NAC L   1       6.151 -10.051  -7.048  1.00  0.00    -0.0389  C
ATOM     46 C37  NAC L   1       7.127  -9.100  -9.148  1.00  0.00    -0.0551  A
ATOM     47 H38  NAC L   1       6.903  -8.012 -11.588  1.00  0.00    +0.0278  H
ATOM     48 H39  NAC L   1       8.512  -7.296 -11.656  1.00  0.00    +0.0278  H
ATOM     49 H40  NAC L   1       8.315  -9.047 -11.917  1.00  0.00    +0.0278  H
ATOM     50 H41  NAC L   1      10.102  -7.561  -9.773  1.00  0.00    +0.0620  H
ATOM     51 H42  NAC L   1      10.403  -8.038  -7.377  1.00  0.00    +0.0626  H
ATOM     52 H63  NAC L   1       5.206  -9.943  -7.593  1.00  0.00    +0.0278  H
ATOM     53 H64  NAC L   1       5.993  -9.604  -6.061  1.00  0.00    +0.0278  H
ATOM     54 H65  NAC L   1       6.360 -11.119  -6.941  1.00  0.00    +0.0278  H
ATOM     55 H66  NAC L   1       6.213  -9.400  -9.658  1.00  0.00    +0.0623  H
ENDBRANCH 37 43
ENDBRANCH 36 37
ENDBRANCH 33 36
ENDBRANCH 23 33
ENDBRANCH 21 26
BRANCH 21 56
ATOM     56 C15  NAC L   1      14.500  -5.916  -0.731  1.00  0.00    +0.0334  C
ATOM     57 H48  NAC L   1      14.444  -5.758  -1.815  1.00  0.00    +0.0497  H
ATOM     58 H49  NAC L   1      15.424  -6.476  -0.540  1.00  0.00    +0.0497  H
BRANCH 56 59
ATOM     59 N16  NAC L   1      14.697  -4.588  -0.156  1.00  0.00    -0.3551  N
ATOM     60 C17  NAC L   1      15.285  -4.334   1.059  1.00  0.00    +0.2179  C
ATOM     61 C18  NAC L   1      15.453  -2.869   1.357  1.00  0.00    +0.0143  C
ATOM     62 O19  NAC L   1      15.589  -5.206   1.868  1.00  0.00    -0.2736 OA
ATOM     63 H50  NAC L   1      14.452  -3.799  -0.743  1.00  0.00    +0.1623 HD
ATOM     64 H51  NAC L   1      14.528  -2.483   1.793  1.00  0.00    +0.0325  H
ATOM     65 H52  NAC L   1      15.685  -2.310   0.447  1.00  0.00    +0.0325  H
ATOM     66 H53  NAC L   1      16.275  -2.735   2.066  1.00  0.00    +0.0325  H
ENDBRANCH 56 59
ENDBRANCH 21 56
ENDBRANCH 17 21
ENDBRANCH 1 19
TORSDOF 9
ENDMDL
MODEL 6
REMARK VINA RESULT:    -7.043      3.111      5.842
REMARK INTER + INTRA:         -12.278
REMARK INTER:                  -9.415
REMARK INTRA:                  -2.863
REMARK UNBOUND:                -1.529
ROOT
ATOM      1 C23  NAC L   1      12.028  -8.009  -2.399  1.00  0.00    +0.0423  A
ATOM      2 C24  NAC L   1      10.982  -7.784  -1.498  1.00  0.00    -0.0377  A
ATOM      3 C25  NAC L   1      11.106  -6.828  -0.486  1.00  0.00    -0.0506  A
ATOM      4 C26  NAC L   1      12.286  -6.076  -0.363  1.00  0.00    +0.0004  A
ATOM      5 C27  NAC L   1      12.471  -5.107   0.626  1.00  0.00    +0.0353  A
ATOM      6 N28  NAC L   1      13.592  -4.365   0.774  1.00  0.00    -0.2626 NA
ATOM      7 C29  NAC L   1      14.585  -4.595  -0.110  1.00  0.00    +0.0281  A
ATOM      8 C30  NAC L   1      14.511  -5.529  -1.130  1.00  0.00    -0.0358  A
ATOM      9 C31  NAC L   1      13.342  -6.291  -1.267  1.00  0.00    -0.0131  A
ATOM     10 C32  NAC L   1      13.200  -7.258  -2.279  1.00  0.00    -0.0305  A
ATOM     11 H55  NAC L   1      10.058  -8.351  -1.568  1.00  0.00    +0.0638  H
ATOM     12 H56  NAC L   1      10.278  -6.672   0.202  1.00  0.00    +0.0625  H
ATOM     13 H57  NAC L   1      11.694  -4.892   1.354  1.00  0.00    +0.0836  H
ATOM     14 H58  NAC L   1      15.475  -3.987   0.025  1.00  0.00    +0.0830  H
ATOM     15 H59  NAC L   1      15.350  -5.661  -1.806  1.00  0.00    +0.0639  H
ATOM     16 H60  NAC L   1      14.023  -7.402  -2.975  1.00  0.00    +0.0644  H
ENDROOT
BRANCH 1 19
ATOM     17 C20  NAC L   1      11.429  -8.810  -4.707  1.00  0.00    +0.2344  C
ATOM     18 O21  NAC L   1      11.285  -7.724  -5.264  1.00  0.00    -0.2722 OA
ATOM     19 N22  NAC L   1      11.818  -8.991  -3.386  1.00  0.00    -0.3256  N
ATOM     20 H54  NAC L   1      12.046  -9.949  -3.118  1.00  0.00    +0.1686 HD
BRANCH 17 21
ATOM     21 C14  NAC L   1      11.246 -10.140  -5.449  1.00  0.00    +0.0803  C
ATOM     22 H47  NAC L   1      11.317 -10.950  -4.714  1.00  0.00    +0.0463  H
BRANCH 21 26
ATOM     23 C10  NAC L   1       7.352 -10.556  -7.354  1.00  0.00    -0.0103  A
ATOM     24 C11  NAC L   1       7.512  -9.700  -6.258  1.00  0.00    -0.0551  A
ATOM     25 C12  NAC L   1       8.755  -9.566  -5.635  1.00  0.00    -0.0574  A
ATOM     26 C13  NAC L   1       9.871 -10.281  -6.096  1.00  0.00    -0.0336  A
ATOM     27 C33  NAC L   1       9.707 -11.129  -7.203  1.00  0.00    -0.0574  A
ATOM     28 C34  NAC L   1       8.464 -11.262  -7.827  1.00  0.00    -0.0551  A
ATOM     29 H45  NAC L   1       6.665  -9.127  -5.882  1.00  0.00    +0.0621  H
ATOM     30 H46  NAC L   1       8.835  -8.906  -4.774  1.00  0.00    +0.0621  H
ATOM     31 H61  NAC L   1      10.550 -11.694  -7.597  1.00  0.00    +0.0621  H
ATOM     32 H62  NAC L   1       8.368 -11.918  -8.689  1.00  0.00    +0.0621  H
BRANCH 23 33
ATOM     33  C9  NAC L   1       6.015 -10.685  -8.034  1.00  0.00    +0.1179  C
ATOM     34 H43  NAC L   1       5.290  -9.955  -7.652  1.00  0.00    +0.0749  H
ATOM     35 H44  NAC L   1       5.589 -11.672  -7.818  1.00  0.00    +0.0749  H
BRANCH 33 36
ATOM     36  O8  NAC L   1       6.189 -10.593  -9.453  1.00  0.00    -0.4564 OA
BRANCH 36 37
ATOM     37  C6  NAC L   1       6.338  -9.341  -9.941  1.00  0.00    +0.3398  C
ATOM     38  O7  NAC L   1       5.612  -8.382  -9.734  1.00  0.00    -0.2449 OA
BRANCH 37 43
ATOM     39  C1  NAC L   1      11.098  -9.148 -13.232  1.00  0.00    -0.0397  C
ATOM     40  C2  NAC L   1       9.889  -9.213 -12.345  1.00  0.00    -0.0502  A
ATOM     41  C3  NAC L   1       8.776  -9.969 -12.719  1.00  0.00    -0.0580  A
ATOM     42  C4  NAC L   1       7.641  -9.996 -11.910  1.00  0.00    -0.0473  A
ATOM     43  C5  NAC L   1       7.597  -9.254 -10.720  1.00  0.00    +0.0619  A
ATOM     44 C35  NAC L   1       8.717  -8.502 -10.315  1.00  0.00    -0.0362  A
ATOM     45 C36  NAC L   1       8.750  -7.713  -9.035  1.00  0.00    -0.0389  C
ATOM     46 C37  NAC L   1       9.847  -8.475 -11.152  1.00  0.00    -0.0551  A
ATOM     47 H38  NAC L   1      12.010  -9.018 -12.641  1.00  0.00    +0.0278  H
ATOM     48 H39  NAC L   1      11.213 -10.074 -13.806  1.00  0.00    +0.0278  H
ATOM     49 H40  NAC L   1      11.005  -8.309 -13.929  1.00  0.00    +0.0278  H
ATOM     50 H41  NAC L   1       8.783 -10.541 -13.645  1.00  0.00    +0.0620  H
ATOM     51 H42  NAC L   1       6.782 -10.590 -12.213  1.00  0.00    +0.0626  H
ATOM     52 H63  NAC L   1       9.780  -7.492  -8.734  1.00  0.00    +0.0278  H
ATOM     53 H64  NAC L   1       8.300  -8.280  -8.213  1.00  0.00    +0.0278  H
ATOM     54 H65  NAC L   1       8.223  -6.763  -9.161  1.00  0.00    +0.0278  H
ATOM     55 H66  NAC L   1      10.712  -7.878 -10.868  1.00  0.00    +0.0623  H
ENDBRANCH 37 43
ENDBRANCH 36 37
ENDBRANCH 33 36
ENDBRANCH 23 33
ENDBRANCH 21 26
BRANCH 21 56
ATOM     56 C15  NAC L   1      12.377 -10.329  -6.479  1.00  0.00    +0.0334  C
ATOM     57 H48  NAC L   1      12.119 -11.119  -7.194  1.00  0.00    +0.0497  H
ATOM     58 H49  NAC L   1      13.291 -10.651  -5.965  1.00  0.00    +0.0497  H
BRANCH 56 59
ATOM     59 N16  NAC L   1      12.748  -9.175  -7.294  1.00  0.00    -0.3551  N
ATOM     60 C17  NAC L   1      12.605  -9.093  -8.657  1.00  0.00    +0.2179  C
ATOM     61 C18  NAC L   1      12.970  -7.749  -9.226  1.00  0.00    +0.0143  C
ATOM     62 O19  NAC L   1      12.275 -10.038  -9.368  1.00  0.00    -0.2736 OA
ATOM     63 H50  NAC L   1      13.056  -8.348  -6.795  1.00  0.00    +0.1623 HD
ATOM     64 H51  NAC L   1      14.049  -7.714  -9.400  1.00  0.00    +0.0325  H
ATOM     65 H52  NAC L   1      12.687  -6.946  -8.542  1.00  0.00    +0.0325  H
ATOM     66 H53  NAC L   1      12.443  -7.601 -10.173  1.00  0.00    +0.0325  H
ENDBRANCH 56 59
ENDBRANCH 21 56
ENDBRANCH 17 21
ENDBRANCH 1 19
TORSDOF 9
ENDMDL
MODEL 7
REMARK VINA RESULT:    -6.992      3.279      6.244
REMARK INTER + INTRA:         -12.200
REMARK INTER:                  -9.764
REMARK INTRA:                  -2.435
REMARK UNBOUND:                -1.529
ROOT
ATOM      1 C23  NAC L   1      11.980  -8.512  -2.774  1.00  0.00    +0.0423  A
ATOM      2 C24  NAC L   1      11.591  -9.147  -1.589  1.00  0.00    -0.0377  A
ATOM      3 C25  NAC L   1      11.765  -8.519  -0.353  1.00  0.00    -0.0506  A
ATOM      4 C26  NAC L   1      12.331  -7.236  -0.284  1.00  0.00    +0.0004  A
ATOM      5 C27  NAC L   1      12.531  -6.556   0.920  1.00  0.00    +0.0353  A
ATOM      6 N28  NAC L   1      13.072  -5.320   1.022  1.00  0.00    -0.2626 NA
ATOM      7 C29  NAC L   1      13.433  -4.725  -0.133  1.00  0.00    +0.0281  A
ATOM      8 C30  NAC L   1      13.280  -5.304  -1.382  1.00  0.00    -0.0358  A
ATOM      9 C31  NAC L   1      12.720  -6.586  -1.470  1.00  0.00    -0.0131  A
ATOM     10 C32  NAC L   1      12.538  -7.233  -2.706  1.00  0.00    -0.0305  A
ATOM     11 H55  NAC L   1      11.151 -10.141  -1.611  1.00  0.00    +0.0638  H
ATOM     12 H56  NAC L   1      11.456  -9.035   0.553  1.00  0.00    +0.0625  H
ATOM     13 H57  NAC L   1      12.252  -7.002   1.870  1.00  0.00    +0.0836  H
ATOM     14 H58  NAC L   1      13.863  -3.733  -0.028  1.00  0.00    +0.0830  H
ATOM     15 H59  NAC L   1      13.593  -4.765  -2.270  1.00  0.00    +0.0639  H
ATOM     16 H60  NAC L   1      12.835  -6.711  -3.611  1.00  0.00    +0.0644  H
ENDROOT
BRANCH 1 19
ATOM     17 C20  NAC L   1      10.559  -9.594  -4.546  1.00  0.00    +0.2344  C
ATOM     18 O21  NAC L   1       9.446  -9.286  -4.126  1.00  0.00    -0.2722 OA
ATOM     19 N22  NAC L   1      11.768  -9.218  -3.973  1.00  0.00    -0.3256  N
ATOM     20 H54  NAC L   1      12.602  -9.419  -4.526  1.00  0.00    +0.1686 HD
BRANCH 17 21
ATOM     21 C14  NAC L   1      10.751 -10.410  -5.831  1.00  0.00    +0.0803  C
ATOM     22 H47  NAC L   1      10.467 -11.447  -5.618  1.00  0.00    +0.0463  H
BRANCH 21 26
ATOM     23 C10  NAC L   1       8.155  -9.049  -9.051  1.00  0.00    -0.0103  A
ATOM     24 C11  NAC L   1       8.320 -10.418  -8.812  1.00  0.00    -0.0551  A
ATOM     25 C12  NAC L   1       9.158 -10.865  -7.787  1.00  0.00    -0.0574  A
ATOM     26 C13  NAC L   1       9.846  -9.953  -6.972  1.00  0.00    -0.0336  A
ATOM     27 C33  NAC L   1       9.666  -8.581  -7.209  1.00  0.00    -0.0574  A
ATOM     28 C34  NAC L   1       8.828  -8.134  -8.234  1.00  0.00    -0.0551  A
ATOM     29 H45  NAC L   1       7.794 -11.149  -9.424  1.00  0.00    +0.0621  H
ATOM     30 H46  NAC L   1       9.276 -11.937  -7.643  1.00  0.00    +0.0621  H
ATOM     31 H61  NAC L   1      10.175  -7.841  -6.593  1.00  0.00    +0.0621  H
ATOM     32 H62  NAC L   1       8.699  -7.066  -8.389  1.00  0.00    +0.0621  H
BRANCH 23 33
ATOM     33  C9  NAC L   1       7.238  -8.570 -10.146  1.00  0.00    +0.1179  C
ATOM     34 H43  NAC L   1       6.462  -7.896  -9.762  1.00  0.00    +0.0749  H
ATOM     35 H44  NAC L   1       6.705  -9.426 -10.577  1.00  0.00    +0.0749  H
BRANCH 33 36
ATOM     36  O8  NAC L   1       8.013  -7.974 -11.192  1.00  0.00    -0.4564 OA
BRANCH 36 37
ATOM     37  C6  NAC L   1       8.687  -8.840 -11.983  1.00  0.00    +0.3398  C
ATOM     38  O7  NAC L   1       8.295  -9.925 -12.383  1.00  0.00    -0.2449 OA
BRANCH 37 43
ATOM     39  C1  NAC L   1      13.563  -6.276 -13.768  1.00  0.00    -0.0397  C
ATOM     40  C2  NAC L   1      12.318  -6.981 -13.314  1.00  0.00    -0.0502  A
ATOM     41  C3  NAC L   1      11.087  -6.696 -13.908  1.00  0.00    -0.0580  A
ATOM     42  C4  NAC L   1       9.927  -7.325 -13.457  1.00  0.00    -0.0473  A
ATOM     43  C5  NAC L   1       9.979  -8.239 -12.394  1.00  0.00    +0.0619  A
ATOM     44 C35  NAC L   1      11.214  -8.555 -11.796  1.00  0.00    -0.0362  A
ATOM     45 C36  NAC L   1      11.347  -9.551 -10.676  1.00  0.00    -0.0389  C
ATOM     46 C37  NAC L   1      12.371  -7.898 -12.254  1.00  0.00    -0.0551  A
ATOM     47 H38  NAC L   1      14.441  -6.919 -13.649  1.00  0.00    +0.0278  H
ATOM     48 H39  NAC L   1      13.497  -6.009 -14.828  1.00  0.00    +0.0278  H
ATOM     49 H40  NAC L   1      13.710  -5.364 -13.182  1.00  0.00    +0.0278  H
ATOM     50 H41  NAC L   1      11.020  -5.980 -14.725  1.00  0.00    +0.0620  H
ATOM     51 H42  NAC L   1       8.974  -7.095 -13.930  1.00  0.00    +0.0626  H
ATOM     52 H63  NAC L   1      12.379  -9.908 -10.586  1.00  0.00    +0.0278  H
ATOM     53 H64  NAC L   1      10.727 -10.434 -10.862  1.00  0.00    +0.0278  H
ATOM     54 H65  NAC L   1      11.062  -9.093  -9.725  1.00  0.00    +0.0278  H
ATOM     55 H66  NAC L   1      13.331  -8.111 -11.785  1.00  0.00    +0.0623  H
ENDBRANCH 37 43
ENDBRANCH 36 37
ENDBRANCH 33 36
ENDBRANCH 23 33
ENDBRANCH 21 26
BRANCH 21 56
ATOM     56 C15  NAC L   1      12.235 -10.397  -6.247  1.00  0.00    +0.0334  C
ATOM     57 H48  NAC L   1      12.561 -11.402  -6.543  1.00  0.00    +0.0497  H
ATOM     58 H49  NAC L   1      12.854 -10.101  -5.391  1.00  0.00    +0.0497  H
BRANCH 56 59
ATOM     59 N16  NAC L   1      12.619  -9.525  -7.354  1.00  0.00    -0.3551  N
ATOM     60 C17  NAC L   1      13.202  -8.289  -7.219  1.00  0.00    +0.2179  C
ATOM     61 C18  NAC L   1      13.588  -7.653  -8.526  1.00  0.00    +0.0143  C
ATOM     62 O19  NAC L   1      13.344  -7.713  -6.144  1.00  0.00    -0.2736 OA
ATOM     63 H50  NAC L   1      12.517  -9.906  -8.288  1.00  0.00    +0.1623 HD
ATOM     64 H51  NAC L   1      12.721  -7.130  -8.940  1.00  0.00    +0.0325  H
ATOM     65 H52  NAC L   1      13.931  -8.407  -9.240  1.00  0.00    +0.0325  H
ATOM     66 H53  NAC L   1      14.399  -6.940  -8.358  1.00  0.00    +0.0325  H
ENDBRANCH 56 59
ENDBRANCH 21 56
ENDBRANCH 17 21
ENDBRANCH 1 19
TORSDOF 9
ENDMDL
MODEL 8
REMARK VINA RESULT:    -6.955      3.041     10.484
REMARK INTER + INTRA:         -12.143
REMARK INTER:                 -10.099
REMARK INTRA:                  -2.044
REMARK UNBOUND:                -1.529
ROOT
ATOM      1 C23  NAC L   1      11.138  -8.735  -4.675  1.00  0.00    +0.0423  A
ATOM      2 C24  NAC L   1      10.169  -9.690  -4.350  1.00  0.00    -0.0377  A
ATOM      3 C25  NAC L   1       9.111  -9.957  -5.223  1.00  0.00    -0.0506  A
ATOM      4 C26  NAC L   1       9.009  -9.271  -6.444  1.00  0.00    +0.0004  A
ATOM      5 C27  NAC L   1       7.976  -9.493  -7.358  1.00  0.00    +0.0353  A
ATOM      6 N28  NAC L   1       7.847  -8.851  -8.542  1.00  0.00    -0.2626 NA
ATOM      7 C29  NAC L   1       8.797  -7.940  -8.837  1.00  0.00    +0.0281  A
ATOM      8 C30  NAC L   1       9.865  -7.639  -8.007  1.00  0.00    -0.0358  A
ATOM      9 C31  NAC L   1       9.981  -8.312  -6.783  1.00  0.00    -0.0131  A
ATOM     10 C32  NAC L   1      11.040  -8.055  -5.892  1.00  0.00    -0.0305  A
ATOM     11 H55  NAC L   1      10.221 -10.236  -3.412  1.00  0.00    +0.0638  H
ATOM     12 H56  NAC L   1       8.370 -10.704  -4.946  1.00  0.00    +0.0625  H
ATOM     13 H57  NAC L   1       7.194 -10.220  -7.156  1.00  0.00    +0.0836  H
ATOM     14 H58  NAC L   1       8.676  -7.437  -9.792  1.00  0.00    +0.0830  H
ATOM     15 H59  NAC L   1      10.592  -6.893  -8.310  1.00  0.00    +0.0639  H
ATOM     16 H60  NAC L   1      11.787  -7.319  -6.177  1.00  0.00    +0.0644  H
ENDROOT
BRANCH 1 19
ATOM     17 C20  NAC L   1      12.104  -7.849  -2.529  1.00  0.00    +0.2344  C
ATOM     18 O21  NAC L   1      11.084  -7.378  -2.030  1.00  0.00    -0.2722 OA
ATOM     19 N22  NAC L   1      12.168  -8.529  -3.738  1.00  0.00    -0.3256  N
ATOM     20 H54  NAC L   1      13.054  -8.994  -3.939  1.00  0.00    +0.1686 HD
BRANCH 17 21
ATOM     21 C14  NAC L   1      13.464  -7.789  -1.820  1.00  0.00    +0.0803  C
ATOM     22 H47  NAC L   1      14.228  -7.565  -2.573  1.00  0.00    +0.0463  H
BRANCH 21 26
ATOM     23 C10  NAC L   1      13.758  -4.559   1.086  1.00  0.00    -0.0103  A
ATOM     24 C11  NAC L   1      13.515  -5.870   1.513  1.00  0.00    -0.0551  A
ATOM     25 C12  NAC L   1      13.410  -6.911   0.588  1.00  0.00    -0.0574  A
ATOM     26 C13  NAC L   1      13.553  -6.669  -0.787  1.00  0.00    -0.0336  A
ATOM     27 C33  NAC L   1      13.808  -5.354  -1.208  1.00  0.00    -0.0574  A
ATOM     28 C34  NAC L   1      13.913  -4.313  -0.283  1.00  0.00    -0.0551  A
ATOM     29 H45  NAC L   1      13.407  -6.089   2.575  1.00  0.00    +0.0621  H
ATOM     30 H46  NAC L   1      13.202  -7.914   0.957  1.00  0.00    +0.0621  H
ATOM     31 H61  NAC L   1      13.934  -5.126  -2.265  1.00  0.00    +0.0621  H
ATOM     32 H62  NAC L   1      14.123  -3.305  -0.636  1.00  0.00    +0.0621  H
BRANCH 23 33
ATOM     33  C9  NAC L   1      13.887  -3.441   2.086  1.00  0.00    +0.1179  C
ATOM     34 H43  NAC L   1      13.381  -2.528   1.745  1.00  0.00    +0.0749  H
ATOM     35 H44  NAC L   1      14.945  -3.172   2.200  1.00  0.00    +0.0749  H
BRANCH 33 36
ATOM     36  O8  NAC L   1      13.416  -3.884   3.364  1.00  0.00    -0.4564 OA
BRANCH 36 37
ATOM     37  C6  NAC L   1      12.339  -3.225   3.848  1.00  0.00    +0.3398  C
ATOM     38  O7  NAC L   1      12.171  -2.017   3.878  1.00  0.00    -0.2449 OA
BRANCH 37 43
ATOM     39  C1  NAC L   1       8.255  -7.106   5.187  1.00  0.00    -0.0397  C
ATOM     40  C2  NAC L   1       9.295  -6.071   4.870  1.00  0.00    -0.0502  A
ATOM     41  C3  NAC L   1       9.481  -5.636   3.556  1.00  0.00    -0.0580  A
ATOM     42  C4  NAC L   1      10.474  -4.702   3.259  1.00  0.00    -0.0473  A
ATOM     43  C5  NAC L   1      11.306  -4.201   4.272  1.00  0.00    +0.0619  A
ATOM     44 C35  NAC L   1      11.120  -4.613   5.606  1.00  0.00    -0.0362  A
ATOM     45 C36  NAC L   1      11.953  -4.091   6.744  1.00  0.00    -0.0389  C
ATOM     46 C37  NAC L   1      10.124  -5.567   5.883  1.00  0.00    -0.0551  A
ATOM     47 H38  NAC L   1       7.853  -6.959   6.195  1.00  0.00    +0.0278  H
ATOM     48 H39  NAC L   1       7.413  -7.042   4.490  1.00  0.00    +0.0278  H
ATOM     49 H40  NAC L   1       8.692  -8.107   5.122  1.00  0.00    +0.0278  H
ATOM     50 H41  NAC L   1       8.856  -6.021   2.752  1.00  0.00    +0.0620  H
ATOM     51 H42  NAC L   1      10.607  -4.370   2.232  1.00  0.00    +0.0626  H
ATOM     52 H63  NAC L   1      11.452  -4.251   7.706  1.00  0.00    +0.0278  H
ATOM     53 H64  NAC L   1      12.110  -3.011   6.652  1.00  0.00    +0.0278  H
ATOM     54 H65  NAC L   1      12.918  -4.603   6.775  1.00  0.00    +0.0278  H
ATOM     55 H66  NAC L   1       9.984  -5.917   6.905  1.00  0.00    +0.0623  H
ENDBRANCH 37 43
ENDBRANCH 36 37
ENDBRANCH 33 36
ENDBRANCH 23 33
ENDBRANCH 21 26
BRANCH 21 56
ATOM     56 C15  NAC L   1      13.795  -9.160  -1.197  1.00  0.00    +0.0334  C
ATOM     57 H48  NAC L   1      14.460  -9.040  -0.333  1.00  0.00    +0.0497  H
ATOM     58 H49  NAC L   1      14.331  -9.776  -1.929  1.00  0.00    +0.0497  H
BRANCH 56 59
ATOM     59 N16  NAC L   1      12.678  -9.970  -0.717  1.00  0.00    -0.3551  N
ATOM     60 C17  NAC L   1      12.199 -11.099  -1.336  1.00  0.00    +0.2179  C
ATOM     61 C18  NAC L   1      11.110 -11.796  -0.568  1.00  0.00    +0.0143  C
ATOM     62 O19  NAC L   1      12.568 -11.480  -2.443  1.00  0.00    -0.2736 OA
ATOM     63 H50  NAC L   1      12.289  -9.718   0.184  1.00  0.00    +0.1623 HD
ATOM     64 H51  NAC L   1      10.149 -11.332  -0.808  1.00  0.00    +0.0325  H
ATOM     65 H52  NAC L   1      11.287 -11.728   0.508  1.00  0.00    +0.0325  H
ATOM     66 H53  NAC L   1      11.086 -12.852  -0.851  1.00  0.00    +0.0325  H
ENDBRANCH 56 59
ENDBRANCH 21 56
ENDBRANCH 17 21
ENDBRANCH 1 19
TORSDOF 9
ENDMDL
MODEL 9
REMARK VINA RESULT:    -6.905      2.884     10.111
REMARK INTER + INTRA:         -12.067
REMARK INTER:                 -10.323
REMARK INTRA:                  -1.744
REMARK UNBOUND:                -1.529
ROOT
ATOM      1 C23  NAC L   1      10.863  -8.717  -5.680  1.00  0.00    +0.0423  A
ATOM      2 C24  NAC L   1      10.715  -7.895  -6.803  1.00  0.00    -0.0377  A
ATOM      3 C25  NAC L   1       9.557  -7.954  -7.582  1.00  0.00    -0.0506  A
ATOM      4 C26  NAC L   1       8.520  -8.839  -7.244  1.00  0.00    +0.0004  A
ATOM      5 C27  NAC L   1       7.339  -8.945  -7.981  1.00  0.00    +0.0353  A
ATOM      6 N28  NAC L   1       6.321  -9.786  -7.684  1.00  0.00    -0.2626 NA
ATOM      7 C29  NAC L   1       6.483 -10.563  -6.594  1.00  0.00    +0.0281  A
ATOM      8 C30  NAC L   1       7.611 -10.541  -5.790  1.00  0.00    -0.0358  A
ATOM      9 C31  NAC L   1       8.656  -9.666  -6.113  1.00  0.00    -0.0131  A
ATOM     10 C32  NAC L   1       9.831  -9.594  -5.341  1.00  0.00    -0.0305  A
ATOM     11 H55  NAC L   1      11.501  -7.201  -7.090  1.00  0.00    +0.0638  H
ATOM     12 H56  NAC L   1       9.467  -7.305  -8.450  1.00  0.00    +0.0625  H
ATOM     13 H57  NAC L   1       7.171  -8.334  -8.864  1.00  0.00    +0.0836  H
ATOM     14 H58  NAC L   1       5.654 -11.229  -6.373  1.00  0.00    +0.0830  H
ATOM     15 H59  NAC L   1       7.672 -11.196  -4.927  1.00  0.00    +0.0639  H
ATOM     16 H60  NAC L   1       9.912 -10.233  -4.465  1.00  0.00    +0.0644  H
ENDROOT
BRANCH 1 19
ATOM     17 C20  NAC L   1      12.228  -8.202  -3.631  1.00  0.00    +0.2344  C
ATOM     18 O21  NAC L   1      11.317  -7.979  -2.835  1.00  0.00    -0.2722 OA
ATOM     19 N22  NAC L   1      12.063  -8.592  -4.954  1.00  0.00    -0.3256  N
ATOM     20 H54  NAC L   1      12.910  -8.891  -5.437  1.00  0.00    +0.1686 HD
BRANCH 17 21
ATOM     21 C14  NAC L   1      13.706  -8.129  -3.223  1.00  0.00    +0.0803  C
ATOM     22 H47  NAC L   1      14.294  -7.924  -4.124  1.00  0.00    +0.0463  H
BRANCH 21 26
ATOM     23 C10  NAC L   1      14.607  -4.906  -0.439  1.00  0.00    -0.0103  A
ATOM     24 C11  NAC L   1      13.321  -5.033  -0.974  1.00  0.00    -0.0551  A
ATOM     25 C12  NAC L   1      13.024  -6.058  -1.875  1.00  0.00    -0.0574  A
ATOM     26 C13  NAC L   1      14.005  -6.986  -2.258  1.00  0.00    -0.0336  A
ATOM     27 C33  NAC L   1      15.291  -6.860  -1.707  1.00  0.00    -0.0574  A
ATOM     28 C34  NAC L   1      15.587  -5.834  -0.806  1.00  0.00    -0.0551  A
ATOM     29 H45  NAC L   1      12.537  -4.332  -0.691  1.00  0.00    +0.0621  H
ATOM     30 H46  NAC L   1      12.018  -6.114  -2.285  1.00  0.00    +0.0621  H
ATOM     31 H61  NAC L   1      16.077  -7.565  -1.971  1.00  0.00    +0.0621  H
ATOM     32 H62  NAC L   1      16.589  -5.767  -0.387  1.00  0.00    +0.0621  H
BRANCH 23 33
ATOM     33  C9  NAC L   1      14.921  -3.809   0.545  1.00  0.00    +0.1179  C
ATOM     34 H43  NAC L   1      15.357  -2.931   0.052  1.00  0.00    +0.0749  H
ATOM     35 H44  NAC L   1      15.679  -4.161   1.256  1.00  0.00    +0.0749  H
BRANCH 33 36
ATOM     36  O8  NAC L   1      13.744  -3.488   1.295  1.00  0.00    -0.4564 OA
BRANCH 36 37
ATOM     37  C6  NAC L   1      13.785  -3.808   2.609  1.00  0.00    +0.3398  C
ATOM     38  O7  NAC L   1      14.745  -3.713   3.357  1.00  0.00    -0.2449 OA
BRANCH 37 43
ATOM     39  C1  NAC L   1       8.443  -5.103   4.431  1.00  0.00    -0.0397  C
ATOM     40  C2  NAC L   1       9.844  -4.800   3.985  1.00  0.00    -0.0502  A
ATOM     41  C3  NAC L   1      10.368  -3.512   4.123  1.00  0.00    -0.0580  A
ATOM     42  C4  NAC L   1      11.656  -3.226   3.673  1.00  0.00    -0.0473  A
ATOM     43  C5  NAC L   1      12.436  -4.221   3.065  1.00  0.00    +0.0619  A
ATOM     44 C35  NAC L   1      11.934  -5.530   2.935  1.00  0.00    -0.0362  A
ATOM     45 C36  NAC L   1      12.727  -6.652   2.325  1.00  0.00    -0.0389  C
ATOM     46 C37  NAC L   1      10.625  -5.796   3.381  1.00  0.00    -0.0551  A
ATOM     47 H38  NAC L   1       8.357  -6.140   4.768  1.00  0.00    +0.0278  H
ATOM     48 H39  NAC L   1       8.153  -4.463   5.271  1.00  0.00    +0.0278  H
ATOM     49 H40  NAC L   1       7.745  -4.939   3.604  1.00  0.00    +0.0278  H
ATOM     50 H41  NAC L   1       9.776  -2.722   4.580  1.00  0.00    +0.0620  H
ATOM     51 H42  NAC L   1      12.052  -2.219   3.789  1.00  0.00    +0.0626  H
ATOM     52 H63  NAC L   1      12.324  -7.628   2.619  1.00  0.00    +0.0278  H
ATOM     53 H64  NAC L   1      13.767  -6.629   2.669  1.00  0.00    +0.0278  H
ATOM     54 H65  NAC L   1      12.698  -6.588   1.233  1.00  0.00    +0.0278  H
ATOM     55 H66  NAC L   1      10.211  -6.796   3.265  1.00  0.00    +0.0623  H
ENDBRANCH 37 43
ENDBRANCH 36 37
ENDBRANCH 33 36
ENDBRANCH 23 33
ENDBRANCH 21 26
BRANCH 21 56
ATOM     56 C15  NAC L   1      14.162  -9.486  -2.653  1.00  0.00    +0.0334  C
ATOM     57 H48  NAC L   1      15.019  -9.353  -1.981  1.00  0.00    +0.0497  H
ATOM     58 H49  NAC L   1      14.498 -10.135  -3.471  1.00  0.00    +0.0497  H
BRANCH 56 59
ATOM     59 N16  NAC L   1      13.188 -10.259  -1.888  1.00  0.00    -0.3551  N
ATOM     60 C17  NAC L   1      12.987 -10.156  -0.533  1.00  0.00    +0.2179  C
ATOM     61 C18  NAC L   1      11.847 -10.994  -0.022  1.00  0.00    +0.0143  C
ATOM     62 O19  NAC L   1      13.703  -9.498   0.217  1.00  0.00    -0.2736 OA
ATOM     63 H50  NAC L   1      12.562 -10.853  -2.419  1.00  0.00    +0.1623 HD
ATOM     64 H51  NAC L   1      12.207 -12.009   0.171  1.00  0.00    +0.0325  H
ATOM     65 H52  NAC L   1      11.033 -11.031  -0.751  1.00  0.00    +0.0325  H
ATOM     66 H53  NAC L   1      11.465 -10.561   0.905  1.00  0.00    +0.0325  H
ENDBRANCH 56 59
ENDBRANCH 21 56
ENDBRANCH 17 21
ENDBRANCH 1 19
TORSDOF 9
ENDMDL
MODEL 10
REMARK VINA RESULT:    -6.904      2.818     10.839
REMARK INTER + INTRA:         -12.065
REMARK INTER:                 -10.967
REMARK INTRA:                  -1.098
REMARK UNBOUND:                -1.529
ROOT
ATOM      1 C23  NAC L   1       9.912  -8.989  -6.162  1.00  0.00    +0.0423  A
ATOM      2 C24  NAC L   1       8.652  -9.490  -5.817  1.00  0.00    -0.0377  A
ATOM      3 C25  NAC L   1       7.606  -9.488  -6.744  1.00  0.00    -0.0506  A
ATOM      4 C26  NAC L   1       7.808  -8.985  -8.039  1.00  0.00    +0.0004  A
ATOM      5 C27  NAC L   1       6.804  -8.955  -9.009  1.00  0.00    +0.0353  A
ATOM      6 N28  NAC L   1       6.964  -8.479 -10.265  1.00  0.00    -0.2626 NA
ATOM      7 C29  NAC L   1       8.188  -8.007 -10.577  1.00  0.00    +0.0281  A
ATOM      8 C30  NAC L   1       9.257  -7.988  -9.696  1.00  0.00    -0.0358  A
ATOM      9 C31  NAC L   1       9.073  -8.484  -8.398  1.00  0.00    -0.0131  A
ATOM     10 C32  NAC L   1      10.115  -8.492  -7.452  1.00  0.00    -0.0305  A
ATOM     11 H55  NAC L   1       8.466  -9.885  -4.821  1.00  0.00    +0.0638  H
ATOM     12 H56  NAC L   1       6.636  -9.883  -6.450  1.00  0.00    +0.0625  H
ATOM     13 H57  NAC L   1       5.806  -9.328  -8.796  1.00  0.00    +0.0836  H
ATOM     14 H58  NAC L   1       8.296  -7.631 -11.590  1.00  0.00    +0.0830  H
ATOM     15 H59  NAC L   1      10.215  -7.593 -10.016  1.00  0.00    +0.0639  H
ATOM     16 H60  NAC L   1      11.087  -8.111  -7.751  1.00  0.00    +0.0644  H
ENDROOT
BRANCH 1 19
ATOM     17 C20  NAC L   1      12.082  -8.291  -5.098  1.00  0.00    +0.2344  C
ATOM     18 O21  NAC L   1      12.407  -7.396  -5.876  1.00  0.00    -0.2722 OA
ATOM     19 N22  NAC L   1      10.907  -9.029  -5.167  1.00  0.00    -0.3256  N
ATOM     20 H54  NAC L   1      10.709  -9.623  -4.361  1.00  0.00    +0.1686 HD
BRANCH 17 21
ATOM     21 C14  NAC L   1      12.940  -8.670  -3.883  1.00  0.00    +0.0803  C
ATOM     22 H47  NAC L   1      13.993  -8.598  -4.178  1.00  0.00    +0.0463  H
BRANCH 21 26
ATOM     23 C10  NAC L   1      12.514  -5.951  -0.509  1.00  0.00    -0.0103  A
ATOM     24 C11  NAC L   1      11.412  -6.681  -0.967  1.00  0.00    -0.0551  A
ATOM     25 C12  NAC L   1      11.537  -7.550  -2.054  1.00  0.00    -0.0574  A
ATOM     26 C13  NAC L   1      12.768  -7.713  -2.707  1.00  0.00    -0.0336  A
ATOM     27 C33  NAC L   1      13.873  -6.986  -2.235  1.00  0.00    -0.0574  A
ATOM     28 C34  NAC L   1      13.748  -6.118  -1.148  1.00  0.00    -0.0551  A
ATOM     29 H45  NAC L   1      10.445  -6.580  -0.476  1.00  0.00    +0.0621  H
ATOM     30 H46  NAC L   1      10.653  -8.087  -2.393  1.00  0.00    +0.0621  H
ATOM     31 H61  NAC L   1      14.848  -7.092  -2.708  1.00  0.00    +0.0621  H
ATOM     32 H62  NAC L   1      14.623  -5.575  -0.796  1.00  0.00    +0.0621  H
BRANCH 23 33
ATOM     33  C9  NAC L   1      12.382  -5.027   0.674  1.00  0.00    +0.1179  C
ATOM     34 H43  NAC L   1      12.331  -3.975   0.366  1.00  0.00    +0.0749  H
ATOM     35 H44  NAC L   1      13.274  -5.112   1.305  1.00  0.00    +0.0749  H
BRANCH 33 36
ATOM     36  O8  NAC L   1      11.256  -5.422   1.465  1.00  0.00    -0.4564 OA
BRANCH 36 37
ATOM     37  C6  NAC L   1      11.513  -5.643   2.775  1.00  0.00    +0.3398  C
ATOM     38  O7  NAC L   1      12.190  -6.542   3.248  1.00  0.00    -0.2449 OA
BRANCH 37 43
ATOM     39  C1  NAC L   1       8.938  -1.604   6.028  1.00  0.00    -0.0397  C
ATOM     40  C2  NAC L   1       9.614  -2.619   5.153  1.00  0.00    -0.0502  A
ATOM     41  C3  NAC L   1       8.941  -3.782   4.769  1.00  0.00    -0.0580  A
ATOM     42  C4  NAC L   1       9.585  -4.740   3.988  1.00  0.00    -0.0473  A
ATOM     43  C5  NAC L   1      10.918  -4.557   3.591  1.00  0.00    +0.0619  A
ATOM     44 C35  NAC L   1      11.607  -3.383   3.951  1.00  0.00    -0.0362  A
ATOM     45 C36  NAC L   1      13.024  -3.107   3.530  1.00  0.00    -0.0389  C
ATOM     46 C37  NAC L   1      10.945  -2.434   4.753  1.00  0.00    -0.0551  A
ATOM     47 H38  NAC L   1       9.305  -0.596   5.811  1.00  0.00    +0.0278  H
ATOM     48 H39  NAC L   1       7.856  -1.599   5.859  1.00  0.00    +0.0278  H
ATOM     49 H40  NAC L   1       9.130  -1.832   7.081  1.00  0.00    +0.0278  H
ATOM     50 H41  NAC L   1       7.911  -3.951   5.077  1.00  0.00    +0.0620  H
ATOM     51 H42  NAC L   1       9.049  -5.640   3.694  1.00  0.00    +0.0626  H
ATOM     52 H63  NAC L   1      13.257  -2.038   3.604  1.00  0.00    +0.0278  H
ATOM     53 H64  NAC L   1      13.184  -3.388   2.484  1.00  0.00    +0.0278  H
ATOM     54 H65  NAC L   1      13.723  -3.651   4.171  1.00  0.00    +0.0278  H
ATOM     55 H66  NAC L   1      11.471  -1.532   5.062  1.00  0.00    +0.0623  H
ENDBRANCH 37 43
ENDBRANCH 36 37
ENDBRANCH 33 36
ENDBRANCH 23 33
ENDBRANCH 21 26
BRANCH 21 56
ATOM     56 C15  NAC L   1      12.657 -10.128  -3.473  1.00  0.00    +0.0334  C
ATOM     57 H48  NAC L   1      12.963 -10.819  -4.268  1.00  0.00    +0.0497  H
ATOM     58 H49  NAC L   1      11.578 -10.267  -3.330  1.00  0.00    +0.0497  H
BRANCH 56 59
ATOM     59 N16  NAC L   1      13.301 -10.625  -2.260  1.00  0.00    -0.3551  N
ATOM     60 C17  NAC L   1      12.641 -11.022  -1.123  1.00  0.00    +0.2179  C
ATOM     61 C18  NAC L   1      13.546 -11.589  -0.063  1.00  0.00    +0.0143  C
ATOM     62 O19  NAC L   1      11.436 -10.875  -0.944  1.00  0.00    -0.2736 OA
ATOM     63 H50  NAC L   1      14.304 -10.760  -2.302  1.00  0.00    +0.1623 HD
ATOM     64 H51  NAC L   1      13.955 -10.770   0.535  1.00  0.00    +0.0325  H
ATOM     65 H52  NAC L   1      14.366 -12.155  -0.512  1.00  0.00    +0.0325  H
ATOM     66 H53  NAC L   1      12.972 -12.261   0.582  1.00  0.00    +0.0325  H
ENDBRANCH 56 59
ENDBRANCH 21 56
ENDBRANCH 17 21
ENDBRANCH 1 19
TORSDOF 9
ENDMDL
MODEL 11
REMARK VINA RESULT:    -6.830      3.395     10.541
REMARK INTER + INTRA:         -11.952
REMARK INTER:                 -10.051
REMARK INTRA:                  -1.901
REMARK UNBOUND:                -1.529
ROOT
ATOM      1 C23  NAC L   1      11.778  -7.869  -6.123  1.00  0.00    +0.0423  A
ATOM      2 C24  NAC L   1      10.433  -7.746  -6.488  1.00  0.00    -0.0377  A
ATOM      3 C25  NAC L   1      10.068  -7.619  -7.831  1.00  0.00    -0.0506  A
ATOM      4 C26  NAC L   1      11.050  -7.619  -8.835  1.00  0.00    +0.0004  A
ATOM      5 C27  NAC L   1      10.749  -7.496 -10.194  1.00  0.00    +0.0353  A
ATOM      6 N28  NAC L   1      11.668  -7.493 -11.187  1.00  0.00    -0.2626 NA
ATOM      7 C29  NAC L   1      12.957  -7.620 -10.811  1.00  0.00    +0.0281  A
ATOM      8 C30  NAC L   1      13.370  -7.749  -9.495  1.00  0.00    -0.0358  A
ATOM      9 C31  NAC L   1      12.405  -7.749  -8.479  1.00  0.00    -0.0131  A
ATOM     10 C32  NAC L   1      12.755  -7.874  -7.122  1.00  0.00    -0.0305  A
ATOM     11 H55  NAC L   1       9.651  -7.742  -5.733  1.00  0.00    +0.0638  H
ATOM     12 H56  NAC L   1       9.015  -7.523  -8.089  1.00  0.00    +0.0625  H
ATOM     13 H57  NAC L   1       9.722  -7.394 -10.535  1.00  0.00    +0.0836  H
ATOM     14 H58  NAC L   1      13.678  -7.617 -11.623  1.00  0.00    +0.0830  H
ATOM     15 H59  NAC L   1      14.426  -7.848  -9.267  1.00  0.00    +0.0639  H
ATOM     16 H60  NAC L   1      13.805  -7.984  -6.868  1.00  0.00    +0.0644  H
ENDROOT
BRANCH 1 19
ATOM     17 C20  NAC L   1      13.296  -8.007  -4.122  1.00  0.00    +0.2344  C
ATOM     18 O21  NAC L   1      14.377  -7.827  -4.678  1.00  0.00    -0.2722 OA
ATOM     19 N22  NAC L   1      12.056  -7.991  -4.748  1.00  0.00    -0.3256  N
ATOM     20 H54  NAC L   1      11.246  -7.999  -4.128  1.00  0.00    +0.1686 HD
BRANCH 17 21
ATOM     21 C14  NAC L   1      13.181  -8.222  -2.606  1.00  0.00    +0.0803  C
ATOM     22 H47  NAC L   1      13.809  -9.078  -2.338  1.00  0.00    +0.0463  H
BRANCH 21 26
ATOM     23 C10  NAC L   1      14.648  -4.818  -0.320  1.00  0.00    -0.0103  A
ATOM     24 C11  NAC L   1      15.484  -5.913  -0.568  1.00  0.00    -0.0551  A
ATOM     25 C12  NAC L   1      15.020  -7.013  -1.292  1.00  0.00    -0.0574  A
ATOM     26 C13  NAC L   1      13.710  -7.043  -1.793  1.00  0.00    -0.0336  A
ATOM     27 C33  NAC L   1      12.879  -5.937  -1.552  1.00  0.00    -0.0574  A
ATOM     28 C34  NAC L   1      13.344  -4.837  -0.827  1.00  0.00    -0.0551  A
ATOM     29 H45  NAC L   1      16.509  -5.914  -0.197  1.00  0.00    +0.0621  H
ATOM     30 H46  NAC L   1      15.694  -7.853  -1.448  1.00  0.00    +0.0621  H
ATOM     31 H61  NAC L   1      11.859  -5.918  -1.931  1.00  0.00    +0.0621  H
ATOM     32 H62  NAC L   1      12.683  -3.989  -0.664  1.00  0.00    +0.0621  H
BRANCH 23 33
ATOM     33  C9  NAC L   1      15.156  -3.626   0.448  1.00  0.00    +0.1179  C
ATOM     34 H43  NAC L   1      15.481  -2.819  -0.222  1.00  0.00    +0.0749  H
ATOM     35 H44  NAC L   1      16.043  -3.913   1.024  1.00  0.00    +0.0749  H
BRANCH 33 36
ATOM     36  O8  NAC L   1      14.157  -3.197   1.380  1.00  0.00    -0.4564 OA
BRANCH 36 37
ATOM     37  C6  NAC L   1      14.176  -3.819   2.581  1.00  0.00    +0.3398  C
ATOM     38  O7  NAC L   1      15.131  -3.930   3.334  1.00  0.00    -0.2449 OA
BRANCH 37 43
ATOM     39  C1  NAC L   1       8.754  -5.342   3.926  1.00  0.00    -0.0397  C
ATOM     40  C2  NAC L   1      10.175  -4.978   3.607  1.00  0.00    -0.0502  A
ATOM     41  C3  NAC L   1      10.609  -3.656   3.725  1.00  0.00    -0.0580  A
ATOM     42  C4  NAC L   1      11.920  -3.315   3.392  1.00  0.00    -0.0473  A
ATOM     43  C5  NAC L   1      12.812  -4.290   2.921  1.00  0.00    +0.0619  A
ATOM     44 C35  NAC L   1      12.399  -5.632   2.815  1.00  0.00    -0.0362  A
ATOM     45 C36  NAC L   1      13.312  -6.732   2.351  1.00  0.00    -0.0389  C
ATOM     46 C37  NAC L   1      11.068  -5.954   3.141  1.00  0.00    -0.0551  A
ATOM     47 H38  NAC L   1       8.691  -6.365   4.311  1.00  0.00    +0.0278  H
ATOM     48 H39  NAC L   1       8.343  -4.680   4.695  1.00  0.00    +0.0278  H
ATOM     49 H40  NAC L   1       8.137  -5.263   3.025  1.00  0.00    +0.0278  H
ATOM     50 H41  NAC L   1       9.931  -2.880   4.075  1.00  0.00    +0.0620  H
ATOM     51 H42  NAC L   1      12.246  -2.281   3.490  1.00  0.00    +0.0626  H
ATOM     52 H63  NAC L   1      12.935  -7.715   2.658  1.00  0.00    +0.0278  H
ATOM     53 H64  NAC L   1      14.308  -6.629   2.797  1.00  0.00    +0.0278  H
ATOM     54 H65  NAC L   1      13.393  -6.725   1.261  1.00  0.00    +0.0278  H
ATOM     55 H66  NAC L   1      10.724  -6.982   3.040  1.00  0.00    +0.0623  H
ENDBRANCH 37 43
ENDBRANCH 36 37
ENDBRANCH 33 36
ENDBRANCH 23 33
ENDBRANCH 21 26
BRANCH 21 56
ATOM     56 C15  NAC L   1      11.726  -8.560  -2.231  1.00  0.00    +0.0334  C
ATOM     57 H48  NAC L   1      11.166  -8.889  -3.115  1.00  0.00    +0.0497  H
ATOM     58 H49  NAC L   1      11.224  -7.661  -1.853  1.00  0.00    +0.0497  H
BRANCH 56 59
ATOM     59 N16  NAC L   1      11.512  -9.601  -1.228  1.00  0.00    -0.3551  N
ATOM     60 C17  NAC L   1      11.366 -10.939  -1.499  1.00  0.00    +0.2179  C
ATOM     61 C18  NAC L   1      11.264 -11.801  -0.270  1.00  0.00    +0.0143  C
ATOM     62 O19  NAC L   1      11.260 -11.401  -2.632  1.00  0.00    -0.2736 OA
ATOM     63 H50  NAC L   1      11.559  -9.313  -0.258  1.00  0.00    +0.1623 HD
ATOM     64 H51  NAC L   1      10.224 -11.819   0.069  1.00  0.00    +0.0325  H
ATOM     65 H52  NAC L   1      11.900 -11.414   0.531  1.00  0.00    +0.0325  H
ATOM     66 H53  NAC L   1      11.587 -12.817  -0.511  1.00  0.00    +0.0325  H
ENDBRANCH 56 59
ENDBRANCH 21 56
ENDBRANCH 17 21
ENDBRANCH 1 19
TORSDOF 9
ENDMDL
MODEL 12
REMARK VINA RESULT:    -6.821      4.351     10.902
REMARK INTER + INTRA:         -11.938
REMARK INTER:                  -9.305
REMARK INTRA:                  -2.633
REMARK UNBOUND:                -1.529
ROOT
ATOM      1 C23  NAC L   1      12.800  -6.958  -1.120  1.00  0.00    +0.0423  A
ATOM      2 C24  NAC L   1      11.691  -7.710  -0.718  1.00  0.00    -0.0377  A
ATOM      3 C25  NAC L   1      11.033  -8.549  -1.621  1.00  0.00    -0.0506  A
ATOM      4 C26  NAC L   1      11.480  -8.650  -2.948  1.00  0.00    +0.0004  A
ATOM      5 C27  NAC L   1      10.865  -9.470  -3.898  1.00  0.00    +0.0353  A
ATOM      6 N28  NAC L   1      11.269  -9.592  -5.184  1.00  0.00    -0.2626 NA
ATOM      7 C29  NAC L   1      12.344  -8.863  -5.547  1.00  0.00    +0.0281  A
ATOM      8 C30  NAC L   1      13.031  -8.018  -4.690  1.00  0.00    -0.0358  A
ATOM      9 C31  NAC L   1      12.597  -7.902  -3.362  1.00  0.00    -0.0131  A
ATOM     10 C32  NAC L   1      13.248  -7.062  -2.440  1.00  0.00    -0.0305  A
ATOM     11 H55  NAC L   1      11.322  -7.652   0.303  1.00  0.00    +0.0638  H
ATOM     12 H56  NAC L   1      10.173  -9.123  -1.283  1.00  0.00    +0.0625  H
ATOM     13 H57  NAC L   1       9.999 -10.074  -3.643  1.00  0.00    +0.0836  H
ATOM     14 H58  NAC L   1      12.652  -8.976  -6.582  1.00  0.00    +0.0830  H
ATOM     15 H59  NAC L   1      13.888  -7.461  -5.052  1.00  0.00    +0.0639  H
ATOM     16 H60  NAC L   1      14.115  -6.500  -2.775  1.00  0.00    +0.0644  H
ENDROOT
BRANCH 1 19
ATOM     17 C20  NAC L   1      13.955  -6.519   1.070  1.00  0.00    +0.2344  C
ATOM     18 O21  NAC L   1      14.088  -7.677   1.462  1.00  0.00    -0.2722 OA
ATOM     19 N22  NAC L   1      13.401  -6.139  -0.146  1.00  0.00    -0.3256  N
ATOM     20 H54  NAC L   1      13.505  -5.155  -0.392  1.00  0.00    +0.1686 HD
BRANCH 17 21
ATOM     21 C14  NAC L   1      14.457  -5.318   1.884  1.00  0.00    +0.0803  C
ATOM     22 H47  NAC L   1      14.945  -4.622   1.192  1.00  0.00    +0.0463  H
BRANCH 21 26
ATOM     23 C10  NAC L   1      11.287  -3.041   3.814  1.00  0.00    -0.0103  A
ATOM     24 C11  NAC L   1      11.012  -4.294   3.255  1.00  0.00    -0.0551  A
ATOM     25 C12  NAC L   1      12.021  -5.028   2.626  1.00  0.00    -0.0574  A
ATOM     26 C13  NAC L   1      13.330  -4.530   2.546  1.00  0.00    -0.0336  A
ATOM     27 C33  NAC L   1      13.601  -3.278   3.119  1.00  0.00    -0.0574  A
ATOM     28 C34  NAC L   1      12.593  -2.543   3.748  1.00  0.00    -0.0551  A
ATOM     29 H45  NAC L   1      10.007  -4.710   3.307  1.00  0.00    +0.0621  H
ATOM     30 H46  NAC L   1      11.765  -5.991   2.186  1.00  0.00    +0.0621  H
ATOM     31 H61  NAC L   1      14.606  -2.860   3.087  1.00  0.00    +0.0621  H
ATOM     32 H62  NAC L   1      12.833  -1.581   4.194  1.00  0.00    +0.0621  H
BRANCH 23 33
ATOM     33  C9  NAC L   1      10.202  -2.258   4.506  1.00  0.00    +0.1179  C
ATOM     34 H43  NAC L   1       9.877  -1.396   3.909  1.00  0.00    +0.0749  H
ATOM     35 H44  NAC L   1      10.591  -1.845   5.444  1.00  0.00    +0.0749  H
BRANCH 33 36
ATOM     36  O8  NAC L   1       9.118  -3.133   4.838  1.00  0.00    -0.4564 OA
BRANCH 36 37
ATOM     37  C6  NAC L   1       8.945  -3.371   6.159  1.00  0.00    +0.3398  C
ATOM     38  O7  NAC L   1       8.704  -2.547   7.026  1.00  0.00    -0.2449 OA
BRANCH 37 43
ATOM     39  C1  NAC L   1       8.851  -9.095   7.029  1.00  0.00    -0.0397  C
ATOM     40  C2  NAC L   1       8.891  -7.605   6.845  1.00  0.00    -0.0502  A
ATOM     41  C3  NAC L   1       7.737  -6.905   6.487  1.00  0.00    -0.0580  A
ATOM     42  C4  NAC L   1       7.788  -5.527   6.280  1.00  0.00    -0.0473  A
ATOM     43  C5  NAC L   1       8.998  -4.831   6.415  1.00  0.00    +0.0619  A
ATOM     44 C35  NAC L   1      10.168  -5.515   6.796  1.00  0.00    -0.0362  A
ATOM     45 C36  NAC L   1      11.490  -4.826   6.992  1.00  0.00    -0.0389  C
ATOM     46 C37  NAC L   1      10.101  -6.908   6.984  1.00  0.00    -0.0551  A
ATOM     47 H38  NAC L   1       9.580  -9.415   7.780  1.00  0.00    +0.0278  H
ATOM     48 H39  NAC L   1       7.864  -9.420   7.374  1.00  0.00    +0.0278  H
ATOM     49 H40  NAC L   1       9.076  -9.594   6.081  1.00  0.00    +0.0278  H
ATOM     50 H41  NAC L   1       6.791  -7.427   6.363  1.00  0.00    +0.0620  H
ATOM     51 H42  NAC L   1       6.881  -4.994   6.003  1.00  0.00    +0.0626  H
ATOM     52 H63  NAC L   1      12.167  -5.435   7.601  1.00  0.00    +0.0278  H
ATOM     53 H64  NAC L   1      11.362  -3.877   7.524  1.00  0.00    +0.0278  H
ATOM     54 H65  NAC L   1      11.971  -4.646   6.027  1.00  0.00    +0.0278  H
ATOM     55 H66  NAC L   1      11.001  -7.458   7.254  1.00  0.00    +0.0623  H
ENDBRANCH 37 43
ENDBRANCH 36 37
ENDBRANCH 33 36
ENDBRANCH 23 33
ENDBRANCH 21 26
BRANCH 21 56
ATOM     56 C15  NAC L   1      15.505  -5.781   2.915  1.00  0.00    +0.0334  C
ATOM     57 H48  NAC L   1      15.992  -4.918   3.383  1.00  0.00    +0.0497  H
ATOM     58 H49  NAC L   1      16.291  -6.353   2.408  1.00  0.00    +0.0497  H
BRANCH 56 59
ATOM     59 N16  NAC L   1      15.041  -6.612   4.023  1.00  0.00    -0.3551  N
ATOM     60 C17  NAC L   1      14.831  -6.170   5.306  1.00  0.00    +0.2179  C
ATOM     61 C18  NAC L   1      14.252  -7.214   6.221  1.00  0.00    +0.0143  C
ATOM     62 O19  NAC L   1      15.143  -5.051   5.704  1.00  0.00    -0.2736 OA
ATOM     63 H50  NAC L   1      14.778  -7.564   3.797  1.00  0.00    +0.1623 HD
ATOM     64 H51  NAC L   1      15.063  -7.823   6.629  1.00  0.00    +0.0325  H
ATOM     65 H52  NAC L   1      13.550  -7.858   5.684  1.00  0.00    +0.0325  H
ATOM     66 H53  NAC L   1      13.717  -6.724   7.039  1.00  0.00    +0.0325  H
ENDBRANCH 56 59
ENDBRANCH 21 56
ENDBRANCH 17 21
ENDBRANCH 1 19
TORSDOF 9
ENDMDL
MODEL 13
REMARK VINA RESULT:    -6.817      2.051      2.745
REMARK INTER + INTRA:         -11.932
REMARK INTER:                  -9.993
REMARK INTRA:                  -1.940
REMARK UNBOUND:                -1.529
ROOT
ATOM      1 C23  NAC L   1      12.384  -6.174  -0.793  1.00  0.00    +0.0423  A
ATOM      2 C24  NAC L   1      13.513  -5.523  -1.302  1.00  0.00    -0.0377  A
ATOM      3 C25  NAC L   1      14.215  -4.599  -0.524  1.00  0.00    -0.0506  A
ATOM      4 C26  NAC L   1      13.796  -4.312   0.785  1.00  0.00    +0.0004  A
ATOM      5 C27  NAC L   1      14.454  -3.399   1.613  1.00  0.00    +0.0353  A
ATOM      6 N28  NAC L   1      14.079  -3.100   2.878  1.00  0.00    -0.2626 NA
ATOM      7 C29  NAC L   1      12.992  -3.745   3.349  1.00  0.00    +0.0281  A
ATOM      8 C30  NAC L   1      12.263  -4.669   2.619  1.00  0.00    -0.0358  A
ATOM      9 C31  NAC L   1      12.665  -4.965   1.309  1.00  0.00    -0.0131  A
ATOM     10 C32  NAC L   1      11.970  -5.893   0.511  1.00  0.00    -0.0305  A
ATOM     11 H55  NAC L   1      13.861  -5.723  -2.313  1.00  0.00    +0.0638  H
ATOM     12 H56  NAC L   1      15.089  -4.105  -0.944  1.00  0.00    +0.0625  H
ATOM     13 H57  NAC L   1      15.334  -2.862   1.269  1.00  0.00    +0.0836  H
ATOM     14 H58  NAC L   1      12.708  -3.491   4.367  1.00  0.00    +0.0830  H
ATOM     15 H59  NAC L   1      11.398  -5.150   3.064  1.00  0.00    +0.0639  H
ATOM     16 H60  NAC L   1      11.105  -6.395   0.937  1.00  0.00    +0.0644  H
ENDROOT
BRANCH 1 19
ATOM     17 C20  NAC L   1      12.296  -8.156  -2.339  1.00  0.00    +0.2344  C
ATOM     18 O21  NAC L   1      13.462  -8.533  -2.247  1.00  0.00    -0.2722 OA
ATOM     19 N22  NAC L   1      11.738  -7.089  -1.646  1.00  0.00    -0.3256  N
ATOM     20 H54  NAC L   1      10.724  -7.000  -1.709  1.00  0.00    +0.1686 HD
BRANCH 17 21
ATOM     21 C14  NAC L   1      11.268  -8.882  -3.217  1.00  0.00    +0.0803  C
ATOM     22 H47  NAC L   1      10.305  -8.372  -3.103  1.00  0.00    +0.0463  H
BRANCH 21 26
ATOM     23 C10  NAC L   1      12.232  -8.772  -7.462  1.00  0.00    -0.0103  A
ATOM     24 C11  NAC L   1      12.456  -7.647  -6.661  1.00  0.00    -0.0551  A
ATOM     25 C12  NAC L   1      12.142  -7.670  -5.300  1.00  0.00    -0.0574  A
ATOM     26 C13  NAC L   1      11.602  -8.820  -4.705  1.00  0.00    -0.0336  A
ATOM     27 C33  NAC L   1      11.390  -9.950  -5.513  1.00  0.00    -0.0574  A
ATOM     28 C34  NAC L   1      11.704  -9.927  -6.874  1.00  0.00    -0.0551  A
ATOM     29 H45  NAC L   1      12.881  -6.742  -7.093  1.00  0.00    +0.0621  H
ATOM     30 H46  NAC L   1      12.313  -6.770  -4.713  1.00  0.00    +0.0621  H
ATOM     31 H61  NAC L   1      10.981 -10.865  -5.088  1.00  0.00    +0.0621  H
ATOM     32 H62  NAC L   1      11.540 -10.819  -7.474  1.00  0.00    +0.0621  H
BRANCH 23 33
ATOM     33  C9  NAC L   1      12.586  -8.751  -8.926  1.00  0.00    +0.1179  C
ATOM     34 H43  NAC L   1      13.403  -9.448  -9.158  1.00  0.00    +0.0749  H
ATOM     35 H44  NAC L   1      12.956  -7.755  -9.198  1.00  0.00    +0.0749  H
BRANCH 33 36
ATOM     36  O8  NAC L   1      11.413  -9.003  -9.707  1.00  0.00    -0.4564 OA
BRANCH 36 37
ATOM     37  C6  NAC L   1      10.622  -7.929  -9.932  1.00  0.00    +0.3398  C
ATOM     38  O7  NAC L   1      10.982  -6.775 -10.101  1.00  0.00    -0.2449 OA
BRANCH 37 43
ATOM     39  C1  NAC L   1       5.164  -9.717 -10.672  1.00  0.00    -0.0397  C
ATOM     40  C2  NAC L   1       6.563  -9.216 -10.460  1.00  0.00    -0.0502  A
ATOM     41  C3  NAC L   1       7.436  -9.077 -11.542  1.00  0.00    -0.0580  A
ATOM     42  C4  NAC L   1       8.746  -8.647 -11.336  1.00  0.00    -0.0473  A
ATOM     43  C5  NAC L   1       9.208  -8.364 -10.042  1.00  0.00    +0.0619  A
ATOM     44 C35  NAC L   1       8.337  -8.478  -8.941  1.00  0.00    -0.0362  A
ATOM     45 C36  NAC L   1       8.756  -8.157  -7.533  1.00  0.00    -0.0389  C
ATOM     46 C37  NAC L   1       7.023  -8.928  -9.167  1.00  0.00    -0.0551  A
ATOM     47 H38  NAC L   1       4.479  -9.285  -9.935  1.00  0.00    +0.0278  H
ATOM     48 H39  NAC L   1       4.793  -9.436 -11.663  1.00  0.00    +0.0278  H
ATOM     49 H40  NAC L   1       5.140 -10.807 -10.582  1.00  0.00    +0.0278  H
ATOM     50 H41  NAC L   1       7.103  -9.304 -12.552  1.00  0.00    +0.0620  H
ATOM     51 H42  NAC L   1       9.415  -8.542 -12.187  1.00  0.00    +0.0626  H
ATOM     52 H63  NAC L   1       7.885  -7.974  -6.893  1.00  0.00    +0.0278  H
ATOM     53 H64  NAC L   1       9.361  -7.244  -7.502  1.00  0.00    +0.0278  H
ATOM     54 H65  NAC L   1       9.322  -8.990  -7.106  1.00  0.00    +0.0278  H
ATOM     55 H66  NAC L   1       6.344  -9.047  -8.324  1.00  0.00    +0.0623  H
ENDBRANCH 37 43
ENDBRANCH 36 37
ENDBRANCH 33 36
ENDBRANCH 23 33
ENDBRANCH 21 26
BRANCH 21 56
ATOM     56 C15  NAC L   1      11.098 -10.336  -2.736  1.00  0.00    +0.0334  C
ATOM     57 H48  NAC L   1      11.850 -10.986  -3.198  1.00  0.00    +0.0497  H
ATOM     58 H49  NAC L   1      10.116 -10.714  -3.048  1.00  0.00    +0.0497  H
BRANCH 56 59
ATOM     59 N16  NAC L   1      11.198 -10.588  -1.301  1.00  0.00    -0.3551  N
ATOM     60 C17  NAC L   1      12.227 -11.260  -0.688  1.00  0.00    +0.2179  C
ATOM     61 C18  NAC L   1      12.128 -11.284   0.813  1.00  0.00    +0.0143  C
ATOM     62 O19  NAC L   1      13.116 -11.850  -1.295  1.00  0.00    -0.2736 OA
ATOM     63 H50  NAC L   1      10.491 -10.159  -0.714  1.00  0.00    +0.1623 HD
ATOM     64 H51  NAC L   1      11.486 -12.115   1.117  1.00  0.00    +0.0325  H
ATOM     65 H52  NAC L   1      11.711 -10.347   1.191  1.00  0.00    +0.0325  H
ATOM     66 H53  NAC L   1      13.125 -11.418   1.241  1.00  0.00    +0.0325  H
ENDBRANCH 56 59
ENDBRANCH 21 56
ENDBRANCH 17 21
ENDBRANCH 1 19
TORSDOF 9
ENDMDL
MODEL 14
REMARK VINA RESULT:    -6.789      6.948     11.541
REMARK INTER + INTRA:         -11.890
REMARK INTER:                  -8.590
REMARK INTRA:                  -3.300
REMARK UNBOUND:                -1.529
ROOT
ATOM      1 C23  NAC L   1       9.072  -8.889 -10.858  1.00  0.00    +0.0423  A
ATOM      2 C24  NAC L   1       8.095  -8.211 -10.121  1.00  0.00    -0.0377  A
ATOM      3 C25  NAC L   1       6.756  -8.605 -10.180  1.00  0.00    -0.0506  A
ATOM      4 C26  NAC L   1       6.372  -9.692 -10.981  1.00  0.00    +0.0004  A
ATOM      5 C27  NAC L   1       5.051 -10.134 -11.082  1.00  0.00    +0.0353  A
ATOM      6 N28  NAC L   1       4.646 -11.178 -11.842  1.00  0.00    -0.2626 NA
ATOM      7 C29  NAC L   1       5.606 -11.821 -12.538  1.00  0.00    +0.0281  A
ATOM      8 C30  NAC L   1       6.946 -11.470 -12.513  1.00  0.00    -0.0358  A
ATOM      9 C31  NAC L   1       7.347 -10.385 -11.722  1.00  0.00    -0.0131  A
ATOM     10 C32  NAC L   1       8.691  -9.974 -11.651  1.00  0.00    -0.0305  A
ATOM     11 H55  NAC L   1       8.362  -7.364  -9.493  1.00  0.00    +0.0638  H
ATOM     12 H56  NAC L   1       6.016  -8.060  -9.598  1.00  0.00    +0.0625  H
ATOM     13 H57  NAC L   1       4.251  -9.643 -10.535  1.00  0.00    +0.0836  H
ATOM     14 H58  NAC L   1       5.261 -12.656 -13.141  1.00  0.00    +0.0830  H
ATOM     15 H59  NAC L   1       7.664 -12.034 -13.100  1.00  0.00    +0.0639  H
ATOM     16 H60  NAC L   1       9.431 -10.529 -12.222  1.00  0.00    +0.0644  H
ENDROOT
BRANCH 1 19
ATOM     17 C20  NAC L   1      11.151  -7.736 -11.681  1.00  0.00    +0.2344  C
ATOM     18 O21  NAC L   1      10.740  -7.337 -12.769  1.00  0.00    -0.2722 OA
ATOM     19 N22  NAC L   1      10.396  -8.425 -10.740  1.00  0.00    -0.3256  N
ATOM     20 H54  NAC L   1      10.832  -8.548  -9.826  1.00  0.00    +0.1686 HD
BRANCH 17 21
ATOM     21 C14  NAC L   1      12.580  -7.460 -11.195  1.00  0.00    +0.0803  C
ATOM     22 H47  NAC L   1      12.794  -6.399 -11.361  1.00  0.00    +0.0463  H
BRANCH 21 26
ATOM     23 C10  NAC L   1      13.109  -8.191  -6.935  1.00  0.00    -0.0103  A
ATOM     24 C11  NAC L   1      12.165  -7.256  -7.376  1.00  0.00    -0.0551  A
ATOM     25 C12  NAC L   1      11.995  -7.008  -8.741  1.00  0.00    -0.0574  A
ATOM     26 C13  NAC L   1      12.759  -7.694  -9.697  1.00  0.00    -0.0336  A
ATOM     27 C33  NAC L   1      13.695  -8.639  -9.248  1.00  0.00    -0.0574  A
ATOM     28 C34  NAC L   1      13.865  -8.887  -7.884  1.00  0.00    -0.0551  A
ATOM     29 H45  NAC L   1      11.553  -6.714  -6.657  1.00  0.00    +0.0621  H
ATOM     30 H46  NAC L   1      11.265  -6.261  -9.045  1.00  0.00    +0.0621  H
ATOM     31 H61  NAC L   1      14.301  -9.199  -9.959  1.00  0.00    +0.0621  H
ATOM     32 H62  NAC L   1      14.590  -9.633  -7.564  1.00  0.00    +0.0621  H
BRANCH 23 33
ATOM     33  C9  NAC L   1      13.280  -8.469  -5.464  1.00  0.00    +0.1179  C
ATOM     34 H43  NAC L   1      13.690  -7.601  -4.931  1.00  0.00    +0.0749  H
ATOM     35 H44  NAC L   1      14.008  -9.277  -5.327  1.00  0.00    +0.0749  H
BRANCH 33 36
ATOM     36  O8  NAC L   1      12.035  -8.912  -4.913  1.00  0.00    -0.4564 OA
BRANCH 36 37
ATOM     37  C6  NAC L   1      11.675 -10.177  -5.231  1.00  0.00    +0.3398  C
ATOM     38  O7  NAC L   1      12.335 -11.190  -5.068  1.00  0.00    -0.2449 OA
BRANCH 37 43
ATOM     39  C1  NAC L   1       6.145 -10.063  -6.947  1.00  0.00    -0.0397  C
ATOM     40  C2  NAC L   1       7.581 -10.136  -6.515  1.00  0.00    -0.0502  A
ATOM     41  C3  NAC L   1       7.942  -9.828  -5.202  1.00  0.00    -0.0580  A
ATOM     42  C4  NAC L   1       9.281  -9.860  -4.815  1.00  0.00    -0.0473  A
ATOM     43  C5  NAC L   1      10.282 -10.187  -5.742  1.00  0.00    +0.0619  A
ATOM     44 C35  NAC L   1       9.937 -10.520  -7.066  1.00  0.00    -0.0362  A
ATOM     45 C36  NAC L   1      10.956 -10.913  -8.100  1.00  0.00    -0.0389  C
ATOM     46 C37  NAC L   1       8.582 -10.467  -7.441  1.00  0.00    -0.0551  A
ATOM     47 H38  NAC L   1       5.937 -10.794  -7.734  1.00  0.00    +0.0278  H
ATOM     48 H39  NAC L   1       5.474 -10.286  -6.111  1.00  0.00    +0.0278  H
ATOM     49 H40  NAC L   1       5.919  -9.061  -7.324  1.00  0.00    +0.0278  H
ATOM     50 H41  NAC L   1       7.183  -9.559  -4.469  1.00  0.00    +0.0620  H
ATOM     51 H42  NAC L   1       9.548  -9.620  -3.788  1.00  0.00    +0.0626  H
ATOM     52 H63  NAC L   1      10.487 -11.452  -8.931  1.00  0.00    +0.0278  H
ATOM     53 H64  NAC L   1      11.706 -11.588  -7.675  1.00  0.00    +0.0278  H
ATOM     54 H65  NAC L   1      11.446 -10.024  -8.506  1.00  0.00    +0.0278  H
ATOM     55 H66  NAC L   1       8.300 -10.696  -8.467  1.00  0.00    +0.0623  H
ENDBRANCH 37 43
ENDBRANCH 36 37
ENDBRANCH 33 36
ENDBRANCH 23 33
ENDBRANCH 21 26
BRANCH 21 56
ATOM     56 C15  NAC L   1      13.586  -8.286 -12.020  1.00  0.00    +0.0334  C
ATOM     57 H48  NAC L   1      13.519  -9.349 -11.759  1.00  0.00    +0.0497  H
ATOM     58 H49  NAC L   1      14.607  -7.964 -11.783  1.00  0.00    +0.0497  H
BRANCH 56 59
ATOM     59 N16  NAC L   1      13.466  -8.237 -13.475  1.00  0.00    -0.3551  N
ATOM     60 C17  NAC L   1      13.868  -7.188 -14.265  1.00  0.00    +0.2179  C
ATOM     61 C18  NAC L   1      13.723  -7.448 -15.740  1.00  0.00    +0.0143  C
ATOM     62 O19  NAC L   1      14.249  -6.107 -13.825  1.00  0.00    -0.2736 OA
ATOM     63 H50  NAC L   1      13.136  -9.080 -13.932  1.00  0.00    +0.1623 HD
ATOM     64 H51  NAC L   1      12.701  -7.208 -16.048  1.00  0.00    +0.0325  H
ATOM     65 H52  NAC L   1      13.936  -8.495 -15.974  1.00  0.00    +0.0325  H
ATOM     66 H53  NAC L   1      14.427  -6.819 -16.290  1.00  0.00    +0.0325  H
ENDBRANCH 56 59
ENDBRANCH 21 56
ENDBRANCH 17 21
ENDBRANCH 1 19
TORSDOF 9
ENDMDL
MODEL 15
REMARK VINA RESULT:    -6.739      4.327      8.140
REMARK INTER + INTRA:         -11.814
REMARK INTER:                  -8.748
REMARK INTRA:                  -3.066
REMARK UNBOUND:                -1.529
ROOT
ATOM      1 C23  NAC L   1      11.947  -8.606  -5.870  1.00  0.00    +0.0423  A
ATOM      2 C24  NAC L   1      11.093  -9.621  -5.426  1.00  0.00    -0.0377  A
ATOM      3 C25  NAC L   1      10.905  -9.847  -4.059  1.00  0.00    -0.0506  A
ATOM      4 C26  NAC L   1      11.572  -9.053  -3.112  1.00  0.00    +0.0004  A
ATOM      5 C27  NAC L   1      11.426  -9.230  -1.734  1.00  0.00    +0.0353  A
ATOM      6 N28  NAC L   1      12.052  -8.484  -0.794  1.00  0.00    -0.2626 NA
ATOM      7 C29  NAC L   1      12.865  -7.507  -1.246  1.00  0.00    +0.0281  A
ATOM      8 C30  NAC L   1      13.083  -7.242  -2.589  1.00  0.00    -0.0358  A
ATOM      9 C31  NAC L   1      12.429  -8.026  -3.549  1.00  0.00    -0.0131  A
ATOM     10 C32  NAC L   1      12.606  -7.813  -4.928  1.00  0.00    -0.0305  A
ATOM     11 H55  NAC L   1      10.564 -10.252  -6.136  1.00  0.00    +0.0638  H
ATOM     12 H56  NAC L   1      10.237 -10.643  -3.740  1.00  0.00    +0.0625  H
ATOM     13 H57  NAC L   1      10.779 -10.004  -1.332  1.00  0.00    +0.0836  H
ATOM     14 H58  NAC L   1      13.355  -6.919  -0.476  1.00  0.00    +0.0830  H
ATOM     15 H59  NAC L   1      13.752  -6.439  -2.880  1.00  0.00    +0.0639  H
ATOM     16 H60  NAC L   1      13.264  -7.008  -5.246  1.00  0.00    +0.0644  H
ENDROOT
BRANCH 1 19
ATOM     17 C20  NAC L   1      13.066  -8.958  -8.095  1.00  0.00    +0.2344  C
ATOM     18 O21  NAC L   1      13.964  -9.722  -7.749  1.00  0.00    -0.2722 OA
ATOM     19 N22  NAC L   1      12.077  -8.448  -7.263  1.00  0.00    -0.3256  N
ATOM     20 H54  NAC L   1      11.314  -7.957  -7.730  1.00  0.00    +0.1686 HD
BRANCH 17 21
ATOM     21 C14  NAC L   1      12.891  -8.508  -9.553  1.00  0.00    +0.0803  C
ATOM     22 H47  NAC L   1      13.647  -9.023 -10.157  1.00  0.00    +0.0463  H
BRANCH 21 26
ATOM     23 C10  NAC L   1       9.016  -9.572 -11.229  1.00  0.00    -0.0103  A
ATOM     24 C11  NAC L   1       9.790 -10.539 -10.579  1.00  0.00    -0.0551  A
ATOM     25 C12  NAC L   1      11.039 -10.210 -10.045  1.00  0.00    -0.0574  A
ATOM     26 C13  NAC L   1      11.541  -8.903 -10.144  1.00  0.00    -0.0336  A
ATOM     27 C33  NAC L   1      10.754  -7.934 -10.787  1.00  0.00    -0.0574  A
ATOM     28 C34  NAC L   1       9.505  -8.264 -11.320  1.00  0.00    -0.0551  A
ATOM     29 H45  NAC L   1       9.424 -11.560 -10.481  1.00  0.00    +0.0621  H
ATOM     30 H46  NAC L   1      11.620 -10.993  -9.563  1.00  0.00    +0.0621  H
ATOM     31 H61  NAC L   1      11.103  -6.907 -10.876  1.00  0.00    +0.0621  H
ATOM     32 H62  NAC L   1       8.912  -7.491 -11.803  1.00  0.00    +0.0621  H
BRANCH 23 33
ATOM     33  C9  NAC L   1       7.663  -9.925 -11.789  1.00  0.00    +0.1179  C
ATOM     34 H43  NAC L   1       7.740 -10.627 -12.629  1.00  0.00    +0.0749  H
ATOM     35 H44  NAC L   1       7.188  -9.023 -12.194  1.00  0.00    +0.0749  H
BRANCH 33 36
ATOM     36  O8  NAC L   1       6.824 -10.418 -10.738  1.00  0.00    -0.4564 OA
BRANCH 36 37
ATOM     37  C6  NAC L   1       6.435  -9.500  -9.824  1.00  0.00    +0.3398  C
ATOM     38  O7  NAC L   1       5.915  -8.418 -10.047  1.00  0.00    -0.2449 OA
BRANCH 37 43
ATOM     39  C1  NAC L   1       7.074 -11.846  -4.569  1.00  0.00    -0.0397  C
ATOM     40  C2  NAC L   1       6.901 -11.198  -5.911  1.00  0.00    -0.0502  A
ATOM     41  C3  NAC L   1       5.952 -11.683  -6.814  1.00  0.00    -0.0580  A
ATOM     42  C4  NAC L   1       5.821 -11.102  -8.075  1.00  0.00    -0.0473  A
ATOM     43  C5  NAC L   1       6.647 -10.034  -8.457  1.00  0.00    +0.0619  A
ATOM     44 C35  NAC L   1       7.596  -9.518  -7.554  1.00  0.00    -0.0362  A
ATOM     45 C36  NAC L   1       8.489  -8.355  -7.885  1.00  0.00    -0.0389  C
ATOM     46 C37  NAC L   1       7.724 -10.127  -6.292  1.00  0.00    -0.0551  A
ATOM     47 H38  NAC L   1       7.394 -11.114  -3.821  1.00  0.00    +0.0278  H
ATOM     48 H39  NAC L   1       6.131 -12.277  -4.218  1.00  0.00    +0.0278  H
ATOM     49 H40  NAC L   1       7.824 -12.640  -4.632  1.00  0.00    +0.0278  H
ATOM     50 H41  NAC L   1       5.310 -12.518  -6.544  1.00  0.00    +0.0620  H
ATOM     51 H42  NAC L   1       5.076 -11.488  -8.768  1.00  0.00    +0.0626  H
ATOM     52 H63  NAC L   1       8.892  -7.894  -6.976  1.00  0.00    +0.0278  H
ATOM     53 H64  NAC L   1       7.933  -7.571  -8.411  1.00  0.00    +0.0278  H
ATOM     54 H65  NAC L   1       9.331  -8.685  -8.499  1.00  0.00    +0.0278  H
ATOM     55 H66  NAC L   1       8.471  -9.758  -5.590  1.00  0.00    +0.0623  H
ENDBRANCH 37 43
ENDBRANCH 36 37
ENDBRANCH 33 36
ENDBRANCH 23 33
ENDBRANCH 21 26
BRANCH 21 56
ATOM     56 C15  NAC L   1      13.138  -6.992  -9.669  1.00  0.00    +0.0334  C
ATOM     57 H48  NAC L   1      13.273  -6.546  -8.676  1.00  0.00    +0.0497  H
ATOM     58 H49  NAC L   1      12.261  -6.510 -10.118  1.00  0.00    +0.0497  H
BRANCH 56 59
ATOM     59 N16  NAC L   1      14.292  -6.554 -10.450  1.00  0.00    -0.3551  N
ATOM     60 C17  NAC L   1      14.300  -6.368 -11.810  1.00  0.00    +0.2179  C
ATOM     61 C18  NAC L   1      15.593  -5.812 -12.340  1.00  0.00    +0.0143  C
ATOM     62 O19  NAC L   1      13.371  -6.683 -12.549  1.00  0.00    -0.2736 OA
ATOM     63 H50  NAC L   1      15.120  -6.291  -9.927  1.00  0.00    +0.1623 HD
ATOM     64 H51  NAC L   1      16.294  -6.634 -12.511  1.00  0.00    +0.0325  H
ATOM     65 H52  NAC L   1      16.032  -5.103 -11.633  1.00  0.00    +0.0325  H
ATOM     66 H53  NAC L   1      15.405  -5.291 -13.283  1.00  0.00    +0.0325  H
ENDBRANCH 56 59
ENDBRANCH 21 56
ENDBRANCH 17 21
ENDBRANCH 1 19
TORSDOF 9
ENDMDL
MODEL 16
REMARK VINA RESULT:    -6.715      2.788      5.342
REMARK INTER + INTRA:         -11.777
REMARK INTER:                  -9.421
REMARK INTRA:                  -2.356
REMARK UNBOUND:                -1.529
ROOT
ATOM      1 C23  NAC L   1      12.094  -7.104  -2.161  1.00  0.00    +0.0423  A
ATOM      2 C24  NAC L   1      11.088  -7.292  -1.207  1.00  0.00    -0.0377  A
ATOM      3 C25  NAC L   1      11.146  -6.642   0.029  1.00  0.00    -0.0506  A
ATOM      4 C26  NAC L   1      12.219  -5.787   0.329  1.00  0.00    +0.0004  A
ATOM      5 C27  NAC L   1      12.334  -5.109   1.545  1.00  0.00    +0.0353  A
ATOM      6 N28  NAC L   1      13.352  -4.278   1.867  1.00  0.00    -0.2626 NA
ATOM      7 C29  NAC L   1      14.307  -4.107   0.930  1.00  0.00    +0.0281  A
ATOM      8 C30  NAC L   1      14.294  -4.727  -0.309  1.00  0.00    -0.0358  A
ATOM      9 C31  NAC L   1      13.233  -5.586  -0.625  1.00  0.00    -0.0131  A
ATOM     10 C32  NAC L   1      13.159  -6.249  -1.864  1.00  0.00    -0.0305  A
ATOM     11 H55  NAC L   1      10.246  -7.949  -1.411  1.00  0.00    +0.0638  H
ATOM     12 H56  NAC L   1      10.352  -6.806   0.753  1.00  0.00    +0.0625  H
ATOM     13 H57  NAC L   1      11.584  -5.220   2.323  1.00  0.00    +0.0836  H
ATOM     14 H58  NAC L   1      15.114  -3.435   1.208  1.00  0.00    +0.0830  H
ATOM     15 H59  NAC L   1      15.098  -4.542  -1.015  1.00  0.00    +0.0639  H
ATOM     16 H60  NAC L   1      13.946  -6.074  -2.592  1.00  0.00    +0.0644  H
ENDROOT
BRANCH 1 19
ATOM     17 C20  NAC L   1      12.088  -9.162  -3.608  1.00  0.00    +0.2344  C
ATOM     18 O21  NAC L   1      12.270 -10.015  -2.743  1.00  0.00    -0.2722 OA
ATOM     19 N22  NAC L   1      11.955  -7.798  -3.378  1.00  0.00    -0.3256  N
ATOM     20 H54  NAC L   1      11.652  -7.241  -4.177  1.00  0.00    +0.1686 HD
BRANCH 17 21
ATOM     21 C14  NAC L   1      11.923  -9.522  -5.090  1.00  0.00    +0.0803  C
ATOM     22 H47  NAC L   1      12.291 -10.545  -5.232  1.00  0.00    +0.0463  H
BRANCH 21 26
ATOM     23 C10  NAC L   1       7.764  -9.621  -6.376  1.00  0.00    -0.0103  A
ATOM     24 C11  NAC L   1       8.648  -8.686  -6.926  1.00  0.00    -0.0551  A
ATOM     25 C12  NAC L   1       9.982  -8.641  -6.513  1.00  0.00    -0.0574  A
ATOM     26 C13  NAC L   1      10.466  -9.534  -5.546  1.00  0.00    -0.0336  A
ATOM     27 C33  NAC L   1       9.578 -10.478  -5.007  1.00  0.00    -0.0574  A
ATOM     28 C34  NAC L   1       8.244 -10.523  -5.419  1.00  0.00    -0.0551  A
ATOM     29 H45  NAC L   1       8.302  -7.984  -7.684  1.00  0.00    +0.0621  H
ATOM     30 H46  NAC L   1      10.635  -7.887  -6.950  1.00  0.00    +0.0621  H
ATOM     31 H61  NAC L   1       9.916 -11.194  -4.260  1.00  0.00    +0.0621  H
ATOM     32 H62  NAC L   1       7.579 -11.271  -4.993  1.00  0.00    +0.0621  H
BRANCH 23 33
ATOM     33  C9  NAC L   1       6.330  -9.679  -6.834  1.00  0.00    +0.1179  C
ATOM     34 H43  NAC L   1       5.658  -9.165  -6.135  1.00  0.00    +0.0749  H
ATOM     35 H44  NAC L   1       5.996 -10.723  -6.858  1.00  0.00    +0.0749  H
BRANCH 33 36
ATOM     36  O8  NAC L   1       6.233  -9.165  -8.167  1.00  0.00    -0.4564 OA
BRANCH 36 37
ATOM     37  C6  NAC L   1       6.269 -10.091  -9.152  1.00  0.00    +0.3398  C
ATOM     38  O7  NAC L   1       5.433 -10.950  -9.382  1.00  0.00    -0.2449 OA
BRANCH 37 43
ATOM     39  C1  NAC L   1      10.787  -8.912 -12.577  1.00  0.00    -0.0397  C
ATOM     40  C2  NAC L   1       9.614  -9.259 -11.706  1.00  0.00    -0.0502  A
ATOM     41  C3  NAC L   1       8.451  -8.488 -11.746  1.00  0.00    -0.0580  A
ATOM     42  C4  NAC L   1       7.378  -8.791 -10.908  1.00  0.00    -0.0473  A
ATOM     43  C5  NAC L   1       7.459  -9.864 -10.007  1.00  0.00    +0.0619  A
ATOM     44 C35  NAC L   1       8.616 -10.666  -9.967  1.00  0.00    -0.0362  A
ATOM     45 C36  NAC L   1       8.756 -11.850  -9.051  1.00  0.00    -0.0389  C
ATOM     46 C37  NAC L   1       9.694 -10.334 -10.809  1.00  0.00    -0.0551  A
ATOM     47 H38  NAC L   1      11.347  -9.810 -12.853  1.00  0.00    +0.0278  H
ATOM     48 H39  NAC L   1      10.457  -8.436 -13.506  1.00  0.00    +0.0278  H
ATOM     49 H40  NAC L   1      11.455  -8.226 -12.046  1.00  0.00    +0.0278  H
ATOM     50 H41  NAC L   1       8.371  -7.643 -12.427  1.00  0.00    +0.0620  H
ATOM     51 H42  NAC L   1       6.477  -8.183 -10.950  1.00  0.00    +0.0626  H
ATOM     52 H63  NAC L   1       9.545 -12.527  -9.398  1.00  0.00    +0.0278  H
ATOM     53 H64  NAC L   1       7.832 -12.437  -9.025  1.00  0.00    +0.0278  H
ATOM     54 H65  NAC L   1       9.012 -11.520  -8.040  1.00  0.00    +0.0278  H
ATOM     55 H66  NAC L   1      10.606 -10.928 -10.772  1.00  0.00    +0.0623  H
ENDBRANCH 37 43
ENDBRANCH 36 37
ENDBRANCH 33 36
ENDBRANCH 23 33
ENDBRANCH 21 26
BRANCH 21 56
ATOM     56 C15  NAC L   1      12.780  -8.582  -5.960  1.00  0.00    +0.0334  C
ATOM     57 H48  NAC L   1      13.671  -8.255  -5.411  1.00  0.00    +0.0497  H
ATOM     58 H49  NAC L   1      12.206  -7.679  -6.201  1.00  0.00    +0.0497  H
BRANCH 56 59
ATOM     59 N16  NAC L   1      13.279  -9.104  -7.230  1.00  0.00    -0.3551  N
ATOM     60 C17  NAC L   1      13.189  -8.458  -8.438  1.00  0.00    +0.2179  C
ATOM     61 C18  NAC L   1      13.879  -9.178  -9.565  1.00  0.00    +0.0143  C
ATOM     62 O19  NAC L   1      12.553  -7.423  -8.615  1.00  0.00    -0.2736 OA
ATOM     63 H50  NAC L   1      13.801  -9.972  -7.190  1.00  0.00    +0.1623 HD
ATOM     64 H51  NAC L   1      13.198  -9.925  -9.983  1.00  0.00    +0.0325  H
ATOM     65 H52  NAC L   1      14.787  -9.674  -9.212  1.00  0.00    +0.0325  H
ATOM     66 H53  NAC L   1      14.154  -8.459 -10.341  1.00  0.00    +0.0325  H
ENDBRANCH 56 59
ENDBRANCH 21 56
ENDBRANCH 17 21
ENDBRANCH 1 19
TORSDOF 9
ENDMDL
MODEL 17
REMARK VINA RESULT:    -6.650      1.363      1.848
REMARK INTER + INTRA:         -11.678
REMARK INTER:                 -10.755
REMARK INTRA:                  -0.923
REMARK UNBOUND:                -1.529
ROOT
ATOM      1 C23  NAC L   1      11.486  -5.540   2.987  1.00  0.00    +0.0423  A
ATOM      2 C24  NAC L   1      12.016  -4.249   2.889  1.00  0.00    -0.0377  A
ATOM      3 C25  NAC L   1      11.534  -3.217   3.698  1.00  0.00    -0.0506  A
ATOM      4 C26  NAC L   1      10.509  -3.464   4.625  1.00  0.00    +0.0004  A
ATOM      5 C27  NAC L   1       9.984  -2.476   5.462  1.00  0.00    +0.0353  A
ATOM      6 N28  NAC L   1       8.998  -2.679   6.366  1.00  0.00    -0.2626 NA
ATOM      7 C29  NAC L   1       8.508  -3.933   6.447  1.00  0.00    +0.0281  A
ATOM      8 C30  NAC L   1       8.952  -4.990   5.669  1.00  0.00    -0.0358  A
ATOM      9 C31  NAC L   1       9.973  -4.761   4.736  1.00  0.00    -0.0131  A
ATOM     10 C32  NAC L   1      10.470  -5.788   3.913  1.00  0.00    -0.0305  A
ATOM     11 H55  NAC L   1      12.809  -4.027   2.179  1.00  0.00    +0.0638  H
ATOM     12 H56  NAC L   1      11.962  -2.222   3.601  1.00  0.00    +0.0625  H
ATOM     13 H57  NAC L   1      10.354  -1.455   5.426  1.00  0.00    +0.0836  H
ATOM     14 H58  NAC L   1       7.719  -4.075   7.180  1.00  0.00    +0.0830  H
ATOM     15 H59  NAC L   1       8.510  -5.973   5.790  1.00  0.00    +0.0639  H
ATOM     16 H60  NAC L   1      10.051  -6.785   4.021  1.00  0.00    +0.0644  H
ENDROOT
BRANCH 1 19
ATOM     17 C20  NAC L   1      11.675  -6.809   0.823  1.00  0.00    +0.2344  C
ATOM     18 O21  NAC L   1      10.859  -6.181   0.152  1.00  0.00    -0.2722 OA
ATOM     19 N22  NAC L   1      12.032  -6.519   2.134  1.00  0.00    -0.3256  N
ATOM     20 H54  NAC L   1      12.834  -7.032   2.499  1.00  0.00    +0.1686 HD
BRANCH 17 21
ATOM     21 C14  NAC L   1      12.465  -7.994   0.252  1.00  0.00    +0.0803  C
ATOM     22 H47  NAC L   1      12.136  -8.901   0.772  1.00  0.00    +0.0463  H
BRANCH 21 26
ATOM     23 C10  NAC L   1      11.669  -8.753  -3.961  1.00  0.00    -0.0103  A
ATOM     24 C11  NAC L   1      12.606  -7.783  -3.586  1.00  0.00    -0.0551  A
ATOM     25 C12  NAC L   1      12.861  -7.526  -2.237  1.00  0.00    -0.0574  A
ATOM     26 C13  NAC L   1      12.192  -8.237  -1.230  1.00  0.00    -0.0336  A
ATOM     27 C33  NAC L   1      11.262  -9.218  -1.613  1.00  0.00    -0.0574  A
ATOM     28 C34  NAC L   1      11.006  -9.475  -2.962  1.00  0.00    -0.0551  A
ATOM     29 H45  NAC L   1      13.146  -7.220  -4.346  1.00  0.00    +0.0621  H
ATOM     30 H46  NAC L   1      13.583  -6.752  -1.984  1.00  0.00    +0.0621  H
ATOM     31 H61  NAC L   1      10.728  -9.798  -0.862  1.00  0.00    +0.0621  H
ATOM     32 H62  NAC L   1      10.289 -10.247  -3.231  1.00  0.00    +0.0621  H
BRANCH 23 33
ATOM     33  C9  NAC L   1      11.407  -9.040  -5.417  1.00  0.00    +0.1179  C
ATOM     34 H43  NAC L   1      11.211 -10.106  -5.593  1.00  0.00    +0.0749  H
ATOM     35 H44  NAC L   1      12.301  -8.799  -6.004  1.00  0.00    +0.0749  H
BRANCH 33 36
ATOM     36  O8  NAC L   1      10.345  -8.202  -5.886  1.00  0.00    -0.4564 OA
BRANCH 36 37
ATOM     37  C6  NAC L   1       9.187  -8.838  -6.176  1.00  0.00    +0.3398  C
ATOM     38  O7  NAC L   1       8.444  -9.404  -5.389  1.00  0.00    -0.2449 OA
BRANCH 37 43
ATOM     39  C1  NAC L   1       8.288  -8.149 -11.854  1.00  0.00    -0.0397  C
ATOM     40  C2  NAC L   1       8.485  -8.301 -10.374  1.00  0.00    -0.0502  A
ATOM     41  C3  NAC L   1       9.705  -7.962  -9.784  1.00  0.00    -0.0580  A
ATOM     42  C4  NAC L   1       9.897  -8.141  -8.415  1.00  0.00    -0.0473  A
ATOM     43  C5  NAC L   1       8.874  -8.675  -7.616  1.00  0.00    +0.0619  A
ATOM     44 C35  NAC L   1       7.630  -9.004  -8.189  1.00  0.00    -0.0362  A
ATOM     45 C36  NAC L   1       6.481  -9.548  -7.386  1.00  0.00    -0.0389  C
ATOM     46 C37  NAC L   1       7.462  -8.832  -9.575  1.00  0.00    -0.0551  A
ATOM     47 H38  NAC L   1       7.244  -7.921 -12.088  1.00  0.00    +0.0278  H
ATOM     48 H39  NAC L   1       8.896  -7.327 -12.248  1.00  0.00    +0.0278  H
ATOM     49 H40  NAC L   1       8.572  -9.075 -12.366  1.00  0.00    +0.0278  H
ATOM     50 H41  NAC L   1      10.517  -7.559 -10.387  1.00  0.00    +0.0620  H
ATOM     51 H42  NAC L   1      10.851  -7.871  -7.968  1.00  0.00    +0.0626  H
ATOM     52 H63  NAC L   1       5.531  -9.415  -7.916  1.00  0.00    +0.0278  H
ATOM     53 H64  NAC L   1       6.382  -9.017  -6.433  1.00  0.00    +0.0278  H
ATOM     54 H65  NAC L   1       6.620 -10.617  -7.200  1.00  0.00    +0.0278  H
ATOM     55 H66  NAC L   1       6.515  -9.105 -10.039  1.00  0.00    +0.0623  H
ENDBRANCH 37 43
ENDBRANCH 36 37
ENDBRANCH 33 36
ENDBRANCH 23 33
ENDBRANCH 21 26
BRANCH 21 56
ATOM     56 C15  NAC L   1      13.970  -7.805   0.526  1.00  0.00    +0.0334  C
ATOM     57 H48  NAC L   1      14.141  -6.911   1.138  1.00  0.00    +0.0497  H
ATOM     58 H49  NAC L   1      14.499  -7.647  -0.422  1.00  0.00    +0.0497  H
BRANCH 56 59
ATOM     59 N16  NAC L   1      14.671  -8.885   1.214  1.00  0.00    -0.3551  N
ATOM     60 C17  NAC L   1      14.478  -9.241   2.526  1.00  0.00    +0.2179  C
ATOM     61 C18  NAC L   1      15.257 -10.457   2.947  1.00  0.00    +0.0143  C
ATOM     62 O19  NAC L   1      13.790  -8.600   3.315  1.00  0.00    -0.2736 OA
ATOM     63 H50  NAC L   1      15.284  -9.461   0.649  1.00  0.00    +0.1623 HD
ATOM     64 H51  NAC L   1      16.266 -10.153   3.242  1.00  0.00    +0.0325  H
ATOM     65 H52  NAC L   1      15.322 -11.181   2.130  1.00  0.00    +0.0325  H
ATOM     66 H53  NAC L   1      14.757 -10.934   3.794  1.00  0.00    +0.0325  H
ENDBRANCH 56 59
ENDBRANCH 21 56
ENDBRANCH 17 21
ENDBRANCH 1 19
TORSDOF 9
ENDMDL
MODEL 18
REMARK VINA RESULT:    -6.631      3.091     10.810
REMARK INTER + INTRA:         -11.648
REMARK INTER:                 -10.990
REMARK INTRA:                  -0.659
REMARK UNBOUND:                -1.529
ROOT
ATOM      1 C23  NAC L   1      11.036  -7.810  -6.568  1.00  0.00    +0.0423  A
ATOM      2 C24  NAC L   1      11.363  -7.014  -7.670  1.00  0.00    -0.0377  A
ATOM      3 C25  NAC L   1      10.527  -6.965  -8.788  1.00  0.00    -0.0506  A
ATOM      4 C26  NAC L   1       9.340  -7.715  -8.818  1.00  0.00    +0.0004  A
ATOM      5 C27  NAC L   1       8.463  -7.709  -9.906  1.00  0.00    +0.0353  A
ATOM      6 N28  NAC L   1       7.313  -8.419  -9.968  1.00  0.00    -0.2626 NA
ATOM      7 C29  NAC L   1       7.014  -9.174  -8.891  1.00  0.00    +0.0281  A
ATOM      8 C30  NAC L   1       7.809  -9.255  -7.759  1.00  0.00    -0.0358  A
ATOM      9 C31  NAC L   1       8.998  -8.516  -7.713  1.00  0.00    -0.0131  A
ATOM     10 C32  NAC L   1       9.853  -8.553  -6.595  1.00  0.00    -0.0305  A
ATOM     11 H55  NAC L   1      12.276  -6.423  -7.676  1.00  0.00    +0.0638  H
ATOM     12 H56  NAC L   1      10.805  -6.339  -9.633  1.00  0.00    +0.0625  H
ATOM     13 H57  NAC L   1       8.668  -7.113 -10.790  1.00  0.00    +0.0836  H
ATOM     14 H58  NAC L   1       6.086  -9.734  -8.960  1.00  0.00    +0.0830  H
ATOM     15 H59  NAC L   1       7.505  -9.885  -6.929  1.00  0.00    +0.0639  H
ATOM     16 H60  NAC L   1       9.567  -9.168  -5.747  1.00  0.00    +0.0644  H
ENDROOT
BRANCH 1 19
ATOM     17 C20  NAC L   1      11.730  -8.271  -4.195  1.00  0.00    +0.2344  C
ATOM     18 O21  NAC L   1      10.729  -8.868  -3.806  1.00  0.00    -0.2722 OA
ATOM     19 N22  NAC L   1      11.936  -7.799  -5.485  1.00  0.00    -0.3256  N
ATOM     20 H54  NAC L   1      12.878  -7.468  -5.691  1.00  0.00    +0.1686 HD
BRANCH 17 21
ATOM     21 C14  NAC L   1      12.938  -8.020  -3.282  1.00  0.00    +0.0803  C
ATOM     22 H47  NAC L   1      13.695  -7.481  -3.864  1.00  0.00    +0.0463  H
BRANCH 21 26
ATOM     23 C10  NAC L   1      12.073  -5.469   0.139  1.00  0.00    -0.0103  A
ATOM     24 C11  NAC L   1      11.097  -6.343  -0.351  1.00  0.00    -0.0551  A
ATOM     25 C12  NAC L   1      11.362  -7.159  -1.453  1.00  0.00    -0.0574  A
ATOM     26 C13  NAC L   1      12.612  -7.125  -2.089  1.00  0.00    -0.0336  A
ATOM     27 C33  NAC L   1      13.592  -6.254  -1.586  1.00  0.00    -0.0574  A
ATOM     28 C34  NAC L   1      13.326  -5.438  -0.483  1.00  0.00    -0.0551  A
ATOM     29 H45  NAC L   1      10.119  -6.397   0.127  1.00  0.00    +0.0621  H
ATOM     30 H46  NAC L   1      10.571  -7.813  -1.817  1.00  0.00    +0.0621  H
ATOM     31 H61  NAC L   1      14.577  -6.204  -2.045  1.00  0.00    +0.0621  H
ATOM     32 H62  NAC L   1      14.107  -4.780  -0.107  1.00  0.00    +0.0621  H
BRANCH 23 33
ATOM     33  C9  NAC L   1      11.790  -4.602   1.338  1.00  0.00    +0.1179  C
ATOM     34 H43  NAC L   1      10.915  -4.954   1.898  1.00  0.00    +0.0749  H
ATOM     35 H44  NAC L   1      11.544  -3.586   1.005  1.00  0.00    +0.0749  H
BRANCH 33 36
ATOM     36  O8  NAC L   1      12.965  -4.515   2.153  1.00  0.00    -0.4564 OA
BRANCH 36 37
ATOM     37  C6  NAC L   1      12.902  -3.626   3.171  1.00  0.00    +0.3398  C
ATOM     38  O7  NAC L   1      13.617  -2.651   3.338  1.00  0.00    -0.2449 OA
BRANCH 37 43
ATOM     39  C1  NAC L   1       8.228  -4.655   6.431  1.00  0.00    -0.0397  C
ATOM     40  C2  NAC L   1       9.465  -4.389   5.623  1.00  0.00    -0.0502  A
ATOM     41  C3  NAC L   1       9.543  -3.265   4.798  1.00  0.00    -0.0580  A
ATOM     42  C4  NAC L   1      10.679  -3.042   4.020  1.00  0.00    -0.0473  A
ATOM     43  C5  NAC L   1      11.749  -3.949   4.046  1.00  0.00    +0.0619  A
ATOM     44 C35  NAC L   1      11.698  -5.078   4.887  1.00  0.00    -0.0362  A
ATOM     45 C36  NAC L   1      12.823  -6.071   4.989  1.00  0.00    -0.0389  C
ATOM     46 C37  NAC L   1      10.537  -5.294   5.652  1.00  0.00    -0.0551  A
ATOM     47 H38  NAC L   1       8.474  -5.177   7.361  1.00  0.00    +0.0278  H
ATOM     48 H39  NAC L   1       7.731  -3.719   6.705  1.00  0.00    +0.0278  H
ATOM     49 H40  NAC L   1       7.531  -5.270   5.853  1.00  0.00    +0.0278  H
ATOM     50 H41  NAC L   1       8.720  -2.556   4.752  1.00  0.00    +0.0620  H
ATOM     51 H42  NAC L   1      10.728  -2.161   3.384  1.00  0.00    +0.0626  H
ATOM     52 H63  NAC L   1      12.750  -6.657   5.912  1.00  0.00    +0.0278  H
ATOM     53 H64  NAC L   1      13.793  -5.563   5.020  1.00  0.00    +0.0278  H
ATOM     54 H65  NAC L   1      12.795  -6.764   4.144  1.00  0.00    +0.0278  H
ATOM     55 H66  NAC L   1      10.470  -6.175   6.288  1.00  0.00    +0.0623  H
ENDBRANCH 37 43
ENDBRANCH 36 37
ENDBRANCH 33 36
ENDBRANCH 23 33
ENDBRANCH 21 26
BRANCH 21 56
ATOM     56 C15  NAC L   1      13.548  -9.362  -2.833  1.00  0.00    +0.0334  C
ATOM     57 H48  NAC L   1      14.257  -9.207  -2.010  1.00  0.00    +0.0497  H
ATOM     58 H49  NAC L   1      14.114  -9.804  -3.661  1.00  0.00    +0.0497  H
BRANCH 56 59
ATOM     59 N16  NAC L   1      12.630 -10.396  -2.363  1.00  0.00    -0.3551  N
ATOM     60 C17  NAC L   1      12.319 -10.637  -1.047  1.00  0.00    +0.2179  C
ATOM     61 C18  NAC L   1      11.265 -11.693  -0.855  1.00  0.00    +0.0143  C
ATOM     62 O19  NAC L   1      12.886 -10.098  -0.101  1.00  0.00    -0.2736 OA
ATOM     63 H50  NAC L   1      12.128 -10.915  -3.075  1.00  0.00    +0.1623 HD
ATOM     64 H51  NAC L   1      11.740 -12.678  -0.859  1.00  0.00    +0.0325  H
ATOM     65 H52  NAC L   1      10.518 -11.648  -1.652  1.00  0.00    +0.0325  H
ATOM     66 H53  NAC L   1      10.762 -11.534   0.103  1.00  0.00    +0.0325  H
ENDBRANCH 56 59
ENDBRANCH 21 56
ENDBRANCH 17 21
ENDBRANCH 1 19
TORSDOF 9
ENDMDL
MODEL 19
REMARK VINA RESULT:    -6.630      7.381     11.858
REMARK INTER + INTRA:         -11.647
REMARK INTER:                  -8.800
REMARK INTRA:                  -2.847
REMARK UNBOUND:                -1.529
ROOT
ATOM      1 C23  NAC L   1       8.687  -9.191 -11.472  1.00  0.00    +0.0423  A
ATOM      2 C24  NAC L   1       8.049  -8.339 -10.564  1.00  0.00    -0.0377  A
ATOM      3 C25  NAC L   1       6.715  -8.548 -10.207  1.00  0.00    -0.0506  A
ATOM      4 C26  NAC L   1       5.995  -9.622 -10.754  1.00  0.00    +0.0004  A
ATOM      5 C27  NAC L   1       4.659  -9.884 -10.438  1.00  0.00    +0.0353  A
ATOM      6 N28  NAC L   1       3.937 -10.909 -10.945  1.00  0.00    -0.2626 NA
ATOM      7 C29  NAC L   1       4.574 -11.721 -11.813  1.00  0.00    +0.0281  A
ATOM      8 C30  NAC L   1       5.895 -11.557 -12.198  1.00  0.00    -0.0358  A
ATOM      9 C31  NAC L   1       6.628 -10.489 -11.664  1.00  0.00    -0.0131  A
ATOM     10 C32  NAC L   1       7.973 -10.263 -12.013  1.00  0.00    -0.0305  A
ATOM     11 H55  NAC L   1       8.581  -7.498 -10.125  1.00  0.00    +0.0638  H
ATOM     12 H56  NAC L   1       6.242  -7.870  -9.500  1.00  0.00    +0.0625  H
ATOM     13 H57  NAC L   1       4.113  -9.253  -9.742  1.00  0.00    +0.0836  H
ATOM     14 H58  NAC L   1       3.977 -12.538 -12.207  1.00  0.00    +0.0830  H
ATOM     15 H59  NAC L   1       6.343 -12.251 -12.902  1.00  0.00    +0.0639  H
ATOM     16 H60  NAC L   1       8.448 -10.950 -12.709  1.00  0.00    +0.0644  H
ENDROOT
BRANCH 1 19
ATOM     17 C20  NAC L   1      10.533  -8.152 -12.829  1.00  0.00    +0.2344  C
ATOM     18 O21  NAC L   1       9.855  -7.523 -13.639  1.00  0.00    -0.2722 OA
ATOM     19 N22  NAC L   1      10.032  -8.907 -11.776  1.00  0.00    -0.3256  N
ATOM     20 H54  NAC L   1      10.721  -9.238 -11.100  1.00  0.00    +0.1686 HD
BRANCH 17 21
ATOM     21 C14  NAC L   1      12.067  -8.129 -12.853  1.00  0.00    +0.0803  C
ATOM     22 H47  NAC L   1      12.384  -7.132 -13.178  1.00  0.00    +0.0463  H
BRANCH 21 26
ATOM     23 C10  NAC L   1      13.796  -8.772  -8.909  1.00  0.00    -0.0103  A
ATOM     24 C11  NAC L   1      13.998  -7.559  -9.576  1.00  0.00    -0.0551  A
ATOM     25 C12  NAC L   1      13.455  -7.346 -10.845  1.00  0.00    -0.0574  A
ATOM     26 C13  NAC L   1      12.691  -8.340 -11.476  1.00  0.00    -0.0336  A
ATOM     27 C33  NAC L   1      12.482  -9.550 -10.797  1.00  0.00    -0.0574  A
ATOM     28 C34  NAC L   1      13.025  -9.763  -9.527  1.00  0.00    -0.0551  A
ATOM     29 H45  NAC L   1      14.581  -6.766  -9.108  1.00  0.00    +0.0621  H
ATOM     30 H46  NAC L   1      13.649  -6.397 -11.340  1.00  0.00    +0.0621  H
ATOM     31 H61  NAC L   1      11.888 -10.343 -11.248  1.00  0.00    +0.0621  H
ATOM     32 H62  NAC L   1      12.839 -10.706  -9.019  1.00  0.00    +0.0621  H
BRANCH 23 33
ATOM     33  C9  NAC L   1      14.369  -8.993  -7.533  1.00  0.00    +0.1179  C
ATOM     34 H43  NAC L   1      14.951  -8.128  -7.191  1.00  0.00    +0.0749  H
ATOM     35 H44  NAC L   1      15.072  -9.835  -7.561  1.00  0.00    +0.0749  H
BRANCH 33 36
ATOM     36  O8  NAC L   1      13.317  -9.340  -6.627  1.00  0.00    -0.4564 OA
BRANCH 36 37
ATOM     37  C6  NAC L   1      12.575  -8.304  -6.171  1.00  0.00    +0.3398  C
ATOM     38  O7  NAC L   1      12.989  -7.236  -5.749  1.00  0.00    -0.2449 OA
BRANCH 37 43
ATOM     39  C1  NAC L   1       6.963  -9.674  -6.559  1.00  0.00    -0.0397  C
ATOM     40  C2  NAC L   1       8.422  -9.328  -6.503  1.00  0.00    -0.0502  A
ATOM     41  C3  NAC L   1       9.272  -9.987  -5.612  1.00  0.00    -0.0580  A
ATOM     42  C4  NAC L   1      10.619  -9.635  -5.536  1.00  0.00    -0.0473  A
ATOM     43  C5  NAC L   1      11.134  -8.608  -6.341  1.00  0.00    +0.0619  A
ATOM     44 C35  NAC L   1      10.298  -7.946  -7.261  1.00  0.00    -0.0362  A
ATOM     45 C36  NAC L   1      10.791  -6.861  -8.177  1.00  0.00    -0.0389  C
ATOM     46 C37  NAC L   1       8.938  -8.304  -7.311  1.00  0.00    -0.0551  A
ATOM     47 H38  NAC L   1       6.565  -9.526  -7.568  1.00  0.00    +0.0278  H
ATOM     48 H39  NAC L   1       6.799 -10.725  -6.297  1.00  0.00    +0.0278  H
ATOM     49 H40  NAC L   1       6.402  -9.044  -5.861  1.00  0.00    +0.0278  H
ATOM     50 H41  NAC L   1       8.891 -10.777  -4.968  1.00  0.00    +0.0620  H
ATOM     51 H42  NAC L   1      11.270 -10.158  -4.838  1.00  0.00    +0.0626  H
ATOM     52 H63  NAC L   1      10.111  -6.720  -9.025  1.00  0.00    +0.0278  H
ATOM     53 H64  NAC L   1      11.767  -7.121  -8.602  1.00  0.00    +0.0278  H
ATOM     54 H65  NAC L   1      10.863  -5.912  -7.638  1.00  0.00    +0.0278  H
ATOM     55 H66  NAC L   1       8.271  -7.784  -7.998  1.00  0.00    +0.0623  H
ENDBRANCH 37 43
ENDBRANCH 36 37
ENDBRANCH 33 36
ENDBRANCH 23 33
ENDBRANCH 21 26
BRANCH 21 56
ATOM     56 C15  NAC L   1      12.593  -9.154 -13.875  1.00  0.00    +0.0334  C
ATOM     57 H48  NAC L   1      13.107  -9.978 -13.366  1.00  0.00    +0.0497  H
ATOM     58 H49  NAC L   1      13.332  -8.675 -14.529  1.00  0.00    +0.0497  H
BRANCH 56 59
ATOM     59 N16  NAC L   1      11.618  -9.792 -14.755  1.00  0.00    -0.3551  N
ATOM     60 C17  NAC L   1      10.886 -10.911 -14.442  1.00  0.00    +0.2179  C
ATOM     61 C18  NAC L   1       9.879 -11.292 -15.492  1.00  0.00    +0.0143  C
ATOM     62 O19  NAC L   1      11.069 -11.589 -13.435  1.00  0.00    -0.2736 OA
ATOM     63 H50  NAC L   1      11.414  -9.317 -15.627  1.00  0.00    +0.1623 HD
ATOM     64 H51  NAC L   1      10.370 -11.903 -16.256  1.00  0.00    +0.0325  H
ATOM     65 H52  NAC L   1       9.449 -10.403 -15.961  1.00  0.00    +0.0325  H
ATOM     66 H53  NAC L   1       9.071 -11.866 -15.030  1.00  0.00    +0.0325  H
ENDBRANCH 56 59
ENDBRANCH 21 56
ENDBRANCH 17 21
ENDBRANCH 1 19
TORSDOF 9
ENDMDL
MODEL 20
REMARK VINA RESULT:    -6.590      3.504     11.380
REMARK INTER + INTRA:         -11.587
REMARK INTER:                  -9.259
REMARK INTRA:                  -2.328
REMARK UNBOUND:                -1.529
ROOT
ATOM      1 C23  NAC L   1       8.041  -8.972  -7.927  1.00  0.00    +0.0423  A
ATOM      2 C24  NAC L   1       7.130  -9.678  -7.134  1.00  0.00    -0.0377  A
ATOM      3 C25  NAC L   1       6.060 -10.363  -7.716  1.00  0.00    -0.0506  A
ATOM      4 C26  NAC L   1       5.886 -10.353  -9.109  1.00  0.00    +0.0004  A
ATOM      5 C27  NAC L   1       4.837 -11.017  -9.750  1.00  0.00    +0.0353  A
ATOM      6 N28  NAC L   1       4.641 -11.030 -11.089  1.00  0.00    -0.2626 NA
ATOM      7 C29  NAC L   1       5.535 -10.349 -11.833  1.00  0.00    +0.0281  A
ATOM      8 C30  NAC L   1       6.613  -9.656 -11.306  1.00  0.00    -0.0358  A
ATOM      9 C31  NAC L   1       6.800  -9.651  -9.917  1.00  0.00    -0.0131  A
ATOM     10 C32  NAC L   1       7.872  -8.967  -9.314  1.00  0.00    -0.0305  A
ATOM     11 H55  NAC L   1       7.238  -9.702  -6.053  1.00  0.00    +0.0638  H
ATOM     12 H56  NAC L   1       5.364 -10.903  -7.077  1.00  0.00    +0.0625  H
ATOM     13 H57  NAC L   1       4.098 -11.578  -9.185  1.00  0.00    +0.0836  H
ATOM     14 H58  NAC L   1       5.360 -10.373 -12.905  1.00  0.00    +0.0830  H
ATOM     15 H59  NAC L   1       7.293  -9.129 -11.966  1.00  0.00    +0.0639  H
ATOM     16 H60  NAC L   1       8.573  -8.440  -9.955  1.00  0.00    +0.0644  H
ENDROOT
BRANCH 1 19
ATOM     17 C20  NAC L   1      10.300  -8.839  -6.828  1.00  0.00    +0.2344  C
ATOM     18 O21  NAC L   1      10.696  -9.982  -7.046  1.00  0.00    -0.2722 OA
ATOM     19 N22  NAC L   1       9.089  -8.311  -7.258  1.00  0.00    -0.3256  N
ATOM     20 H54  NAC L   1       8.975  -7.305  -7.135  1.00  0.00    +0.1686 HD
BRANCH 17 21
ATOM     21 C14  NAC L   1      11.153  -7.807  -6.079  1.00  0.00    +0.0803  C
ATOM     22 H47  NAC L   1      10.497  -6.984  -5.775  1.00  0.00    +0.0463  H
BRANCH 21 26
ATOM     23 C10  NAC L   1      12.950  -9.380  -2.438  1.00  0.00    -0.0103  A
ATOM     24 C11  NAC L   1      11.580  -9.538  -2.671  1.00  0.00    -0.0551  A
ATOM     25 C12  NAC L   1      10.992  -9.029  -3.831  1.00  0.00    -0.0574  A
ATOM     26 C13  NAC L   1      11.762  -8.355  -4.791  1.00  0.00    -0.0336  A
ATOM     27 C33  NAC L   1      13.139  -8.210  -4.557  1.00  0.00    -0.0574  A
ATOM     28 C34  NAC L   1      13.727  -8.719  -3.396  1.00  0.00    -0.0551  A
ATOM     29 H45  NAC L   1      10.958 -10.063  -1.947  1.00  0.00    +0.0621  H
ATOM     30 H46  NAC L   1       9.920  -9.156  -3.969  1.00  0.00    +0.0621  H
ATOM     31 H61  NAC L   1      13.773  -7.702  -5.281  1.00  0.00    +0.0621  H
ATOM     32 H62  NAC L   1      14.797  -8.602  -3.245  1.00  0.00    +0.0621  H
BRANCH 23 33
ATOM     33  C9  NAC L   1      13.585  -9.943  -1.193  1.00  0.00    +0.1179  C
ATOM     34 H43  NAC L   1      14.678  -9.985  -1.276  1.00  0.00    +0.0749  H
ATOM     35 H44  NAC L   1      13.255 -10.980  -1.052  1.00  0.00    +0.0749  H
BRANCH 33 36
ATOM     36  O8  NAC L   1      13.149  -9.195  -0.053  1.00  0.00    -0.4564 OA
BRANCH 36 37
ATOM     37  C6  NAC L   1      13.899  -8.111   0.254  1.00  0.00    +0.3398  C
ATOM     38  O7  NAC L   1      15.071  -7.926  -0.033  1.00  0.00    -0.2449 OA
BRANCH 37 43
ATOM     39  C1  NAC L   1      10.739  -4.245   3.185  1.00  0.00    -0.0397  C
ATOM     40  C2  NAC L   1      11.521  -5.258   2.401  1.00  0.00    -0.0502  A
ATOM     41  C3  NAC L   1      12.211  -6.281   3.057  1.00  0.00    -0.0580  A
ATOM     42  C4  NAC L   1      12.967  -7.197   2.327  1.00  0.00    -0.0473  A
ATOM     43  C5  NAC L   1      13.057  -7.096   0.931  1.00  0.00    +0.0619  A
ATOM     44 C35  NAC L   1      12.352  -6.084   0.250  1.00  0.00    -0.0362  A
ATOM     45 C36  NAC L   1      12.377  -5.939  -1.246  1.00  0.00    -0.0389  C
ATOM     46 C37  NAC L   1      11.607  -5.159   1.005  1.00  0.00    -0.0551  A
ATOM     47 H38  NAC L   1       9.877  -3.889   2.612  1.00  0.00    +0.0278  H
ATOM     48 H39  NAC L   1      10.353  -4.681   4.113  1.00  0.00    +0.0278  H
ATOM     49 H40  NAC L   1      11.377  -3.392   3.434  1.00  0.00    +0.0278  H
ATOM     50 H41  NAC L   1      12.166  -6.371   4.140  1.00  0.00    +0.0620  H
ATOM     51 H42  NAC L   1      13.498  -7.990   2.850  1.00  0.00    +0.0626  H
ATOM     52 H63  NAC L   1      11.527  -5.342  -1.599  1.00  0.00    +0.0278  H
ATOM     53 H64  NAC L   1      12.296  -6.915  -1.736  1.00  0.00    +0.0278  H
ATOM     54 H65  NAC L   1      13.296  -5.440  -1.565  1.00  0.00    +0.0278  H
ATOM     55 H66  NAC L   1      11.077  -4.355   0.497  1.00  0.00    +0.0623  H
ENDBRANCH 37 43
ENDBRANCH 36 37
ENDBRANCH 33 36
ENDBRANCH 23 33
ENDBRANCH 21 26
BRANCH 21 56
ATOM     56 C15  NAC L   1      12.234  -7.235  -7.017  1.00  0.00    +0.0334  C
ATOM     57 H48  NAC L   1      13.229  -7.346  -6.571  1.00  0.00    +0.0497  H
ATOM     58 H49  NAC L   1      12.066  -6.161  -7.159  1.00  0.00    +0.0497  H
BRANCH 56 59
ATOM     59 N16  NAC L   1      12.342  -7.815  -8.353  1.00  0.00    -0.3551  N
ATOM     60 C17  NAC L   1      11.668  -7.369  -9.464  1.00  0.00    +0.2179  C
ATOM     61 C18  NAC L   1      12.047  -8.083 -10.732  1.00  0.00    +0.0143  C
ATOM     62 O19  NAC L   1      10.786  -6.515  -9.432  1.00  0.00    -0.2736 OA
ATOM     63 H50  NAC L   1      13.032  -8.547  -8.476  1.00  0.00    +0.1623 HD
ATOM     64 H51  NAC L   1      11.457  -9.000 -10.818  1.00  0.00    +0.0325  H
ATOM     65 H52  NAC L   1      13.111  -8.335 -10.734  1.00  0.00    +0.0325  H
ATOM     66 H53  NAC L   1      11.842  -7.435 -11.589  1.00  0.00    +0.0325  H
ENDBRANCH 56 59
ENDBRANCH 21 56
ENDBRANCH 17 21
ENDBRANCH 1 19
TORSDOF 9
ENDMDL
