MODEL 1
REMARK VINA RESULT:    -7.449      0.000      0.000
REMARK INTER + INTRA:         -12.857
REMARK INTER:                 -11.368
REMARK INTRA:                  -1.489
REMARK UNBOUND:                -1.489
ROOT
ATOM      1 C23  NAC L   1      12.001  -5.789   1.831  1.00  0.00    +0.0423  A
ATOM      2 C24  NAC L   1      13.122  -4.974   2.021  1.00  0.00    -0.0377  A
ATOM      3 C25  NAC L   1      13.056  -3.853   2.854  1.00  0.00    -0.0506  A
ATOM      4 C26  NAC L   1      11.860  -3.532   3.515  1.00  0.00    +0.0004  A
ATOM      5 C27  NAC L   1      11.731  -2.427   4.360  1.00  0.00    +0.0353  A
ATOM      6 N28  NAC L   1      10.595  -2.089   5.013  1.00  0.00    -0.2626 NA
ATOM      7 C29  NAC L   1       9.530  -2.893   4.821  1.00  0.00    +0.0281  A
ATOM      8 C30  NAC L   1       9.544  -4.014   4.007  1.00  0.00    -0.0358  A
ATOM      9 C31  NAC L   1      10.728  -4.348   3.336  1.00  0.00    -0.0131  A
ATOM     10 C32  NAC L   1      10.812  -5.472   2.493  1.00  0.00    -0.0305  A
ATOM     11 H55  NAC L   1      14.061  -5.197   1.521  1.00  0.00    +0.0638  H
ATOM     12 H56  NAC L   1      13.942  -3.235   2.983  1.00  0.00    +0.0625  H
ATOM     13 H57  NAC L   1      12.567  -1.758   4.541  1.00  0.00    +0.0836  H
ATOM     14 H58  NAC L   1       8.629  -2.604   5.355  1.00  0.00    +0.0830  H
ATOM     15 H59  NAC L   1       8.647  -4.615   3.899  1.00  0.00    +0.0639  H
ATOM     16 H60  NAC L   1       9.930  -6.096   2.376  1.00  0.00    +0.0644  H
ENDROOT
BRANCH 1 19
ATOM     17 C20  NAC L   1      11.530  -7.133  -0.242  1.00  0.00    +0.2344  C
ATOM     18 O21  NAC L   1      10.783  -6.350  -0.823  1.00  0.00    -0.2722 OA
ATOM     19 N22  NAC L   1      12.156  -6.896   0.975  1.00  0.00    -0.3256  N
ATOM     20 H54  NAC L   1      12.867  -7.575   1.248  1.00  0.00    +0.1686 HD
BRANCH 17 21
ATOM     21 C14  NAC L   1      11.919  -8.491  -0.843  1.00  0.00    +0.0803  C
ATOM     22 H47  NAC L   1      11.212  -9.240  -0.471  1.00  0.00    +0.0463  H
BRANCH 21 26
ATOM     23 C10  NAC L   1      11.570  -8.656  -5.180  1.00  0.00    -0.0103  A
ATOM     24 C11  NAC L   1      12.573  -7.883  -4.584  1.00  0.00    -0.0551  A
ATOM     25 C12  NAC L   1      12.687  -7.816  -3.194  1.00  0.00    -0.0574  A
ATOM     26 C13  NAC L   1      11.806  -8.527  -2.365  1.00  0.00    -0.0336  A
ATOM     27 C33  NAC L   1      10.810  -9.311  -2.969  1.00  0.00    -0.0574  A
ATOM     28 C34  NAC L   1      10.695  -9.377  -4.360  1.00  0.00    -0.0551  A
ATOM     29 H45  NAC L   1      13.276  -7.326  -5.202  1.00  0.00    +0.0621  H
ATOM     30 H46  NAC L   1      13.468  -7.189  -2.767  1.00  0.00    +0.0621  H
ATOM     31 H61  NAC L   1      10.112  -9.884  -2.361  1.00  0.00    +0.0621  H
ATOM     32 H62  NAC L   1       9.921 -10.000  -4.802  1.00  0.00    +0.0621  H
BRANCH 23 33
ATOM     33  C9  NAC L   1      11.459  -8.739  -6.680  1.00  0.00    +0.1179  C
ATOM     34 H43  NAC L   1      12.177  -9.453  -7.103  1.00  0.00    +0.0749  H
ATOM     35 H44  NAC L   1      11.709  -7.766  -7.120  1.00  0.00    +0.0749  H
BRANCH 33 36
ATOM     36  O8  NAC L   1      10.107  -9.041  -7.044  1.00  0.00    -0.4564 OA
BRANCH 36 37
ATOM     37  C6  NAC L   1       9.395  -8.007  -7.548  1.00  0.00    +0.3398  C
ATOM     38  O7  NAC L   1       9.660  -6.819  -7.454  1.00  0.00    -0.2449 OA
BRANCH 37 43
ATOM     39  C1  NAC L   1       5.109  -9.965 -10.914  1.00  0.00    -0.0397  C
ATOM     40  C2  NAC L   1       6.189  -9.435 -10.017  1.00  0.00    -0.0502  A
ATOM     41  C3  NAC L   1       7.261  -8.715 -10.549  1.00  0.00    -0.0580  A
ATOM     42  C4  NAC L   1       8.283  -8.257  -9.717  1.00  0.00    -0.0473  A
ATOM     43  C5  NAC L   1       8.253  -8.526  -8.340  1.00  0.00    +0.0619  A
ATOM     44 C35  NAC L   1       7.171  -9.232  -7.781  1.00  0.00    -0.0362  A
ATOM     45 C36  NAC L   1       7.060  -9.524  -6.311  1.00  0.00    -0.0389  C
ATOM     46 C37  NAC L   1       6.158  -9.699  -8.639  1.00  0.00    -0.0551  A
ATOM     47 H38  NAC L   1       4.149 -10.001 -10.389  1.00  0.00    +0.0278  H
ATOM     48 H39  NAC L   1       4.976  -9.320 -11.789  1.00  0.00    +0.0278  H
ATOM     49 H40  NAC L   1       5.366 -10.973 -11.253  1.00  0.00    +0.0278  H
ATOM     50 H41  NAC L   1       7.311  -8.507 -11.616  1.00  0.00    +0.0620  H
ATOM     51 H42  NAC L   1       9.111  -7.696 -10.145  1.00  0.00    +0.0626  H
ATOM     52 H63  NAC L   1       6.026  -9.761  -6.032  1.00  0.00    +0.0278  H
ATOM     53 H64  NAC L   1       7.350  -8.652  -5.715  1.00  0.00    +0.0278  H
ATOM     54 H65  NAC L   1       7.687 -10.378  -6.044  1.00  0.00    +0.0278  H
ATOM     55 H66  NAC L   1       5.327 -10.270  -8.228  1.00  0.00    +0.0623  H
ENDBRANCH 37 43
ENDBRANCH 36 37
ENDBRANCH 33 36
ENDBRANCH 23 33
ENDBRANCH 21 26
BRANCH 21 56
ATOM     56 C15  NAC L   1      13.330  -8.891  -0.371  1.00  0.00    +0.0334  C
ATOM     57 H48  NAC L   1      13.768  -8.100   0.250  1.00  0.00    +0.0497  H
ATOM     58 H49  NAC L   1      13.988  -9.012  -1.241  1.00  0.00    +0.0497  H
BRANCH 56 59
ATOM     59 N16  NAC L   1      13.458 -10.115   0.414  1.00  0.00    -0.3551  N
ATOM     60 C17  NAC L   1      13.432 -10.179   1.786  1.00  0.00    +0.2179  C
ATOM     61 C18  NAC L   1      13.479 -11.581   2.330  1.00  0.00    +0.0143  C
ATOM     62 O19  NAC L   1      13.437  -9.192   2.517  1.00  0.00    -0.2736 OA
ATOM     63 H50  NAC L   1      13.484 -10.986  -0.103  1.00  0.00    +0.1623 HD
ATOM     64 H51  NAC L   1      14.522 -11.905   2.397  1.00  0.00    +0.0325  H
ATOM     65 H52  NAC L   1      12.926 -12.268   1.685  1.00  0.00    +0.0325  H
ATOM     66 H53  NAC L   1      13.027 -11.599   3.326  1.00  0.00    +0.0325  H
ENDBRANCH 56 59
ENDBRANCH 21 56
ENDBRANCH 17 21
ENDBRANCH 1 19
TORSDOF 9
ENDMDL
MODEL 2
REMARK VINA RESULT:    -7.307      1.826      2.876
REMARK INTER + INTRA:         -12.641
REMARK INTER:                 -11.620
REMARK INTRA:                  -1.021
REMARK UNBOUND:                -1.489
ROOT
ATOM      1 C23  NAC L   1      11.613  -5.370   2.622  1.00  0.00    +0.0423  A
ATOM      2 C24  NAC L   1      12.007  -4.045   2.839  1.00  0.00    -0.0377  A
ATOM      3 C25  NAC L   1      11.336  -3.244   3.766  1.00  0.00    -0.0506  A
ATOM      4 C26  NAC L   1      10.255  -3.762   4.499  1.00  0.00    +0.0004  A
ATOM      5 C27  NAC L   1       9.545  -3.013   5.440  1.00  0.00    +0.0353  A
ATOM      6 N28  NAC L   1       8.500  -3.480   6.162  1.00  0.00    -0.2626 NA
ATOM      7 C29  NAC L   1       8.143  -4.761   5.942  1.00  0.00    +0.0281  A
ATOM      8 C30  NAC L   1       8.776  -5.596   5.035  1.00  0.00    -0.0358  A
ATOM      9 C31  NAC L   1       9.855  -5.095   4.293  1.00  0.00    -0.0131  A
ATOM     10 C32  NAC L   1      10.541  -5.887   3.354  1.00  0.00    -0.0305  A
ATOM     11 H55  NAC L   1      12.839  -3.616   2.286  1.00  0.00    +0.0638  H
ATOM     12 H56  NAC L   1      11.661  -2.217   3.915  1.00  0.00    +0.0625  H
ATOM     13 H57  NAC L   1       9.804  -1.978   5.646  1.00  0.00    +0.0836  H
ATOM     14 H58  NAC L   1       7.304  -5.117   6.533  1.00  0.00    +0.0830  H
ATOM     15 H59  NAC L   1       8.434  -6.618   4.910  1.00  0.00    +0.0639  H
ATOM     16 H60  NAC L   1      10.224  -6.917   3.217  1.00  0.00    +0.0644  H
ENDROOT
BRANCH 1 19
ATOM     17 C20  NAC L   1      12.177  -6.126   0.290  1.00  0.00    +0.2344  C
ATOM     18 O21  NAC L   1      11.394  -5.421  -0.343  1.00  0.00    -0.2722 OA
ATOM     19 N22  NAC L   1      12.344  -6.104   1.669  1.00  0.00    -0.3256  N
ATOM     20 H54  NAC L   1      13.140  -6.632   2.027  1.00  0.00    +0.1686 HD
BRANCH 17 21
ATOM     21 C14  NAC L   1      13.135  -7.107  -0.399  1.00  0.00    +0.0803  C
ATOM     22 H47  NAC L   1      13.344  -7.923   0.302  1.00  0.00    +0.0463  H
BRANCH 21 26
ATOM     23 C10  NAC L   1      11.435  -8.924  -3.972  1.00  0.00    -0.0103  A
ATOM     24 C11  NAC L   1      10.899  -9.214  -2.712  1.00  0.00    -0.0551  A
ATOM     25 C12  NAC L   1      11.443  -8.643  -1.559  1.00  0.00    -0.0574  A
ATOM     26 C13  NAC L   1      12.533  -7.762  -1.638  1.00  0.00    -0.0336  A
ATOM     27 C33  NAC L   1      13.058  -7.466  -2.906  1.00  0.00    -0.0574  A
ATOM     28 C34  NAC L   1      12.513  -8.037  -4.059  1.00  0.00    -0.0551  A
ATOM     29 H45  NAC L   1      10.048  -9.889  -2.620  1.00  0.00    +0.0621  H
ATOM     30 H46  NAC L   1      11.011  -8.907  -0.596  1.00  0.00    +0.0621  H
ATOM     31 H61  NAC L   1      13.897  -6.781  -3.011  1.00  0.00    +0.0621  H
ATOM     32 H62  NAC L   1      12.933  -7.781  -5.029  1.00  0.00    +0.0621  H
BRANCH 23 33
ATOM     33  C9  NAC L   1      10.836  -9.528  -5.215  1.00  0.00    +0.1179  C
ATOM     34 H43  NAC L   1      10.540 -10.573  -5.058  1.00  0.00    +0.0749  H
ATOM     35 H44  NAC L   1      11.588  -9.545  -6.012  1.00  0.00    +0.0749  H
BRANCH 33 36
ATOM     36  O8  NAC L   1       9.749  -8.713  -5.667  1.00  0.00    -0.4564 OA
BRANCH 36 37
ATOM     37  C6  NAC L   1       9.940  -8.093  -6.854  1.00  0.00    +0.3398  C
ATOM     38  O7  NAC L   1      10.909  -7.428  -7.186  1.00  0.00    -0.2449 OA
BRANCH 37 43
ATOM     39  C1  NAC L   1       5.380  -9.415 -10.169  1.00  0.00    -0.0397  C
ATOM     40  C2  NAC L   1       6.589  -9.095  -9.338  1.00  0.00    -0.0502  A
ATOM     41  C3  NAC L   1       6.623  -9.429  -7.982  1.00  0.00    -0.0580  A
ATOM     42  C4  NAC L   1       7.733  -9.096  -7.205  1.00  0.00    -0.0473  A
ATOM     43  C5  NAC L   1       8.819  -8.411  -7.771  1.00  0.00    +0.0619  A
ATOM     44 C35  NAC L   1       8.811  -8.084  -9.140  1.00  0.00    -0.0362  A
ATOM     45 C36  NAC L   1       9.955  -7.382  -9.817  1.00  0.00    -0.0389  C
ATOM     46 C37  NAC L   1       7.676  -8.414  -9.904  1.00  0.00    -0.0551  A
ATOM     47 H38  NAC L   1       5.662  -9.609 -11.208  1.00  0.00    +0.0278  H
ATOM     48 H39  NAC L   1       4.875 -10.312  -9.796  1.00  0.00    +0.0278  H
ATOM     49 H40  NAC L   1       4.677  -8.576 -10.143  1.00  0.00    +0.0278  H
ATOM     50 H41  NAC L   1       5.787  -9.949  -7.520  1.00  0.00    +0.0620  H
ATOM     51 H42  NAC L   1       7.748  -9.364  -6.151  1.00  0.00    +0.0626  H
ATOM     52 H63  NAC L   1       9.919  -7.523 -10.904  1.00  0.00    +0.0278  H
ATOM     53 H64  NAC L   1      10.917  -7.786  -9.484  1.00  0.00    +0.0278  H
ATOM     54 H65  NAC L   1       9.916  -6.308  -9.614  1.00  0.00    +0.0278  H
ATOM     55 H66  NAC L   1       7.642  -8.145 -10.959  1.00  0.00    +0.0623  H
ENDBRANCH 37 43
ENDBRANCH 36 37
ENDBRANCH 33 36
ENDBRANCH 23 33
ENDBRANCH 21 26
BRANCH 21 56
ATOM     56 C15  NAC L   1      14.467  -6.402  -0.722  1.00  0.00    +0.0334  C
ATOM     57 H48  NAC L   1      14.649  -6.400  -1.804  1.00  0.00    +0.0497  H
ATOM     58 H49  NAC L   1      15.296  -6.953  -0.261  1.00  0.00    +0.0497  H
BRANCH 56 59
ATOM     59 N16  NAC L   1      14.614  -5.011  -0.303  1.00  0.00    -0.3551  N
ATOM     60 C17  NAC L   1      15.184  -4.598   0.876  1.00  0.00    +0.2179  C
ATOM     61 C18  NAC L   1      15.300  -3.103   1.004  1.00  0.00    +0.0143  C
ATOM     62 O19  NAC L   1      15.513  -5.360   1.781  1.00  0.00    -0.2736 OA
ATOM     63 H50  NAC L   1      14.346  -4.303  -0.978  1.00  0.00    +0.1623 HD
ATOM     64 H51  NAC L   1      14.358  -2.702   1.391  1.00  0.00    +0.0325  H
ATOM     65 H52  NAC L   1      15.519  -2.645   0.036  1.00  0.00    +0.0325  H
ATOM     66 H53  NAC L   1      16.111  -2.860   1.696  1.00  0.00    +0.0325  H
ENDBRANCH 56 59
ENDBRANCH 21 56
ENDBRANCH 17 21
ENDBRANCH 1 19
TORSDOF 9
ENDMDL
MODEL 3
REMARK VINA RESULT:    -7.155      3.118     10.454
REMARK INTER + INTRA:         -12.409
REMARK INTER:                 -10.905
REMARK INTRA:                  -1.504
REMARK UNBOUND:                -1.489
ROOT
ATOM      1 C23  NAC L   1      10.345  -8.341  -6.367  1.00  0.00    +0.0423  A
ATOM      2 C24  NAC L   1      11.078  -7.578  -7.283  1.00  0.00    -0.0377  A
ATOM      3 C25  NAC L   1      10.598  -7.362  -8.577  1.00  0.00    -0.0506  A
ATOM      4 C26  NAC L   1       9.367  -7.907  -8.975  1.00  0.00    +0.0004  A
ATOM      5 C27  NAC L   1       8.833  -7.727 -10.254  1.00  0.00    +0.0353  A
ATOM      6 N28  NAC L   1       7.651  -8.236 -10.671  1.00  0.00    -0.2626 NA
ATOM      7 C29  NAC L   1       6.958  -8.961  -9.769  1.00  0.00    +0.0281  A
ATOM      8 C30  NAC L   1       7.390  -9.203  -8.475  1.00  0.00    -0.0358  A
ATOM      9 C31  NAC L   1       8.618  -8.670  -8.061  1.00  0.00    -0.0131  A
ATOM     10 C32  NAC L   1       9.117  -8.879  -6.762  1.00  0.00    -0.0305  A
ATOM     11 H55  NAC L   1      12.035  -7.145  -7.003  1.00  0.00    +0.0638  H
ATOM     12 H56  NAC L   1      11.188  -6.767  -9.270  1.00  0.00    +0.0625  H
ATOM     13 H57  NAC L   1       9.360  -7.147 -11.006  1.00  0.00    +0.0836  H
ATOM     14 H58  NAC L   1       6.011  -9.359 -10.123  1.00  0.00    +0.0830  H
ATOM     15 H59  NAC L   1       6.779  -9.797  -7.803  1.00  0.00    +0.0639  H
ATOM     16 H60  NAC L   1       8.520  -9.462  -6.066  1.00  0.00    +0.0644  H
ENDROOT
BRANCH 1 19
ATOM     17 C20  NAC L   1      12.148  -8.089  -4.631  1.00  0.00    +0.2344  C
ATOM     18 O21  NAC L   1      12.948  -7.411  -5.271  1.00  0.00    -0.2722 OA
ATOM     19 N22  NAC L   1      10.904  -8.508  -5.086  1.00  0.00    -0.3256  N
ATOM     20 H54  NAC L   1      10.293  -8.927  -4.384  1.00  0.00    +0.1686 HD
BRANCH 17 21
ATOM     21 C14  NAC L   1      12.415  -8.520  -3.182  1.00  0.00    +0.0803  C
ATOM     22 H47  NAC L   1      13.128  -9.352  -3.203  1.00  0.00    +0.0463  H
BRANCH 21 26
ATOM     23 C10  NAC L   1      14.338  -5.445  -0.773  1.00  0.00    -0.0103  A
ATOM     24 C11  NAC L   1      12.959  -5.398  -1.002  1.00  0.00    -0.0551  A
ATOM     25 C12  NAC L   1      12.334  -6.375  -1.781  1.00  0.00    -0.0574  A
ATOM     26 C13  NAC L   1      13.073  -7.426  -2.345  1.00  0.00    -0.0336  A
ATOM     27 C33  NAC L   1      14.455  -7.474  -2.101  1.00  0.00    -0.0574  A
ATOM     28 C34  NAC L   1      15.079  -6.497  -1.322  1.00  0.00    -0.0551  A
ATOM     29 H45  NAC L   1      12.358  -4.597  -0.572  1.00  0.00    +0.0621  H
ATOM     30 H46  NAC L   1      11.262  -6.294  -1.953  1.00  0.00    +0.0621  H
ATOM     31 H61  NAC L   1      15.062  -8.279  -2.512  1.00  0.00    +0.0621  H
ATOM     32 H62  NAC L   1      16.150  -6.565  -1.140  1.00  0.00    +0.0621  H
BRANCH 23 33
ATOM     33  C9  NAC L   1      15.007  -4.399   0.081  1.00  0.00    +0.1179  C
ATOM     34 H43  NAC L   1      15.592  -3.693  -0.522  1.00  0.00    +0.0749  H
ATOM     35 H44  NAC L   1      15.725  -4.882   0.755  1.00  0.00    +0.0749  H
BRANCH 33 36
ATOM     36  O8  NAC L   1      14.026  -3.746   0.893  1.00  0.00    -0.4564 OA
BRANCH 36 37
ATOM     37  C6  NAC L   1      14.144  -3.948   2.226  1.00  0.00    +0.3398  C
ATOM     38  O7  NAC L   1      15.144  -3.785   2.906  1.00  0.00    -0.2449 OA
BRANCH 37 43
ATOM     39  C1  NAC L   1       8.919  -5.091   4.444  1.00  0.00    -0.0397  C
ATOM     40  C2  NAC L   1      10.292  -4.824   3.899  1.00  0.00    -0.0502  A
ATOM     41  C3  NAC L   1      10.790  -3.520   3.847  1.00  0.00    -0.0580  A
ATOM     42  C4  NAC L   1      12.051  -3.271   3.304  1.00  0.00    -0.0473  A
ATOM     43  C5  NAC L   1      12.826  -4.323   2.793  1.00  0.00    +0.0619  A
ATOM     44 C35  NAC L   1      12.349  -5.647   2.855  1.00  0.00    -0.0362  A
ATOM     45 C36  NAC L   1      13.142  -6.823   2.357  1.00  0.00    -0.0389  C
ATOM     46 C37  NAC L   1      11.069  -5.875   3.391  1.00  0.00    -0.0551  A
ATOM     47 H38  NAC L   1       8.872  -6.078   4.915  1.00  0.00    +0.0278  H
ATOM     48 H39  NAC L   1       8.650  -4.354   5.208  1.00  0.00    +0.0278  H
ATOM     49 H40  NAC L   1       8.182  -5.048   3.636  1.00  0.00    +0.0278  H
ATOM     50 H41  NAC L   1      10.201  -2.688   4.226  1.00  0.00    +0.0620  H
ATOM     51 H42  NAC L   1      12.428  -2.251   3.272  1.00  0.00    +0.0626  H
ATOM     52 H63  NAC L   1      12.775  -7.760   2.792  1.00  0.00    +0.0278  H
ATOM     53 H64  NAC L   1      14.195  -6.738   2.647  1.00  0.00    +0.0278  H
ATOM     54 H65  NAC L   1      13.063  -6.901   1.269  1.00  0.00    +0.0278  H
ATOM     55 H66  NAC L   1      10.673  -6.890   3.424  1.00  0.00    +0.0623  H
ENDBRANCH 37 43
ENDBRANCH 36 37
ENDBRANCH 33 36
ENDBRANCH 23 33
ENDBRANCH 21 26
BRANCH 21 56
ATOM     56 C15  NAC L   1      11.112  -9.023  -2.533  1.00  0.00    +0.0334  C
ATOM     57 H48  NAC L   1      10.328  -9.151  -3.290  1.00  0.00    +0.0497  H
ATOM     58 H49  NAC L   1      10.744  -8.275  -1.820  1.00  0.00    +0.0497  H
BRANCH 56 59
ATOM     59 N16  NAC L   1      11.163 -10.291  -1.811  1.00  0.00    -0.3551  N
ATOM     60 C17  NAC L   1      11.642 -10.453  -0.534  1.00  0.00    +0.2179  C
ATOM     61 C18  NAC L   1      11.480 -11.848   0.004  1.00  0.00    +0.0143  C
ATOM     62 O19  NAC L   1      12.214  -9.570   0.099  1.00  0.00    -0.2736 OA
ATOM     63 H50  NAC L   1      10.734 -11.090  -2.264  1.00  0.00    +0.1623 HD
ATOM     64 H51  NAC L   1      12.325 -12.460  -0.325  1.00  0.00    +0.0325  H
ATOM     65 H52  NAC L   1      10.548 -12.296  -0.351  1.00  0.00    +0.0325  H
ATOM     66 H53  NAC L   1      11.456 -11.816   1.096  1.00  0.00    +0.0325  H
ENDBRANCH 56 59
ENDBRANCH 21 56
ENDBRANCH 17 21
ENDBRANCH 1 19
TORSDOF 9
ENDMDL
MODEL 4
REMARK VINA RESULT:    -7.082      1.974      3.010
REMARK INTER + INTRA:         -12.297
REMARK INTER:                 -11.223
REMARK INTRA:                  -1.074
REMARK UNBOUND:                -1.489
ROOT
ATOM      1 C23  NAC L   1      11.628  -5.306   2.873  1.00  0.00    +0.0423  A
ATOM      2 C24  NAC L   1      12.055  -4.000   3.137  1.00  0.00    -0.0377  A
ATOM      3 C25  NAC L   1      11.387  -3.207   4.073  1.00  0.00    -0.0506  A
ATOM      4 C26  NAC L   1      10.276  -3.714   4.767  1.00  0.00    +0.0004  A
ATOM      5 C27  NAC L   1       9.566  -2.972   5.714  1.00  0.00    +0.0353  A
ATOM      6 N28  NAC L   1       8.494  -3.429   6.401  1.00  0.00    -0.2626 NA
ATOM      7 C29  NAC L   1       8.105  -4.693   6.135  1.00  0.00    +0.0281  A
ATOM      8 C30  NAC L   1       8.734  -5.519   5.217  1.00  0.00    -0.0358  A
ATOM      9 C31  NAC L   1       9.842  -5.028   4.513  1.00  0.00    -0.0131  A
ATOM     10 C32  NAC L   1      10.526  -5.813   3.566  1.00  0.00    -0.0305  A
ATOM     11 H55  NAC L   1      12.911  -3.580   2.614  1.00  0.00    +0.0638  H
ATOM     12 H56  NAC L   1      11.738  -2.194   4.259  1.00  0.00    +0.0625  H
ATOM     13 H57  NAC L   1       9.851  -1.952   5.956  1.00  0.00    +0.0836  H
ATOM     14 H58  NAC L   1       7.243  -5.040   6.698  1.00  0.00    +0.0830  H
ATOM     15 H59  NAC L   1       8.365  -6.526   5.055  1.00  0.00    +0.0639  H
ATOM     16 H60  NAC L   1      10.183  -6.829   3.392  1.00  0.00    +0.0644  H
ENDROOT
BRANCH 1 19
ATOM     17 C20  NAC L   1      12.241  -5.989   0.531  1.00  0.00    +0.2344  C
ATOM     18 O21  NAC L   1      11.516  -5.221  -0.098  1.00  0.00    -0.2722 OA
ATOM     19 N22  NAC L   1      12.359  -6.033   1.914  1.00  0.00    -0.3256  N
ATOM     20 H54  NAC L   1      13.116  -6.613   2.276  1.00  0.00    +0.1686 HD
BRANCH 17 21
ATOM     21 C14  NAC L   1      13.178  -6.984  -0.167  1.00  0.00    +0.0803  C
ATOM     22 H47  NAC L   1      13.529  -7.700   0.584  1.00  0.00    +0.0463  H
BRANCH 21 26
ATOM     23 C10  NAC L   1      11.177  -9.292  -3.270  1.00  0.00    -0.0103  A
ATOM     24 C11  NAC L   1      11.072  -9.678  -1.929  1.00  0.00    -0.0551  A
ATOM     25 C12  NAC L   1      11.718  -8.949  -0.927  1.00  0.00    -0.0574  A
ATOM     26 C13  NAC L   1      12.479  -7.813  -1.241  1.00  0.00    -0.0336  A
ATOM     27 C33  NAC L   1      12.569  -7.424  -2.588  1.00  0.00    -0.0574  A
ATOM     28 C34  NAC L   1      11.924  -8.153  -3.589  1.00  0.00    -0.0551  A
ATOM     29 H45  NAC L   1      10.482 -10.551  -1.654  1.00  0.00    +0.0621  H
ATOM     30 H46  NAC L   1      11.629  -9.290   0.102  1.00  0.00    +0.0621  H
ATOM     31 H61  NAC L   1      13.143  -6.543  -2.872  1.00  0.00    +0.0621  H
ATOM     32 H62  NAC L   1      12.002  -7.823  -4.623  1.00  0.00    +0.0621  H
BRANCH 23 33
ATOM     33  C9  NAC L   1      10.466 -10.070  -4.347  1.00  0.00    +0.1179  C
ATOM     34 H43  NAC L   1       9.766 -10.803  -3.926  1.00  0.00    +0.0749  H
ATOM     35 H44  NAC L   1      11.198 -10.650  -4.922  1.00  0.00    +0.0749  H
BRANCH 33 36
ATOM     36  O8  NAC L   1       9.830  -9.161  -5.253  1.00  0.00    -0.4564 OA
BRANCH 36 37
ATOM     37  C6  NAC L   1       8.565  -9.484  -5.609  1.00  0.00    +0.3398  C
ATOM     38  O7  NAC L   1       7.684  -9.909  -4.879  1.00  0.00    -0.2449 OA
BRANCH 37 43
ATOM     39  C1  NAC L   1       8.046  -8.127 -11.214  1.00  0.00    -0.0397  C
ATOM     40  C2  NAC L   1       8.142  -8.456  -9.753  1.00  0.00    -0.0502  A
ATOM     41  C3  NAC L   1       9.277  -8.101  -9.021  1.00  0.00    -0.0580  A
ATOM     42  C4  NAC L   1       9.379  -8.443  -7.673  1.00  0.00    -0.0473  A
ATOM     43  C5  NAC L   1       8.351  -9.158  -7.040  1.00  0.00    +0.0619  A
ATOM     44 C35  NAC L   1       7.190  -9.508  -7.756  1.00  0.00    -0.0362  A
ATOM     45 C36  NAC L   1       6.037 -10.244  -7.131  1.00  0.00    -0.0389  C
ATOM     46 C37  NAC L   1       7.113  -9.168  -9.119  1.00  0.00    -0.0551  A
ATOM     47 H38  NAC L   1       7.006  -7.954 -11.508  1.00  0.00    +0.0278  H
ATOM     48 H39  NAC L   1       8.605  -7.214 -11.447  1.00  0.00    +0.0278  H
ATOM     49 H40  NAC L   1       8.451  -8.950 -11.810  1.00  0.00    +0.0278  H
ATOM     50 H41  NAC L   1      10.092  -7.558  -9.494  1.00  0.00    +0.0620  H
ATOM     51 H42  NAC L   1      10.268  -8.159  -7.113  1.00  0.00    +0.0626  H
ATOM     52 H63  NAC L   1       5.122 -10.119  -7.722  1.00  0.00    +0.0278  H
ATOM     53 H64  NAC L   1       5.817  -9.852  -6.132  1.00  0.00    +0.0278  H
ATOM     54 H65  NAC L   1       6.257 -11.313  -7.069  1.00  0.00    +0.0278  H
ATOM     55 H66  NAC L   1       6.234  -9.453  -9.695  1.00  0.00    +0.0623  H
ENDBRANCH 37 43
ENDBRANCH 36 37
ENDBRANCH 33 36
ENDBRANCH 23 33
ENDBRANCH 21 26
BRANCH 21 56
ATOM     56 C15  NAC L   1      14.405  -6.244  -0.733  1.00  0.00    +0.0334  C
ATOM     57 H48  NAC L   1      14.337  -6.162  -1.825  1.00  0.00    +0.0497  H
ATOM     58 H49  NAC L   1      15.314  -6.818  -0.514  1.00  0.00    +0.0497  H
BRANCH 56 59
ATOM     59 N16  NAC L   1      14.653  -4.886  -0.258  1.00  0.00    -0.3551  N
ATOM     60 C17  NAC L   1      15.285  -4.564   0.918  1.00  0.00    +0.2179  C
ATOM     61 C18  NAC L   1      15.500  -3.087   1.108  1.00  0.00    +0.0143  C
ATOM     62 O19  NAC L   1      15.594  -5.386   1.776  1.00  0.00    -0.2736 OA
ATOM     63 H50  NAC L   1      14.409  -4.132  -0.890  1.00  0.00    +0.1623 HD
ATOM     64 H51  NAC L   1      14.598  -2.647   1.545  1.00  0.00    +0.0325  H
ATOM     65 H52  NAC L   1      15.716  -2.599   0.155  1.00  0.00    +0.0325  H
ATOM     66 H53  NAC L   1      16.346  -2.927   1.781  1.00  0.00    +0.0325  H
ENDBRANCH 56 59
ENDBRANCH 21 56
ENDBRANCH 17 21
ENDBRANCH 1 19
TORSDOF 9
ENDMDL
MODEL 5
REMARK VINA RESULT:    -7.057      2.998     10.030
REMARK INTER + INTRA:         -12.259
REMARK INTER:                 -10.280
REMARK INTRA:                  -1.980
REMARK UNBOUND:                -1.489
ROOT
ATOM      1 C23  NAC L   1      11.080  -8.666  -5.324  1.00  0.00    +0.0423  A
ATOM      2 C24  NAC L   1      11.008  -7.844  -6.454  1.00  0.00    -0.0377  A
ATOM      3 C25  NAC L   1       9.911  -7.913  -7.317  1.00  0.00    -0.0506  A
ATOM      4 C26  NAC L   1       8.861  -8.808  -7.057  1.00  0.00    +0.0004  A
ATOM      5 C27  NAC L   1       7.738  -8.924  -7.880  1.00  0.00    +0.0353  A
ATOM      6 N28  NAC L   1       6.709  -9.774  -7.660  1.00  0.00    -0.2626 NA
ATOM      7 C29  NAC L   1       6.797 -10.551  -6.561  1.00  0.00    +0.0281  A
ATOM      8 C30  NAC L   1       7.862 -10.521  -5.676  1.00  0.00    -0.0358  A
ATOM      9 C31  NAC L   1       8.921  -9.635  -5.920  1.00  0.00    -0.0131  A
ATOM     10 C32  NAC L   1      10.034  -9.554  -5.063  1.00  0.00    -0.0305  A
ATOM     11 H55  NAC L   1      11.807  -7.142  -6.681  1.00  0.00    +0.0638  H
ATOM     12 H56  NAC L   1       9.879  -7.264  -8.189  1.00  0.00    +0.0625  H
ATOM     13 H57  NAC L   1       7.631  -8.314  -8.773  1.00  0.00    +0.0836  H
ATOM     14 H58  NAC L   1       5.960 -11.225  -6.402  1.00  0.00    +0.0830  H
ATOM     15 H59  NAC L   1       7.865 -11.176  -4.811  1.00  0.00    +0.0639  H
ATOM     16 H60  NAC L   1      10.056 -10.193  -4.184  1.00  0.00    +0.0644  H
ENDROOT
BRANCH 1 19
ATOM     17 C20  NAC L   1      12.310  -7.969  -3.244  1.00  0.00    +0.2344  C
ATOM     18 O21  NAC L   1      11.361  -7.564  -2.577  1.00  0.00    -0.2722 OA
ATOM     19 N22  NAC L   1      12.221  -8.532  -4.511  1.00  0.00    -0.3256  N
ATOM     20 H54  NAC L   1      13.076  -8.962  -4.866  1.00  0.00    +0.1686 HD
BRANCH 17 21
ATOM     21 C14  NAC L   1      13.750  -7.953  -2.712  1.00  0.00    +0.0803  C
ATOM     22 H47  NAC L   1      14.426  -7.864  -3.570  1.00  0.00    +0.0463  H
BRANCH 21 26
ATOM     23 C10  NAC L   1      14.636  -4.561  -0.129  1.00  0.00    -0.0103  A
ATOM     24 C11  NAC L   1      13.376  -4.680  -0.726  1.00  0.00    -0.0551  A
ATOM     25 C12  NAC L   1      13.085  -5.760  -1.564  1.00  0.00    -0.0574  A
ATOM     26 C13  NAC L   1      14.045  -6.751  -1.819  1.00  0.00    -0.0336  A
ATOM     27 C33  NAC L   1      15.303  -6.633  -1.206  1.00  0.00    -0.0574  A
ATOM     28 C34  NAC L   1      15.594  -5.553  -0.369  1.00  0.00    -0.0551  A
ATOM     29 H45  NAC L   1      12.608  -3.930  -0.541  1.00  0.00    +0.0621  H
ATOM     30 H46  NAC L   1      12.101  -5.808  -2.025  1.00  0.00    +0.0621  H
ATOM     31 H61  NAC L   1      16.072  -7.385  -1.371  1.00  0.00    +0.0621  H
ATOM     32 H62  NAC L   1      16.573  -5.491   0.101  1.00  0.00    +0.0621  H
BRANCH 23 33
ATOM     33  C9  NAC L   1      14.942  -3.405   0.787  1.00  0.00    +0.1179  C
ATOM     34 H43  NAC L   1      15.299  -2.528   0.231  1.00  0.00    +0.0749  H
ATOM     35 H44  NAC L   1      15.757  -3.682   1.466  1.00  0.00    +0.0749  H
BRANCH 33 36
ATOM     36  O8  NAC L   1      13.793  -3.114   1.590  1.00  0.00    -0.4564 OA
BRANCH 36 37
ATOM     37  C6  NAC L   1      13.765  -3.711   2.804  1.00  0.00    +0.3398  C
ATOM     38  O7  NAC L   1      14.648  -3.701   3.647  1.00  0.00    -0.2449 OA
BRANCH 37 43
ATOM     39  C1  NAC L   1       8.444  -5.818   3.689  1.00  0.00    -0.0397  C
ATOM     40  C2  NAC L   1       9.839  -5.301   3.490  1.00  0.00    -0.0502  A
ATOM     41  C3  NAC L   1      10.126  -3.947   3.677  1.00  0.00    -0.0580  A
ATOM     42  C4  NAC L   1      11.415  -3.464   3.454  1.00  0.00    -0.0473  A
ATOM     43  C5  NAC L   1      12.435  -4.328   3.026  1.00  0.00    +0.0619  A
ATOM     44 C35  NAC L   1      12.171  -5.700   2.852  1.00  0.00    -0.0362  A
ATOM     45 C36  NAC L   1      13.224  -6.686   2.429  1.00  0.00    -0.0389  C
ATOM     46 C37  NAC L   1      10.860  -6.165   3.067  1.00  0.00    -0.0551  A
ATOM     47 H38  NAC L   1       8.458  -6.855   4.040  1.00  0.00    +0.0278  H
ATOM     48 H39  NAC L   1       7.912  -5.228   4.443  1.00  0.00    +0.0278  H
ATOM     49 H40  NAC L   1       7.890  -5.770   2.747  1.00  0.00    +0.0278  H
ATOM     50 H41  NAC L   1       9.347  -3.257   3.995  1.00  0.00    +0.0620  H
ATOM     51 H42  NAC L   1      11.625  -2.408   3.605  1.00  0.00    +0.0626  H
ATOM     52 H63  NAC L   1      12.929  -7.712   2.679  1.00  0.00    +0.0278  H
ATOM     53 H64  NAC L   1      14.169  -6.499   2.952  1.00  0.00    +0.0278  H
ATOM     54 H65  NAC L   1      13.383  -6.633   1.349  1.00  0.00    +0.0278  H
ATOM     55 H66  NAC L   1      10.632  -7.219   2.912  1.00  0.00    +0.0623  H
ENDBRANCH 37 43
ENDBRANCH 36 37
ENDBRANCH 33 36
ENDBRANCH 23 33
ENDBRANCH 21 26
BRANCH 21 56
ATOM     56 C15  NAC L   1      14.061  -9.281  -1.994  1.00  0.00    +0.0334  C
ATOM     57 H48  NAC L   1      14.842  -9.137  -1.238  1.00  0.00    +0.0497  H
ATOM     58 H49  NAC L   1      14.449 -10.007  -2.718  1.00  0.00    +0.0497  H
BRANCH 56 59
ATOM     59 N16  NAC L   1      12.963  -9.943  -1.294  1.00  0.00    -0.3551  N
ATOM     60 C17  NAC L   1      12.237 -11.000  -1.786  1.00  0.00    +0.2179  C
ATOM     61 C18  NAC L   1      11.235 -11.555  -0.811  1.00  0.00    +0.0143  C
ATOM     62 O19  NAC L   1      12.337 -11.423  -2.934  1.00  0.00    -0.2736 OA
ATOM     63 H50  NAC L   1      12.787  -9.645  -0.341  1.00  0.00    +0.1623 HD
ATOM     64 H51  NAC L   1      10.312 -10.971  -0.875  1.00  0.00    +0.0325  H
ATOM     65 H52  NAC L   1      11.620 -11.512   0.211  1.00  0.00    +0.0325  H
ATOM     66 H53  NAC L   1      11.025 -12.598  -1.061  1.00  0.00    +0.0325  H
ENDBRANCH 56 59
ENDBRANCH 21 56
ENDBRANCH 17 21
ENDBRANCH 1 19
TORSDOF 9
ENDMDL
MODEL 6
REMARK VINA RESULT:    -7.053      3.136      5.903
REMARK INTER + INTRA:         -12.253
REMARK INTER:                  -9.399
REMARK INTRA:                  -2.854
REMARK UNBOUND:                -1.489
ROOT
ATOM      1 C23  NAC L   1      12.042  -8.005  -2.389  1.00  0.00    +0.0423  A
ATOM      2 C24  NAC L   1      11.002  -7.796  -1.477  1.00  0.00    -0.0377  A
ATOM      3 C25  NAC L   1      11.124  -6.844  -0.461  1.00  0.00    -0.0506  A
ATOM      4 C26  NAC L   1      12.296  -6.080  -0.344  1.00  0.00    +0.0004  A
ATOM      5 C27  NAC L   1      12.479  -5.115   0.649  1.00  0.00    +0.0353  A
ATOM      6 N28  NAC L   1      13.594  -4.361   0.791  1.00  0.00    -0.2626 NA
ATOM      7 C29  NAC L   1      14.581  -4.575  -0.103  1.00  0.00    +0.0281  A
ATOM      8 C30  NAC L   1      14.508  -5.505  -1.128  1.00  0.00    -0.0358  A
ATOM      9 C31  NAC L   1      13.347  -6.278  -1.259  1.00  0.00    -0.0131  A
ATOM     10 C32  NAC L   1      13.207  -7.241  -2.275  1.00  0.00    -0.0305  A
ATOM     11 H55  NAC L   1      10.083  -8.374  -1.542  1.00  0.00    +0.0638  H
ATOM     12 H56  NAC L   1      10.301  -6.702   0.236  1.00  0.00    +0.0625  H
ATOM     13 H57  NAC L   1      11.707  -4.913   1.385  1.00  0.00    +0.0836  H
ATOM     14 H58  NAC L   1      15.466  -3.958   0.027  1.00  0.00    +0.0830  H
ATOM     15 H59  NAC L   1      15.342  -5.622  -1.812  1.00  0.00    +0.0639  H
ATOM     16 H60  NAC L   1      14.025  -7.372  -2.979  1.00  0.00    +0.0644  H
ENDROOT
BRANCH 1 19
ATOM     17 C20  NAC L   1      11.417  -8.800  -4.691  1.00  0.00    +0.2344  C
ATOM     18 O21  NAC L   1      11.239  -7.713  -5.237  1.00  0.00    -0.2722 OA
ATOM     19 N22  NAC L   1      11.834  -8.983  -3.379  1.00  0.00    -0.3256  N
ATOM     20 H54  NAC L   1      12.087  -9.938  -3.124  1.00  0.00    +0.1686 HD
BRANCH 17 21
ATOM     21 C14  NAC L   1      11.248 -10.128  -5.441  1.00  0.00    +0.0803  C
ATOM     22 H47  NAC L   1      11.313 -10.940  -4.708  1.00  0.00    +0.0463  H
BRANCH 21 26
ATOM     23 C10  NAC L   1       7.379 -10.551  -7.394  1.00  0.00    -0.0103  A
ATOM     24 C11  NAC L   1       7.523  -9.693  -6.298  1.00  0.00    -0.0551  A
ATOM     25 C12  NAC L   1       8.758  -9.558  -5.659  1.00  0.00    -0.0574  A
ATOM     26 C13  NAC L   1       9.881 -10.272  -6.105  1.00  0.00    -0.0336  A
ATOM     27 C33  NAC L   1       9.732 -11.122  -7.213  1.00  0.00    -0.0574  A
ATOM     28 C34  NAC L   1       8.497 -11.257  -7.851  1.00  0.00    -0.0551  A
ATOM     29 H45  NAC L   1       6.671  -9.121  -5.933  1.00  0.00    +0.0621  H
ATOM     30 H46  NAC L   1       8.827  -8.895  -4.798  1.00  0.00    +0.0621  H
ATOM     31 H61  NAC L   1      10.580 -11.686  -7.595  1.00  0.00    +0.0621  H
ATOM     32 H62  NAC L   1       8.412 -11.915  -8.714  1.00  0.00    +0.0621  H
BRANCH 23 33
ATOM     33  C9  NAC L   1       6.050 -10.684  -8.091  1.00  0.00    +0.1179  C
ATOM     34 H43  NAC L   1       5.325  -9.943  -7.730  1.00  0.00    +0.0749  H
ATOM     35 H44  NAC L   1       5.614 -11.664  -7.864  1.00  0.00    +0.0749  H
BRANCH 33 36
ATOM     36  O8  NAC L   1       6.244 -10.616  -9.508  1.00  0.00    -0.4564 OA
BRANCH 36 37
ATOM     37  C6  NAC L   1       6.370  -9.371 -10.020  1.00  0.00    +0.3398  C
ATOM     38  O7  NAC L   1       5.629  -8.420  -9.827  1.00  0.00    -0.2449 OA
BRANCH 37 43
ATOM     39  C1  NAC L   1      11.111  -9.154 -13.338  1.00  0.00    -0.0397  C
ATOM     40  C2  NAC L   1       9.908  -9.225 -12.444  1.00  0.00    -0.0502  A
ATOM     41  C3  NAC L   1       8.797  -9.987 -12.811  1.00  0.00    -0.0580  A
ATOM     42  C4  NAC L   1       7.666 -10.019 -11.996  1.00  0.00    -0.0473  A
ATOM     43  C5  NAC L   1       7.625  -9.278 -10.805  1.00  0.00    +0.0619  A
ATOM     44 C35  NAC L   1       8.742  -8.519 -10.407  1.00  0.00    -0.0362  A
ATOM     45 C36  NAC L   1       8.778  -7.729  -9.128  1.00  0.00    -0.0389  C
ATOM     46 C37  NAC L   1       9.868  -8.486 -11.251  1.00  0.00    -0.0551  A
ATOM     47 H38  NAC L   1      12.025  -9.018 -12.752  1.00  0.00    +0.0278  H
ATOM     48 H39  NAC L   1      11.227 -10.079 -13.912  1.00  0.00    +0.0278  H
ATOM     49 H40  NAC L   1      11.009  -8.316 -14.035  1.00  0.00    +0.0278  H
ATOM     50 H41  NAC L   1       8.802 -10.559 -13.736  1.00  0.00    +0.0620  H
ATOM     51 H42  NAC L   1       6.808 -10.619 -12.293  1.00  0.00    +0.0626  H
ATOM     52 H63  NAC L   1       9.809  -7.503  -8.833  1.00  0.00    +0.0278  H
ATOM     53 H64  NAC L   1       8.336  -8.298  -8.303  1.00  0.00    +0.0278  H
ATOM     54 H65  NAC L   1       8.245  -6.783  -9.252  1.00  0.00    +0.0278  H
ATOM     55 H66  NAC L   1      10.731  -7.884 -10.972  1.00  0.00    +0.0623  H
ENDBRANCH 37 43
ENDBRANCH 36 37
ENDBRANCH 33 36
ENDBRANCH 23 33
ENDBRANCH 21 26
BRANCH 21 56
ATOM     56 C15  NAC L   1      12.392 -10.309  -6.458  1.00  0.00    +0.0334  C
ATOM     57 H48  NAC L   1      12.155 -11.112  -7.166  1.00  0.00    +0.0497  H
ATOM     58 H49  NAC L   1      13.306 -10.609  -5.932  1.00  0.00    +0.0497  H
BRANCH 56 59
ATOM     59 N16  NAC L   1      12.750  -9.158  -7.282  1.00  0.00    -0.3551  N
ATOM     60 C17  NAC L   1      12.589  -9.083  -8.644  1.00  0.00    +0.2179  C
ATOM     61 C18  NAC L   1      12.944  -7.741  -9.224  1.00  0.00    +0.0143  C
ATOM     62 O19  NAC L   1      12.251 -10.031  -9.347  1.00  0.00    -0.2736 OA
ATOM     63 H50  NAC L   1      13.064  -8.328  -6.792  1.00  0.00    +0.1623 HD
ATOM     64 H51  NAC L   1      14.021  -7.705  -9.412  1.00  0.00    +0.0325  H
ATOM     65 H52  NAC L   1      12.669  -6.935  -8.539  1.00  0.00    +0.0325  H
ATOM     66 H53  NAC L   1      12.405  -7.598 -10.165  1.00  0.00    +0.0325  H
ENDBRANCH 56 59
ENDBRANCH 21 56
ENDBRANCH 17 21
ENDBRANCH 1 19
TORSDOF 9
ENDMDL
MODEL 7
REMARK VINA RESULT:    -7.014      3.158      5.230
REMARK INTER + INTRA:         -12.194
REMARK INTER:                  -9.577
REMARK INTRA:                  -2.617
REMARK UNBOUND:                -1.489
ROOT
ATOM      1 C23  NAC L   1      11.981  -8.073  -2.020  1.00  0.00    +0.0423  A
ATOM      2 C24  NAC L   1      10.999  -7.476  -1.223  1.00  0.00    -0.0377  A
ATOM      3 C25  NAC L   1      11.304  -6.371  -0.423  1.00  0.00    -0.0506  A
ATOM      4 C26  NAC L   1      12.605  -5.844  -0.411  1.00  0.00    +0.0004  A
ATOM      5 C27  NAC L   1      12.973  -4.742   0.366  1.00  0.00    +0.0353  A
ATOM      6 N28  NAC L   1      14.215  -4.208   0.401  1.00  0.00    -0.2626 NA
ATOM      7 C29  NAC L   1      15.144  -4.796  -0.380  1.00  0.00    +0.0281  A
ATOM      8 C30  NAC L   1      14.891  -5.891  -1.191  1.00  0.00    -0.0358  A
ATOM      9 C31  NAC L   1      13.599  -6.433  -1.213  1.00  0.00    -0.0131  A
ATOM     10 C32  NAC L   1      13.275  -7.545  -2.012  1.00  0.00    -0.0305  A
ATOM     11 H55  NAC L   1       9.983  -7.863  -1.211  1.00  0.00    +0.0638  H
ATOM     12 H56  NAC L   1      10.522  -5.926   0.188  1.00  0.00    +0.0625  H
ATOM     13 H57  NAC L   1      12.252  -4.241   1.006  1.00  0.00    +0.0836  H
ATOM     14 H58  NAC L   1      16.133  -4.351  -0.338  1.00  0.00    +0.0830  H
ATOM     15 H59  NAC L   1      15.689  -6.313  -1.794  1.00  0.00    +0.0639  H
ATOM     16 H60  NAC L   1      14.053  -7.980  -2.633  1.00  0.00    +0.0644  H
ENDROOT
BRANCH 1 19
ATOM     17 C20  NAC L   1      11.117  -9.191  -4.101  1.00  0.00    +0.2344  C
ATOM     18 O21  NAC L   1      11.051  -8.211  -4.841  1.00  0.00    -0.2722 OA
ATOM     19 N22  NAC L   1      11.586  -9.181  -2.793  1.00  0.00    -0.3256  N
ATOM     20 H54  NAC L   1      11.727 -10.097  -2.366  1.00  0.00    +0.1686 HD
BRANCH 17 21
ATOM     21 C14  NAC L   1      10.730 -10.599  -4.572  1.00  0.00    +0.0803  C
ATOM     22 H47  NAC L   1      10.385 -11.164  -3.699  1.00  0.00    +0.0463  H
BRANCH 21 26
ATOM     23 C10  NAC L   1       7.366 -10.602  -7.337  1.00  0.00    -0.0103  A
ATOM     24 C11  NAC L   1       8.556 -11.253  -7.677  1.00  0.00    -0.0551  A
ATOM     25 C12  NAC L   1       9.644 -11.250  -6.801  1.00  0.00    -0.0574  A
ATOM     26 C13  NAC L   1       9.566 -10.602  -5.559  1.00  0.00    -0.0336  A
ATOM     27 C33  NAC L   1       8.364  -9.960  -5.218  1.00  0.00    -0.0574  A
ATOM     28 C34  NAC L   1       7.276  -9.963  -6.095  1.00  0.00    -0.0551  A
ATOM     29 H45  NAC L   1       8.644 -11.771  -8.631  1.00  0.00    +0.0621  H
ATOM     30 H46  NAC L   1      10.560 -11.752  -7.109  1.00  0.00    +0.0621  H
ATOM     31 H61  NAC L   1       8.259  -9.453  -4.261  1.00  0.00    +0.0621  H
ATOM     32 H62  NAC L   1       6.354  -9.468  -5.801  1.00  0.00    +0.0621  H
BRANCH 23 33
ATOM     33  C9  NAC L   1       6.188 -10.620  -8.276  1.00  0.00    +0.1179  C
ATOM     34 H43  NAC L   1       5.372  -9.978  -7.920  1.00  0.00    +0.0749  H
ATOM     35 H44  NAC L   1       5.773 -11.634  -8.323  1.00  0.00    +0.0749  H
BRANCH 33 36
ATOM     36  O8  NAC L   1       6.623 -10.272  -9.595  1.00  0.00    -0.4564 OA
BRANCH 36 37
ATOM     37  C6  NAC L   1       6.667  -8.947  -9.864  1.00  0.00    +0.3398  C
ATOM     38  O7  NAC L   1       5.820  -8.114  -9.584  1.00  0.00    -0.2449 OA
BRANCH 37 43
ATOM     39  C1  NAC L   1      11.614  -7.672 -12.591  1.00  0.00    -0.0397  C
ATOM     40  C2  NAC L   1      10.355  -8.028 -11.854  1.00  0.00    -0.0502  A
ATOM     41  C3  NAC L   1       9.288  -8.628 -12.526  1.00  0.00    -0.0580  A
ATOM     42  C4  NAC L   1       8.106  -8.922 -11.847  1.00  0.00    -0.0473  A
ATOM     43  C5  NAC L   1       7.969  -8.606 -10.487  1.00  0.00    +0.0619  A
ATOM     44 C35  NAC L   1       9.041  -8.020  -9.787  1.00  0.00    -0.0362  A
ATOM     45 C36  NAC L   1       8.975  -7.688  -8.322  1.00  0.00    -0.0389  C
ATOM     46 C37  NAC L   1      10.220  -7.717 -10.493  1.00  0.00    -0.0551  A
ATOM     47 H38  NAC L   1      12.484  -7.736 -11.930  1.00  0.00    +0.0278  H
ATOM     48 H39  NAC L   1      11.788  -8.362 -13.424  1.00  0.00    +0.0278  H
ATOM     49 H40  NAC L   1      11.541  -6.654 -12.984  1.00  0.00    +0.0278  H
ATOM     50 H41  NAC L   1       9.367  -8.869 -13.584  1.00  0.00    +0.0620  H
ATOM     51 H42  NAC L   1       7.283  -9.391 -12.382  1.00  0.00    +0.0626  H
ATOM     52 H63  NAC L   1       9.978  -7.571  -7.897  1.00  0.00    +0.0278  H
ATOM     53 H64  NAC L   1       8.491  -8.493  -7.759  1.00  0.00    +0.0278  H
ATOM     54 H65  NAC L   1       8.431  -6.751  -8.169  1.00  0.00    +0.0278  H
ATOM     55 H66  NAC L   1      11.050  -7.239  -9.974  1.00  0.00    +0.0623  H
ENDBRANCH 37 43
ENDBRANCH 36 37
ENDBRANCH 33 36
ENDBRANCH 23 33
ENDBRANCH 21 26
BRANCH 21 56
ATOM     56 C15  NAC L   1      11.963 -11.319  -5.150  1.00  0.00    +0.0334  C
ATOM     57 H48  NAC L   1      11.666 -12.015  -5.944  1.00  0.00    +0.0497  H
ATOM     58 H49  NAC L   1      12.441 -11.918  -4.365  1.00  0.00    +0.0497  H
BRANCH 56 59
ATOM     59 N16  NAC L   1      13.016 -10.492  -5.734  1.00  0.00    -0.3551  N
ATOM     60 C17  NAC L   1      14.181 -10.136  -5.102  1.00  0.00    +0.2179  C
ATOM     61 C18  NAC L   1      15.135  -9.366  -5.974  1.00  0.00    +0.0143  C
ATOM     62 O19  NAC L   1      14.413 -10.358  -3.917  1.00  0.00    -0.2736 OA
ATOM     63 H50  NAC L   1      12.903 -10.236  -6.709  1.00  0.00    +0.1623 HD
ATOM     64 H51  NAC L   1      14.869  -8.305  -5.948  1.00  0.00    +0.0325  H
ATOM     65 H52  NAC L   1      15.095  -9.724  -7.007  1.00  0.00    +0.0325  H
ATOM     66 H53  NAC L   1      16.154  -9.496  -5.601  1.00  0.00    +0.0325  H
ENDBRANCH 56 59
ENDBRANCH 21 56
ENDBRANCH 17 21
ENDBRANCH 1 19
TORSDOF 9
ENDMDL
MODEL 8
REMARK VINA RESULT:    -6.965      1.659      2.440
REMARK INTER + INTRA:         -12.119
REMARK INTER:                 -10.735
REMARK INTRA:                  -1.384
REMARK UNBOUND:                -1.489
ROOT
ATOM      1 C23  NAC L   1      11.540  -5.780   1.987  1.00  0.00    +0.0423  A
ATOM      2 C24  NAC L   1      10.282  -6.279   2.341  1.00  0.00    -0.0377  A
ATOM      3 C25  NAC L   1       9.494  -5.622   3.289  1.00  0.00    -0.0506  A
ATOM      4 C26  NAC L   1       9.956  -4.445   3.900  1.00  0.00    +0.0004  A
ATOM      5 C27  NAC L   1       9.217  -3.742   4.855  1.00  0.00    +0.0353  A
ATOM      6 N28  NAC L   1       9.631  -2.606   5.462  1.00  0.00    -0.2626 NA
ATOM      7 C29  NAC L   1      10.843  -2.139   5.100  1.00  0.00    +0.0281  A
ATOM      8 C30  NAC L   1      11.661  -2.753   4.165  1.00  0.00    -0.0358  A
ATOM      9 C31  NAC L   1      11.218  -3.930   3.548  1.00  0.00    -0.0131  A
ATOM     10 C32  NAC L   1      11.998  -4.606   2.591  1.00  0.00    -0.0305  A
ATOM     11 H55  NAC L   1       9.899  -7.189   1.886  1.00  0.00    +0.0638  H
ATOM     12 H56  NAC L   1       8.520  -6.031   3.548  1.00  0.00    +0.0625  H
ATOM     13 H57  NAC L   1       8.236  -4.085   5.170  1.00  0.00    +0.0836  H
ATOM     14 H58  NAC L   1      11.155  -1.225   5.598  1.00  0.00    +0.0830  H
ATOM     15 H59  NAC L   1      12.626  -2.320   3.924  1.00  0.00    +0.0639  H
ATOM     16 H60  NAC L   1      12.964  -4.187   2.324  1.00  0.00    +0.0644  H
ENDROOT
BRANCH 1 19
ATOM     17 C20  NAC L   1      12.100  -6.504  -0.356  1.00  0.00    +0.2344  C
ATOM     18 O21  NAC L   1      11.325  -5.781  -0.979  1.00  0.00    -0.2722 OA
ATOM     19 N22  NAC L   1      12.266  -6.505   1.024  1.00  0.00    -0.3256  N
ATOM     20 H54  NAC L   1      13.056  -7.047   1.375  1.00  0.00    +0.1686 HD
BRANCH 17 21
ATOM     21 C14  NAC L   1      13.050  -7.483  -1.059  1.00  0.00    +0.0803  C
ATOM     22 H47  NAC L   1      13.232  -8.323  -0.380  1.00  0.00    +0.0463  H
BRANCH 21 26
ATOM     23 C10  NAC L   1      11.325  -9.266  -4.637  1.00  0.00    -0.0103  A
ATOM     24 C11  NAC L   1      12.482  -8.484  -4.729  1.00  0.00    -0.0551  A
ATOM     25 C12  NAC L   1      13.038  -7.901  -3.588  1.00  0.00    -0.0574  A
ATOM     26 C13  NAC L   1      12.454  -8.090  -2.326  1.00  0.00    -0.0336  A
ATOM     27 C33  NAC L   1      11.300  -8.885  -2.239  1.00  0.00    -0.0574  A
ATOM     28 C34  NAC L   1      10.744  -9.469  -3.381  1.00  0.00    -0.0551  A
ATOM     29 H45  NAC L   1      12.962  -8.326  -5.694  1.00  0.00    +0.0621  H
ATOM     30 H46  NAC L   1      13.928  -7.284  -3.701  1.00  0.00    +0.0621  H
ATOM     31 H61  NAC L   1      10.821  -9.063  -1.278  1.00  0.00    +0.0621  H
ATOM     32 H62  NAC L   1       9.856 -10.089  -3.283  1.00  0.00    +0.0621  H
BRANCH 23 33
ATOM     33  C9  NAC L   1      10.737  -9.908  -5.867  1.00  0.00    +0.1179  C
ATOM     34 H43  NAC L   1       9.701 -10.233  -5.701  1.00  0.00    +0.0749  H
ATOM     35 H44  NAC L   1      11.301 -10.816  -6.111  1.00  0.00    +0.0749  H
BRANCH 33 36
ATOM     36  O8  NAC L   1      10.859  -9.013  -6.978  1.00  0.00    -0.4564 OA
BRANCH 36 37
ATOM     37  C6  NAC L   1       9.928  -8.034  -7.043  1.00  0.00    +0.3398  C
ATOM     38  O7  NAC L   1       9.966  -6.949  -6.484  1.00  0.00    -0.2449 OA
BRANCH 37 43
ATOM     39  C1  NAC L   1       5.942  -9.481 -10.986  1.00  0.00    -0.0397  C
ATOM     40  C2  NAC L   1       6.943  -9.084  -9.940  1.00  0.00    -0.0502  A
ATOM     41  C3  NAC L   1       8.097  -8.381 -10.296  1.00  0.00    -0.0580  A
ATOM     42  C4  NAC L   1       9.043  -8.048  -9.327  1.00  0.00    -0.0473  A
ATOM     43  C5  NAC L   1       8.855  -8.425  -7.989  1.00  0.00    +0.0619  A
ATOM     44 C35  NAC L   1       7.689  -9.116  -7.607  1.00  0.00    -0.0362  A
ATOM     45 C36  NAC L   1       7.410  -9.520  -6.186  1.00  0.00    -0.0389  C
ATOM     46 C37  NAC L   1       6.754  -9.458  -8.601  1.00  0.00    -0.0551  A
ATOM     47 H38  NAC L   1       4.931  -9.509 -10.567  1.00  0.00    +0.0278  H
ATOM     48 H39  NAC L   1       5.931  -8.762 -11.811  1.00  0.00    +0.0278  H
ATOM     49 H40  NAC L   1       6.189 -10.471 -11.382  1.00  0.00    +0.0278  H
ATOM     50 H41  NAC L   1       8.269  -8.090 -11.330  1.00  0.00    +0.0620  H
ATOM     51 H42  NAC L   1       9.936  -7.498  -9.618  1.00  0.00    +0.0626  H
ATOM     52 H63  NAC L   1       6.343  -9.724  -6.036  1.00  0.00    +0.0278  H
ATOM     53 H64  NAC L   1       7.673  -8.716  -5.491  1.00  0.00    +0.0278  H
ATOM     54 H65  NAC L   1       7.967 -10.426  -5.932  1.00  0.00    +0.0278  H
ATOM     55 H66  NAC L   1       5.859 -10.015  -8.328  1.00  0.00    +0.0623  H
ENDBRANCH 37 43
ENDBRANCH 36 37
ENDBRANCH 33 36
ENDBRANCH 23 33
ENDBRANCH 21 26
BRANCH 21 56
ATOM     56 C15  NAC L   1      14.400  -6.796  -1.342  1.00  0.00    +0.0334  C
ATOM     57 H48  NAC L   1      14.607  -6.781  -2.419  1.00  0.00    +0.0497  H
ATOM     58 H49  NAC L   1      15.209  -7.366  -0.870  1.00  0.00    +0.0497  H
BRANCH 56 59
ATOM     59 N16  NAC L   1      14.559  -5.413  -0.899  1.00  0.00    -0.3551  N
ATOM     60 C17  NAC L   1      15.109  -5.027   0.299  1.00  0.00    +0.2179  C
ATOM     61 C18  NAC L   1      15.247  -3.536   0.452  1.00  0.00    +0.0143  C
ATOM     62 O19  NAC L   1      15.406  -5.807   1.199  1.00  0.00    -0.2736 OA
ATOM     63 H50  NAC L   1      14.318  -4.691  -1.568  1.00  0.00    +0.1623 HD
ATOM     64 H51  NAC L   1      14.303  -3.126   0.824  1.00  0.00    +0.0325  H
ATOM     65 H52  NAC L   1      15.494  -3.068  -0.504  1.00  0.00    +0.0325  H
ATOM     66 H53  NAC L   1      16.046  -3.317   1.164  1.00  0.00    +0.0325  H
ENDBRANCH 56 59
ENDBRANCH 21 56
ENDBRANCH 17 21
ENDBRANCH 1 19
TORSDOF 9
ENDMDL
MODEL 9
REMARK VINA RESULT:    -6.912      3.830     10.810
REMARK INTER + INTRA:         -12.037
REMARK INTER:                  -9.989
REMARK INTRA:                  -2.048
REMARK UNBOUND:                -1.489
ROOT
ATOM      1 C23  NAC L   1      12.707  -7.545  -1.395  1.00  0.00    +0.0423  A
ATOM      2 C24  NAC L   1      11.747  -8.485  -1.004  1.00  0.00    -0.0377  A
ATOM      3 C25  NAC L   1      11.096  -9.276  -1.954  1.00  0.00    -0.0506  A
ATOM      4 C26  NAC L   1      11.401  -9.141  -3.318  1.00  0.00    +0.0004  A
ATOM      5 C27  NAC L   1      10.785  -9.902  -4.315  1.00  0.00    +0.0353  A
ATOM      6 N28  NAC L   1      11.055  -9.798  -5.637  1.00  0.00    -0.2626 NA
ATOM      7 C29  NAC L   1      11.988  -8.891  -5.989  1.00  0.00    +0.0281  A
ATOM      8 C30  NAC L   1      12.662  -8.083  -5.087  1.00  0.00    -0.0358  A
ATOM      9 C31  NAC L   1      12.369  -8.203  -3.722  1.00  0.00    -0.0131  A
ATOM     10 C32  NAC L   1      13.014  -7.413  -2.752  1.00  0.00    -0.0305  A
ATOM     11 H55  NAC L   1      11.489  -8.611   0.044  1.00  0.00    +0.0638  H
ATOM     12 H56  NAC L   1      10.352  -9.999  -1.624  1.00  0.00    +0.0625  H
ATOM     13 H57  NAC L   1      10.030 -10.644  -4.070  1.00  0.00    +0.0836  H
ATOM     14 H58  NAC L   1      12.191  -8.824  -7.055  1.00  0.00    +0.0830  H
ATOM     15 H59  NAC L   1      13.402  -7.374  -5.443  1.00  0.00    +0.0639  H
ATOM     16 H60  NAC L   1      13.766  -6.702  -3.082  1.00  0.00    +0.0644  H
ENDROOT
BRANCH 1 19
ATOM     17 C20  NAC L   1      13.523  -5.418  -0.330  1.00  0.00    +0.2344  C
ATOM     18 O21  NAC L   1      13.126  -4.610  -1.167  1.00  0.00    -0.2722 OA
ATOM     19 N22  NAC L   1      13.312  -6.790  -0.373  1.00  0.00    -0.3256  N
ATOM     20 H54  NAC L   1      13.565  -7.304   0.471  1.00  0.00    +0.1686 HD
BRANCH 17 21
ATOM     21 C14  NAC L   1      14.276  -4.982   0.935  1.00  0.00    +0.0803  C
ATOM     22 H47  NAC L   1      15.037  -4.252   0.639  1.00  0.00    +0.0463  H
BRANCH 21 26
ATOM     23 C10  NAC L   1      11.675  -2.968   3.787  1.00  0.00    -0.0103  A
ATOM     24 C11  NAC L   1      12.999  -2.546   3.623  1.00  0.00    -0.0551  A
ATOM     25 C12  NAC L   1      13.844  -3.192   2.717  1.00  0.00    -0.0574  A
ATOM     26 C13  NAC L   1      13.383  -4.271   1.948  1.00  0.00    -0.0336  A
ATOM     27 C33  NAC L   1      12.050  -4.681   2.108  1.00  0.00    -0.0574  A
ATOM     28 C34  NAC L   1      11.205  -4.036   3.014  1.00  0.00    -0.0551  A
ATOM     29 H45  NAC L   1      13.383  -1.707   4.202  1.00  0.00    +0.0621  H
ATOM     30 H46  NAC L   1      14.873  -2.847   2.631  1.00  0.00    +0.0621  H
ATOM     31 H61  NAC L   1      11.651  -5.508   1.523  1.00  0.00    +0.0621  H
ATOM     32 H62  NAC L   1      10.174  -4.367   3.111  1.00  0.00    +0.0621  H
BRANCH 23 33
ATOM     33  C9  NAC L   1      10.761  -2.260   4.753  1.00  0.00    +0.1179  C
ATOM     34 H43  NAC L   1      10.605  -1.210   4.472  1.00  0.00    +0.0749  H
ATOM     35 H44  NAC L   1      11.225  -2.238   5.747  1.00  0.00    +0.0749  H
BRANCH 33 36
ATOM     36  O8  NAC L   1       9.532  -2.985   4.868  1.00  0.00    -0.4564 OA
BRANCH 36 37
ATOM     37  C6  NAC L   1       9.107  -3.215   6.132  1.00  0.00    +0.3398  C
ATOM     38  O7  NAC L   1       8.736  -2.382   6.943  1.00  0.00    -0.2449 OA
BRANCH 37 43
ATOM     39  C1  NAC L   1       8.642  -8.925   6.976  1.00  0.00    -0.0397  C
ATOM     40  C2  NAC L   1       8.776  -7.440   6.800  1.00  0.00    -0.0502  A
ATOM     41  C3  NAC L   1       7.686  -6.676   6.378  1.00  0.00    -0.0580  A
ATOM     42  C4  NAC L   1       7.826  -5.303   6.179  1.00  0.00    -0.0473  A
ATOM     43  C5  NAC L   1       9.063  -4.676   6.386  1.00  0.00    +0.0619  A
ATOM     44 C35  NAC L   1      10.169  -5.425   6.832  1.00  0.00    -0.0362  A
ATOM     45 C36  NAC L   1      11.514  -4.811   7.107  1.00  0.00    -0.0389  C
ATOM     46 C37  NAC L   1      10.013  -6.812   7.012  1.00  0.00    -0.0551  A
ATOM     47 H38  NAC L   1       9.306  -9.286   7.768  1.00  0.00    +0.0278  H
ATOM     48 H39  NAC L   1       7.620  -9.194   7.263  1.00  0.00    +0.0278  H
ATOM     49 H40  NAC L   1       8.893  -9.436   6.042  1.00  0.00    +0.0278  H
ATOM     50 H41  NAC L   1       6.721  -7.144   6.198  1.00  0.00    +0.0620  H
ATOM     51 H42  NAC L   1       6.968  -4.720   5.851  1.00  0.00    +0.0626  H
ATOM     52 H63  NAC L   1      12.119  -5.457   7.753  1.00  0.00    +0.0278  H
ATOM     53 H64  NAC L   1      11.408  -3.856   7.634  1.00  0.00    +0.0278  H
ATOM     54 H65  NAC L   1      12.060  -4.658   6.172  1.00  0.00    +0.0278  H
ATOM     55 H66  NAC L   1      10.864  -7.412   7.331  1.00  0.00    +0.0623  H
ENDBRANCH 37 43
ENDBRANCH 36 37
ENDBRANCH 33 36
ENDBRANCH 23 33
ENDBRANCH 21 26
BRANCH 21 56
ATOM     56 C15  NAC L   1      14.993  -6.192   1.564  1.00  0.00    +0.0334  C
ATOM     57 H48  NAC L   1      16.081  -6.071   1.500  1.00  0.00    +0.0497  H
ATOM     58 H49  NAC L   1      14.741  -7.101   1.004  1.00  0.00    +0.0497  H
BRANCH 56 59
ATOM     59 N16  NAC L   1      14.718  -6.484   2.968  1.00  0.00    -0.3551  N
ATOM     60 C17  NAC L   1      13.892  -7.485   3.419  1.00  0.00    +0.2179  C
ATOM     61 C18  NAC L   1      13.873  -7.629   4.916  1.00  0.00    +0.0143  C
ATOM     62 O19  NAC L   1      13.178  -8.164   2.687  1.00  0.00    -0.2736 OA
ATOM     63 H50  NAC L   1      15.246  -5.956   3.654  1.00  0.00    +0.1623 HD
ATOM     64 H51  NAC L   1      13.147  -6.926   5.335  1.00  0.00    +0.0325  H
ATOM     65 H52  NAC L   1      14.860  -7.426   5.340  1.00  0.00    +0.0325  H
ATOM     66 H53  NAC L   1      13.585  -8.650   5.179  1.00  0.00    +0.0325  H
ENDBRANCH 56 59
ENDBRANCH 21 56
ENDBRANCH 17 21
ENDBRANCH 1 19
TORSDOF 9
ENDMDL
MODEL 10
REMARK VINA RESULT:    -6.859      4.883      9.946
REMARK INTER + INTRA:         -11.956
REMARK INTER:                  -8.840
REMARK INTRA:                  -3.117
REMARK UNBOUND:                -1.489
ROOT
ATOM      1 C23  NAC L   1      12.635  -7.753 -10.047  1.00  0.00    +0.0423  A
ATOM      2 C24  NAC L   1      13.916  -7.195  -9.980  1.00  0.00    -0.0377  A
ATOM      3 C25  NAC L   1      14.596  -6.830 -11.144  1.00  0.00    -0.0506  A
ATOM      4 C26  NAC L   1      13.999  -7.017 -12.401  1.00  0.00    +0.0004  A
ATOM      5 C27  NAC L   1      14.628  -6.674 -13.601  1.00  0.00    +0.0353  A
ATOM      6 N28  NAC L   1      14.082  -6.840 -14.828  1.00  0.00    -0.2626 NA
ATOM      7 C29  NAC L   1      12.844  -7.373 -14.868  1.00  0.00    +0.0281  A
ATOM      8 C30  NAC L   1      12.128  -7.750 -13.743  1.00  0.00    -0.0358  A
ATOM      9 C31  NAC L   1      12.709  -7.573 -12.480  1.00  0.00    -0.0131  A
ATOM     10 C32  NAC L   1      12.038  -7.935 -11.297  1.00  0.00    -0.0305  A
ATOM     11 H55  NAC L   1      14.403  -7.039  -9.021  1.00  0.00    +0.0638  H
ATOM     12 H56  NAC L   1      15.592  -6.399 -11.065  1.00  0.00    +0.0625  H
ATOM     13 H57  NAC L   1      15.624  -6.241 -13.609  1.00  0.00    +0.0836  H
ATOM     14 H58  NAC L   1      12.424  -7.496 -15.862  1.00  0.00    +0.0830  H
ATOM     15 H59  NAC L   1      11.135  -8.173 -13.851  1.00  0.00    +0.0639  H
ATOM     16 H60  NAC L   1      11.038  -8.352 -11.377  1.00  0.00    +0.0644  H
ENDROOT
BRANCH 1 19
ATOM     17 C20  NAC L   1      12.238  -9.216  -8.040  1.00  0.00    +0.2344  C
ATOM     18 O21  NAC L   1      13.086 -10.081  -8.252  1.00  0.00    -0.2722 OA
ATOM     19 N22  NAC L   1      12.023  -8.091  -8.825  1.00  0.00    -0.3256  N
ATOM     20 H54  NAC L   1      11.394  -7.390  -8.432  1.00  0.00    +0.1686 HD
BRANCH 17 21
ATOM     21 C14  NAC L   1      11.326  -9.251  -6.806  1.00  0.00    +0.0803  C
ATOM     22 H47  NAC L   1      11.264  -8.234  -6.403  1.00  0.00    +0.0463  H
BRANCH 21 26
ATOM     23 C10  NAC L   1       7.259 -10.457  -7.791  1.00  0.00    -0.0103  A
ATOM     24 C11  NAC L   1       7.495  -9.237  -7.146  1.00  0.00    -0.0551  A
ATOM     25 C12  NAC L   1       8.795  -8.846  -6.818  1.00  0.00    -0.0574  A
ATOM     26 C13  NAC L   1       9.892  -9.661  -7.133  1.00  0.00    -0.0336  A
ATOM     27 C33  NAC L   1       9.651 -10.878  -7.791  1.00  0.00    -0.0574  A
ATOM     28 C34  NAC L   1       8.350 -11.269  -8.119  1.00  0.00    -0.0551  A
ATOM     29 H45  NAC L   1       6.663  -8.580  -6.896  1.00  0.00    +0.0621  H
ATOM     30 H46  NAC L   1       8.937  -7.899  -6.300  1.00  0.00    +0.0621  H
ATOM     31 H61  NAC L   1      10.475 -11.535  -8.060  1.00  0.00    +0.0621  H
ATOM     32 H62  NAC L   1       8.192 -12.212  -8.638  1.00  0.00    +0.0621  H
BRANCH 23 33
ATOM     33  C9  NAC L   1       5.858 -10.869  -8.159  1.00  0.00    +0.1179  C
ATOM     34 H43  NAC L   1       5.112 -10.153  -7.789  1.00  0.00    +0.0749  H
ATOM     35 H44  NAC L   1       5.620 -11.825  -7.677  1.00  0.00    +0.0749  H
BRANCH 33 36
ATOM     36  O8  NAC L   1       5.773 -11.067  -9.574  1.00  0.00    -0.4564 OA
BRANCH 36 37
ATOM     37  C6  NAC L   1       5.904  -9.951 -10.328  1.00  0.00    +0.3398  C
ATOM     38  O7  NAC L   1       5.285  -8.907 -10.204  1.00  0.00    -0.2449 OA
BRANCH 37 43
ATOM     39  C1  NAC L   1      10.014 -10.896 -14.296  1.00  0.00    -0.0397  C
ATOM     40  C2  NAC L   1       8.980 -10.652 -13.235  1.00  0.00    -0.0502  A
ATOM     41  C3  NAC L   1       7.885 -11.508 -13.105  1.00  0.00    -0.0580  A
ATOM     42  C4  NAC L   1       6.907 -11.256 -12.143  1.00  0.00    -0.0473  A
ATOM     43  C5  NAC L   1       7.004 -10.135 -11.305  1.00  0.00    +0.0619  A
ATOM     44 C35  NAC L   1       8.111  -9.271 -11.408  1.00  0.00    -0.0362  A
ATOM     45 C36  NAC L   1       8.295  -8.072 -10.520  1.00  0.00    -0.0389  C
ATOM     46 C37  NAC L   1       9.079  -9.533 -12.395  1.00  0.00    -0.0551  A
ATOM     47 H38  NAC L   1      10.998 -10.547 -13.969  1.00  0.00    +0.0278  H
ATOM     48 H39  NAC L   1      10.104 -11.965 -14.516  1.00  0.00    +0.0278  H
ATOM     49 H40  NAC L   1       9.738 -10.368 -15.214  1.00  0.00    +0.0278  H
ATOM     50 H41  NAC L   1       7.782 -12.377 -13.752  1.00  0.00    +0.0620  H
ATOM     51 H42  NAC L   1       6.060 -11.933 -12.051  1.00  0.00    +0.0626  H
ATOM     52 H63  NAC L   1       9.340  -7.742 -10.513  1.00  0.00    +0.0278  H
ATOM     53 H64  NAC L   1       8.037  -8.309  -9.482  1.00  0.00    +0.0278  H
ATOM     54 H65  NAC L   1       7.679  -7.240 -10.873  1.00  0.00    +0.0278  H
ATOM     55 H66  NAC L   1       9.929  -8.861 -12.506  1.00  0.00    +0.0623  H
ENDBRANCH 37 43
ENDBRANCH 36 37
ENDBRANCH 33 36
ENDBRANCH 23 33
ENDBRANCH 21 26
BRANCH 21 56
ATOM     56 C15  NAC L   1      11.940 -10.158  -5.722  1.00  0.00    +0.0334  C
ATOM     57 H48  NAC L   1      12.852 -10.640  -6.094  1.00  0.00    +0.0497  H
ATOM     58 H49  NAC L   1      11.236 -10.960  -5.471  1.00  0.00    +0.0497  H
BRANCH 56 59
ATOM     59 N16  NAC L   1      12.321  -9.534  -4.457  1.00  0.00    -0.3551  N
ATOM     60 C17  NAC L   1      11.446  -9.162  -3.466  1.00  0.00    +0.2179  C
ATOM     61 C18  NAC L   1      12.119  -8.640  -2.226  1.00  0.00    +0.0143  C
ATOM     62 O19  NAC L   1      10.224  -9.185  -3.588  1.00  0.00    -0.2736 OA
ATOM     63 H50  NAC L   1      13.314  -9.450  -4.273  1.00  0.00    +0.1623 HD
ATOM     64 H51  NAC L   1      12.329  -7.574  -2.355  1.00  0.00    +0.0325  H
ATOM     65 H52  NAC L   1      13.053  -9.173  -2.035  1.00  0.00    +0.0325  H
ATOM     66 H53  NAC L   1      11.457  -8.780  -1.367  1.00  0.00    +0.0325  H
ENDBRANCH 56 59
ENDBRANCH 21 56
ENDBRANCH 17 21
ENDBRANCH 1 19
TORSDOF 9
ENDMDL
MODEL 11
REMARK VINA RESULT:    -6.846      3.361      6.242
REMARK INTER + INTRA:         -11.937
REMARK INTER:                  -9.871
REMARK INTRA:                  -2.067
REMARK UNBOUND:                -1.489
ROOT
ATOM      1 C23  NAC L   1      11.993  -7.976  -2.762  1.00  0.00    +0.0423  A
ATOM      2 C24  NAC L   1      11.077  -8.196  -1.727  1.00  0.00    -0.0377  A
ATOM      3 C25  NAC L   1      11.154  -7.464  -0.539  1.00  0.00    -0.0506  A
ATOM      4 C26  NAC L   1      12.153  -6.491  -0.370  1.00  0.00    +0.0004  A
ATOM      5 C27  NAC L   1      12.282  -5.727   0.792  1.00  0.00    +0.0353  A
ATOM      6 N28  NAC L   1      13.231  -4.783   0.989  1.00  0.00    -0.2626 NA
ATOM      7 C29  NAC L   1      14.098  -4.583  -0.025  1.00  0.00    +0.0281  A
ATOM      8 C30  NAC L   1      14.064  -5.282  -1.221  1.00  0.00    -0.0358  A
ATOM      9 C31  NAC L   1      13.075  -6.258  -1.407  1.00  0.00    -0.0131  A
ATOM     10 C32  NAC L   1      12.984  -7.005  -2.596  1.00  0.00    -0.0305  A
ATOM     11 H55  NAC L   1      10.294  -8.943  -1.829  1.00  0.00    +0.0638  H
ATOM     12 H56  NAC L   1      10.430  -7.655   0.250  1.00  0.00    +0.0625  H
ATOM     13 H57  NAC L   1      11.601  -5.858   1.629  1.00  0.00    +0.0836  H
ATOM     14 H58  NAC L   1      14.850  -3.820   0.152  1.00  0.00    +0.0830  H
ATOM     15 H59  NAC L   1      14.795  -5.068  -1.993  1.00  0.00    +0.0639  H
ATOM     16 H60  NAC L   1      13.699  -6.803  -3.389  1.00  0.00    +0.0644  H
ENDROOT
BRANCH 1 19
ATOM     17 C20  NAC L   1      10.689  -9.365  -4.404  1.00  0.00    +0.2344  C
ATOM     18 O21  NAC L   1       9.565  -9.239  -3.924  1.00  0.00    -0.2722 OA
ATOM     19 N22  NAC L   1      11.843  -8.759  -3.922  1.00  0.00    -0.3256  N
ATOM     20 H54  NAC L   1      12.666  -8.833  -4.520  1.00  0.00    +0.1686 HD
BRANCH 17 21
ATOM     21 C14  NAC L   1      10.950 -10.190  -5.672  1.00  0.00    +0.0803  C
ATOM     22 H47  NAC L   1      10.718 -11.237  -5.447  1.00  0.00    +0.0463  H
BRANCH 21 26
ATOM     23 C10  NAC L   1       8.345  -9.023  -8.960  1.00  0.00    -0.0103  A
ATOM     24 C11  NAC L   1       8.606 -10.376  -8.716  1.00  0.00    -0.0551  A
ATOM     25 C12  NAC L   1       9.447 -10.760  -7.669  1.00  0.00    -0.0574  A
ATOM     26 C13  NAC L   1      10.043  -9.800  -6.837  1.00  0.00    -0.0336  A
ATOM     27 C33  NAC L   1       9.767  -8.445  -7.079  1.00  0.00    -0.0574  A
ATOM     28 C34  NAC L   1       8.926  -8.061  -8.126  1.00  0.00    -0.0551  A
ATOM     29 H45  NAC L   1       8.152 -11.143  -9.341  1.00  0.00    +0.0621  H
ATOM     30 H46  NAC L   1       9.641 -11.820  -7.522  1.00  0.00    +0.0621  H
ATOM     31 H61  NAC L   1      10.203  -7.670  -6.451  1.00  0.00    +0.0621  H
ATOM     32 H62  NAC L   1       8.721  -7.005  -8.285  1.00  0.00    +0.0621  H
BRANCH 23 33
ATOM     33  C9  NAC L   1       7.424  -8.612 -10.079  1.00  0.00    +0.1179  C
ATOM     34 H43  NAC L   1       6.596  -7.988  -9.718  1.00  0.00    +0.0749  H
ATOM     35 H44  NAC L   1       6.958  -9.503 -10.516  1.00  0.00    +0.0749  H
BRANCH 33 36
ATOM     36  O8  NAC L   1       8.182  -7.972 -11.112  1.00  0.00    -0.4564 OA
BRANCH 36 37
ATOM     37  C6  NAC L   1       8.801  -8.805 -11.981  1.00  0.00    +0.3398  C
ATOM     38  O7  NAC L   1       8.369  -9.858 -12.421  1.00  0.00    -0.2449 OA
BRANCH 37 43
ATOM     39  C1  NAC L   1      13.645  -6.245 -13.856  1.00  0.00    -0.0397  C
ATOM     40  C2  NAC L   1      12.408  -6.949 -13.379  1.00  0.00    -0.0502  A
ATOM     41  C3  NAC L   1      11.163  -6.645 -13.934  1.00  0.00    -0.0580  A
ATOM     42  C4  NAC L   1      10.011  -7.274 -13.462  1.00  0.00    -0.0473  A
ATOM     43  C5  NAC L   1      10.086  -8.206 -12.417  1.00  0.00    +0.0619  A
ATOM     44 C35  NAC L   1      11.334  -8.542 -11.858  1.00  0.00    -0.0362  A
ATOM     45 C36  NAC L   1      11.490  -9.557 -10.760  1.00  0.00    -0.0389  C
ATOM     46 C37  NAC L   1      12.483  -7.885 -12.337  1.00  0.00    -0.0551  A
ATOM     47 H38  NAC L   1      14.521  -6.897 -13.773  1.00  0.00    +0.0278  H
ATOM     48 H39  NAC L   1      13.552  -5.960 -14.909  1.00  0.00    +0.0278  H
ATOM     49 H40  NAC L   1      13.815  -5.344 -13.259  1.00  0.00    +0.0278  H
ATOM     50 H41  NAC L   1      11.079  -5.915 -14.737  1.00  0.00    +0.0620  H
ATOM     51 H42  NAC L   1       9.047  -7.029 -13.905  1.00  0.00    +0.0626  H
ATOM     52 H63  NAC L   1      12.522  -9.923 -10.704  1.00  0.00    +0.0278  H
ATOM     53 H64  NAC L   1      10.859 -10.433 -10.944  1.00  0.00    +0.0278  H
ATOM     54 H65  NAC L   1      11.235  -9.113  -9.794  1.00  0.00    +0.0278  H
ATOM     55 H66  NAC L   1      13.454  -8.113 -11.898  1.00  0.00    +0.0623  H
ENDBRANCH 37 43
ENDBRANCH 36 37
ENDBRANCH 33 36
ENDBRANCH 23 33
ENDBRANCH 21 26
BRANCH 21 56
ATOM     56 C15  NAC L   1      12.438 -10.103  -6.061  1.00  0.00    +0.0334  C
ATOM     57 H48  NAC L   1      12.856 -11.105  -6.213  1.00  0.00    +0.0497  H
ATOM     58 H49  NAC L   1      13.006  -9.643  -5.242  1.00  0.00    +0.0497  H
BRANCH 56 59
ATOM     59 N16  NAC L   1      12.778  -9.354  -7.268  1.00  0.00    -0.3551  N
ATOM     60 C17  NAC L   1      13.218  -8.053  -7.292  1.00  0.00    +0.2179  C
ATOM     61 C18  NAC L   1      13.595  -7.565  -8.664  1.00  0.00    +0.0143  C
ATOM     62 O19  NAC L   1      13.245  -7.322  -6.306  1.00  0.00    -0.2736 OA
ATOM     63 H50  NAC L   1      12.763  -9.869  -8.141  1.00  0.00    +0.1623 HD
ATOM     64 H51  NAC L   1      12.698  -7.206  -9.176  1.00  0.00    +0.0325  H
ATOM     65 H52  NAC L   1      14.052  -8.366  -9.251  1.00  0.00    +0.0325  H
ATOM     66 H53  NAC L   1      14.315  -6.747  -8.573  1.00  0.00    +0.0325  H
ENDBRANCH 56 59
ENDBRANCH 21 56
ENDBRANCH 17 21
ENDBRANCH 1 19
TORSDOF 9
ENDMDL
MODEL 12
REMARK VINA RESULT:    -6.815      2.813     10.801
REMARK INTER + INTRA:         -11.890
REMARK INTER:                 -10.741
REMARK INTRA:                  -1.149
REMARK UNBOUND:                -1.489
ROOT
ATOM      1 C23  NAC L   1      10.048  -8.709  -6.467  1.00  0.00    +0.0423  A
ATOM      2 C24  NAC L   1       8.917  -9.310  -5.904  1.00  0.00    -0.0377  A
ATOM      3 C25  NAC L   1       7.752  -9.482  -6.656  1.00  0.00    -0.0506  A
ATOM      4 C26  NAC L   1       7.703  -9.056  -7.993  1.00  0.00    +0.0004  A
ATOM      5 C27  NAC L   1       6.570  -9.200  -8.797  1.00  0.00    +0.0353  A
ATOM      6 N28  NAC L   1       6.488  -8.802 -10.088  1.00  0.00    -0.2626 NA
ATOM      7 C29  NAC L   1       7.593  -8.232 -10.611  1.00  0.00    +0.0281  A
ATOM      8 C30  NAC L   1       8.771  -8.039  -9.908  1.00  0.00    -0.0358  A
ATOM      9 C31  NAC L   1       8.837  -8.456  -8.571  1.00  0.00    -0.0131  A
ATOM     10 C32  NAC L   1      10.001  -8.290  -7.798  1.00  0.00    -0.0305  A
ATOM     11 H55  NAC L   1       8.925  -9.649  -4.871  1.00  0.00    +0.0638  H
ATOM     12 H56  NAC L   1       6.886  -9.951  -6.195  1.00  0.00    +0.0625  H
ATOM     13 H57  NAC L   1       5.662  -9.656  -8.412  1.00  0.00    +0.0836  H
ATOM     14 H58  NAC L   1       7.507  -7.921 -11.648  1.00  0.00    +0.0830  H
ATOM     15 H59  NAC L   1       9.621  -7.573 -10.394  1.00  0.00    +0.0639  H
ATOM     16 H60  NAC L   1      10.870  -7.834  -8.265  1.00  0.00    +0.0644  H
ENDROOT
BRANCH 1 19
ATOM     17 C20  NAC L   1      11.569  -9.392  -4.583  1.00  0.00    +0.2344  C
ATOM     18 O21  NAC L   1      11.020 -10.441  -4.253  1.00  0.00    -0.2722 OA
ATOM     19 N22  NAC L   1      11.177  -8.575  -5.637  1.00  0.00    -0.3256  N
ATOM     20 H54  NAC L   1      11.825  -7.826  -5.882  1.00  0.00    +0.1686 HD
BRANCH 17 21
ATOM     21 C14  NAC L   1      12.831  -8.873  -3.881  1.00  0.00    +0.0803  C
ATOM     22 H47  NAC L   1      13.410  -8.294  -4.610  1.00  0.00    +0.0463  H
BRANCH 21 26
ATOM     23 C10  NAC L   1      12.029  -6.133  -0.593  1.00  0.00    -0.0103  A
ATOM     24 C11  NAC L   1      11.100  -7.127  -0.923  1.00  0.00    -0.0551  A
ATOM     25 C12  NAC L   1      11.344  -8.005  -1.982  1.00  0.00    -0.0574  A
ATOM     26 C13  NAC L   1      12.527  -7.915  -2.732  1.00  0.00    -0.0336  A
ATOM     27 C33  NAC L   1      13.460  -6.924  -2.388  1.00  0.00    -0.0574  A
ATOM     28 C34  NAC L   1      13.216  -6.046  -1.329  1.00  0.00    -0.0551  A
ATOM     29 H45  NAC L   1      10.176  -7.225  -0.354  1.00  0.00    +0.0621  H
ATOM     30 H46  NAC L   1      10.590  -8.752  -2.221  1.00  0.00    +0.0621  H
ATOM     31 H61  NAC L   1      14.393  -6.827  -2.940  1.00  0.00    +0.0621  H
ATOM     32 H62  NAC L   1      13.960  -5.294  -1.077  1.00  0.00    +0.0621  H
BRANCH 23 33
ATOM     33  C9  NAC L   1      11.771  -5.198   0.560  1.00  0.00    +0.1179  C
ATOM     34 H43  NAC L   1      11.363  -4.237   0.221  1.00  0.00    +0.0749  H
ATOM     35 H44  NAC L   1      12.718  -4.963   1.059  1.00  0.00    +0.0749  H
BRANCH 33 36
ATOM     36  O8  NAC L   1      10.927  -5.844   1.520  1.00  0.00    -0.4564 OA
BRANCH 36 37
ATOM     37  C6  NAC L   1      11.414  -5.896   2.781  1.00  0.00    +0.3398  C
ATOM     38  O7  NAC L   1      12.236  -6.687   3.217  1.00  0.00    -0.2449 OA
BRANCH 37 43
ATOM     39  C1  NAC L   1       9.027  -1.687   5.961  1.00  0.00    -0.0397  C
ATOM     40  C2  NAC L   1       9.654  -2.748   5.104  1.00  0.00    -0.0502  A
ATOM     41  C3  NAC L   1       8.941  -3.903   4.773  1.00  0.00    -0.0580  A
ATOM     42  C4  NAC L   1       9.541  -4.903   4.008  1.00  0.00    -0.0473  A
ATOM     43  C5  NAC L   1      10.868  -4.769   3.575  1.00  0.00    +0.0619  A
ATOM     44 C35  NAC L   1      11.597  -3.604   3.881  1.00  0.00    -0.0362  A
ATOM     45 C36  NAC L   1      13.010  -3.380   3.420  1.00  0.00    -0.0389  C
ATOM     46 C37  NAC L   1      10.980  -2.613   4.667  1.00  0.00    -0.0551  A
ATOM     47 H38  NAC L   1       9.415  -0.697   5.703  1.00  0.00    +0.0278  H
ATOM     48 H39  NAC L   1       7.942  -1.658   5.817  1.00  0.00    +0.0278  H
ATOM     49 H40  NAC L   1       9.238  -1.887   7.017  1.00  0.00    +0.0278  H
ATOM     50 H41  NAC L   1       7.915  -4.034   5.109  1.00  0.00    +0.0620  H
ATOM     51 H42  NAC L   1       8.973  -5.796   3.756  1.00  0.00    +0.0626  H
ATOM     52 H63  NAC L   1      13.274  -2.317   3.454  1.00  0.00    +0.0278  H
ATOM     53 H64  NAC L   1      13.138  -3.699   2.380  1.00  0.00    +0.0278  H
ATOM     54 H65  NAC L   1      13.709  -3.923   4.062  1.00  0.00    +0.0278  H
ATOM     55 H66  NAC L   1      11.537  -1.716   4.936  1.00  0.00    +0.0623  H
ENDBRANCH 37 43
ENDBRANCH 36 37
ENDBRANCH 33 36
ENDBRANCH 23 33
ENDBRANCH 21 26
BRANCH 21 56
ATOM     56 C15  NAC L   1      13.699 -10.057  -3.414  1.00  0.00    +0.0334  C
ATOM     57 H48  NAC L   1      14.715  -9.720  -3.175  1.00  0.00    +0.0497  H
ATOM     58 H49  NAC L   1      13.790 -10.789  -4.226  1.00  0.00    +0.0497  H
BRANCH 56 59
ATOM     59 N16  NAC L   1      13.252 -10.801  -2.239  1.00  0.00    -0.3551  N
ATOM     60 C17  NAC L   1      13.795 -10.692  -0.983  1.00  0.00    +0.2179  C
ATOM     61 C18  NAC L   1      13.071 -11.495   0.064  1.00  0.00    +0.0143  C
ATOM     62 O19  NAC L   1      14.814 -10.056  -0.731  1.00  0.00    -0.2736 OA
ATOM     63 H50  NAC L   1      12.424 -11.376  -2.354  1.00  0.00    +0.1623 HD
ATOM     64 H51  NAC L   1      13.452 -12.521   0.055  1.00  0.00    +0.0325  H
ATOM     65 H52  NAC L   1      11.995 -11.507  -0.129  1.00  0.00    +0.0325  H
ATOM     66 H53  NAC L   1      13.244 -11.050   1.047  1.00  0.00    +0.0325  H
ENDBRANCH 56 59
ENDBRANCH 21 56
ENDBRANCH 17 21
ENDBRANCH 1 19
TORSDOF 9
ENDMDL
MODEL 13
REMARK VINA RESULT:    -6.798      2.678      5.223
REMARK INTER + INTRA:         -11.863
REMARK INTER:                  -9.781
REMARK INTRA:                  -2.082
REMARK UNBOUND:                -1.489
ROOT
ATOM      1 C23  NAC L   1      12.182  -7.005  -1.966  1.00  0.00    +0.0423  A
ATOM      2 C24  NAC L   1      11.127  -7.219  -1.073  1.00  0.00    -0.0377  A
ATOM      3 C25  NAC L   1      11.113  -6.596   0.177  1.00  0.00    -0.0506  A
ATOM      4 C26  NAC L   1      12.161  -5.741   0.554  1.00  0.00    +0.0004  A
ATOM      5 C27  NAC L   1      12.205  -5.089   1.789  1.00  0.00    +0.0353  A
ATOM      6 N28  NAC L   1      13.198  -4.260   2.184  1.00  0.00    -0.2626 NA
ATOM      7 C29  NAC L   1      14.202  -4.063   1.305  1.00  0.00    +0.0281  A
ATOM      8 C30  NAC L   1      14.261  -4.656   0.054  1.00  0.00    -0.0358  A
ATOM      9 C31  NAC L   1      13.225  -5.515  -0.338  1.00  0.00    -0.0131  A
ATOM     10 C32  NAC L   1      13.223  -6.151  -1.593  1.00  0.00    -0.0305  A
ATOM     11 H55  NAC L   1      10.302  -7.877  -1.337  1.00  0.00    +0.0638  H
ATOM     12 H56  NAC L   1      10.281  -6.780   0.854  1.00  0.00    +0.0625  H
ATOM     13 H57  NAC L   1      11.415  -5.222   2.523  1.00  0.00    +0.0836  H
ATOM     14 H58  NAC L   1      14.988  -3.393   1.641  1.00  0.00    +0.0830  H
ATOM     15 H59  NAC L   1      15.101  -4.451  -0.602  1.00  0.00    +0.0639  H
ATOM     16 H60  NAC L   1      14.048  -5.955  -2.273  1.00  0.00    +0.0644  H
ENDROOT
BRANCH 1 19
ATOM     17 C20  NAC L   1      12.446  -8.993  -3.485  1.00  0.00    +0.2344  C
ATOM     18 O21  NAC L   1      12.780  -9.836  -2.655  1.00  0.00    -0.2722 OA
ATOM     19 N22  NAC L   1      12.115  -7.673  -3.203  1.00  0.00    -0.3256  N
ATOM     20 H54  NAC L   1      11.709  -7.144  -3.975  1.00  0.00    +0.1686 HD
BRANCH 17 21
ATOM     21 C14  NAC L   1      12.295  -9.327  -4.975  1.00  0.00    +0.0803  C
ATOM     22 H47  NAC L   1      13.044 -10.086  -5.228  1.00  0.00    +0.0463  H
BRANCH 21 26
ATOM     23 C10  NAC L   1       8.411 -11.071  -5.886  1.00  0.00    -0.0103  A
ATOM     24 C11  NAC L   1       9.557 -11.522  -6.549  1.00  0.00    -0.0551  A
ATOM     25 C12  NAC L   1      10.807 -10.963  -6.271  1.00  0.00    -0.0574  A
ATOM     26 C13  NAC L   1      10.941  -9.943  -5.316  1.00  0.00    -0.0336  A
ATOM     27 C33  NAC L   1       9.789  -9.503  -4.645  1.00  0.00    -0.0574  A
ATOM     28 C34  NAC L   1       8.539 -10.063  -4.924  1.00  0.00    -0.0551  A
ATOM     29 H45  NAC L   1       9.485 -12.318  -7.290  1.00  0.00    +0.0621  H
ATOM     30 H46  NAC L   1      11.673 -11.327  -6.820  1.00  0.00    +0.0621  H
ATOM     31 H61  NAC L   1       9.852  -8.720  -3.892  1.00  0.00    +0.0621  H
ATOM     32 H62  NAC L   1       7.665  -9.711  -4.382  1.00  0.00    +0.0621  H
BRANCH 23 33
ATOM     33  C9  NAC L   1       7.067 -11.687  -6.176  1.00  0.00    +0.1179  C
ATOM     34 H43  NAC L   1       6.327 -11.431  -5.408  1.00  0.00    +0.0749  H
ATOM     35 H44  NAC L   1       7.154 -12.780  -6.157  1.00  0.00    +0.0749  H
BRANCH 33 36
ATOM     36  O8  NAC L   1       6.644 -11.313  -7.492  1.00  0.00    -0.4564 OA
BRANCH 36 37
ATOM     37  C6  NAC L   1       6.377  -9.998  -7.666  1.00  0.00    +0.3398  C
ATOM     38  O7  NAC L   1       5.788  -9.261  -6.892  1.00  0.00    -0.2449 OA
BRANCH 37 43
ATOM     39  C1  NAC L   1       9.073  -8.116 -12.432  1.00  0.00    -0.0397  C
ATOM     40  C2  NAC L   1       8.340  -8.577 -11.207  1.00  0.00    -0.0502  A
ATOM     41  C3  NAC L   1       8.926  -8.458  -9.945  1.00  0.00    -0.0580  A
ATOM     42  C4  NAC L   1       8.256  -8.922  -8.813  1.00  0.00    -0.0473  A
ATOM     43  C5  NAC L   1       6.995  -9.526  -8.929  1.00  0.00    +0.0619  A
ATOM     44 C35  NAC L   1       6.379  -9.637 -10.190  1.00  0.00    -0.0362  A
ATOM     45 C36  NAC L   1       5.015 -10.241 -10.382  1.00  0.00    -0.0389  C
ATOM     46 C37  NAC L   1       7.077  -9.177 -11.322  1.00  0.00    -0.0551  A
ATOM     47 H38  NAC L   1       8.374  -7.766 -13.198  1.00  0.00    +0.0278  H
ATOM     48 H39  NAC L   1       9.742  -7.281 -12.198  1.00  0.00    +0.0278  H
ATOM     49 H40  NAC L   1       9.667  -8.939 -12.844  1.00  0.00    +0.0278  H
ATOM     50 H41  NAC L   1       9.908  -8.005  -9.833  1.00  0.00    +0.0620  H
ATOM     51 H42  NAC L   1       8.723  -8.822  -7.836  1.00  0.00    +0.0626  H
ATOM     52 H63  NAC L   1       4.577  -9.932 -11.338  1.00  0.00    +0.0278  H
ATOM     53 H64  NAC L   1       4.325  -9.906  -9.600  1.00  0.00    +0.0278  H
ATOM     54 H65  NAC L   1       5.079 -11.333 -10.375  1.00  0.00    +0.0278  H
ATOM     55 H66  NAC L   1       6.627  -9.278 -12.309  1.00  0.00    +0.0623  H
ENDBRANCH 37 43
ENDBRANCH 36 37
ENDBRANCH 33 36
ENDBRANCH 23 33
ENDBRANCH 21 26
BRANCH 21 56
ATOM     56 C15  NAC L   1      12.578  -8.075  -5.827  1.00  0.00    +0.0334  C
ATOM     57 H48  NAC L   1      13.510  -7.593  -5.507  1.00  0.00    +0.0497  H
ATOM     58 H49  NAC L   1      11.775  -7.342  -5.682  1.00  0.00    +0.0497  H
BRANCH 56 59
ATOM     59 N16  NAC L   1      12.713  -8.257  -7.270  1.00  0.00    -0.3551  N
ATOM     60 C17  NAC L   1      12.208  -7.406  -8.223  1.00  0.00    +0.2179  C
ATOM     61 C18  NAC L   1      12.585  -7.780  -9.631  1.00  0.00    +0.0143  C
ATOM     62 O19  NAC L   1      11.463  -6.464  -7.973  1.00  0.00    -0.2736 OA
ATOM     63 H50  NAC L   1      13.295  -9.027  -7.578  1.00  0.00    +0.1623 HD
ATOM     64 H51  NAC L   1      11.876  -8.523 -10.007  1.00  0.00    +0.0325  H
ATOM     65 H52  NAC L   1      13.596  -8.193  -9.668  1.00  0.00    +0.0325  H
ATOM     66 H53  NAC L   1      12.550  -6.889 -10.264  1.00  0.00    +0.0325  H
ENDBRANCH 56 59
ENDBRANCH 21 56
ENDBRANCH 17 21
ENDBRANCH 1 19
TORSDOF 9
ENDMDL
MODEL 14
REMARK VINA RESULT:    -6.780      2.824     10.521
REMARK INTER + INTRA:         -11.836
REMARK INTER:                 -11.009
REMARK INTRA:                  -0.827
REMARK UNBOUND:                -1.489
ROOT
ATOM      1 C23  NAC L   1      10.253  -8.888  -6.016  1.00  0.00    +0.0423  A
ATOM      2 C24  NAC L   1      10.383  -8.152  -7.198  1.00  0.00    -0.0377  A
ATOM      3 C25  NAC L   1       9.362  -8.149  -8.152  1.00  0.00    -0.0506  A
ATOM      4 C26  NAC L   1       8.186  -8.885  -7.934  1.00  0.00    +0.0004  A
ATOM      5 C27  NAC L   1       7.131  -8.923  -8.848  1.00  0.00    +0.0353  A
ATOM      6 N28  NAC L   1       5.985  -9.620  -8.670  1.00  0.00    -0.2626 NA
ATOM      7 C29  NAC L   1       5.879 -10.317  -7.520  1.00  0.00    +0.0281  A
ATOM      8 C30  NAC L   1       6.861 -10.351  -6.543  1.00  0.00    -0.0358  A
ATOM      9 C31  NAC L   1       8.043  -9.625  -6.745  1.00  0.00    -0.0131  A
ATOM     10 C32  NAC L   1       9.081  -9.617  -5.795  1.00  0.00    -0.0305  A
ATOM     11 H55  NAC L   1      11.282  -7.574  -7.395  1.00  0.00    +0.0638  H
ATOM     12 H56  NAC L   1       9.488  -7.569  -9.064  1.00  0.00    +0.0625  H
ATOM     13 H57  NAC L   1       7.179  -8.373  -9.784  1.00  0.00    +0.0836  H
ATOM     14 H58  NAC L   1       4.951 -10.868  -7.396  1.00  0.00    +0.0830  H
ATOM     15 H59  NAC L   1       6.707 -10.934  -5.641  1.00  0.00    +0.0639  H
ATOM     16 H60  NAC L   1       8.947 -10.185  -4.879  1.00  0.00    +0.0644  H
ENDROOT
BRANCH 1 19
ATOM     17 C20  NAC L   1      12.473  -8.050  -5.183  1.00  0.00    +0.2344  C
ATOM     18 O21  NAC L   1      12.693  -7.189  -6.033  1.00  0.00    -0.2722 OA
ATOM     19 N22  NAC L   1      11.330  -8.835  -5.110  1.00  0.00    -0.3256  N
ATOM     20 H54  NAC L   1      11.226  -9.390  -4.261  1.00  0.00    +0.1686 HD
BRANCH 17 21
ATOM     21 C14  NAC L   1      13.447  -8.327  -4.030  1.00  0.00    +0.0803  C
ATOM     22 H47  NAC L   1      14.459  -8.098  -4.380  1.00  0.00    +0.0463  H
BRANCH 21 26
ATOM     23 C10  NAC L   1      12.831  -5.788  -0.546  1.00  0.00    -0.0103  A
ATOM     24 C11  NAC L   1      11.737  -6.384  -1.184  1.00  0.00    -0.0551  A
ATOM     25 C12  NAC L   1      11.924  -7.193  -2.308  1.00  0.00    -0.0574  A
ATOM     26 C13  NAC L   1      13.209  -7.431  -2.817  1.00  0.00    -0.0336  A
ATOM     27 C33  NAC L   1      14.304  -6.840  -2.165  1.00  0.00    -0.0574  A
ATOM     28 C34  NAC L   1      14.117  -6.031  -1.042  1.00  0.00    -0.0551  A
ATOM     29 H45  NAC L   1      10.728  -6.223  -0.808  1.00  0.00    +0.0621  H
ATOM     30 H46  NAC L   1      11.048  -7.624  -2.788  1.00  0.00    +0.0621  H
ATOM     31 H61  NAC L   1      15.318  -7.008  -2.523  1.00  0.00    +0.0621  H
ATOM     32 H62  NAC L   1      14.983  -5.594  -0.550  1.00  0.00    +0.0621  H
BRANCH 23 33
ATOM     33  C9  NAC L   1      12.629  -4.929   0.675  1.00  0.00    +0.1179  C
ATOM     34 H43  NAC L   1      12.761  -3.863   0.449  1.00  0.00    +0.0749  H
ATOM     35 H44  NAC L   1      13.391  -5.174   1.424  1.00  0.00    +0.0749  H
BRANCH 33 36
ATOM     36  O8  NAC L   1      11.350  -5.213   1.253  1.00  0.00    -0.4564 OA
BRANCH 36 37
ATOM     37  C6  NAC L   1      11.375  -5.664   2.528  1.00  0.00    +0.3398  C
ATOM     38  O7  NAC L   1      11.924  -6.674   2.938  1.00  0.00    -0.2449 OA
BRANCH 37 43
ATOM     39  C1  NAC L   1       8.975  -1.638   5.928  1.00  0.00    -0.0397  C
ATOM     40  C2  NAC L   1       9.590  -2.713   5.079  1.00  0.00    -0.0502  A
ATOM     41  C3  NAC L   1      10.885  -2.564   4.579  1.00  0.00    -0.0580  A
ATOM     42  C4  NAC L   1      11.439  -3.547   3.760  1.00  0.00    -0.0473  A
ATOM     43  C5  NAC L   1      10.698  -4.688   3.417  1.00  0.00    +0.0619  A
ATOM     44 C35  NAC L   1       9.398  -4.866   3.927  1.00  0.00    -0.0362  A
ATOM     45 C36  NAC L   1       8.563  -6.080   3.627  1.00  0.00    -0.0389  C
ATOM     46 C37  NAC L   1       8.851  -3.856   4.739  1.00  0.00    -0.0551  A
ATOM     47 H38  NAC L   1       8.272  -2.066   6.651  1.00  0.00    +0.0278  H
ATOM     48 H39  NAC L   1       9.741  -1.103   6.499  1.00  0.00    +0.0278  H
ATOM     49 H40  NAC L   1       8.440  -0.923   5.295  1.00  0.00    +0.0278  H
ATOM     50 H41  NAC L   1      11.473  -1.681   4.822  1.00  0.00    +0.0620  H
ATOM     51 H42  NAC L   1      12.450  -3.420   3.379  1.00  0.00    +0.0626  H
ATOM     52 H63  NAC L   1       7.759  -6.198   4.363  1.00  0.00    +0.0278  H
ATOM     53 H64  NAC L   1       9.166  -6.993   3.676  1.00  0.00    +0.0278  H
ATOM     54 H65  NAC L   1       8.106  -5.992   2.638  1.00  0.00    +0.0278  H
ATOM     55 H66  NAC L   1       7.837  -3.964   5.122  1.00  0.00    +0.0623  H
ENDBRANCH 37 43
ENDBRANCH 36 37
ENDBRANCH 33 36
ENDBRANCH 23 33
ENDBRANCH 21 26
BRANCH 21 56
ATOM     56 C15  NAC L   1      13.400  -9.820  -3.648  1.00  0.00    +0.0334  C
ATOM     57 H48  NAC L   1      14.401 -10.263  -3.701  1.00  0.00    +0.0497  H
ATOM     58 H49  NAC L   1      12.773 -10.363  -4.366  1.00  0.00    +0.0497  H
BRANCH 56 59
ATOM     59 N16  NAC L   1      12.895 -10.162  -2.321  1.00  0.00    -0.3551  N
ATOM     60 C17  NAC L   1      11.701 -10.791  -2.069  1.00  0.00    +0.2179  C
ATOM     61 C18  NAC L   1      11.480 -11.115  -0.616  1.00  0.00    +0.0143  C
ATOM     62 O19  NAC L   1      10.852 -11.016  -2.926  1.00  0.00    -0.2736 OA
ATOM     63 H50  NAC L   1      13.519  -9.991  -1.540  1.00  0.00    +0.1623 HD
ATOM     64 H51  NAC L   1      11.055 -10.242  -0.115  1.00  0.00    +0.0325  H
ATOM     65 H52  NAC L   1      12.420 -11.390  -0.131  1.00  0.00    +0.0325  H
ATOM     66 H53  NAC L   1      10.787 -11.957  -0.534  1.00  0.00    +0.0325  H
ENDBRANCH 56 59
ENDBRANCH 21 56
ENDBRANCH 17 21
ENDBRANCH 1 19
TORSDOF 9
ENDMDL
MODEL 15
REMARK VINA RESULT:    -6.730      2.987     10.817
REMARK INTER + INTRA:         -11.760
REMARK INTER:                 -10.534
REMARK INTRA:                  -1.226
REMARK UNBOUND:                -1.489
ROOT
ATOM      1 C23  NAC L   1      11.609  -8.286  -5.104  1.00  0.00    +0.0423  A
ATOM      2 C24  NAC L   1      10.598  -9.250  -5.025  1.00  0.00    -0.0377  A
ATOM      3 C25  NAC L   1       9.674  -9.401  -6.063  1.00  0.00    -0.0506  A
ATOM      4 C26  NAC L   1       9.752  -8.586  -7.204  1.00  0.00    +0.0004  A
ATOM      5 C27  NAC L   1       8.859  -8.688  -8.274  1.00  0.00    +0.0353  A
ATOM      6 N28  NAC L   1       8.905  -7.921  -9.387  1.00  0.00    -0.2626 NA
ATOM      7 C29  NAC L   1       9.892  -7.004  -9.444  1.00  0.00    +0.0281  A
ATOM      8 C30  NAC L   1      10.832  -6.816  -8.444  1.00  0.00    -0.0358  A
ATOM      9 C31  NAC L   1      10.768  -7.618  -7.296  1.00  0.00    -0.0131  A
ATOM     10 C32  NAC L   1      11.689  -7.479  -6.241  1.00  0.00    -0.0305  A
ATOM     11 H55  NAC L   1      10.513  -9.894  -4.153  1.00  0.00    +0.0638  H
ATOM     12 H56  NAC L   1       8.897 -10.157  -5.976  1.00  0.00    +0.0625  H
ATOM     13 H57  NAC L   1       8.053  -9.416  -8.265  1.00  0.00    +0.0836  H
ATOM     14 H58  NAC L   1       9.911  -6.400 -10.347  1.00  0.00    +0.0830  H
ATOM     15 H59  NAC L   1      11.599  -6.057  -8.558  1.00  0.00    +0.0639  H
ATOM     16 H60  NAC L   1      12.474  -6.733  -6.336  1.00  0.00    +0.0644  H
ENDROOT
BRANCH 1 19
ATOM     17 C20  NAC L   1      12.205  -7.874  -2.695  1.00  0.00    +0.2344  C
ATOM     18 O21  NAC L   1      11.080  -7.681  -2.241  1.00  0.00    -0.2722 OA
ATOM     19 N22  NAC L   1      12.496  -8.203  -4.014  1.00  0.00    -0.3256  N
ATOM     20 H54  NAC L   1      13.458  -8.485  -4.199  1.00  0.00    +0.1686 HD
BRANCH 17 21
ATOM     21 C14  NAC L   1      13.461  -7.830  -1.815  1.00  0.00    +0.0803  C
ATOM     22 H47  NAC L   1      14.296  -7.482  -2.434  1.00  0.00    +0.0463  H
BRANCH 21 26
ATOM     23 C10  NAC L   1      13.190  -4.948   1.438  1.00  0.00    -0.0103  A
ATOM     24 C11  NAC L   1      12.995  -6.311   1.688  1.00  0.00    -0.0551  A
ATOM     25 C12  NAC L   1      13.072  -7.242   0.650  1.00  0.00    -0.0574  A
ATOM     26 C13  NAC L   1      13.351  -6.834  -0.663  1.00  0.00    -0.0336  A
ATOM     27 C33  NAC L   1      13.557  -5.466  -0.906  1.00  0.00    -0.0574  A
ATOM     28 C34  NAC L   1      13.481  -4.535   0.133  1.00  0.00    -0.0551  A
ATOM     29 H45  NAC L   1      12.784  -6.658   2.699  1.00  0.00    +0.0621  H
ATOM     30 H46  NAC L   1      12.896  -8.291   0.880  1.00  0.00    +0.0621  H
ATOM     31 H61  NAC L   1      13.785  -5.110  -1.909  1.00  0.00    +0.0621  H
ATOM     32 H62  NAC L   1      13.656  -3.483  -0.081  1.00  0.00    +0.0621  H
BRANCH 23 33
ATOM     33  C9  NAC L   1      13.124  -3.947   2.562  1.00  0.00    +0.1179  C
ATOM     34 H43  NAC L   1      13.674  -3.028   2.323  1.00  0.00    +0.0749  H
ATOM     35 H44  NAC L   1      13.610  -4.364   3.452  1.00  0.00    +0.0749  H
BRANCH 33 36
ATOM     36  O8  NAC L   1      11.755  -3.695   2.898  1.00  0.00    -0.4564 OA
BRANCH 36 37
ATOM     37  C6  NAC L   1      11.552  -3.049   4.069  1.00  0.00    +0.3398  C
ATOM     38  O7  NAC L   1      12.037  -1.983   4.412  1.00  0.00    -0.2449 OA
BRANCH 37 43
ATOM     39  C1  NAC L   1       7.853  -6.196   7.223  1.00  0.00    -0.0397  C
ATOM     40  C2  NAC L   1       8.777  -5.366   6.381  1.00  0.00    -0.0502  A
ATOM     41  C3  NAC L   1       9.851  -5.959   5.713  1.00  0.00    -0.0580  A
ATOM     42  C4  NAC L   1      10.729  -5.178   4.963  1.00  0.00    -0.0473  A
ATOM     43  C5  NAC L   1      10.554  -3.788   4.881  1.00  0.00    +0.0619  A
ATOM     44 C35  NAC L   1       9.466  -3.174   5.530  1.00  0.00    -0.0362  A
ATOM     45 C36  NAC L   1       9.200  -1.696   5.456  1.00  0.00    -0.0389  C
ATOM     46 C37  NAC L   1       8.600  -3.977   6.296  1.00  0.00    -0.0551  A
ATOM     47 H38  NAC L   1       6.842  -5.777   7.224  1.00  0.00    +0.0278  H
ATOM     48 H39  NAC L   1       7.780  -7.217   6.834  1.00  0.00    +0.0278  H
ATOM     49 H40  NAC L   1       8.221  -6.236   8.253  1.00  0.00    +0.0278  H
ATOM     50 H41  NAC L   1      10.014  -7.033   5.773  1.00  0.00    +0.0620  H
ATOM     51 H42  NAC L   1      11.560  -5.653   4.446  1.00  0.00    +0.0626  H
ATOM     52 H63  NAC L   1       8.160  -1.468   5.719  1.00  0.00    +0.0278  H
ATOM     53 H64  NAC L   1       9.353  -1.321   4.438  1.00  0.00    +0.0278  H
ATOM     54 H65  NAC L   1       9.851  -1.157   6.150  1.00  0.00    +0.0278  H
ATOM     55 H66  NAC L   1       7.768  -3.515   6.826  1.00  0.00    +0.0623  H
ENDBRANCH 37 43
ENDBRANCH 36 37
ENDBRANCH 33 36
ENDBRANCH 23 33
ENDBRANCH 21 26
BRANCH 21 56
ATOM     56 C15  NAC L   1      13.800  -9.245  -1.308  1.00  0.00    +0.0334  C
ATOM     57 H48  NAC L   1      14.105  -9.215  -0.255  1.00  0.00    +0.0497  H
ATOM     58 H49  NAC L   1      14.650  -9.645  -1.874  1.00  0.00    +0.0497  H
BRANCH 56 59
ATOM     59 N16  NAC L   1      12.748 -10.256  -1.376  1.00  0.00    -0.3551  N
ATOM     60 C17  NAC L   1      12.134 -10.831  -0.290  1.00  0.00    +0.2179  C
ATOM     61 C18  NAC L   1      11.012 -11.765  -0.651  1.00  0.00    +0.0143  C
ATOM     62 O19  NAC L   1      12.497 -10.660   0.870  1.00  0.00    -0.2736 OA
ATOM     63 H50  NAC L   1      12.395 -10.483  -2.299  1.00  0.00    +0.1623 HD
ATOM     64 H51  NAC L   1      11.424 -12.756  -0.864  1.00  0.00    +0.0325  H
ATOM     65 H52  NAC L   1      10.469 -11.403  -1.528  1.00  0.00    +0.0325  H
ATOM     66 H53  NAC L   1      10.313 -11.834   0.187  1.00  0.00    +0.0325  H
ENDBRANCH 56 59
ENDBRANCH 21 56
ENDBRANCH 17 21
ENDBRANCH 1 19
TORSDOF 9
ENDMDL
MODEL 16
REMARK VINA RESULT:    -6.641      3.656     11.488
REMARK INTER + INTRA:         -11.624
REMARK INTER:                  -9.785
REMARK INTRA:                  -1.839
REMARK UNBOUND:                -1.489
ROOT
ATOM      1 C23  NAC L   1       8.941  -9.378  -8.827  1.00  0.00    +0.0423  A
ATOM      2 C24  NAC L   1       8.723  -8.459  -9.859  1.00  0.00    -0.0377  A
ATOM      3 C25  NAC L   1       7.564  -8.523 -10.638  1.00  0.00    -0.0506  A
ATOM      4 C26  NAC L   1       6.599  -9.513 -10.392  1.00  0.00    +0.0004  A
ATOM      5 C27  NAC L   1       5.422  -9.630 -11.135  1.00  0.00    +0.0353  A
ATOM      6 N28  NAC L   1       4.472 -10.570 -10.925  1.00  0.00    -0.2626 NA
ATOM      7 C29  NAC L   1       4.700 -11.441  -9.921  1.00  0.00    +0.0281  A
ATOM      8 C30  NAC L   1       5.831 -11.419  -9.121  1.00  0.00    -0.0358  A
ATOM      9 C31  NAC L   1       6.806 -10.439  -9.353  1.00  0.00    -0.0131  A
ATOM     10 C32  NAC L   1       7.979 -10.361  -8.579  1.00  0.00    -0.0305  A
ATOM     11 H55  NAC L   1       9.453  -7.682 -10.073  1.00  0.00    +0.0638  H
ATOM     12 H56  NAC L   1       7.419  -7.797 -11.435  1.00  0.00    +0.0625  H
ATOM     13 H57  NAC L   1       5.202  -8.946 -11.950  1.00  0.00    +0.0836  H
ATOM     14 H58  NAC L   1       3.925 -12.186  -9.769  1.00  0.00    +0.0830  H
ATOM     15 H59  NAC L   1       5.948 -12.152  -8.330  1.00  0.00    +0.0639  H
ATOM     16 H60  NAC L   1       8.115 -11.078  -7.775  1.00  0.00    +0.0644  H
ENDROOT
BRANCH 1 19
ATOM     17 C20  NAC L   1      10.474  -8.243  -7.189  1.00  0.00    +0.2344  C
ATOM     18 O21  NAC L   1       9.730  -7.341  -6.810  1.00  0.00    -0.2722 OA
ATOM     19 N22  NAC L   1      10.134  -9.241  -8.094  1.00  0.00    -0.3256  N
ATOM     20 H54  NAC L   1      10.805 -10.004  -8.185  1.00  0.00    +0.1686 HD
BRANCH 17 21
ATOM     21 C14  NAC L   1      11.899  -8.411  -6.642  1.00  0.00    +0.0803  C
ATOM     22 H47  NAC L   1      12.490  -7.549  -6.970  1.00  0.00    +0.0463  H
BRANCH 21 26
ATOM     23 C10  NAC L   1      12.139  -8.386  -2.294  1.00  0.00    -0.0103  A
ATOM     24 C11  NAC L   1      11.141  -9.126  -2.939  1.00  0.00    -0.0551  A
ATOM     25 C12  NAC L   1      11.051  -9.133  -4.333  1.00  0.00    -0.0574  A
ATOM     26 C13  NAC L   1      11.959  -8.406  -5.117  1.00  0.00    -0.0336  A
ATOM     27 C33  NAC L   1      12.965  -7.675  -4.464  1.00  0.00    -0.0574  A
ATOM     28 C34  NAC L   1      13.056  -7.668  -3.070  1.00  0.00    -0.0551  A
ATOM     29 H45  NAC L   1      10.426  -9.706  -2.358  1.00  0.00    +0.0621  H
ATOM     30 H46  NAC L   1      10.250  -9.706  -4.798  1.00  0.00    +0.0621  H
ATOM     31 H61  NAC L   1      13.695  -7.105  -5.036  1.00  0.00    +0.0621  H
ATOM     32 H62  NAC L   1      13.851  -7.102  -2.590  1.00  0.00    +0.0621  H
BRANCH 23 33
ATOM     33  C9  NAC L   1      12.245  -8.393  -0.792  1.00  0.00    +0.1179  C
ATOM     34 H43  NAC L   1      13.187  -7.948  -0.447  1.00  0.00    +0.0749  H
ATOM     35 H44  NAC L   1      12.253  -9.429  -0.431  1.00  0.00    +0.0749  H
BRANCH 33 36
ATOM     36  O8  NAC L   1      11.096  -7.751  -0.228  1.00  0.00    -0.4564 OA
BRANCH 36 37
ATOM     37  C6  NAC L   1      11.034  -6.411  -0.403  1.00  0.00    +0.3398  C
ATOM     38  O7  NAC L   1      10.410  -5.812  -1.264  1.00  0.00    -0.2449 OA
BRANCH 37 43
ATOM     39  C1  NAC L   1      13.744  -3.908   4.061  1.00  0.00    -0.0397  C
ATOM     40  C2  NAC L   1      13.040  -4.517   2.883  1.00  0.00    -0.0502  A
ATOM     41  C3  NAC L   1      11.837  -5.204   3.055  1.00  0.00    -0.0580  A
ATOM     42  C4  NAC L   1      11.206  -5.800   1.964  1.00  0.00    -0.0473  A
ATOM     43  C5  NAC L   1      11.778  -5.730   0.685  1.00  0.00    +0.0619  A
ATOM     44 C35  NAC L   1      12.980  -5.025   0.487  1.00  0.00    -0.0362  A
ATOM     45 C36  NAC L   1      13.629  -4.881  -0.862  1.00  0.00    -0.0389  C
ATOM     46 C37  NAC L   1      13.610  -4.443   1.603  1.00  0.00    -0.0551  A
ATOM     47 H38  NAC L   1      14.299  -3.013   3.764  1.00  0.00    +0.0278  H
ATOM     48 H39  NAC L   1      13.028  -3.605   4.831  1.00  0.00    +0.0278  H
ATOM     49 H40  NAC L   1      14.443  -4.631   4.493  1.00  0.00    +0.0278  H
ATOM     50 H41  NAC L   1      11.382  -5.282   4.041  1.00  0.00    +0.0620  H
ATOM     51 H42  NAC L   1      10.268  -6.331   2.112  1.00  0.00    +0.0626  H
ATOM     52 H63  NAC L   1      14.333  -4.041  -0.874  1.00  0.00    +0.0278  H
ATOM     53 H64  NAC L   1      12.883  -4.673  -1.636  1.00  0.00    +0.0278  H
ATOM     54 H65  NAC L   1      14.182  -5.790  -1.116  1.00  0.00    +0.0278  H
ATOM     55 H66  NAC L   1      14.554  -3.916   1.473  1.00  0.00    +0.0623  H
ENDBRANCH 37 43
ENDBRANCH 36 37
ENDBRANCH 33 36
ENDBRANCH 23 33
ENDBRANCH 21 26
BRANCH 21 56
ATOM     56 C15  NAC L   1      12.541  -9.683  -7.229  1.00  0.00    +0.0334  C
ATOM     57 H48  NAC L   1      11.792 -10.286  -7.756  1.00  0.00    +0.0497  H
ATOM     58 H49  NAC L   1      12.935 -10.305  -6.416  1.00  0.00    +0.0497  H
BRANCH 56 59
ATOM     59 N16  NAC L   1      13.635  -9.508  -8.181  1.00  0.00    -0.3551  N
ATOM     60 C17  NAC L   1      13.487  -9.137  -9.495  1.00  0.00    +0.2179  C
ATOM     61 C18  NAC L   1      14.789  -8.930 -10.219  1.00  0.00    +0.0143  C
ATOM     62 O19  NAC L   1      12.401  -9.042 -10.060  1.00  0.00    -0.2736 OA
ATOM     63 H50  NAC L   1      14.576  -9.590  -7.811  1.00  0.00    +0.1623 HD
ATOM     64 H51  NAC L   1      15.146  -9.893 -10.596  1.00  0.00    +0.0325  H
ATOM     65 H52  NAC L   1      15.542  -8.500  -9.553  1.00  0.00    +0.0325  H
ATOM     66 H53  NAC L   1      14.634  -8.245 -11.056  1.00  0.00    +0.0325  H
ENDBRANCH 56 59
ENDBRANCH 21 56
ENDBRANCH 17 21
ENDBRANCH 1 19
TORSDOF 9
ENDMDL
MODEL 17
REMARK VINA RESULT:    -6.632      3.995     10.421
REMARK INTER + INTRA:         -11.611
REMARK INTER:                  -9.560
REMARK INTRA:                  -2.051
REMARK UNBOUND:                -1.489
ROOT
ATOM      1 C23  NAC L   1      13.632  -7.318  -1.757  1.00  0.00    +0.0423  A
ATOM      2 C24  NAC L   1      14.533  -7.493  -2.813  1.00  0.00    -0.0377  A
ATOM      3 C25  NAC L   1      14.177  -8.242  -3.938  1.00  0.00    -0.0506  A
ATOM      4 C26  NAC L   1      12.903  -8.827  -4.025  1.00  0.00    +0.0004  A
ATOM      5 C27  NAC L   1      12.487  -9.585  -5.122  1.00  0.00    +0.0353  A
ATOM      6 N28  NAC L   1      11.269 -10.162  -5.239  1.00  0.00    -0.2626 NA
ATOM      7 C29  NAC L   1      10.415  -9.974  -4.213  1.00  0.00    +0.0281  A
ATOM      8 C30  NAC L   1      10.719  -9.241  -3.077  1.00  0.00    -0.0358  A
ATOM      9 C31  NAC L   1      11.987  -8.652  -2.972  1.00  0.00    -0.0131  A
ATOM     10 C32  NAC L   1      12.363  -7.896  -1.846  1.00  0.00    -0.0305  A
ATOM     11 H55  NAC L   1      15.526  -7.053  -2.773  1.00  0.00    +0.0638  H
ATOM     12 H56  NAC L   1      14.896  -8.364  -4.744  1.00  0.00    +0.0625  H
ATOM     13 H57  NAC L   1      13.147  -9.757  -5.968  1.00  0.00    +0.0836  H
ATOM     14 H58  NAC L   1       9.442 -10.444  -4.328  1.00  0.00    +0.0830  H
ATOM     15 H59  NAC L   1       9.981  -9.131  -2.290  1.00  0.00    +0.0639  H
ATOM     16 H60  NAC L   1      11.637  -7.763  -1.048  1.00  0.00    +0.0644  H
ENDROOT
BRANCH 1 19
ATOM     17 C20  NAC L   1      13.948  -5.180  -0.471  1.00  0.00    +0.2344  C
ATOM     18 O21  NAC L   1      13.337  -4.411  -1.208  1.00  0.00    -0.2722 OA
ATOM     19 N22  NAC L   1      14.074  -6.550  -0.663  1.00  0.00    -0.3256  N
ATOM     20 H54  NAC L   1      14.475  -7.073   0.116  1.00  0.00    +0.1686 HD
BRANCH 17 21
ATOM     21 C14  NAC L   1      14.619  -4.710   0.827  1.00  0.00    +0.0803  C
ATOM     22 H47  NAC L   1      15.226  -3.828   0.593  1.00  0.00    +0.0463  H
BRANCH 21 26
ATOM     23 C10  NAC L   1      11.716  -3.445   3.816  1.00  0.00    -0.0103  A
ATOM     24 C11  NAC L   1      12.967  -2.821   3.742  1.00  0.00    -0.0551  A
ATOM     25 C12  NAC L   1      13.908  -3.226   2.792  1.00  0.00    -0.0574  A
ATOM     26 C13  NAC L   1      13.619  -4.260   1.889  1.00  0.00    -0.0336  A
ATOM     27 C33  NAC L   1      12.359  -4.874   1.961  1.00  0.00    -0.0574  A
ATOM     28 C34  NAC L   1      11.417  -4.469   2.911  1.00  0.00    -0.0551  A
ATOM     29 H45  NAC L   1      13.217  -2.010   4.426  1.00  0.00    +0.0621  H
ATOM     30 H46  NAC L   1      14.876  -2.729   2.777  1.00  0.00    +0.0621  H
ATOM     31 H61  NAC L   1      12.092  -5.674   1.273  1.00  0.00    +0.0621  H
ATOM     32 H62  NAC L   1      10.445  -4.955   2.937  1.00  0.00    +0.0621  H
BRANCH 23 33
ATOM     33  C9  NAC L   1      10.697  -2.996   4.831  1.00  0.00    +0.1179  C
ATOM     34 H43  NAC L   1       9.778  -2.633   4.352  1.00  0.00    +0.0749  H
ATOM     35 H44  NAC L   1      11.095  -2.146   5.398  1.00  0.00    +0.0749  H
BRANCH 33 36
ATOM     36  O8  NAC L   1      10.449  -4.056   5.761  1.00  0.00    -0.4564 OA
BRANCH 36 37
ATOM     37  C6  NAC L   1       9.172  -4.163   6.195  1.00  0.00    +0.3398  C
ATOM     38  O7  NAC L   1       8.429  -3.250   6.519  1.00  0.00    -0.2449 OA
BRANCH 37 43
ATOM     39  C1  NAC L   1       7.512  -9.709   6.299  1.00  0.00    -0.0397  C
ATOM     40  C2  NAC L   1       7.971  -8.282   6.238  1.00  0.00    -0.0502  A
ATOM     41  C3  NAC L   1       8.492  -7.657   7.373  1.00  0.00    -0.0580  A
ATOM     42  C4  NAC L   1       8.881  -6.319   7.322  1.00  0.00    -0.0473  A
ATOM     43  C5  NAC L   1       8.742  -5.581   6.137  1.00  0.00    +0.0619  A
ATOM     44 C35  NAC L   1       8.237  -6.198   4.976  1.00  0.00    -0.0362  A
ATOM     45 C36  NAC L   1       8.094  -5.477   3.665  1.00  0.00    -0.0389  C
ATOM     46 C37  NAC L   1       7.835  -7.545   5.052  1.00  0.00    -0.0551  A
ATOM     47 H38  NAC L   1       7.650 -10.205   5.333  1.00  0.00    +0.0278  H
ATOM     48 H39  NAC L   1       8.089 -10.275   7.038  1.00  0.00    +0.0278  H
ATOM     49 H40  NAC L   1       6.453  -9.750   6.570  1.00  0.00    +0.0278  H
ATOM     50 H41  NAC L   1       8.597  -8.206   8.306  1.00  0.00    +0.0620  H
ATOM     51 H42  NAC L   1       9.288  -5.845   8.213  1.00  0.00    +0.0626  H
ATOM     52 H63  NAC L   1       8.021  -6.184   2.831  1.00  0.00    +0.0278  H
ATOM     53 H64  NAC L   1       8.969  -4.849   3.465  1.00  0.00    +0.0278  H
ATOM     54 H65  NAC L   1       7.190  -4.861   3.667  1.00  0.00    +0.0278  H
ATOM     55 H66  NAC L   1       7.419  -8.031   4.171  1.00  0.00    +0.0623  H
ENDBRANCH 37 43
ENDBRANCH 36 37
ENDBRANCH 33 36
ENDBRANCH 23 33
ENDBRANCH 21 26
BRANCH 21 56
ATOM     56 C15  NAC L   1      15.558  -5.807   1.363  1.00  0.00    +0.0334  C
ATOM     57 H48  NAC L   1      16.582  -5.425   1.461  1.00  0.00    +0.0497  H
ATOM     58 H49  NAC L   1      15.597  -6.639   0.649  1.00  0.00    +0.0497  H
BRANCH 56 59
ATOM     59 N16  NAC L   1      15.239  -6.395   2.661  1.00  0.00    -0.3551  N
ATOM     60 C17  NAC L   1      14.575  -7.582   2.848  1.00  0.00    +0.2179  C
ATOM     61 C18  NAC L   1      14.473  -8.001   4.290  1.00  0.00    +0.0143  C
ATOM     62 O19  NAC L   1      14.049  -8.222   1.942  1.00  0.00    -0.2736 OA
ATOM     63 H50  NAC L   1      15.612  -5.923   3.477  1.00  0.00    +0.1623 HD
ATOM     64 H51  NAC L   1      13.604  -7.515   4.744  1.00  0.00    +0.0325  H
ATOM     65 H52  NAC L   1      15.374  -7.721   4.842  1.00  0.00    +0.0325  H
ATOM     66 H53  NAC L   1      14.354  -9.086   4.345  1.00  0.00    +0.0325  H
ENDBRANCH 56 59
ENDBRANCH 21 56
ENDBRANCH 17 21
ENDBRANCH 1 19
TORSDOF 9
ENDMDL
MODEL 18
REMARK VINA RESULT:    -6.632      3.610     11.490
REMARK INTER + INTRA:         -11.611
REMARK INTER:                 -10.199
REMARK INTRA:                  -1.412
REMARK UNBOUND:                -1.489
ROOT
ATOM      1 C23  NAC L   1      12.417  -8.707  -7.814  1.00  0.00    +0.0423  A
ATOM      2 C24  NAC L   1      11.352  -9.089  -8.637  1.00  0.00    -0.0377  A
ATOM      3 C25  NAC L   1      11.344  -8.753  -9.994  1.00  0.00    -0.0506  A
ATOM      4 C26  NAC L   1      12.410  -8.028 -10.550  1.00  0.00    +0.0004  A
ATOM      5 C27  NAC L   1      12.461  -7.663 -11.898  1.00  0.00    +0.0353  A
ATOM      6 N28  NAC L   1      13.471  -6.966 -12.467  1.00  0.00    -0.2626 NA
ATOM      7 C29  NAC L   1      14.490  -6.615 -11.656  1.00  0.00    +0.0281  A
ATOM      8 C30  NAC L   1      14.546  -6.924 -10.306  1.00  0.00    -0.0358  A
ATOM      9 C31  NAC L   1      13.489  -7.644  -9.733  1.00  0.00    -0.0131  A
ATOM     10 C32  NAC L   1      13.481  -7.991  -8.369  1.00  0.00    -0.0305  A
ATOM     11 H55  NAC L   1      10.513  -9.650  -8.234  1.00  0.00    +0.0638  H
ATOM     12 H56  NAC L   1      10.504  -9.061 -10.612  1.00  0.00    +0.0625  H
ATOM     13 H57  NAC L   1      11.660  -7.929 -12.582  1.00  0.00    +0.0836  H
ATOM     14 H58  NAC L   1      15.291  -6.058 -12.133  1.00  0.00    +0.0830  H
ATOM     15 H59  NAC L   1      15.398  -6.609  -9.714  1.00  0.00    +0.0639  H
ATOM     16 H60  NAC L   1      14.327  -7.695  -7.756  1.00  0.00    +0.0644  H
ENDROOT
BRANCH 1 19
ATOM     17 C20  NAC L   1      11.538  -8.553  -5.463  1.00  0.00    +0.2344  C
ATOM     18 O21  NAC L   1      10.674  -7.695  -5.628  1.00  0.00    -0.2722 OA
ATOM     19 N22  NAC L   1      12.343  -9.087  -6.461  1.00  0.00    -0.3256  N
ATOM     20 H54  NAC L   1      12.899  -9.901  -6.194  1.00  0.00    +0.1686 HD
BRANCH 17 21
ATOM     21 C14  NAC L   1      11.796  -9.201  -4.095  1.00  0.00    +0.0803  C
ATOM     22 H47  NAC L   1      12.742  -9.751  -4.156  1.00  0.00    +0.0463  H
BRANCH 21 26
ATOM     23 C10  NAC L   1      12.375  -6.295  -0.904  1.00  0.00    -0.0103  A
ATOM     24 C11  NAC L   1      11.257  -7.136  -0.895  1.00  0.00    -0.0551  A
ATOM     25 C12  NAC L   1      11.058  -8.065  -1.919  1.00  0.00    -0.0574  A
ATOM     26 C13  NAC L   1      11.976  -8.181  -2.974  1.00  0.00    -0.0336  A
ATOM     27 C33  NAC L   1      13.102  -7.342  -2.971  1.00  0.00    -0.0574  A
ATOM     28 C34  NAC L   1      13.301  -6.413  -1.947  1.00  0.00    -0.0551  A
ATOM     29 H45  NAC L   1      10.531  -7.074  -0.086  1.00  0.00    +0.0621  H
ATOM     30 H46  NAC L   1      10.167  -8.689  -1.888  1.00  0.00    +0.0621  H
ATOM     31 H61  NAC L   1      13.842  -7.407  -3.766  1.00  0.00    +0.0621  H
ATOM     32 H62  NAC L   1      14.188  -5.783  -1.964  1.00  0.00    +0.0621  H
BRANCH 23 33
ATOM     33  C9  NAC L   1      12.596  -5.305   0.209  1.00  0.00    +0.1179  C
ATOM     34 H43  NAC L   1      12.842  -4.306  -0.176  1.00  0.00    +0.0749  H
ATOM     35 H44  NAC L   1      13.461  -5.616   0.809  1.00  0.00    +0.0749  H
BRANCH 33 36
ATOM     36  O8  NAC L   1      11.455  -5.293   1.073  1.00  0.00    -0.4564 OA
BRANCH 36 37
ATOM     37  C6  NAC L   1      11.701  -5.601   2.367  1.00  0.00    +0.3398  C
ATOM     38  O7  NAC L   1      12.381  -6.525   2.785  1.00  0.00    -0.2449 OA
BRANCH 37 43
ATOM     39  C1  NAC L   1       9.060  -1.817   5.865  1.00  0.00    -0.0397  C
ATOM     40  C2  NAC L   1       9.752  -2.764   4.929  1.00  0.00    -0.0502  A
ATOM     41  C3  NAC L   1       9.098  -3.910   4.470  1.00  0.00    -0.0580  A
ATOM     42  C4  NAC L   1       9.757  -4.807   3.631  1.00  0.00    -0.0473  A
ATOM     43  C5  NAC L   1      11.088  -4.578   3.249  1.00  0.00    +0.0619  A
ATOM     44 C35  NAC L   1      11.758  -3.419   3.685  1.00  0.00    -0.0362  A
ATOM     45 C36  NAC L   1      13.171  -3.095   3.286  1.00  0.00    -0.0389  C
ATOM     46 C37  NAC L   1      11.081  -2.534   4.544  1.00  0.00    -0.0551  A
ATOM     47 H38  NAC L   1       9.411  -0.791   5.713  1.00  0.00    +0.0278  H
ATOM     48 H39  NAC L   1       7.978  -1.818   5.694  1.00  0.00    +0.0278  H
ATOM     49 H40  NAC L   1       9.254  -2.108   6.902  1.00  0.00    +0.0278  H
ATOM     50 H41  NAC L   1       8.070  -4.114   4.764  1.00  0.00    +0.0620  H
ATOM     51 H42  NAC L   1       9.235  -5.694   3.279  1.00  0.00    +0.0626  H
ATOM     52 H63  NAC L   1      13.388  -2.030   3.428  1.00  0.00    +0.0278  H
ATOM     53 H64  NAC L   1      13.338  -3.307   2.225  1.00  0.00    +0.0278  H
ATOM     54 H65  NAC L   1      13.878  -3.668   3.893  1.00  0.00    +0.0278  H
ATOM     55 H66  NAC L   1      11.592  -1.645   4.911  1.00  0.00    +0.0623  H
ENDBRANCH 37 43
ENDBRANCH 36 37
ENDBRANCH 33 36
ENDBRANCH 23 33
ENDBRANCH 21 26
BRANCH 21 56
ATOM     56 C15  NAC L   1      10.677 -10.208  -3.769  1.00  0.00    +0.0334  C
ATOM     57 H48  NAC L   1       9.926  -9.752  -3.113  1.00  0.00    +0.0497  H
ATOM     58 H49  NAC L   1      11.098 -11.062  -3.224  1.00  0.00    +0.0497  H
BRANCH 56 59
ATOM     59 N16  NAC L   1       9.924 -10.767  -4.889  1.00  0.00    -0.3551  N
ATOM     60 C17  NAC L   1       8.676 -10.353  -5.285  1.00  0.00    +0.2179  C
ATOM     61 C18  NAC L   1       8.180 -11.030  -6.534  1.00  0.00    +0.0143  C
ATOM     62 O19  NAC L   1       7.987  -9.556  -4.655  1.00  0.00    -0.2736 OA
ATOM     63 H50  NAC L   1      10.403 -11.454  -5.461  1.00  0.00    +0.1623 HD
ATOM     64 H51  NAC L   1       7.712 -11.981  -6.265  1.00  0.00    +0.0325  H
ATOM     65 H52  NAC L   1       9.002 -11.215  -7.230  1.00  0.00    +0.0325  H
ATOM     66 H53  NAC L   1       7.445 -10.388  -7.027  1.00  0.00    +0.0325  H
ENDBRANCH 56 59
ENDBRANCH 21 56
ENDBRANCH 17 21
ENDBRANCH 1 19
TORSDOF 9
ENDMDL
MODEL 19
REMARK VINA RESULT:    -6.626      3.473     11.298
REMARK INTER + INTRA:         -11.601
REMARK INTER:                  -9.226
REMARK INTRA:                  -2.375
REMARK UNBOUND:                -1.489
ROOT
ATOM      1 C23  NAC L   1       8.201  -8.948  -7.783  1.00  0.00    +0.0423  A
ATOM      2 C24  NAC L   1       7.237  -9.604  -7.010  1.00  0.00    -0.0377  A
ATOM      3 C25  NAC L   1       6.155 -10.248  -7.615  1.00  0.00    -0.0506  A
ATOM      4 C26  NAC L   1       6.022 -10.249  -9.013  1.00  0.00    +0.0004  A
ATOM      5 C27  NAC L   1       4.965 -10.874  -9.677  1.00  0.00    +0.0353  A
ATOM      6 N28  NAC L   1       4.807 -10.895 -11.021  1.00  0.00    -0.2626 NA
ATOM      7 C29  NAC L   1       5.752 -10.263 -11.746  1.00  0.00    +0.0281  A
ATOM      8 C30  NAC L   1       6.843  -9.611 -11.194  1.00  0.00    -0.0358  A
ATOM      9 C31  NAC L   1       6.989  -9.597  -9.801  1.00  0.00    -0.0131  A
ATOM     10 C32  NAC L   1       8.072  -8.953  -9.174  1.00  0.00    -0.0305  A
ATOM     11 H55  NAC L   1       7.312  -9.619  -5.925  1.00  0.00    +0.0638  H
ATOM     12 H56  NAC L   1       5.418 -10.750  -6.991  1.00  0.00    +0.0625  H
ATOM     13 H57  NAC L   1       4.186 -11.395  -9.127  1.00  0.00    +0.0836  H
ATOM     14 H58  NAC L   1       5.607 -10.293 -12.822  1.00  0.00    +0.0830  H
ATOM     15 H59  NAC L   1       7.564  -9.122 -11.841  1.00  0.00    +0.0639  H
ATOM     16 H60  NAC L   1       8.814  -8.464  -9.800  1.00  0.00    +0.0644  H
ENDROOT
BRANCH 1 19
ATOM     17 C20  NAC L   1      10.434  -8.898  -6.627  1.00  0.00    +0.2344  C
ATOM     18 O21  NAC L   1      10.790 -10.057  -6.829  1.00  0.00    -0.2722 OA
ATOM     19 N22  NAC L   1       9.256  -8.325  -7.091  1.00  0.00    -0.3256  N
ATOM     20 H54  NAC L   1       9.179  -7.314  -6.975  1.00  0.00    +0.1686 HD
BRANCH 17 21
ATOM     21 C14  NAC L   1      11.309  -7.896  -5.861  1.00  0.00    +0.0803  C
ATOM     22 H47  NAC L   1      10.673  -7.057  -5.557  1.00  0.00    +0.0463  H
BRANCH 21 26
ATOM     23 C10  NAC L   1      12.908  -9.520  -2.151  1.00  0.00    -0.0103  A
ATOM     24 C11  NAC L   1      13.771  -8.984  -3.114  1.00  0.00    -0.0551  A
ATOM     25 C12  NAC L   1      13.268  -8.469  -4.312  1.00  0.00    -0.0574  A
ATOM     26 C13  NAC L   1      11.889  -8.471  -4.572  1.00  0.00    -0.0336  A
ATOM     27 C33  NAC L   1      11.028  -8.998  -3.596  1.00  0.00    -0.0574  A
ATOM     28 C34  NAC L   1      11.531  -9.513  -2.399  1.00  0.00    -0.0551  A
ATOM     29 H45  NAC L   1      14.846  -8.964  -2.937  1.00  0.00    +0.0621  H
ATOM     30 H46  NAC L   1      13.971  -8.079  -5.044  1.00  0.00    +0.0621  H
ATOM     31 H61  NAC L   1       9.951  -9.009  -3.756  1.00  0.00    +0.0621  H
ATOM     32 H62  NAC L   1      10.841  -9.905  -1.656  1.00  0.00    +0.0621  H
BRANCH 23 33
ATOM     33  C9  NAC L   1      13.451 -10.060  -0.854  1.00  0.00    +0.1179  C
ATOM     34 H43  NAC L   1      14.542 -10.179  -0.887  1.00  0.00    +0.0749  H
ATOM     35 H44  NAC L   1      13.046 -11.063  -0.677  1.00  0.00    +0.0749  H
BRANCH 33 36
ATOM     36  O8  NAC L   1      13.023  -9.226   0.228  1.00  0.00    -0.4564 OA
BRANCH 36 37
ATOM     37  C6  NAC L   1      13.822  -8.168   0.500  1.00  0.00    +0.3398  C
ATOM     38  O7  NAC L   1      15.012  -8.064   0.249  1.00  0.00    -0.2449 OA
BRANCH 37 43
ATOM     39  C1  NAC L   1      10.784  -3.963   3.073  1.00  0.00    -0.0397  C
ATOM     40  C2  NAC L   1      11.534  -5.064   2.382  1.00  0.00    -0.0502  A
ATOM     41  C3  NAC L   1      12.151  -6.074   3.123  1.00  0.00    -0.0580  A
ATOM     42  C4  NAC L   1      12.880  -7.073   2.479  1.00  0.00    -0.0473  A
ATOM     43  C5  NAC L   1      13.014  -7.069   1.083  1.00  0.00    +0.0619  A
ATOM     44 C35  NAC L   1      12.383  -6.071   0.316  1.00  0.00    -0.0362  A
ATOM     45 C36  NAC L   1      12.457  -6.026  -1.185  1.00  0.00    -0.0389  C
ATOM     46 C37  NAC L   1      11.665  -5.062   0.985  1.00  0.00    -0.0551  A
ATOM     47 H38  NAC L   1       9.959  -3.603   2.451  1.00  0.00    +0.0278  H
ATOM     48 H39  NAC L   1      10.349  -4.317   4.014  1.00  0.00    +0.0278  H
ATOM     49 H40  NAC L   1      11.458  -3.128   3.286  1.00  0.00    +0.0278  H
ATOM     50 H41  NAC L   1      12.071  -6.090   4.208  1.00  0.00    +0.0620  H
ATOM     51 H42  NAC L   1      13.353  -7.855   3.069  1.00  0.00    +0.0626  H
ATOM     52 H63  NAC L   1      11.650  -5.413  -1.603  1.00  0.00    +0.0278  H
ATOM     53 H64  NAC L   1      12.340  -7.027  -1.614  1.00  0.00    +0.0278  H
ATOM     54 H65  NAC L   1      13.410  -5.596  -1.506  1.00  0.00    +0.0278  H
ATOM     55 H66  NAC L   1      11.192  -4.267   0.410  1.00  0.00    +0.0623  H
ENDBRANCH 37 43
ENDBRANCH 36 37
ENDBRANCH 33 36
ENDBRANCH 23 33
ENDBRANCH 21 26
BRANCH 21 56
ATOM     56 C15  NAC L   1      12.414  -7.347  -6.784  1.00  0.00    +0.0334  C
ATOM     57 H48  NAC L   1      13.406  -7.569  -6.372  1.00  0.00    +0.0497  H
ATOM     58 H49  NAC L   1      12.333  -6.255  -6.846  1.00  0.00    +0.0497  H
BRANCH 56 59
ATOM     59 N16  NAC L   1      12.448  -7.836  -8.160  1.00  0.00    -0.3551  N
ATOM     60 C17  NAC L   1      11.785  -7.263  -9.218  1.00  0.00    +0.2179  C
ATOM     61 C18  NAC L   1      12.081  -7.911 -10.543  1.00  0.00    +0.0143  C
ATOM     62 O19  NAC L   1      10.972  -6.350  -9.102  1.00  0.00    -0.2736 OA
ATOM     63 H50  NAC L   1      13.077  -8.607  -8.352  1.00  0.00    +0.1623 HD
ATOM     64 H51  NAC L   1      11.421  -8.773 -10.676  1.00  0.00    +0.0325  H
ATOM     65 H52  NAC L   1      13.122  -8.241 -10.592  1.00  0.00    +0.0325  H
ATOM     66 H53  NAC L   1      11.907  -7.190 -11.346  1.00  0.00    +0.0325  H
ENDBRANCH 56 59
ENDBRANCH 21 56
ENDBRANCH 17 21
ENDBRANCH 1 19
TORSDOF 9
ENDMDL
MODEL 20
REMARK VINA RESULT:    -6.599      4.466     11.726
REMARK INTER + INTRA:         -11.561
REMARK INTER:                 -10.176
REMARK INTRA:                  -1.385
REMARK UNBOUND:                -1.489
ROOT
ATOM      1 C23  NAC L   1      12.430  -7.793  -9.868  1.00  0.00    +0.0423  A
ATOM      2 C24  NAC L   1      13.719  -7.318  -9.604  1.00  0.00    -0.0377  A
ATOM      3 C25  NAC L   1      14.562  -6.927 -10.648  1.00  0.00    -0.0506  A
ATOM      4 C26  NAC L   1      14.124  -7.005 -11.979  1.00  0.00    +0.0004  A
ATOM      5 C27  NAC L   1      14.918  -6.631 -13.066  1.00  0.00    +0.0353  A
ATOM      6 N28  NAC L   1      14.528  -6.692 -14.360  1.00  0.00    -0.2626 NA
ATOM      7 C29  NAC L   1      13.279  -7.147 -14.589  1.00  0.00    +0.0281  A
ATOM      8 C30  NAC L   1      12.405  -7.545 -13.590  1.00  0.00    -0.0358  A
ATOM      9 C31  NAC L   1      12.827  -7.477 -12.256  1.00  0.00    -0.0131  A
ATOM     10 C32  NAC L   1      11.991  -7.866 -11.192  1.00  0.00    -0.0305  A
ATOM     11 H55  NAC L   1      14.086  -7.247  -8.583  1.00  0.00    +0.0638  H
ATOM     12 H56  NAC L   1      15.560  -6.562 -10.416  1.00  0.00    +0.0625  H
ATOM     13 H57  NAC L   1      15.928  -6.258 -12.921  1.00  0.00    +0.0836  H
ATOM     14 H58  NAC L   1      12.986  -7.187 -15.634  1.00  0.00    +0.0830  H
ATOM     15 H59  NAC L   1      11.414  -7.901 -13.850  1.00  0.00    +0.0639  H
ATOM     16 H60  NAC L   1      10.990  -8.218 -11.425  1.00  0.00    +0.0644  H
ENDROOT
BRANCH 1 19
ATOM     17 C20  NAC L   1      11.871  -9.203  -7.861  1.00  0.00    +0.2344  C
ATOM     18 O21  NAC L   1      12.861  -9.931  -7.846  1.00  0.00    -0.2722 OA
ATOM     19 N22  NAC L   1      11.649  -8.165  -8.757  1.00  0.00    -0.3256  N
ATOM     20 H54  NAC L   1      10.860  -7.555  -8.543  1.00  0.00    +0.1686 HD
BRANCH 17 21
ATOM     21 C14  NAC L   1      10.751  -9.323  -6.818  1.00  0.00    +0.0803  C
ATOM     22 H47  NAC L   1      10.424 -10.368  -6.793  1.00  0.00    +0.0463  H
BRANCH 21 26
ATOM     23 C10  NAC L   1      12.136  -8.371  -2.800  1.00  0.00    -0.0103  A
ATOM     24 C11  NAC L   1      11.128  -9.323  -2.990  1.00  0.00    -0.0551  A
ATOM     25 C12  NAC L   1      10.671  -9.629  -4.274  1.00  0.00    -0.0574  A
ATOM     26 C13  NAC L   1      11.215  -8.994  -5.401  1.00  0.00    -0.0336  A
ATOM     27 C33  NAC L   1      12.234  -8.049  -5.205  1.00  0.00    -0.0574  A
ATOM     28 C34  NAC L   1      12.691  -7.743  -3.921  1.00  0.00    -0.0551  A
ATOM     29 H45  NAC L   1      10.692  -9.838  -2.134  1.00  0.00    +0.0621  H
ATOM     30 H46  NAC L   1       9.873 -10.361  -4.380  1.00  0.00    +0.0621  H
ATOM     31 H61  NAC L   1      12.689  -7.541  -6.054  1.00  0.00    +0.0621  H
ATOM     32 H62  NAC L   1      13.489  -7.014  -3.799  1.00  0.00    +0.0621  H
BRANCH 23 33
ATOM     33  C9  NAC L   1      12.638  -8.055  -1.416  1.00  0.00    +0.1179  C
ATOM     34 H43  NAC L   1      13.415  -7.280  -1.432  1.00  0.00    +0.0749  H
ATOM     35 H44  NAC L   1      13.112  -8.946  -0.987  1.00  0.00    +0.0749  H
BRANCH 33 36
ATOM     36  O8  NAC L   1      11.534  -7.707  -0.574  1.00  0.00    -0.4564 OA
BRANCH 36 37
ATOM     37  C6  NAC L   1      11.189  -6.399  -0.576  1.00  0.00    +0.3398  C
ATOM     38  O7  NAC L   1      10.438  -5.840  -1.359  1.00  0.00    -0.2449 OA
BRANCH 37 43
ATOM     39  C1  NAC L   1      13.353  -3.929   4.194  1.00  0.00    -0.0397  C
ATOM     40  C2  NAC L   1      12.790  -4.529   2.938  1.00  0.00    -0.0502  A
ATOM     41  C3  NAC L   1      11.630  -5.305   2.984  1.00  0.00    -0.0580  A
ATOM     42  C4  NAC L   1      11.131  -5.891   1.821  1.00  0.00    -0.0473  A
ATOM     43  C5  NAC L   1      11.795  -5.721   0.596  1.00  0.00    +0.0619  A
ATOM     44 C35  NAC L   1      12.954  -4.925   0.526  1.00  0.00    -0.0362  A
ATOM     45 C36  NAC L   1      13.694  -4.673  -0.758  1.00  0.00    -0.0389  C
ATOM     46 C37  NAC L   1      13.451  -4.355   1.713  1.00  0.00    -0.0551  A
ATOM     47 H38  NAC L   1      13.863  -2.984   3.981  1.00  0.00    +0.0278  H
ATOM     48 H39  NAC L   1      12.559  -3.713   4.916  1.00  0.00    +0.0278  H
ATOM     49 H40  NAC L   1      14.067  -4.622   4.650  1.00  0.00    +0.0278  H
ATOM     50 H41  NAC L   1      11.106  -5.462   3.924  1.00  0.00    +0.0620  H
ATOM     51 H42  NAC L   1      10.226  -6.492   1.870  1.00  0.00    +0.0626  H
ATOM     52 H63  NAC L   1      14.334  -3.786  -0.678  1.00  0.00    +0.0278  H
ATOM     53 H64  NAC L   1      12.997  -4.480  -1.581  1.00  0.00    +0.0278  H
ATOM     54 H65  NAC L   1      14.329  -5.528  -1.005  1.00  0.00    +0.0278  H
ATOM     55 H66  NAC L   1      14.361  -3.758   1.682  1.00  0.00    +0.0623  H
ENDBRANCH 37 43
ENDBRANCH 36 37
ENDBRANCH 33 36
ENDBRANCH 23 33
ENDBRANCH 21 26
BRANCH 21 56
ATOM     56 C15  NAC L   1       9.548  -8.455  -7.234  1.00  0.00    +0.0334  C
ATOM     57 H48  NAC L   1       9.775  -7.895  -8.150  1.00  0.00    +0.0497  H
ATOM     58 H49  NAC L   1       9.340  -7.714  -6.452  1.00  0.00    +0.0497  H
BRANCH 56 59
ATOM     59 N16  NAC L   1       8.284  -9.137  -7.501  1.00  0.00    -0.3551  N
ATOM     60 C17  NAC L   1       7.318  -9.404  -6.562  1.00  0.00    +0.2179  C
ATOM     61 C18  NAC L   1       6.072 -10.024  -7.132  1.00  0.00    +0.0143  C
ATOM     62 O19  NAC L   1       7.467  -9.222  -5.357  1.00  0.00    -0.2736 OA
ATOM     63 H50  NAC L   1       8.080  -9.351  -8.471  1.00  0.00    +0.1623 HD
ATOM     64 H51  NAC L   1       6.211 -11.106  -7.207  1.00  0.00    +0.0325  H
ATOM     65 H52  NAC L   1       5.852  -9.617  -8.123  1.00  0.00    +0.0325  H
ATOM     66 H53  NAC L   1       5.226  -9.809  -6.474  1.00  0.00    +0.0325  H
ENDBRANCH 56 59
ENDBRANCH 21 56
ENDBRANCH 17 21
ENDBRANCH 1 19
TORSDOF 9
ENDMDL
