MODEL 1
REMARK VINA RESULT:    -7.444      0.000      0.000
REMARK INTER + INTRA:         -12.059
REMARK INTER:                 -10.925
REMARK INTRA:                  -1.133
REMARK UNBOUND:                -1.133
ROOT
ATOM      1 C20  QUI L   1      12.612  -6.230   0.984  1.00  0.00    +0.0424  A
ATOM      2 C21  QUI L   1      13.845  -5.584   0.981  1.00  0.00    -0.0363  A
ATOM      3 C22  QUI L   1      14.048  -4.442   1.768  1.00  0.00    -0.0338  A
ATOM      4 C23  QUI L   1      13.047  -3.916   2.570  1.00  0.00    +0.0711  A
ATOM      5 N24  QUI L   1      13.293  -2.818   3.307  1.00  0.00    -0.2550 NA
ATOM      6 C25  QUI L   1      12.293  -2.333   4.076  1.00  0.00    +0.0283  A
ATOM      7 C26  QUI L   1      11.034  -2.899   4.151  1.00  0.00    -0.0430  A
ATOM      8 C27  QUI L   1      10.784  -4.033   3.388  1.00  0.00    -0.0511  A
ATOM      9 C28  QUI L   1      11.796  -4.566   2.578  1.00  0.00    +0.0023  A
ATOM     10 C29  QUI L   1      11.589  -5.715   1.789  1.00  0.00    -0.0291  A
ATOM     11 H50  QUI L   1      14.678  -5.937   0.382  1.00  0.00    +0.0639  H
ATOM     12 H51  QUI L   1      15.018  -3.952   1.752  1.00  0.00    +0.0640  H
ATOM     13 H52  QUI L   1      12.543  -1.446   4.650  1.00  0.00    +0.0830  H
ATOM     14 H53  QUI L   1      10.269  -2.467   4.785  1.00  0.00    +0.0633  H
ATOM     15 H54  QUI L   1       9.803  -4.497   3.429  1.00  0.00    +0.0625  H
ATOM     16 H55  QUI L   1      10.617  -6.199   1.808  1.00  0.00    +0.0645  H
ENDROOT
BRANCH 1 19
ATOM     17 C17  QUI L   1      11.433  -7.503  -0.833  1.00  0.00    +0.2339  C
ATOM     18 O18  QUI L   1      10.721  -6.608  -1.278  1.00  0.00    -0.2722 OA
ATOM     19 N19  QUI L   1      12.320  -7.383   0.229  1.00  0.00    -0.3256  N
ATOM     20 H49  QUI L   1      12.783  -8.236   0.520  1.00  0.00    +0.1686 HD
BRANCH 17 21
ATOM     21 C14  QUI L   1      11.429  -8.920  -1.435  1.00  0.00    +0.0752  C
ATOM     22 H44  QUI L   1      10.490  -9.382  -1.097  1.00  0.00    +0.0458  H
BRANCH 21 26
ATOM     23 C10  QUI L   1      11.492  -8.789  -5.779  1.00  0.00    -0.0103  A
ATOM     24 C11  QUI L   1      12.405  -8.039  -5.027  1.00  0.00    -0.0551  A
ATOM     25 C12  QUI L   1      12.383  -8.089  -3.631  1.00  0.00    -0.0574  A
ATOM     26 C13  QUI L   1      11.444  -8.886  -2.959  1.00  0.00    -0.0341  A
ATOM     27 C30  QUI L   1      10.518  -9.619  -3.715  1.00  0.00    -0.0574  A
ATOM     28 C31  QUI L   1      10.542  -9.570  -5.111  1.00  0.00    -0.0551  A
ATOM     29 H42  QUI L   1      13.131  -7.400  -5.526  1.00  0.00    +0.0621  H
ATOM     30 H43  QUI L   1      13.093  -7.483  -3.071  1.00  0.00    +0.0621  H
ATOM     31 H56  QUI L   1       9.763 -10.235  -3.226  1.00  0.00    +0.0621  H
ATOM     32 H57  QUI L   1       9.805 -10.139  -5.676  1.00  0.00    +0.0621  H
BRANCH 23 33
ATOM     33  C9  QUI L   1      11.496  -8.714  -7.284  1.00  0.00    +0.1179  C
ATOM     34 H40  QUI L   1      12.309  -9.311  -7.717  1.00  0.00    +0.0749  H
ATOM     35 H41  QUI L   1      11.682  -7.681  -7.600  1.00  0.00    +0.0749  H
BRANCH 33 36
ATOM     36  O8  QUI L   1      10.209  -9.091  -7.783  1.00  0.00    -0.4564 OA
BRANCH 36 37
ATOM     37  C6  QUI L   1       9.323  -8.080  -7.931  1.00  0.00    +0.3398  C
ATOM     38  O7  QUI L   1       9.494  -6.908  -7.637  1.00  0.00    -0.2449 OA
BRANCH 37 43
ATOM     39  C1  QUI L   1       4.708  -9.982 -10.866  1.00  0.00    -0.0397  C
ATOM     40  C2  QUI L   1       5.876  -9.464 -10.078  1.00  0.00    -0.0502  A
ATOM     41  C3  QUI L   1       6.920  -8.793 -10.719  1.00  0.00    -0.0580  A
ATOM     42  C4  QUI L   1       8.021  -8.347  -9.988  1.00  0.00    -0.0473  A
ATOM     43  C5  QUI L   1       8.101  -8.580  -8.607  1.00  0.00    +0.0619  A
ATOM     44 C32  QUI L   1       7.050  -9.237  -7.940  1.00  0.00    -0.0362  A
ATOM     45 C33  QUI L   1       7.056  -9.488  -6.458  1.00  0.00    -0.0389  C
ATOM     46 C34  QUI L   1       5.955  -9.693  -8.697  1.00  0.00    -0.0551  A
ATOM     47 H35  QUI L   1       4.520  -9.356 -11.744  1.00  0.00    +0.0278  H
ATOM     48 H36  QUI L   1       3.795  -9.975 -10.260  1.00  0.00    +0.0278  H
ATOM     49 H37  QUI L   1       4.906 -11.006 -11.198  1.00  0.00    +0.0278  H
ATOM     50 H38  QUI L   1       6.883  -8.613 -11.791  1.00  0.00    +0.0620  H
ATOM     51 H39  QUI L   1       8.826  -7.824 -10.502  1.00  0.00    +0.0626  H
ATOM     52 H58  QUI L   1       7.422  -8.612  -5.913  1.00  0.00    +0.0278  H
ATOM     53 H59  QUI L   1       7.678 -10.357  -6.222  1.00  0.00    +0.0278  H
ATOM     54 H60  QUI L   1       6.044  -9.685  -6.087  1.00  0.00    +0.0278  H
ATOM     55 H61  QUI L   1       5.145 -10.227  -8.201  1.00  0.00    +0.0623  H
ENDBRANCH 37 43
ENDBRANCH 36 37
ENDBRANCH 33 36
ENDBRANCH 23 33
ENDBRANCH 21 26
BRANCH 21 56
ATOM     56 C15  QUI L   1      12.599  -9.749  -0.861  1.00  0.00    +0.0085  C
ATOM     57 N16  QUI L   1      12.196 -10.605   0.265  1.00  0.00    -0.3289 NA
ATOM     58 H45  QUI L   1      13.051 -10.377  -1.638  1.00  0.00    +0.0432  H
ATOM     59 H46  QUI L   1      13.386  -9.075  -0.500  1.00  0.00    +0.0432  H
ATOM     60 H47  QUI L   1      13.007 -11.143   0.572  1.00  0.00    +0.1182 HD
ATOM     61 H48  QUI L   1      11.521 -11.295  -0.072  1.00  0.00    +0.1182 HD
ENDBRANCH 21 56
ENDBRANCH 17 21
ENDBRANCH 1 19
TORSDOF 8
ENDMDL
MODEL 2
REMARK VINA RESULT:    -7.412      3.012     10.632
REMARK INTER + INTRA:         -12.012
REMARK INTER:                 -10.214
REMARK INTRA:                  -1.798
REMARK UNBOUND:                -1.133
ROOT
ATOM      1 C20  QUI L   1      11.360  -7.893  -5.980  1.00  0.00    +0.0424  A
ATOM      2 C21  QUI L   1      12.230  -7.331  -6.910  1.00  0.00    -0.0363  A
ATOM      3 C22  QUI L   1      11.843  -7.194  -8.249  1.00  0.00    -0.0338  A
ATOM      4 C23  QUI L   1      10.597  -7.603  -8.699  1.00  0.00    +0.0711  A
ATOM      5 N24  QUI L   1      10.273  -7.449  -9.995  1.00  0.00    -0.2550 NA
ATOM      6 C25  QUI L   1       9.050  -7.860 -10.397  1.00  0.00    +0.0283  A
ATOM      7 C26  QUI L   1       8.113  -8.429  -9.555  1.00  0.00    -0.0430  A
ATOM      8 C27  QUI L   1       8.451  -8.587  -8.217  1.00  0.00    -0.0511  A
ATOM      9 C28  QUI L   1       9.711  -8.172  -7.762  1.00  0.00    +0.0023  A
ATOM     10 C29  QUI L   1      10.097  -8.311  -6.414  1.00  0.00    -0.0291  A
ATOM     11 H50  QUI L   1      13.221  -6.984  -6.634  1.00  0.00    +0.0639  H
ATOM     12 H51  QUI L   1      12.537  -6.752  -8.960  1.00  0.00    +0.0640  H
ATOM     13 H52  QUI L   1       8.839  -7.714 -11.453  1.00  0.00    +0.0830  H
ATOM     14 H53  QUI L   1       7.147  -8.742  -9.933  1.00  0.00    +0.0633  H
ATOM     15 H54  QUI L   1       7.732  -9.032  -7.535  1.00  0.00    +0.0625  H
ATOM     16 H55  QUI L   1       9.399  -8.754  -5.709  1.00  0.00    +0.0645  H
ENDROOT
BRANCH 1 19
ATOM     17 C17  QUI L   1      12.904  -7.965  -3.999  1.00  0.00    +0.2339  C
ATOM     18 O18  QUI L   1      13.969  -7.731  -4.563  1.00  0.00    -0.2722 OA
ATOM     19 N19  QUI L   1      11.663  -8.067  -4.615  1.00  0.00    -0.3256  N
ATOM     20 H49  QUI L   1      10.890  -8.335  -4.017  1.00  0.00    +0.1686 HD
BRANCH 17 21
ATOM     21 C14  QUI L   1      12.819  -8.174  -2.476  1.00  0.00    +0.0752  C
ATOM     22 H44  QUI L   1      13.397  -9.087  -2.270  1.00  0.00    +0.0458  H
BRANCH 21 26
ATOM     23 C10  QUI L   1      14.620  -4.880  -0.284  1.00  0.00    -0.0103  A
ATOM     24 C11  QUI L   1      15.322  -6.075  -0.486  1.00  0.00    -0.0551  A
ATOM     25 C12  QUI L   1      14.740  -7.129  -1.195  1.00  0.00    -0.0574  A
ATOM     26 C13  QUI L   1      13.441  -7.010  -1.712  1.00  0.00    -0.0341  A
ATOM     27 C30  QUI L   1      12.733  -5.820  -1.490  1.00  0.00    -0.0574  A
ATOM     28 C31  QUI L   1      13.317  -4.767  -0.783  1.00  0.00    -0.0551  A
ATOM     29 H42  QUI L   1      16.324  -6.196  -0.079  1.00  0.00    +0.0621  H
ATOM     30 H43  QUI L   1      15.303  -8.052  -1.323  1.00  0.00    +0.0621  H
ATOM     31 H56  QUI L   1      11.715  -5.701  -1.862  1.00  0.00    +0.0621  H
ATOM     32 H57  QUI L   1      12.742  -3.858  -0.612  1.00  0.00    +0.0621  H
BRANCH 23 33
ATOM     33  C9  QUI L   1      15.235  -3.754   0.505  1.00  0.00    +0.1179  C
ATOM     34 H40  QUI L   1      15.651  -2.980  -0.152  1.00  0.00    +0.0749  H
ATOM     35 H41  QUI L   1      16.080  -4.134   1.090  1.00  0.00    +0.0749  H
BRANCH 33 36
ATOM     36  O8  QUI L   1      14.271  -3.236   1.427  1.00  0.00    -0.4564 OA
BRANCH 36 37
ATOM     37  C6  QUI L   1      14.252  -3.829   2.643  1.00  0.00    +0.3398  C
ATOM     38  O7  QUI L   1      15.193  -3.961   3.409  1.00  0.00    -0.2449 OA
BRANCH 37 43
ATOM     39  C1  QUI L   1       8.755  -5.090   3.956  1.00  0.00    -0.0397  C
ATOM     40  C2  QUI L   1      10.194  -4.794   3.648  1.00  0.00    -0.0502  A
ATOM     41  C3  QUI L   1      10.683  -3.489   3.742  1.00  0.00    -0.0580  A
ATOM     42  C4  QUI L   1      12.012  -3.213   3.417  1.00  0.00    -0.0473  A
ATOM     43  C5  QUI L   1      12.865  -4.236   2.979  1.00  0.00    +0.0619  A
ATOM     44 C32  QUI L   1      12.396  -5.560   2.896  1.00  0.00    -0.0362  A
ATOM     45 C33  QUI L   1      13.266  -6.708   2.466  1.00  0.00    -0.0389  C
ATOM     46 C34  QUI L   1      11.049  -5.816   3.212  1.00  0.00    -0.0551  A
ATOM     47 H35  QUI L   1       8.365  -4.395   4.706  1.00  0.00    +0.0278  H
ATOM     48 H36  QUI L   1       8.643  -6.102   4.362  1.00  0.00    +0.0278  H
ATOM     49 H37  QUI L   1       8.153  -5.003   3.047  1.00  0.00    +0.0278  H
ATOM     50 H38  QUI L   1      10.035  -2.679   4.069  1.00  0.00    +0.0620  H
ATOM     51 H39  QUI L   1      12.380  -2.191   3.498  1.00  0.00    +0.0626  H
ATOM     52 H58  QUI L   1      14.260  -6.638   2.920  1.00  0.00    +0.0278  H
ATOM     53 H59  QUI L   1      13.357  -6.728   1.376  1.00  0.00    +0.0278  H
ATOM     54 H60  QUI L   1      12.842  -7.666   2.789  1.00  0.00    +0.0278  H
ATOM     55 H61  QUI L   1      10.661  -6.831   3.128  1.00  0.00    +0.0623  H
ENDBRANCH 37 43
ENDBRANCH 36 37
ENDBRANCH 33 36
ENDBRANCH 23 33
ENDBRANCH 21 26
BRANCH 21 56
ATOM     56 C15  QUI L   1      11.357  -8.432  -2.051  1.00  0.00    +0.0085  C
ATOM     57 N16  QUI L   1      11.028  -9.865  -1.974  1.00  0.00    -0.3289 NA
ATOM     58 H45  QUI L   1      11.144  -7.968  -1.080  1.00  0.00    +0.0432  H
ATOM     59 H46  QUI L   1      10.676  -7.974  -2.779  1.00  0.00    +0.0432  H
ATOM     60 H47  QUI L   1      10.061  -9.960  -1.659  1.00  0.00    +0.1182 HD
ATOM     61 H48  QUI L   1      11.598 -10.293  -1.241  1.00  0.00    +0.1182 HD
ENDBRANCH 21 56
ENDBRANCH 17 21
ENDBRANCH 1 19
TORSDOF 8
ENDMDL
MODEL 3
REMARK VINA RESULT:    -7.379      1.919      3.005
REMARK INTER + INTRA:         -11.964
REMARK INTER:                 -11.095
REMARK INTRA:                  -0.868
REMARK UNBOUND:                -1.133
ROOT
ATOM      1 C20  QUI L   1      11.459  -5.320   2.613  1.00  0.00    +0.0424  A
ATOM      2 C21  QUI L   1      11.548  -3.954   2.857  1.00  0.00    -0.0363  A
ATOM      3 C22  QUI L   1      10.759  -3.359   3.851  1.00  0.00    -0.0338  A
ATOM      4 C23  QUI L   1       9.873  -4.095   4.622  1.00  0.00    +0.0711  A
ATOM      5 N24  QUI L   1       9.138  -3.477   5.565  1.00  0.00    -0.2550 NA
ATOM      6 C25  QUI L   1       8.284  -4.226   6.297  1.00  0.00    +0.0283  A
ATOM      7 C26  QUI L   1       8.122  -5.589   6.134  1.00  0.00    -0.0430  A
ATOM      8 C27  QUI L   1       8.882  -6.224   5.160  1.00  0.00    -0.0511  A
ATOM      9 C28  QUI L   1       9.779  -5.481   4.381  1.00  0.00    +0.0023  A
ATOM     10 C29  QUI L   1      10.571  -6.081   3.382  1.00  0.00    -0.0291  A
ATOM     11 H50  QUI L   1      12.220  -3.311   2.297  1.00  0.00    +0.0639  H
ATOM     12 H51  QUI L   1      10.843  -2.290   4.027  1.00  0.00    +0.0640  H
ATOM     13 H52  QUI L   1       7.715  -3.679   7.043  1.00  0.00    +0.0830  H
ATOM     14 H53  QUI L   1       7.421  -6.141   6.749  1.00  0.00    +0.0633  H
ATOM     15 H54  QUI L   1       8.772  -7.295   5.013  1.00  0.00    +0.0625  H
ATOM     16 H55  QUI L   1      10.482  -7.151   3.210  1.00  0.00    +0.0645  H
ENDROOT
BRANCH 1 19
ATOM     17 C17  QUI L   1      12.002  -6.034   0.265  1.00  0.00    +0.2339  C
ATOM     18 O18  QUI L   1      11.082  -5.482  -0.332  1.00  0.00    -0.2722 OA
ATOM     19 N19  QUI L   1      12.214  -6.002   1.637  1.00  0.00    -0.3256  N
ATOM     20 H49  QUI L   1      12.981  -6.568   1.982  1.00  0.00    +0.1686 HD
BRANCH 17 21
ATOM     21 C14  QUI L   1      13.078  -6.851  -0.474  1.00  0.00    +0.0752  C
ATOM     22 H44  QUI L   1      13.423  -7.605   0.249  1.00  0.00    +0.0458  H
BRANCH 21 26
ATOM     23 C10  QUI L   1      11.462  -8.851  -3.979  1.00  0.00    -0.0103  A
ATOM     24 C11  QUI L   1      12.528  -7.952  -4.095  1.00  0.00    -0.0551  A
ATOM     25 C12  QUI L   1      13.046  -7.315  -2.965  1.00  0.00    -0.0574  A
ATOM     26 C13  QUI L   1      12.505  -7.562  -1.695  1.00  0.00    -0.0341  A
ATOM     27 C30  QUI L   1      11.423  -8.448  -1.584  1.00  0.00    -0.0574  A
ATOM     28 C31  QUI L   1      10.907  -9.085  -2.715  1.00  0.00    -0.0551  A
ATOM     29 H42  QUI L   1      12.953  -7.730  -5.073  1.00  0.00    +0.0621  H
ATOM     30 H43  QUI L   1      13.865  -6.608  -3.088  1.00  0.00    +0.0621  H
ATOM     31 H56  QUI L   1      10.966  -8.649  -0.615  1.00  0.00    +0.0621  H
ATOM     32 H57  QUI L   1      10.059  -9.759  -2.605  1.00  0.00    +0.0621  H
BRANCH 23 33
ATOM     33  C9  QUI L   1      10.883  -9.517  -5.200  1.00  0.00    +0.1179  C
ATOM     34 H40  QUI L   1      10.624 -10.565  -5.006  1.00  0.00    +0.0749  H
ATOM     35 H41  QUI L   1      11.635  -9.538  -5.998  1.00  0.00    +0.0749  H
BRANCH 33 36
ATOM     36  O8  QUI L   1       9.771  -8.752  -5.678  1.00  0.00    -0.4564 OA
BRANCH 36 37
ATOM     37  C6  QUI L   1       9.966  -8.113  -6.854  1.00  0.00    +0.3398  C
ATOM     38  O7  QUI L   1      10.934  -7.440  -7.169  1.00  0.00    -0.2449 OA
BRANCH 37 43
ATOM     39  C1  QUI L   1       5.423  -9.393 -10.207  1.00  0.00    -0.0397  C
ATOM     40  C2  QUI L   1       6.628  -9.084  -9.367  1.00  0.00    -0.0502  A
ATOM     41  C3  QUI L   1       6.659  -9.441  -8.017  1.00  0.00    -0.0580  A
ATOM     42  C4  QUI L   1       7.766  -9.118  -7.231  1.00  0.00    -0.0473  A
ATOM     43  C5  QUI L   1       8.851  -8.420  -7.782  1.00  0.00    +0.0619  A
ATOM     44 C32  QUI L   1       8.846  -8.069  -9.145  1.00  0.00    -0.0362  A
ATOM     45 C33  QUI L   1       9.990  -7.351  -9.805  1.00  0.00    -0.0389  C
ATOM     46 C34  QUI L   1       7.715  -8.389  -9.917  1.00  0.00    -0.0551  A
ATOM     47 H35  QUI L   1       4.919 -10.297  -9.852  1.00  0.00    +0.0278  H
ATOM     48 H36  QUI L   1       5.708  -9.568 -11.250  1.00  0.00    +0.0278  H
ATOM     49 H37  QUI L   1       4.717  -8.557 -10.168  1.00  0.00    +0.0278  H
ATOM     50 H38  QUI L   1       5.823  -9.972  -7.568  1.00  0.00    +0.0620  H
ATOM     51 H39  QUI L   1       7.776  -9.405  -6.181  1.00  0.00    +0.0626  H
ATOM     52 H58  QUI L   1      10.951  -7.758  -9.475  1.00  0.00    +0.0278  H
ATOM     53 H59  QUI L   1       9.945  -6.281  -9.584  1.00  0.00    +0.0278  H
ATOM     54 H60  QUI L   1       9.956  -7.474 -10.894  1.00  0.00    +0.0278  H
ATOM     55 H61  QUI L   1       7.683  -8.102 -10.968  1.00  0.00    +0.0623  H
ENDBRANCH 37 43
ENDBRANCH 36 37
ENDBRANCH 33 36
ENDBRANCH 23 33
ENDBRANCH 21 26
BRANCH 21 56
ATOM     56 C15  QUI L   1      14.281  -5.953  -0.835  1.00  0.00    +0.0085  C
ATOM     57 N16  QUI L   1      14.075  -4.544  -0.462  1.00  0.00    -0.3289 NA
ATOM     58 H45  QUI L   1      15.197  -6.315  -0.355  1.00  0.00    +0.0432  H
ATOM     59 H46  QUI L   1      14.454  -5.988  -1.918  1.00  0.00    +0.0432  H
ATOM     60 H47  QUI L   1      14.916  -4.018  -0.701  1.00  0.00    +0.1182 HD
ATOM     61 H48  QUI L   1      13.993  -4.483   0.555  1.00  0.00    +0.1182 HD
ENDBRANCH 21 56
ENDBRANCH 17 21
ENDBRANCH 1 19
TORSDOF 8
ENDMDL
MODEL 4
REMARK VINA RESULT:    -7.378      2.634      4.446
REMARK INTER + INTRA:         -11.962
REMARK INTER:                  -9.639
REMARK INTRA:                  -2.323
REMARK UNBOUND:                -1.133
ROOT
ATOM      1 C20  QUI L   1      11.669  -7.906  -1.882  1.00  0.00    +0.0424  A
ATOM      2 C21  QUI L   1      10.879  -6.968  -1.226  1.00  0.00    -0.0363  A
ATOM      3 C22  QUI L   1      11.464  -5.849  -0.617  1.00  0.00    -0.0338  A
ATOM      4 C23  QUI L   1      12.833  -5.632  -0.644  1.00  0.00    +0.0711  A
ATOM      5 N24  QUI L   1      13.346  -4.542  -0.045  1.00  0.00    -0.2550 NA
ATOM      6 C25  QUI L   1      14.685  -4.363  -0.090  1.00  0.00    +0.0283  A
ATOM      7 C26  QUI L   1      15.557  -5.233  -0.716  1.00  0.00    -0.0430  A
ATOM      8 C27  QUI L   1      15.024  -6.358  -1.334  1.00  0.00    -0.0511  A
ATOM      9 C28  QUI L   1      13.640  -6.578  -1.308  1.00  0.00    +0.0023  A
ATOM     10 C29  QUI L   1      13.054  -7.703  -1.921  1.00  0.00    -0.0291  A
ATOM     11 H50  QUI L   1       9.800  -7.067  -1.164  1.00  0.00    +0.0639  H
ATOM     12 H51  QUI L   1      10.829  -5.128  -0.109  1.00  0.00    +0.0640  H
ATOM     13 H52  QUI L   1      15.047  -3.469   0.409  1.00  0.00    +0.0830  H
ATOM     14 H53  QUI L   1      16.623  -5.041  -0.721  1.00  0.00    +0.0633  H
ATOM     15 H54  QUI L   1      15.689  -7.057  -1.832  1.00  0.00    +0.0625  H
ATOM     16 H55  QUI L   1      13.694  -8.421  -2.427  1.00  0.00    +0.0645  H
ENDROOT
BRANCH 1 19
ATOM     17 C17  QUI L   1      10.903  -9.229  -3.876  1.00  0.00    +0.2339  C
ATOM     18 O18  QUI L   1      11.039  -8.377  -4.749  1.00  0.00    -0.2722 OA
ATOM     19 N19  QUI L   1      11.168  -9.056  -2.523  1.00  0.00    -0.3256  N
ATOM     20 H49  QUI L   1      10.936  -9.837  -1.921  1.00  0.00    +0.1686 HD
BRANCH 17 21
ATOM     21 C14  QUI L   1      10.409 -10.651  -4.197  1.00  0.00    +0.0752  C
ATOM     22 H44  QUI L   1       9.979 -11.033  -3.260  1.00  0.00    +0.0458  H
BRANCH 21 26
ATOM     23 C10  QUI L   1       7.350 -10.638  -7.286  1.00  0.00    -0.0103  A
ATOM     24 C11  QUI L   1       8.575 -11.283  -7.494  1.00  0.00    -0.0551  A
ATOM     25 C12  QUI L   1       9.553 -11.288  -6.496  1.00  0.00    -0.0574  A
ATOM     26 C13  QUI L   1       9.327 -10.643  -5.272  1.00  0.00    -0.0341  A
ATOM     27 C30  QUI L   1       8.107  -9.979  -5.074  1.00  0.00    -0.0574  A
ATOM     28 C31  QUI L   1       7.130  -9.977  -6.072  1.00  0.00    -0.0551  A
ATOM     29 H42  QUI L   1       8.780 -11.776  -8.443  1.00  0.00    +0.0621  H
ATOM     30 H43  QUI L   1      10.502 -11.784  -6.692  1.00  0.00    +0.0621  H
ATOM     31 H56  QUI L   1       7.905  -9.452  -4.141  1.00  0.00    +0.0621  H
ATOM     32 H57  QUI L   1       6.196  -9.444  -5.899  1.00  0.00    +0.0621  H
BRANCH 23 33
ATOM     33  C9  QUI L   1       6.306 -10.607  -8.371  1.00  0.00    +0.1179  C
ATOM     34 H40  QUI L   1       5.482  -9.926  -8.122  1.00  0.00    +0.0749  H
ATOM     35 H41  QUI L   1       5.853 -11.600  -8.474  1.00  0.00    +0.0749  H
BRANCH 33 36
ATOM     36  O8  QUI L   1       6.927 -10.287  -9.621  1.00  0.00    -0.4564 OA
BRANCH 36 37
ATOM     37  C6  QUI L   1       6.890  -8.981  -9.972  1.00  0.00    +0.3398  C
ATOM     38  O7  QUI L   1       5.972  -8.199  -9.785  1.00  0.00    -0.2449 OA
BRANCH 37 43
ATOM     39  C1  QUI L   1      11.845  -7.470 -12.559  1.00  0.00    -0.0397  C
ATOM     40  C2  QUI L   1      10.585  -7.888 -11.859  1.00  0.00    -0.0502  A
ATOM     41  C3  QUI L   1       9.546  -8.492 -12.572  1.00  0.00    -0.0580  A
ATOM     42  C4  QUI L   1       8.362  -8.844 -11.924  1.00  0.00    -0.0473  A
ATOM     43  C5  QUI L   1       8.194  -8.583 -10.556  1.00  0.00    +0.0619  A
ATOM     44 C32  QUI L   1       9.236  -7.993  -9.817  1.00  0.00    -0.0362  A
ATOM     45 C33  QUI L   1       9.134  -7.717  -8.342  1.00  0.00    -0.0389  C
ATOM     46 C34  QUI L   1      10.416  -7.630 -10.491  1.00  0.00    -0.0551  A
ATOM     47 H35  QUI L   1      12.053  -8.123 -13.413  1.00  0.00    +0.0278  H
ATOM     48 H36  QUI L   1      12.706  -7.534 -11.884  1.00  0.00    +0.0278  H
ATOM     49 H37  QUI L   1      11.749  -6.440 -12.917  1.00  0.00    +0.0278  H
ATOM     50 H38  QUI L   1       9.652  -8.692 -13.636  1.00  0.00    +0.0620  H
ATOM     51 H39  QUI L   1       7.563  -9.316 -12.493  1.00  0.00    +0.0626  H
ATOM     52 H58  QUI L   1       8.663  -8.555  -7.818  1.00  0.00    +0.0278  H
ATOM     53 H59  QUI L   1       8.562  -6.801  -8.166  1.00  0.00    +0.0278  H
ATOM     54 H60  QUI L   1      10.127  -7.588  -7.896  1.00  0.00    +0.0278  H
ATOM     55 H61  QUI L   1      11.224  -7.149  -9.939  1.00  0.00    +0.0623  H
ENDBRANCH 37 43
ENDBRANCH 36 37
ENDBRANCH 33 36
ENDBRANCH 23 33
ENDBRANCH 21 26
BRANCH 21 56
ATOM     56 C15  QUI L   1      11.599 -11.559  -4.578  1.00  0.00    +0.0085  C
ATOM     57 N16  QUI L   1      12.894 -10.864  -4.505  1.00  0.00    -0.3289 NA
ATOM     58 H45  QUI L   1      11.637 -12.446  -3.934  1.00  0.00    +0.0432  H
ATOM     59 H46  QUI L   1      11.473 -11.918  -5.607  1.00  0.00    +0.0432  H
ATOM     60 H47  QUI L   1      13.633 -11.529  -4.738  1.00  0.00    +0.1182 HD
ATOM     61 H48  QUI L   1      13.066 -10.593  -3.535  1.00  0.00    +0.1182 HD
ENDBRANCH 21 56
ENDBRANCH 17 21
ENDBRANCH 1 19
TORSDOF 8
ENDMDL
MODEL 5
REMARK VINA RESULT:    -7.329      2.441      4.643
REMARK INTER + INTRA:         -11.889
REMARK INTER:                 -10.503
REMARK INTRA:                  -1.387
REMARK UNBOUND:                -1.133
ROOT
ATOM      1 C20  QUI L   1      11.318  -4.485   3.147  1.00  0.00    +0.0424  A
ATOM      2 C21  QUI L   1      11.014  -3.231   3.667  1.00  0.00    -0.0363  A
ATOM      3 C22  QUI L   1      10.049  -3.097   4.675  1.00  0.00    -0.0338  A
ATOM      4 C23  QUI L   1       9.369  -4.190   5.190  1.00  0.00    +0.0711  A
ATOM      5 N24  QUI L   1       8.452  -4.008   6.157  1.00  0.00    -0.2550 NA
ATOM      6 C25  QUI L   1       7.808  -5.097   6.634  1.00  0.00    +0.0283  A
ATOM      7 C26  QUI L   1       8.037  -6.384   6.187  1.00  0.00    -0.0430  A
ATOM      8 C27  QUI L   1       8.985  -6.568   5.188  1.00  0.00    -0.0511  A
ATOM      9 C28  QUI L   1       9.673  -5.463   4.668  1.00  0.00    +0.0023  A
ATOM     10 C29  QUI L   1      10.643  -5.601   3.655  1.00  0.00    -0.0291  A
ATOM     11 H50  QUI L   1      11.505  -2.328   3.318  1.00  0.00    +0.0639  H
ATOM     12 H51  QUI L   1       9.826  -2.108   5.068  1.00  0.00    +0.0640  H
ATOM     13 H52  QUI L   1       7.078  -4.895   7.413  1.00  0.00    +0.0830  H
ATOM     14 H53  QUI L   1       7.490  -7.221   6.606  1.00  0.00    +0.0633  H
ATOM     15 H54  QUI L   1       9.182  -7.571   4.820  1.00  0.00    +0.0625  H
ATOM     16 H55  QUI L   1      10.861  -6.592   3.266  1.00  0.00    +0.0645  H
ENDROOT
BRANCH 1 19
ATOM     17 C17  QUI L   1      13.611  -5.057   2.293  1.00  0.00    +0.2339  C
ATOM     18 O18  QUI L   1      14.198  -5.192   3.363  1.00  0.00    -0.2722 OA
ATOM     19 N19  QUI L   1      12.274  -4.714   2.137  1.00  0.00    -0.3256  N
ATOM     20 H49  QUI L   1      11.959  -4.573   1.185  1.00  0.00    +0.1686 HD
BRANCH 17 21
ATOM     21 C14  QUI L   1      14.320  -5.272   0.944  1.00  0.00    +0.0752  C
ATOM     22 H44  QUI L   1      15.283  -5.744   1.188  1.00  0.00    +0.0458  H
BRANCH 21 26
ATOM     23 C10  QUI L   1      12.067  -7.960  -1.624  1.00  0.00    -0.0103  A
ATOM     24 C11  QUI L   1      12.292  -8.276  -0.279  1.00  0.00    -0.0551  A
ATOM     25 C12  QUI L   1      13.013  -7.407   0.543  1.00  0.00    -0.0574  A
ATOM     26 C13  QUI L   1      13.528  -6.205   0.034  1.00  0.00    -0.0341  A
ATOM     27 C30  QUI L   1      13.318  -5.901  -1.319  1.00  0.00    -0.0574  A
ATOM     28 C31  QUI L   1      12.596  -6.771  -2.139  1.00  0.00    -0.0551  A
ATOM     29 H42  QUI L   1      11.918  -9.211   0.134  1.00  0.00    +0.0621  H
ATOM     30 H43  QUI L   1      13.187  -7.685   1.581  1.00  0.00    +0.0621  H
ATOM     31 H56  QUI L   1      13.720  -4.985  -1.753  1.00  0.00    +0.0621  H
ATOM     32 H57  QUI L   1      12.457  -6.519  -3.190  1.00  0.00    +0.0621  H
BRANCH 23 33
ATOM     33  C9  QUI L   1      11.314  -8.911  -2.519  1.00  0.00    +0.1179  C
ATOM     34 H40  QUI L   1      10.378  -9.246  -2.056  1.00  0.00    +0.0749  H
ATOM     35 H41  QUI L   1      11.911  -9.816  -2.677  1.00  0.00    +0.0749  H
BRANCH 33 36
ATOM     36  O8  QUI L   1      11.111  -8.301  -3.798  1.00  0.00    -0.4564 OA
BRANCH 36 37
ATOM     37  C6  QUI L   1      11.276  -9.116  -4.865  1.00  0.00    +0.3398  C
ATOM     38  O7  QUI L   1      12.269  -9.770  -5.139  1.00  0.00    -0.2449 OA
BRANCH 37 43
ATOM     39  C1  QUI L   1       6.207  -9.552  -7.629  1.00  0.00    -0.0397  C
ATOM     40  C2  QUI L   1       7.542  -9.452  -6.952  1.00  0.00    -0.0502  A
ATOM     41  C3  QUI L   1       7.798 -10.175  -5.784  1.00  0.00    -0.0580  A
ATOM     42  C4  QUI L   1       9.028 -10.049  -5.136  1.00  0.00    -0.0473  A
ATOM     43  C5  QUI L   1      10.013  -9.187  -5.640  1.00  0.00    +0.0619  A
ATOM     44 C32  QUI L   1       9.781  -8.465  -6.826  1.00  0.00    -0.0362  A
ATOM     45 C33  QUI L   1      10.806  -7.552  -7.438  1.00  0.00    -0.0389  C
ATOM     46 C34  QUI L   1       8.530  -8.593  -7.455  1.00  0.00    -0.0551  A
ATOM     47 H35  QUI L   1       5.758 -10.536  -7.466  1.00  0.00    +0.0278  H
ATOM     48 H36  QUI L   1       6.307  -9.416  -8.712  1.00  0.00    +0.0278  H
ATOM     49 H37  QUI L   1       5.531  -8.786  -7.236  1.00  0.00    +0.0278  H
ATOM     50 H38  QUI L   1       7.044 -10.839  -5.370  1.00  0.00    +0.0620  H
ATOM     51 H39  QUI L   1       9.214 -10.620  -4.228  1.00  0.00    +0.0626  H
ATOM     52 H58  QUI L   1      11.803  -8.002  -7.403  1.00  0.00    +0.0278  H
ATOM     53 H59  QUI L   1      10.816  -6.589  -6.917  1.00  0.00    +0.0278  H
ATOM     54 H60  QUI L   1      10.585  -7.363  -8.495  1.00  0.00    +0.0278  H
ATOM     55 H61  QUI L   1       8.323  -8.022  -8.360  1.00  0.00    +0.0623  H
ENDBRANCH 37 43
ENDBRANCH 36 37
ENDBRANCH 33 36
ENDBRANCH 23 33
ENDBRANCH 21 26
BRANCH 21 56
ATOM     56 C15  QUI L   1      14.613  -3.914   0.270  1.00  0.00    +0.0085  C
ATOM     57 N16  QUI L   1      14.836  -2.830   1.239  1.00  0.00    -0.3289 NA
ATOM     58 H45  QUI L   1      15.488  -3.985  -0.388  1.00  0.00    +0.0432  H
ATOM     59 H46  QUI L   1      13.763  -3.626  -0.362  1.00  0.00    +0.0432  H
ATOM     60 H47  QUI L   1      15.053  -1.975   0.727  1.00  0.00    +0.1182 HD
ATOM     61 H48  QUI L   1      15.674  -3.044   1.783  1.00  0.00    +0.1182 HD
ENDBRANCH 21 56
ENDBRANCH 17 21
ENDBRANCH 1 19
TORSDOF 8
ENDMDL
MODEL 6
REMARK VINA RESULT:    -7.314      2.824     10.819
REMARK INTER + INTRA:         -11.869
REMARK INTER:                  -9.891
REMARK INTRA:                  -1.978
REMARK UNBOUND:                -1.133
ROOT
ATOM      1 C20  QUI L   1      11.152  -8.748  -4.641  1.00  0.00    +0.0424  A
ATOM      2 C21  QUI L   1      10.069  -9.617  -4.727  1.00  0.00    -0.0363  A
ATOM      3 C22  QUI L   1       9.234  -9.598  -5.852  1.00  0.00    -0.0338  A
ATOM      4 C23  QUI L   1       9.447  -8.728  -6.910  1.00  0.00    +0.0711  A
ATOM      5 N24  QUI L   1       8.616  -8.749  -7.967  1.00  0.00    -0.2550 NA
ATOM      6 C25  QUI L   1       8.855  -7.886  -8.980  1.00  0.00    +0.0283  A
ATOM      7 C26  QUI L   1       9.902  -6.985  -8.993  1.00  0.00    -0.0430  A
ATOM      8 C27  QUI L   1      10.759  -6.965  -7.898  1.00  0.00    -0.0511  A
ATOM      9 C28  QUI L   1      10.544  -7.846  -6.829  1.00  0.00    +0.0023  A
ATOM     10 C29  QUI L   1      11.386  -7.863  -5.700  1.00  0.00    -0.0291  A
ATOM     11 H50  QUI L   1       9.839 -10.329  -3.941  1.00  0.00    +0.0639  H
ATOM     12 H51  QUI L   1       8.392 -10.285  -5.900  1.00  0.00    +0.0640  H
ATOM     13 H52  QUI L   1       8.155  -7.944  -9.808  1.00  0.00    +0.0830  H
ATOM     14 H53  QUI L   1      10.046  -6.314  -9.832  1.00  0.00    +0.0633  H
ATOM     15 H54  QUI L   1      11.589  -6.265  -7.885  1.00  0.00    +0.0625  H
ATOM     16 H55  QUI L   1      12.224  -7.173  -5.657  1.00  0.00    +0.0645  H
ENDROOT
BRANCH 1 19
ATOM     17 C17  QUI L   1      11.855  -8.086  -2.320  1.00  0.00    +0.2339  C
ATOM     18 O18  QUI L   1      10.864  -7.445  -1.984  1.00  0.00    -0.2722 OA
ATOM     19 N19  QUI L   1      12.046  -8.700  -3.551  1.00  0.00    -0.3256  N
ATOM     20 H49  QUI L   1      12.951  -9.132  -3.698  1.00  0.00    +0.1686 HD
BRANCH 17 21
ATOM     21 C14  QUI L   1      13.047  -8.298  -1.370  1.00  0.00    +0.0752  C
ATOM     22 H44  QUI L   1      13.901  -8.544  -2.018  1.00  0.00    +0.0458  H
BRANCH 21 26
ATOM     23 C10  QUI L   1      13.991  -4.680   0.848  1.00  0.00    -0.0103  A
ATOM     24 C11  QUI L   1      14.119  -4.720  -0.546  1.00  0.00    -0.0551  A
ATOM     25 C12  QUI L   1      13.811  -5.884  -1.254  1.00  0.00    -0.0574  A
ATOM     26 C13  QUI L   1      13.372  -7.034  -0.581  1.00  0.00    -0.0341  A
ATOM     27 C30  QUI L   1      13.264  -6.998   0.817  1.00  0.00    -0.0574  A
ATOM     28 C31  QUI L   1      13.572  -5.833   1.523  1.00  0.00    -0.0551  A
ATOM     29 H42  QUI L   1      14.475  -3.846  -1.088  1.00  0.00    +0.0621  H
ATOM     30 H43  QUI L   1      13.935  -5.892  -2.336  1.00  0.00    +0.0621  H
ATOM     31 H56  QUI L   1      12.944  -7.878   1.373  1.00  0.00    +0.0621  H
ATOM     32 H57  QUI L   1      13.492  -5.833   2.609  1.00  0.00    +0.0621  H
BRANCH 23 33
ATOM     33  C9  QUI L   1      14.351  -3.435   1.615  1.00  0.00    +0.1179  C
ATOM     34 H40  QUI L   1      13.829  -2.553   1.223  1.00  0.00    +0.0749  H
ATOM     35 H41  QUI L   1      15.421  -3.226   1.496  1.00  0.00    +0.0749  H
BRANCH 33 36
ATOM     36  O8  QUI L   1      14.107  -3.647   3.009  1.00  0.00    -0.4564 OA
BRANCH 36 37
ATOM     37  C6  QUI L   1      13.153  -2.861   3.560  1.00  0.00    +0.3398  C
ATOM     38  O7  QUI L   1      13.134  -1.642   3.583  1.00  0.00    -0.2449 OA
BRANCH 37 43
ATOM     39  C1  QUI L   1       8.685  -6.131   5.253  1.00  0.00    -0.0397  C
ATOM     40  C2  QUI L   1       9.840  -5.259   4.854  1.00  0.00    -0.0502  A
ATOM     41  C3  QUI L   1       9.805  -4.546   3.653  1.00  0.00    -0.0580  A
ATOM     42  C4  QUI L   1      10.897  -3.768   3.268  1.00  0.00    -0.0473  A
ATOM     43  C5  QUI L   1      12.045  -3.704   4.072  1.00  0.00    +0.0619  A
ATOM     44 C32  QUI L   1      12.091  -4.400   5.294  1.00  0.00    -0.0362  A
ATOM     45 C33  QUI L   1      13.276  -4.347   6.218  1.00  0.00    -0.0389  C
ATOM     46 C34  QUI L   1      10.987  -5.192   5.658  1.00  0.00    -0.0551  A
ATOM     47 H35  QUI L   1       7.743  -5.738   4.859  1.00  0.00    +0.0278  H
ATOM     48 H36  QUI L   1       8.587  -6.174   6.344  1.00  0.00    +0.0278  H
ATOM     49 H37  QUI L   1       8.832  -7.145   4.870  1.00  0.00    +0.0278  H
ATOM     50 H38  QUI L   1       8.930  -4.592   3.010  1.00  0.00    +0.0620  H
ATOM     51 H39  QUI L   1      10.855  -3.216   2.331  1.00  0.00    +0.0626  H
ATOM     52 H58  QUI L   1      13.668  -3.327   6.295  1.00  0.00    +0.0278  H
ATOM     53 H59  QUI L   1      14.062  -5.021   5.866  1.00  0.00    +0.0278  H
ATOM     54 H60  QUI L   1      12.997  -4.652   7.234  1.00  0.00    +0.0278  H
ATOM     55 H61  QUI L   1      11.015  -5.758   6.589  1.00  0.00    +0.0623  H
ENDBRANCH 37 43
ENDBRANCH 36 37
ENDBRANCH 33 36
ENDBRANCH 23 33
ENDBRANCH 21 26
BRANCH 21 56
ATOM     56 C15  QUI L   1      12.788  -9.509  -0.447  1.00  0.00    +0.0085  C
ATOM     57 N16  QUI L   1      11.526 -10.201  -0.752  1.00  0.00    -0.3289 NA
ATOM     58 H45  QUI L   1      13.612 -10.231  -0.509  1.00  0.00    +0.0432  H
ATOM     59 H46  QUI L   1      12.739  -9.172   0.596  1.00  0.00    +0.0432  H
ATOM     60 H47  QUI L   1      11.436 -11.003  -0.127  1.00  0.00    +0.1182 HD
ATOM     61 H48  QUI L   1      11.587 -10.593  -1.694  1.00  0.00    +0.1182 HD
ENDBRANCH 21 56
ENDBRANCH 17 21
ENDBRANCH 1 19
TORSDOF 8
ENDMDL
MODEL 7
REMARK VINA RESULT:    -7.254      2.019      3.187
REMARK INTER + INTRA:         -11.780
REMARK INTER:                 -10.582
REMARK INTRA:                  -1.199
REMARK UNBOUND:                -1.133
ROOT
ATOM      1 C20  QUI L   1      11.542  -5.098   2.782  1.00  0.00    +0.0424  A
ATOM      2 C21  QUI L   1      11.671  -3.741   3.064  1.00  0.00    -0.0363  A
ATOM      3 C22  QUI L   1      10.921  -3.157   4.094  1.00  0.00    -0.0338  A
ATOM      4 C23  QUI L   1      10.034  -3.893   4.864  1.00  0.00    +0.0711  A
ATOM      5 N24  QUI L   1       9.338  -3.285   5.841  1.00  0.00    -0.2550 NA
ATOM      6 C25  QUI L   1       8.482  -4.033   6.571  1.00  0.00    +0.0283  A
ATOM      7 C26  QUI L   1       8.280  -5.386   6.373  1.00  0.00    -0.0430  A
ATOM      8 C27  QUI L   1       9.001  -6.011   5.362  1.00  0.00    -0.0511  A
ATOM      9 C28  QUI L   1       9.899  -5.267   4.584  1.00  0.00    +0.0023  A
ATOM     10 C29  QUI L   1      10.652  -5.858   3.550  1.00  0.00    -0.0291  A
ATOM     11 H50  QUI L   1      12.347  -3.100   2.507  1.00  0.00    +0.0639  H
ATOM     12 H51  QUI L   1      11.037  -2.095   4.298  1.00  0.00    +0.0640  H
ATOM     13 H52  QUI L   1       7.945  -3.494   7.346  1.00  0.00    +0.0830  H
ATOM     14 H53  QUI L   1       7.579  -5.938   6.988  1.00  0.00    +0.0633  H
ATOM     15 H54  QUI L   1       8.860  -7.073   5.187  1.00  0.00    +0.0625  H
ATOM     16 H55  QUI L   1      10.531  -6.919   3.350  1.00  0.00    +0.0645  H
ENDROOT
BRANCH 1 19
ATOM     17 C17  QUI L   1      11.826  -6.078   0.486  1.00  0.00    +0.2339  C
ATOM     18 O18  QUI L   1      10.715  -5.836   0.023  1.00  0.00    -0.2722 OA
ATOM     19 N19  QUI L   1      12.256  -5.769   1.770  1.00  0.00    -0.3256  N
ATOM     20 H49  QUI L   1      13.180  -6.100   2.021  1.00  0.00    +0.1686 HD
BRANCH 17 21
ATOM     21 C14  QUI L   1      12.919  -6.775  -0.345  1.00  0.00    +0.0752  C
ATOM     22 H44  QUI L   1      13.536  -7.325   0.381  1.00  0.00    +0.0458  H
BRANCH 21 26
ATOM     23 C10  QUI L   1      11.223  -9.571  -3.209  1.00  0.00    -0.0103  A
ATOM     24 C11  QUI L   1      11.805  -8.371  -3.637  1.00  0.00    -0.0551  A
ATOM     25 C12  QUI L   1      12.352  -7.478  -2.713  1.00  0.00    -0.0574  A
ATOM     26 C13  QUI L   1      12.325  -7.766  -1.340  1.00  0.00    -0.0341  A
ATOM     27 C30  QUI L   1      11.724  -8.959  -0.912  1.00  0.00    -0.0574  A
ATOM     28 C31  QUI L   1      11.178  -9.851  -1.838  1.00  0.00    -0.0551  A
ATOM     29 H42  QUI L   1      11.821  -8.119  -4.696  1.00  0.00    +0.0621  H
ATOM     30 H43  QUI L   1      12.782  -6.545  -3.073  1.00  0.00    +0.0621  H
ATOM     31 H56  QUI L   1      11.668  -9.205   0.148  1.00  0.00    +0.0621  H
ATOM     32 H57  QUI L   1      10.706 -10.765  -1.481  1.00  0.00    +0.0621  H
BRANCH 23 33
ATOM     33  C9  QUI L   1      10.608 -10.521  -4.203  1.00  0.00    +0.1179  C
ATOM     34 H40  QUI L   1       9.775 -11.084  -3.762  1.00  0.00    +0.0749  H
ATOM     35 H41  QUI L   1      11.349 -11.271  -4.503  1.00  0.00    +0.0749  H
BRANCH 33 36
ATOM     36  O8  QUI L   1      10.225  -9.800  -5.378  1.00  0.00    -0.4564 OA
BRANCH 36 37
ATOM     37  C6  QUI L   1       8.900  -9.554  -5.505  1.00  0.00    +0.3398  C
ATOM     38  O7  QUI L   1       8.068  -9.550  -4.613  1.00  0.00    -0.2449 OA
BRANCH 37 43
ATOM     39  C1  QUI L   1       8.021  -8.029 -11.021  1.00  0.00    -0.0397  C
ATOM     40  C2  QUI L   1       8.209  -8.402  -9.580  1.00  0.00    -0.0502  A
ATOM     41  C3  QUI L   1       9.381  -8.049  -8.905  1.00  0.00    -0.0580  A
ATOM     42  C4  QUI L   1       9.568  -8.431  -7.576  1.00  0.00    -0.0473  A
ATOM     43  C5  QUI L   1       8.592  -9.186  -6.908  1.00  0.00    +0.0619  A
ATOM     44 C32  QUI L   1       7.397  -9.536  -7.565  1.00  0.00    -0.0362  A
ATOM     45 C33  QUI L   1       6.298 -10.314  -6.898  1.00  0.00    -0.0389  C
ATOM     46 C34  QUI L   1       7.234  -9.155  -8.910  1.00  0.00    -0.0551  A
ATOM     47 H35  QUI L   1       8.547  -7.099 -11.257  1.00  0.00    +0.0278  H
ATOM     48 H36  QUI L   1       6.961  -7.869 -11.247  1.00  0.00    +0.0278  H
ATOM     49 H37  QUI L   1       8.405  -8.825 -11.666  1.00  0.00    +0.0278  H
ATOM     50 H38  QUI L   1      10.155  -7.474  -9.408  1.00  0.00    +0.0620  H
ATOM     51 H39  QUI L   1      10.484  -8.146  -7.063  1.00  0.00    +0.0626  H
ATOM     52 H58  QUI L   1       6.132  -9.960  -5.875  1.00  0.00    +0.0278  H
ATOM     53 H59  QUI L   1       6.541 -11.381  -6.886  1.00  0.00    +0.0278  H
ATOM     54 H60  QUI L   1       5.348 -10.189  -7.430  1.00  0.00    +0.0278  H
ATOM     55 H61  QUI L   1       6.327  -9.439  -9.442  1.00  0.00    +0.0623  H
ENDBRANCH 37 43
ENDBRANCH 36 37
ENDBRANCH 33 36
ENDBRANCH 23 33
ENDBRANCH 21 26
BRANCH 21 56
ATOM     56 C15  QUI L   1      13.819  -5.727  -1.035  1.00  0.00    +0.0085  C
ATOM     57 N16  QUI L   1      13.339  -4.348  -0.847  1.00  0.00    -0.3289 NA
ATOM     58 H45  QUI L   1      14.850  -5.795  -0.668  1.00  0.00    +0.0432  H
ATOM     59 H46  QUI L   1      13.851  -5.923  -2.114  1.00  0.00    +0.0432  H
ATOM     60 H47  QUI L   1      13.994  -3.711  -1.301  1.00  0.00    +0.1182 HD
ATOM     61 H48  QUI L   1      13.379  -4.120   0.149  1.00  0.00    +0.1182 HD
ENDBRANCH 21 56
ENDBRANCH 17 21
ENDBRANCH 1 19
TORSDOF 8
ENDMDL
MODEL 8
REMARK VINA RESULT:    -7.219      2.823     11.290
REMARK INTER + INTRA:         -11.728
REMARK INTER:                 -10.551
REMARK INTRA:                  -1.177
REMARK UNBOUND:                -1.133
ROOT
ATOM      1 C20  QUI L   1       8.883  -9.631  -6.247  1.00  0.00    +0.0424  A
ATOM      2 C21  QUI L   1       7.539  -9.688  -5.891  1.00  0.00    -0.0363  A
ATOM      3 C22  QUI L   1       6.541  -9.578  -6.869  1.00  0.00    -0.0338  A
ATOM      4 C23  QUI L   1       6.845  -9.413  -8.211  1.00  0.00    +0.0711  A
ATOM      5 N24  QUI L   1       5.850  -9.313  -9.111  1.00  0.00    -0.2550 NA
ATOM      6 C25  QUI L   1       6.184  -9.152 -10.411  1.00  0.00    +0.0283  A
ATOM      7 C26  QUI L   1       7.486  -9.085 -10.869  1.00  0.00    -0.0430  A
ATOM      8 C27  QUI L   1       8.511  -9.189  -9.937  1.00  0.00    -0.0511  A
ATOM      9 C28  QUI L   1       8.204  -9.357  -8.579  1.00  0.00    +0.0023  A
ATOM     10 C29  QUI L   1       9.209  -9.467  -7.599  1.00  0.00    -0.0291  A
ATOM     11 H50  QUI L   1       7.222  -9.818  -4.861  1.00  0.00    +0.0639  H
ATOM     12 H51  QUI L   1       5.497  -9.624  -6.569  1.00  0.00    +0.0640  H
ATOM     13 H52  QUI L   1       5.344  -9.077 -11.096  1.00  0.00    +0.0830  H
ATOM     14 H53  QUI L   1       7.696  -8.955 -11.924  1.00  0.00    +0.0633  H
ATOM     15 H54  QUI L   1       9.542  -9.138 -10.272  1.00  0.00    +0.0625  H
ATOM     16 H55  QUI L   1      10.251  -9.419  -7.904  1.00  0.00    +0.0645  H
ENDROOT
BRANCH 1 19
ATOM     17 C17  QUI L   1      10.945  -8.801  -5.076  1.00  0.00    +0.2339  C
ATOM     18 O18  QUI L   1      11.074  -7.717  -5.638  1.00  0.00    -0.2722 OA
ATOM     19 N19  QUI L   1       9.951  -9.736  -5.334  1.00  0.00    -0.3256  N
ATOM     20 H49  QUI L   1      10.024 -10.614  -4.833  1.00  0.00    +0.1686 HD
BRANCH 17 21
ATOM     21 C14  QUI L   1      11.908  -9.263  -3.967  1.00  0.00    +0.0752  C
ATOM     22 H44  QUI L   1      12.889  -9.369  -4.453  1.00  0.00    +0.0458  H
BRANCH 21 26
ATOM     23 C10  QUI L   1      12.259  -6.316  -0.791  1.00  0.00    -0.0103  A
ATOM     24 C11  QUI L   1      13.246  -6.427  -1.778  1.00  0.00    -0.0551  A
ATOM     25 C12  QUI L   1      13.127  -7.373  -2.798  1.00  0.00    -0.0574  A
ATOM     26 C13  QUI L   1      12.018  -8.231  -2.850  1.00  0.00    -0.0341  A
ATOM     27 C30  QUI L   1      11.040  -8.131  -1.850  1.00  0.00    -0.0574  A
ATOM     28 C31  QUI L   1      11.161  -7.184  -0.831  1.00  0.00    -0.0551  A
ATOM     29 H42  QUI L   1      14.124  -5.783  -1.748  1.00  0.00    +0.0621  H
ATOM     30 H43  QUI L   1      13.917  -7.448  -3.543  1.00  0.00    +0.0621  H
ATOM     31 H56  QUI L   1      10.175  -8.794  -1.848  1.00  0.00    +0.0621  H
ATOM     32 H57  QUI L   1      10.395  -7.134  -0.057  1.00  0.00    +0.0621  H
BRANCH 23 33
ATOM     33  C9  QUI L   1      12.401  -5.315   0.326  1.00  0.00    +0.1179  C
ATOM     34 H40  QUI L   1      12.558  -4.299  -0.058  1.00  0.00    +0.0749  H
ATOM     35 H41  QUI L   1      13.291  -5.552   0.920  1.00  0.00    +0.0749  H
BRANCH 33 36
ATOM     36  O8  QUI L   1      11.267  -5.408   1.196  1.00  0.00    -0.4564 OA
BRANCH 36 37
ATOM     37  C6  QUI L   1      11.547  -5.689   2.489  1.00  0.00    +0.3398  C
ATOM     38  O7  QUI L   1      12.233  -6.608   2.906  1.00  0.00    -0.2449 OA
BRANCH 37 43
ATOM     39  C1  QUI L   1       9.017  -1.819   5.974  1.00  0.00    -0.0397  C
ATOM     40  C2  QUI L   1       9.681  -2.788   5.040  1.00  0.00    -0.0502  A
ATOM     41  C3  QUI L   1       8.997  -3.921   4.594  1.00  0.00    -0.0580  A
ATOM     42  C4  QUI L   1       9.632  -4.839   3.756  1.00  0.00    -0.0473  A
ATOM     43  C5  QUI L   1      10.965  -4.644   3.365  1.00  0.00    +0.0619  A
ATOM     44 C32  QUI L   1      11.664  -3.498   3.789  1.00  0.00    -0.0362  A
ATOM     45 C33  QUI L   1      13.082  -3.211   3.380  1.00  0.00    -0.0389  C
ATOM     46 C34  QUI L   1      11.013  -2.592   4.646  1.00  0.00    -0.0551  A
ATOM     47 H35  QUI L   1       7.935  -1.796   5.809  1.00  0.00    +0.0278  H
ATOM     48 H36  QUI L   1       9.392  -0.802   5.812  1.00  0.00    +0.0278  H
ATOM     49 H37  QUI L   1       9.210  -2.107   7.011  1.00  0.00    +0.0278  H
ATOM     50 H38  QUI L   1       7.967  -4.098   4.895  1.00  0.00    +0.0620  H
ATOM     51 H39  QUI L   1       9.085  -5.717   3.415  1.00  0.00    +0.0626  H
ATOM     52 H58  QUI L   1      13.237  -3.434   2.319  1.00  0.00    +0.0278  H
ATOM     53 H59  QUI L   1      13.778  -3.795   3.988  1.00  0.00    +0.0278  H
ATOM     54 H60  QUI L   1      13.323  -2.150   3.513  1.00  0.00    +0.0278  H
ATOM     55 H61  QUI L   1      11.547  -1.713   5.004  1.00  0.00    +0.0623  H
ENDBRANCH 37 43
ENDBRANCH 36 37
ENDBRANCH 33 36
ENDBRANCH 23 33
ENDBRANCH 21 26
BRANCH 21 56
ATOM     56 C15  QUI L   1      11.488 -10.651  -3.436  1.00  0.00    +0.0085  C
ATOM     57 N16  QUI L   1      11.925 -11.753  -4.308  1.00  0.00    -0.3289 NA
ATOM     58 H45  QUI L   1      11.885 -10.820  -2.428  1.00  0.00    +0.0432  H
ATOM     59 H46  QUI L   1      10.395 -10.701  -3.360  1.00  0.00    +0.0432  H
ATOM     60 H47  QUI L   1      11.641 -12.637  -3.882  1.00  0.00    +0.1182 HD
ATOM     61 H48  QUI L   1      12.946 -11.773  -4.326  1.00  0.00    +0.1182 HD
ENDBRANCH 21 56
ENDBRANCH 17 21
ENDBRANCH 1 19
TORSDOF 8
ENDMDL
MODEL 9
REMARK VINA RESULT:    -7.208      2.914     10.946
REMARK INTER + INTRA:         -11.712
REMARK INTER:                 -10.492
REMARK INTRA:                  -1.220
REMARK UNBOUND:                -1.133
ROOT
ATOM      1 C20  QUI L   1      10.389  -8.306  -6.309  1.00  0.00    +0.0424  A
ATOM      2 C21  QUI L   1      10.875  -7.357  -7.203  1.00  0.00    -0.0363  A
ATOM      3 C22  QUI L   1      10.259  -7.175  -8.448  1.00  0.00    -0.0338  A
ATOM      4 C23  QUI L   1       9.156  -7.920  -8.836  1.00  0.00    +0.0711  A
ATOM      5 N24  QUI L   1       8.600  -7.707 -10.043  1.00  0.00    -0.2550 NA
ATOM      6 C25  QUI L   1       7.527  -8.453 -10.388  1.00  0.00    +0.0283  A
ATOM      7 C26  QUI L   1       6.967  -9.419  -9.575  1.00  0.00    -0.0430  A
ATOM      8 C27  QUI L   1       7.544  -9.637  -8.329  1.00  0.00    -0.0511  A
ATOM      9 C28  QUI L   1       8.658  -8.883  -7.936  1.00  0.00    +0.0023  A
ATOM     10 C29  QUI L   1       9.275  -9.067  -6.683  1.00  0.00    -0.0291  A
ATOM     11 H50  QUI L   1      11.732  -6.733  -6.970  1.00  0.00    +0.0639  H
ATOM     12 H51  QUI L   1      10.654  -6.428  -9.132  1.00  0.00    +0.0640  H
ATOM     13 H52  QUI L   1       7.118  -8.242 -11.372  1.00  0.00    +0.0830  H
ATOM     14 H53  QUI L   1       6.106  -9.989  -9.903  1.00  0.00    +0.0633  H
ATOM     15 H54  QUI L   1       7.122 -10.391  -7.672  1.00  0.00    +0.0625  H
ATOM     16 H55  QUI L   1       8.876  -9.816  -6.004  1.00  0.00    +0.0645  H
ENDROOT
BRANCH 1 19
ATOM     17 C17  QUI L   1      12.197  -8.185  -4.568  1.00  0.00    +0.2339  C
ATOM     18 O18  QUI L   1      13.059  -7.594  -5.211  1.00  0.00    -0.2722 OA
ATOM     19 N19  QUI L   1      10.942  -8.554  -5.037  1.00  0.00    -0.3256  N
ATOM     20 H49  QUI L   1      10.372  -9.100  -4.401  1.00  0.00    +0.1686 HD
BRANCH 17 21
ATOM     21 C14  QUI L   1      12.415  -8.594  -3.100  1.00  0.00    +0.0752  C
ATOM     22 H44  QUI L   1      13.079  -9.470  -3.133  1.00  0.00    +0.0458  H
BRANCH 21 26
ATOM     23 C10  QUI L   1      14.382  -5.462  -0.815  1.00  0.00    -0.0103  A
ATOM     24 C11  QUI L   1      15.088  -6.597  -1.230  1.00  0.00    -0.0551  A
ATOM     25 C12  QUI L   1      14.452  -7.599  -1.968  1.00  0.00    -0.0574  A
ATOM     26 C13  QUI L   1      13.095  -7.487  -2.301  1.00  0.00    -0.0341  A
ATOM     27 C30  QUI L   1      12.384  -6.358  -1.867  1.00  0.00    -0.0574  A
ATOM     28 C31  QUI L   1      13.022  -5.357  -1.131  1.00  0.00    -0.0551  A
ATOM     29 H42  QUI L   1      16.138  -6.714  -0.968  1.00  0.00    +0.0621  H
ATOM     30 H43  QUI L   1      15.022  -8.478  -2.263  1.00  0.00    +0.0621  H
ATOM     31 H56  QUI L   1      11.323  -6.248  -2.092  1.00  0.00    +0.0621  H
ATOM     32 H57  QUI L   1      12.445  -4.496  -0.793  1.00  0.00    +0.0621  H
BRANCH 23 33
ATOM     33  C9  QUI L   1      15.059  -4.395   0.004  1.00  0.00    +0.1179  C
ATOM     34 H40  QUI L   1      15.544  -3.643  -0.631  1.00  0.00    +0.0749  H
ATOM     35 H41  QUI L   1      15.861  -4.844   0.602  1.00  0.00    +0.0749  H
BRANCH 33 36
ATOM     36  O8  QUI L   1      14.114  -3.822   0.914  1.00  0.00    -0.4564 OA
BRANCH 36 37
ATOM     37  C6  QUI L   1      14.043  -4.413   2.129  1.00  0.00    +0.3398  C
ATOM     38  O7  QUI L   1      14.851  -5.188   2.614  1.00  0.00    -0.2449 OA
BRANCH 37 43
ATOM     39  C1  QUI L   1       9.579  -2.157   5.046  1.00  0.00    -0.0397  C
ATOM     40  C2  QUI L   1      10.731  -2.782   4.314  1.00  0.00    -0.0502  A
ATOM     41  C3  QUI L   1      11.994  -2.186   4.342  1.00  0.00    -0.0580  A
ATOM     42  C4  QUI L   1      13.052  -2.750   3.628  1.00  0.00    -0.0473  A
ATOM     43  C5  QUI L   1      12.857  -3.909   2.863  1.00  0.00    +0.0619  A
ATOM     44 C32  QUI L   1      11.596  -4.535   2.837  1.00  0.00    -0.0362  A
ATOM     45 C33  QUI L   1      11.328  -5.797   2.065  1.00  0.00    -0.0389  C
ATOM     46 C34  QUI L   1      10.538  -3.943   3.550  1.00  0.00    -0.0551  A
ATOM     47 H35  QUI L   1       9.927  -1.616   5.932  1.00  0.00    +0.0278  H
ATOM     48 H36  QUI L   1       8.874  -2.923   5.390  1.00  0.00    +0.0278  H
ATOM     49 H37  QUI L   1       9.053  -1.459   4.389  1.00  0.00    +0.0278  H
ATOM     50 H38  QUI L   1      12.163  -1.280   4.920  1.00  0.00    +0.0620  H
ATOM     51 H39  QUI L   1      14.031  -2.275   3.662  1.00  0.00    +0.0626  H
ATOM     52 H58  QUI L   1      12.153  -6.508   2.179  1.00  0.00    +0.0278  H
ATOM     53 H59  QUI L   1      11.178  -5.569   1.006  1.00  0.00    +0.0278  H
ATOM     54 H60  QUI L   1      10.428  -6.301   2.435  1.00  0.00    +0.0278  H
ATOM     55 H61  QUI L   1       9.549  -4.399   3.521  1.00  0.00    +0.0623  H
ENDBRANCH 37 43
ENDBRANCH 36 37
ENDBRANCH 33 36
ENDBRANCH 23 33
ENDBRANCH 21 26
BRANCH 21 56
ATOM     56 C15  QUI L   1      11.079  -9.034  -2.462  1.00  0.00    +0.0085  C
ATOM     57 N16  QUI L   1      10.796 -10.465  -2.657  1.00  0.00    -0.3289 NA
ATOM     58 H45  QUI L   1      11.069  -8.816  -1.387  1.00  0.00    +0.0432  H
ATOM     59 H46  QUI L   1      10.253  -8.468  -2.909  1.00  0.00    +0.0432  H
ATOM     60 H47  QUI L   1       9.919 -10.690  -2.186  1.00  0.00    +0.1182 HD
ATOM     61 H48  QUI L   1      11.513 -11.010  -2.176  1.00  0.00    +0.1182 HD
ENDBRANCH 21 56
ENDBRANCH 17 21
ENDBRANCH 1 19
TORSDOF 8
ENDMDL
MODEL 10
REMARK VINA RESULT:    -7.198      4.926     10.943
REMARK INTER + INTRA:         -11.698
REMARK INTER:                  -9.286
REMARK INTRA:                  -2.412
REMARK UNBOUND:                -1.133
ROOT
ATOM      1 C20  QUI L   1      12.471  -7.699   0.738  1.00  0.00    +0.0424  A
ATOM      2 C21  QUI L   1      11.736  -6.744   0.043  1.00  0.00    -0.0363  A
ATOM      3 C22  QUI L   1      11.096  -7.078  -1.158  1.00  0.00    -0.0338  A
ATOM      4 C23  QUI L   1      11.165  -8.354  -1.695  1.00  0.00    +0.0711  A
ATOM      5 N24  QUI L   1      10.531  -8.625  -2.851  1.00  0.00    -0.2550 NA
ATOM      6 C25  QUI L   1      10.621  -9.879  -3.346  1.00  0.00    +0.0283  A
ATOM      7 C26  QUI L   1      11.324 -10.900  -2.734  1.00  0.00    -0.0430  A
ATOM      8 C27  QUI L   1      11.977 -10.617  -1.540  1.00  0.00    -0.0511  A
ATOM      9 C28  QUI L   1      11.907  -9.327  -0.996  1.00  0.00    +0.0023  A
ATOM     10 C29  QUI L   1      12.551  -8.994   0.212  1.00  0.00    -0.0291  A
ATOM     11 H50  QUI L   1      11.633  -5.724   0.401  1.00  0.00    +0.0639  H
ATOM     12 H51  QUI L   1      10.526  -6.317  -1.686  1.00  0.00    +0.0640  H
ATOM     13 H52  QUI L   1      10.093 -10.044  -4.280  1.00  0.00    +0.0830  H
ATOM     14 H53  QUI L   1      11.363 -11.888  -3.176  1.00  0.00    +0.0633  H
ATOM     15 H54  QUI L   1      12.536 -11.402  -1.041  1.00  0.00    +0.0625  H
ATOM     16 H55  QUI L   1      13.120  -9.758   0.734  1.00  0.00    +0.0645  H
ENDROOT
BRANCH 1 19
ATOM     17 C17  QUI L   1      14.514  -7.369   2.164  1.00  0.00    +0.2339  C
ATOM     18 O18  QUI L   1      15.383  -7.526   1.312  1.00  0.00    -0.2722 OA
ATOM     19 N19  QUI L   1      13.144  -7.453   1.952  1.00  0.00    -0.3256  N
ATOM     20 H49  QUI L   1      12.560  -7.367   2.775  1.00  0.00    +0.1686 HD
BRANCH 17 21
ATOM     21 C14  QUI L   1      14.859  -7.035   3.627  1.00  0.00    +0.0752  C
ATOM     22 H44  QUI L   1      15.909  -6.710   3.615  1.00  0.00    +0.0458  H
BRANCH 21 26
ATOM     23 C10  QUI L   1      12.373  -3.823   5.176  1.00  0.00    -0.0103  A
ATOM     24 C11  QUI L   1      12.314  -5.106   5.733  1.00  0.00    -0.0551  A
ATOM     25 C12  QUI L   1      13.118  -6.134   5.234  1.00  0.00    -0.0574  A
ATOM     26 C13  QUI L   1      13.994  -5.899   4.164  1.00  0.00    -0.0341  A
ATOM     27 C30  QUI L   1      14.036  -4.618   3.594  1.00  0.00    -0.0574  A
ATOM     28 C31  QUI L   1      13.232  -3.592   4.096  1.00  0.00    -0.0551  A
ATOM     29 H42  QUI L   1      11.629  -5.316   6.552  1.00  0.00    +0.0621  H
ATOM     30 H43  QUI L   1      13.040  -7.126   5.676  1.00  0.00    +0.0621  H
ATOM     31 H56  QUI L   1      14.692  -4.405   2.750  1.00  0.00    +0.0621  H
ATOM     32 H57  QUI L   1      13.273  -2.608   3.629  1.00  0.00    +0.0621  H
BRANCH 23 33
ATOM     33  C9  QUI L   1      11.485  -2.721   5.694  1.00  0.00    +0.1179  C
ATOM     34 H40  QUI L   1      10.983  -2.188   4.877  1.00  0.00    +0.0749  H
ATOM     35 H41  QUI L   1      12.095  -1.971   6.212  1.00  0.00    +0.0749  H
BRANCH 33 36
ATOM     36  O8  QUI L   1      10.565  -3.261   6.649  1.00  0.00    -0.4564 OA
BRANCH 36 37
ATOM     37  C6  QUI L   1       9.268  -3.277   6.263  1.00  0.00    +0.3398  C
ATOM     38  O7  QUI L   1       8.559  -2.309   6.040  1.00  0.00    -0.2449 OA
BRANCH 37 43
ATOM     39  C1  QUI L   1       7.425  -8.741   5.746  1.00  0.00    -0.0397  C
ATOM     40  C2  QUI L   1       7.943  -7.337   5.859  1.00  0.00    -0.0502  A
ATOM     41  C3  QUI L   1       8.004  -6.704   7.104  1.00  0.00    -0.0580  A
ATOM     42  C4  QUI L   1       8.450  -5.386   7.199  1.00  0.00    -0.0473  A
ATOM     43  C5  QUI L   1       8.827  -4.676   6.050  1.00  0.00    +0.0619  A
ATOM     44 C32  QUI L   1       8.791  -5.303   4.790  1.00  0.00    -0.0362  A
ATOM     45 C33  QUI L   1       9.214  -4.612   3.524  1.00  0.00    -0.0389  C
ATOM     46 C34  QUI L   1       8.323  -6.627   4.711  1.00  0.00    -0.0551  A
ATOM     47 H35  QUI L   1       7.633  -9.310   6.657  1.00  0.00    +0.0278  H
ATOM     48 H36  QUI L   1       7.909  -9.269   4.916  1.00  0.00    +0.0278  H
ATOM     49 H37  QUI L   1       6.344  -8.728   5.576  1.00  0.00    +0.0278  H
ATOM     50 H38  QUI L   1       7.704  -7.233   8.006  1.00  0.00    +0.0620  H
ATOM     51 H39  QUI L   1       8.494  -4.907   8.176  1.00  0.00    +0.0626  H
ATOM     52 H58  QUI L   1      10.127  -4.028   3.681  1.00  0.00    +0.0278  H
ATOM     53 H59  QUI L   1       8.414  -3.959   3.162  1.00  0.00    +0.0278  H
ATOM     54 H60  QUI L   1       9.441  -5.338   2.735  1.00  0.00    +0.0278  H
ATOM     55 H61  QUI L   1       8.265  -7.120   3.741  1.00  0.00    +0.0623  H
ENDBRANCH 37 43
ENDBRANCH 36 37
ENDBRANCH 33 36
ENDBRANCH 23 33
ENDBRANCH 21 26
BRANCH 21 56
ATOM     56 C15  QUI L   1      14.763  -8.303   4.503  1.00  0.00    +0.0085  C
ATOM     57 N16  QUI L   1      14.212  -9.459   3.778  1.00  0.00    -0.3289 NA
ATOM     58 H45  QUI L   1      15.746  -8.574   4.906  1.00  0.00    +0.0432  H
ATOM     59 H46  QUI L   1      14.109  -8.107   5.363  1.00  0.00    +0.0432  H
ATOM     60 H47  QUI L   1      14.207 -10.264   4.406  1.00  0.00    +0.1182 HD
ATOM     61 H48  QUI L   1      14.852  -9.706   3.021  1.00  0.00    +0.1182 HD
ENDBRANCH 21 56
ENDBRANCH 17 21
ENDBRANCH 1 19
TORSDOF 8
ENDMDL
MODEL 11
REMARK VINA RESULT:    -7.139      2.042      3.696
REMARK INTER + INTRA:         -11.612
REMARK INTER:                 -10.600
REMARK INTRA:                  -1.012
REMARK UNBOUND:                -1.133
ROOT
ATOM      1 C20  QUI L   1      11.083  -4.915   2.567  1.00  0.00    +0.0424  A
ATOM      2 C21  QUI L   1      10.274  -5.927   3.072  1.00  0.00    -0.0363  A
ATOM      3 C22  QUI L   1       9.429  -5.682   4.163  1.00  0.00    -0.0338  A
ATOM      4 C23  QUI L   1       9.364  -4.440   4.775  1.00  0.00    +0.0711  A
ATOM      5 N24  QUI L   1       8.537  -4.256   5.820  1.00  0.00    -0.2550 NA
ATOM      6 C25  QUI L   1       8.500  -3.032   6.393  1.00  0.00    +0.0283  A
ATOM      7 C26  QUI L   1       9.262  -1.960   5.968  1.00  0.00    -0.0430  A
ATOM      8 C27  QUI L   1      10.116  -2.154   4.889  1.00  0.00    -0.0511  A
ATOM      9 C28  QUI L   1      10.181  -3.410   4.268  1.00  0.00    +0.0023  A
ATOM     10 C29  QUI L   1      11.030  -3.653   3.171  1.00  0.00    -0.0291  A
ATOM     11 H50  QUI L   1      10.267  -6.925   2.644  1.00  0.00    +0.0639  H
ATOM     12 H51  QUI L   1       8.805  -6.487   4.542  1.00  0.00    +0.0640  H
ATOM     13 H52  QUI L   1       7.817  -2.937   7.231  1.00  0.00    +0.0830  H
ATOM     14 H53  QUI L   1       9.193  -1.000   6.466  1.00  0.00    +0.0633  H
ATOM     15 H54  QUI L   1      10.725  -1.327   4.537  1.00  0.00    +0.0625  H
ATOM     16 H55  QUI L   1      11.654  -2.845   2.797  1.00  0.00    +0.0645  H
ENDROOT
BRANCH 1 19
ATOM     17 C17  QUI L   1      12.956  -6.023   1.310  1.00  0.00    +0.2339  C
ATOM     18 O18  QUI L   1      13.261  -6.889   2.124  1.00  0.00    -0.2722 OA
ATOM     19 N19  QUI L   1      11.959  -5.070   1.474  1.00  0.00    -0.3256  N
ATOM     20 H49  QUI L   1      11.878  -4.379   0.736  1.00  0.00    +0.1686 HD
BRANCH 17 21
ATOM     21 C14  QUI L   1      13.667  -5.897  -0.050  1.00  0.00    +0.0752  C
ATOM     22 H44  QUI L   1      14.692  -6.256   0.119  1.00  0.00    +0.0458  H
BRANCH 21 26
ATOM     23 C10  QUI L   1      11.762  -8.392  -3.057  1.00  0.00    -0.0103  A
ATOM     24 C11  QUI L   1      11.180  -8.221  -1.795  1.00  0.00    -0.0551  A
ATOM     25 C12  QUI L   1      11.794  -7.415  -0.834  1.00  0.00    -0.0574  A
ATOM     26 C13  QUI L   1      13.006  -6.767  -1.114  1.00  0.00    -0.0341  A
ATOM     27 C30  QUI L   1      13.598  -6.956  -2.372  1.00  0.00    -0.0574  A
ATOM     28 C31  QUI L   1      12.981  -7.762  -3.332  1.00  0.00    -0.0551  A
ATOM     29 H42  QUI L   1      10.249  -8.728  -1.548  1.00  0.00    +0.0621  H
ATOM     30 H43  QUI L   1      11.328  -7.312   0.145  1.00  0.00    +0.0621  H
ATOM     31 H56  QUI L   1      14.548  -6.483  -2.618  1.00  0.00    +0.0621  H
ATOM     32 H57  QUI L   1      13.466  -7.904  -4.297  1.00  0.00    +0.0621  H
BRANCH 23 33
ATOM     33  C9  QUI L   1      11.115  -9.284  -4.084  1.00  0.00    +0.1179  C
ATOM     34 H40  QUI L   1      10.443 -10.017  -3.619  1.00  0.00    +0.0749  H
ATOM     35 H41  QUI L   1      11.885  -9.870  -4.599  1.00  0.00    +0.0749  H
BRANCH 33 36
ATOM     36  O8  QUI L   1      10.458  -8.479  -5.068  1.00  0.00    -0.4564 OA
BRANCH 36 37
ATOM     37  C6  QUI L   1      10.935  -8.594  -6.329  1.00  0.00    +0.3398  C
ATOM     38  O7  QUI L   1      12.105  -8.701  -6.661  1.00  0.00    -0.2449 OA
BRANCH 37 43
ATOM     39  C1  QUI L   1       6.400  -9.139  -9.887  1.00  0.00    -0.0397  C
ATOM     40  C2  QUI L   1       7.604  -8.994  -9.002  1.00  0.00    -0.0502  A
ATOM     41  C3  QUI L   1       7.905  -9.973  -8.052  1.00  0.00    -0.0580  A
ATOM     42  C4  QUI L   1       9.003  -9.816  -7.206  1.00  0.00    -0.0473  A
ATOM     43  C5  QUI L   1       9.806  -8.668  -7.287  1.00  0.00    +0.0619  A
ATOM     44 C32  QUI L   1       9.529  -7.680  -8.250  1.00  0.00    -0.0362  A
ATOM     45 C33  QUI L   1      10.369  -6.444  -8.413  1.00  0.00    -0.0389  C
ATOM     46 C34  QUI L   1       8.409  -7.849  -9.083  1.00  0.00    -0.0551  A
ATOM     47 H35  QUI L   1       6.178 -10.193 -10.076  1.00  0.00    +0.0278  H
ATOM     48 H36  QUI L   1       6.572  -8.663 -10.859  1.00  0.00    +0.0278  H
ATOM     49 H37  QUI L   1       5.530  -8.674  -9.413  1.00  0.00    +0.0278  H
ATOM     50 H38  QUI L   1       7.288 -10.865  -7.965  1.00  0.00    +0.0620  H
ATOM     51 H39  QUI L   1       9.227 -10.589  -6.473  1.00  0.00    +0.0626  H
ATOM     52 H58  QUI L   1      11.436  -6.682  -8.343  1.00  0.00    +0.0278  H
ATOM     53 H59  QUI L   1      10.105  -5.702  -7.653  1.00  0.00    +0.0278  H
ATOM     54 H60  QUI L   1      10.215  -5.989  -9.398  1.00  0.00    +0.0278  H
ATOM     55 H61  QUI L   1       8.165  -7.081  -9.817  1.00  0.00    +0.0623  H
ENDBRANCH 37 43
ENDBRANCH 36 37
ENDBRANCH 33 36
ENDBRANCH 23 33
ENDBRANCH 21 26
BRANCH 21 56
ATOM     56 C15  QUI L   1      13.747  -4.415  -0.478  1.00  0.00    +0.0085  C
ATOM     57 N16  QUI L   1      14.503  -3.585   0.473  1.00  0.00    -0.3289 NA
ATOM     58 H45  QUI L   1      14.203  -4.319  -1.471  1.00  0.00    +0.0432  H
ATOM     59 H46  QUI L   1      12.735  -3.998  -0.550  1.00  0.00    +0.0432  H
ATOM     60 H47  QUI L   1      14.541  -2.631   0.113  1.00  0.00    +0.1182 HD
ATOM     61 H48  QUI L   1      15.472  -3.910   0.493  1.00  0.00    +0.1182 HD
ENDBRANCH 21 56
ENDBRANCH 17 21
ENDBRANCH 1 19
TORSDOF 8
ENDMDL
MODEL 12
REMARK VINA RESULT:    -7.114      2.977     11.056
REMARK INTER + INTRA:         -11.574
REMARK INTER:                 -10.492
REMARK INTRA:                  -1.082
REMARK UNBOUND:                -1.133
ROOT
ATOM      1 C20  QUI L   1      10.726  -7.745  -7.168  1.00  0.00    +0.0424  A
ATOM      2 C21  QUI L   1      10.856  -7.192  -8.438  1.00  0.00    -0.0363  A
ATOM      3 C22  QUI L   1       9.834  -7.345  -9.385  1.00  0.00    -0.0338  A
ATOM      4 C23  QUI L   1       8.669  -8.040  -9.101  1.00  0.00    +0.0711  A
ATOM      5 N24  QUI L   1       7.717  -8.158 -10.045  1.00  0.00    -0.2550 NA
ATOM      6 C25  QUI L   1       6.595  -8.843  -9.733  1.00  0.00    +0.0283  A
ATOM      7 C26  QUI L   1       6.368  -9.429  -8.502  1.00  0.00    -0.0430  A
ATOM      8 C27  QUI L   1       7.353  -9.306  -7.530  1.00  0.00    -0.0511  A
ATOM      9 C28  QUI L   1       8.531  -8.602  -7.816  1.00  0.00    +0.0023  A
ATOM     10 C29  QUI L   1       9.556  -8.449  -6.862  1.00  0.00    -0.0291  A
ATOM     11 H50  QUI L   1      11.737  -6.632  -8.734  1.00  0.00    +0.0639  H
ATOM     12 H51  QUI L   1       9.955  -6.905 -10.372  1.00  0.00    +0.0640  H
ATOM     13 H52  QUI L   1       5.860  -8.909 -10.530  1.00  0.00    +0.0830  H
ATOM     14 H53  QUI L   1       5.448  -9.968  -8.307  1.00  0.00    +0.0633  H
ATOM     15 H54  QUI L   1       7.197  -9.758  -6.555  1.00  0.00    +0.0625  H
ATOM     16 H55  QUI L   1       9.430  -8.892  -5.877  1.00  0.00    +0.0645  H
ENDROOT
BRANCH 1 19
ATOM     17 C17  QUI L   1      12.360  -8.669  -5.498  1.00  0.00    +0.2339  C
ATOM     18 O18  QUI L   1      12.178  -9.870  -5.680  1.00  0.00    -0.2722 OA
ATOM     19 N19  QUI L   1      11.699  -7.639  -6.154  1.00  0.00    -0.3256  N
ATOM     20 H49  QUI L   1      11.914  -6.700  -5.839  1.00  0.00    +0.1686 HD
BRANCH 17 21
ATOM     21 C14  QUI L   1      13.394  -8.147  -4.483  1.00  0.00    +0.0752  C
ATOM     22 H44  QUI L   1      13.851  -7.265  -4.955  1.00  0.00    +0.0458  H
BRANCH 21 26
ATOM     23 C10  QUI L   1      11.483  -6.959  -0.764  1.00  0.00    -0.0103  A
ATOM     24 C11  QUI L   1      10.974  -8.019  -1.524  1.00  0.00    -0.0551  A
ATOM     25 C12  QUI L   1      11.595  -8.399  -2.716  1.00  0.00    -0.0574  A
ATOM     26 C13  QUI L   1      12.735  -7.723  -3.175  1.00  0.00    -0.0341  A
ATOM     27 C30  QUI L   1      13.231  -6.649  -2.422  1.00  0.00    -0.0574  A
ATOM     28 C31  QUI L   1      12.610  -6.271  -1.230  1.00  0.00    -0.0551  A
ATOM     29 H42  QUI L   1      10.080  -8.547  -1.197  1.00  0.00    +0.0621  H
ATOM     30 H43  QUI L   1      11.168  -9.217  -3.295  1.00  0.00    +0.0621  H
ATOM     31 H56  QUI L   1      14.104  -6.089  -2.758  1.00  0.00    +0.0621  H
ATOM     32 H57  QUI L   1      13.006  -5.424  -0.669  1.00  0.00    +0.0621  H
BRANCH 23 33
ATOM     33  C9  QUI L   1      10.798  -6.529   0.507  1.00  0.00    +0.1179  C
ATOM     34 H40  QUI L   1      10.508  -7.391   1.122  1.00  0.00    +0.0749  H
ATOM     35 H41  QUI L   1       9.866  -6.007   0.264  1.00  0.00    +0.0749  H
BRANCH 33 36
ATOM     36  O8  QUI L   1      11.636  -5.606   1.211  1.00  0.00    -0.4564 OA
BRANCH 36 37
ATOM     37  C6  QUI L   1      11.787  -5.849   2.534  1.00  0.00    +0.3398  C
ATOM     38  O7  QUI L   1      12.390  -6.781   3.042  1.00  0.00    -0.2449 OA
BRANCH 37 43
ATOM     39  C1  QUI L   1       9.160  -1.752   5.669  1.00  0.00    -0.0397  C
ATOM     40  C2  QUI L   1       9.850  -2.782   4.824  1.00  0.00    -0.0502  A
ATOM     41  C3  QUI L   1       9.183  -3.951   4.449  1.00  0.00    -0.0580  A
ATOM     42  C4  QUI L   1       9.841  -4.924   3.696  1.00  0.00    -0.0473  A
ATOM     43  C5  QUI L   1      11.180  -4.747   3.318  1.00  0.00    +0.0619  A
ATOM     44 C32  QUI L   1      11.863  -3.567   3.669  1.00  0.00    -0.0362  A
ATOM     45 C33  QUI L   1      13.287  -3.300   3.268  1.00  0.00    -0.0389  C
ATOM     46 C34  QUI L   1      11.188  -2.606   4.443  1.00  0.00    -0.0551  A
ATOM     47 H35  QUI L   1       8.082  -1.750   5.482  1.00  0.00    +0.0278  H
ATOM     48 H36  QUI L   1       9.532  -0.746   5.440  1.00  0.00    +0.0278  H
ATOM     49 H37  QUI L   1       9.334  -1.961   6.729  1.00  0.00    +0.0278  H
ATOM     50 H38  QUI L   1       8.148  -4.113   4.742  1.00  0.00    +0.0620  H
ATOM     51 H39  QUI L   1       9.307  -5.828   3.409  1.00  0.00    +0.0626  H
ATOM     52 H58  QUI L   1      13.465  -3.600   2.231  1.00  0.00    +0.0278  H
ATOM     53 H59  QUI L   1      13.975  -3.832   3.932  1.00  0.00    +0.0278  H
ATOM     54 H60  QUI L   1      13.518  -2.230   3.327  1.00  0.00    +0.0278  H
ATOM     55 H61  QUI L   1      11.709  -1.698   4.746  1.00  0.00    +0.0623  H
ENDBRANCH 37 43
ENDBRANCH 36 37
ENDBRANCH 33 36
ENDBRANCH 23 33
ENDBRANCH 21 26
BRANCH 21 56
ATOM     56 C15  QUI L   1      14.505  -9.196  -4.261  1.00  0.00    +0.0085  C
ATOM     57 N16  QUI L   1      15.207  -9.558  -5.503  1.00  0.00    -0.3289 NA
ATOM     58 H45  QUI L   1      15.241  -8.838  -3.530  1.00  0.00    +0.0432  H
ATOM     59 H46  QUI L   1      14.068 -10.114  -3.848  1.00  0.00    +0.0432  H
ATOM     60 H47  QUI L   1      15.943 -10.228  -5.277  1.00  0.00    +0.1182 HD
ATOM     61 H48  QUI L   1      15.690  -8.730  -5.859  1.00  0.00    +0.1182 HD
ENDBRANCH 21 56
ENDBRANCH 17 21
ENDBRANCH 1 19
TORSDOF 8
ENDMDL
MODEL 13
REMARK VINA RESULT:    -6.987      1.592      2.489
REMARK INTER + INTRA:         -11.388
REMARK INTER:                  -9.820
REMARK INTRA:                  -1.568
REMARK UNBOUND:                -1.133
ROOT
ATOM      1 C20  QUI L   1      12.236  -6.234  -0.923  1.00  0.00    +0.0424  A
ATOM      2 C21  QUI L   1      13.371  -5.481  -1.206  1.00  0.00    -0.0363  A
ATOM      3 C22  QUI L   1      13.911  -4.623  -0.239  1.00  0.00    -0.0338  A
ATOM      4 C23  QUI L   1      13.347  -4.490   1.021  1.00  0.00    +0.0711  A
ATOM      5 N24  QUI L   1      13.904  -3.652   1.915  1.00  0.00    -0.2550 NA
ATOM      6 C25  QUI L   1      13.327  -3.548   3.132  1.00  0.00    +0.0283  A
ATOM      7 C26  QUI L   1      12.200  -4.251   3.513  1.00  0.00    -0.0430  A
ATOM      8 C27  QUI L   1      11.627  -5.115   2.587  1.00  0.00    -0.0511  A
ATOM      9 C28  QUI L   1      12.198  -5.250   1.314  1.00  0.00    +0.0023  A
ATOM     10 C29  QUI L   1      11.653  -6.115   0.344  1.00  0.00    -0.0291  A
ATOM     11 H50  QUI L   1      13.871  -5.533  -2.168  1.00  0.00    +0.0639  H
ATOM     12 H51  QUI L   1      14.799  -4.043  -0.479  1.00  0.00    +0.0640  H
ATOM     13 H52  QUI L   1      13.815  -2.859   3.815  1.00  0.00    +0.0830  H
ATOM     14 H53  QUI L   1      11.778  -4.127   4.504  1.00  0.00    +0.0633  H
ATOM     15 H54  QUI L   1      10.741  -5.678   2.863  1.00  0.00    +0.0625  H
ATOM     16 H55  QUI L   1      10.765  -6.691   0.590  1.00  0.00    +0.0645  H
ENDROOT
BRANCH 1 19
ATOM     17 C17  QUI L   1      12.198  -8.227  -2.453  1.00  0.00    +0.2339  C
ATOM     18 O18  QUI L   1      13.361  -8.599  -2.329  1.00  0.00    -0.2722 OA
ATOM     19 N19  QUI L   1      11.628  -7.123  -1.832  1.00  0.00    -0.3256  N
ATOM     20 H49  QUI L   1      10.673  -6.909  -2.093  1.00  0.00    +0.1686 HD
BRANCH 17 21
ATOM     21 C14  QUI L   1      11.192  -8.981  -3.342  1.00  0.00    +0.0752  C
ATOM     22 H44  QUI L   1      10.224  -8.488  -3.176  1.00  0.00    +0.0458  H
BRANCH 21 26
ATOM     23 C10  QUI L   1      12.225  -8.715  -7.556  1.00  0.00    -0.0103  A
ATOM     24 C11  QUI L   1      11.599  -9.857  -7.043  1.00  0.00    -0.0551  A
ATOM     25 C12  QUI L   1      11.266  -9.936  -5.689  1.00  0.00    -0.0574  A
ATOM     26 C13  QUI L   1      11.556  -8.874  -4.819  1.00  0.00    -0.0341  A
ATOM     27 C30  QUI L   1      12.202  -7.740  -5.331  1.00  0.00    -0.0574  A
ATOM     28 C31  QUI L   1      12.533  -7.662  -6.686  1.00  0.00    -0.0551  A
ATOM     29 H42  QUI L   1      11.380 -10.701  -7.696  1.00  0.00    +0.0621  H
ATOM     30 H43  QUI L   1      10.794 -10.843  -5.314  1.00  0.00    +0.0621  H
ATOM     31 H56  QUI L   1      12.459  -6.904  -4.681  1.00  0.00    +0.0621  H
ATOM     32 H57  QUI L   1      13.046  -6.776  -7.058  1.00  0.00    +0.0621  H
BRANCH 23 33
ATOM     33  C9  QUI L   1      12.611  -8.640  -9.010  1.00  0.00    +0.1179  C
ATOM     34 H40  QUI L   1      13.413  -9.349  -9.253  1.00  0.00    +0.0749  H
ATOM     35 H41  QUI L   1      13.014  -7.646  -9.233  1.00  0.00    +0.0749  H
BRANCH 33 36
ATOM     36  O8  QUI L   1      11.447  -8.824  -9.822  1.00  0.00    -0.4564 OA
BRANCH 36 37
ATOM     37  C6  QUI L   1      10.597  -7.772  -9.869  1.00  0.00    +0.3398  C
ATOM     38  O7  QUI L   1      10.896  -6.589  -9.852  1.00  0.00    -0.2449 OA
BRANCH 37 43
ATOM     39  C1  QUI L   1       5.113  -9.595 -10.218  1.00  0.00    -0.0397  C
ATOM     40  C2  QUI L   1       6.548  -9.161 -10.151  1.00  0.00    -0.0502  A
ATOM     41  C3  QUI L   1       7.151  -8.901  -8.918  1.00  0.00    -0.0580  A
ATOM     42  C4  QUI L   1       8.474  -8.460  -8.863  1.00  0.00    -0.0473  A
ATOM     43  C5  QUI L   1       9.207  -8.259 -10.041  1.00  0.00    +0.0619  A
ATOM     44 C32  QUI L   1       8.623  -8.533 -11.292  1.00  0.00    -0.0362  A
ATOM     45 C33  QUI L   1       9.363  -8.370 -12.591  1.00  0.00    -0.0389  C
ATOM     46 C34  QUI L   1       7.283  -8.961 -11.328  1.00  0.00    -0.0551  A
ATOM     47 H35  QUI L   1       4.833 -10.161  -9.324  1.00  0.00    +0.0278  H
ATOM     48 H36  QUI L   1       4.943 -10.247 -11.082  1.00  0.00    +0.0278  H
ATOM     49 H37  QUI L   1       4.461  -8.720 -10.301  1.00  0.00    +0.0278  H
ATOM     50 H38  QUI L   1       6.596  -9.040  -7.993  1.00  0.00    +0.0620  H
ATOM     51 H39  QUI L   1       8.931  -8.265  -7.894  1.00  0.00    +0.0626  H
ATOM     52 H58  QUI L   1      10.387  -8.749 -12.508  1.00  0.00    +0.0278  H
ATOM     53 H59  QUI L   1       9.380  -7.318 -12.889  1.00  0.00    +0.0278  H
ATOM     54 H60  QUI L   1       8.882  -8.942 -13.392  1.00  0.00    +0.0278  H
ATOM     55 H61  QUI L   1       6.806  -9.153 -12.289  1.00  0.00    +0.0623  H
ENDBRANCH 37 43
ENDBRANCH 36 37
ENDBRANCH 33 36
ENDBRANCH 23 33
ENDBRANCH 21 26
BRANCH 21 56
ATOM     56 C15  QUI L   1      11.063 -10.449  -2.880  1.00  0.00    +0.0085  C
ATOM     57 N16  QUI L   1      11.094 -10.593  -1.416  1.00  0.00    -0.3289 NA
ATOM     58 H45  QUI L   1      10.137 -10.898  -3.260  1.00  0.00    +0.0432  H
ATOM     59 H46  QUI L   1      11.893 -11.038  -3.289  1.00  0.00    +0.0432  H
ATOM     60 H47  QUI L   1      10.973 -11.580  -1.184  1.00  0.00    +0.1182 HD
ATOM     61 H48  QUI L   1      10.279 -10.117  -1.023  1.00  0.00    +0.1182 HD
ENDBRANCH 21 56
ENDBRANCH 17 21
ENDBRANCH 1 19
TORSDOF 8
ENDMDL
MODEL 14
REMARK VINA RESULT:    -6.951      5.591      9.612
REMARK INTER + INTRA:         -11.335
REMARK INTER:                  -9.985
REMARK INTRA:                  -1.350
REMARK UNBOUND:                -1.133
ROOT
ATOM      1 C20  QUI L   1       8.971  -6.152   5.453  1.00  0.00    +0.0424  A
ATOM      2 C21  QUI L   1       8.010  -6.578   4.542  1.00  0.00    -0.0363  A
ATOM      3 C22  QUI L   1       7.410  -7.837   4.681  1.00  0.00    -0.0338  A
ATOM      4 C23  QUI L   1       7.741  -8.697   5.717  1.00  0.00    +0.0711  A
ATOM      5 N24  QUI L   1       7.135  -9.895   5.807  1.00  0.00    -0.2550 NA
ATOM      6 C25  QUI L   1       7.483 -10.707   6.829  1.00  0.00    +0.0283  A
ATOM      7 C26  QUI L   1       8.424 -10.379   7.787  1.00  0.00    -0.0430  A
ATOM      8 C27  QUI L   1       9.048  -9.141   7.691  1.00  0.00    -0.0511  A
ATOM      9 C28  QUI L   1       8.712  -8.271   6.645  1.00  0.00    +0.0023  A
ATOM     10 C29  QUI L   1       9.317  -7.006   6.507  1.00  0.00    -0.0291  A
ATOM     11 H50  QUI L   1       7.696  -5.961   3.706  1.00  0.00    +0.0639  H
ATOM     12 H51  QUI L   1       6.661  -8.151   3.958  1.00  0.00    +0.0640  H
ATOM     13 H52  QUI L   1       6.966 -11.661   6.855  1.00  0.00    +0.0830  H
ATOM     14 H53  QUI L   1       8.665 -11.070   8.586  1.00  0.00    +0.0633  H
ATOM     15 H54  QUI L   1       9.790  -8.861   8.432  1.00  0.00    +0.0625  H
ATOM     16 H55  QUI L   1      10.066  -6.698   7.233  1.00  0.00    +0.0645  H
ENDROOT
BRANCH 1 19
ATOM     17 C17  QUI L   1       9.722  -3.947   6.395  1.00  0.00    +0.2339  C
ATOM     18 O18  QUI L   1       9.221  -4.023   7.513  1.00  0.00    -0.2722 OA
ATOM     19 N19  QUI L   1       9.623  -4.904   5.393  1.00  0.00    -0.3256  N
ATOM     20 H49  QUI L   1      10.035  -4.659   4.501  1.00  0.00    +0.1686 HD
BRANCH 17 21
ATOM     21 C14  QUI L   1      10.563  -2.732   5.960  1.00  0.00    +0.0752  C
ATOM     22 H44  QUI L   1      10.900  -2.258   6.893  1.00  0.00    +0.0458  H
BRANCH 21 26
ATOM     23 C10  QUI L   1      14.032  -3.911   3.620  1.00  0.00    -0.0103  A
ATOM     24 C11  QUI L   1      13.302  -2.762   3.290  1.00  0.00    -0.0551  A
ATOM     25 C12  QUI L   1      12.190  -2.386   4.048  1.00  0.00    -0.0574  A
ATOM     26 C13  QUI L   1      11.784  -3.154   5.149  1.00  0.00    -0.0341  A
ATOM     27 C30  QUI L   1      12.505  -4.315   5.465  1.00  0.00    -0.0574  A
ATOM     28 C31  QUI L   1      13.617  -4.689   4.707  1.00  0.00    -0.0551  A
ATOM     29 H42  QUI L   1      13.588  -2.161   2.429  1.00  0.00    +0.0621  H
ATOM     30 H43  QUI L   1      11.631  -1.498   3.758  1.00  0.00    +0.0621  H
ATOM     31 H56  QUI L   1      12.206  -4.945   6.303  1.00  0.00    +0.0621  H
ATOM     32 H57  QUI L   1      14.153  -5.601   4.964  1.00  0.00    +0.0621  H
BRANCH 23 33
ATOM     33  C9  QUI L   1      15.213  -4.333   2.786  1.00  0.00    +0.1179  C
ATOM     34 H40  QUI L   1      16.024  -4.736   3.407  1.00  0.00    +0.0749  H
ATOM     35 H41  QUI L   1      15.634  -3.459   2.275  1.00  0.00    +0.0749  H
BRANCH 33 36
ATOM     36  O8  QUI L   1      14.781  -5.254   1.779  1.00  0.00    -0.4564 OA
BRANCH 36 37
ATOM     37  C6  QUI L   1      14.209  -4.695   0.687  1.00  0.00    +0.3398  C
ATOM     38  O7  QUI L   1      14.420  -3.579   0.241  1.00  0.00    -0.2449 OA
BRANCH 37 43
ATOM     39  C1  QUI L   1      11.032  -8.662  -2.088  1.00  0.00    -0.0397  C
ATOM     40  C2  QUI L   1      11.821  -7.603  -1.374  1.00  0.00    -0.0502  A
ATOM     41  C3  QUI L   1      13.098  -7.252  -1.820  1.00  0.00    -0.0580  A
ATOM     42  C4  QUI L   1      13.843  -6.295  -1.131  1.00  0.00    -0.0473  A
ATOM     43  C5  QUI L   1      13.327  -5.685   0.023  1.00  0.00    +0.0619  A
ATOM     44 C32  QUI L   1      12.035  -6.012   0.476  1.00  0.00    -0.0362  A
ATOM     45 C33  QUI L   1      11.410  -5.372   1.684  1.00  0.00    -0.0389  C
ATOM     46 C34  QUI L   1      11.306  -6.991  -0.222  1.00  0.00    -0.0551  A
ATOM     47 H35  QUI L   1      11.284  -8.687  -3.152  1.00  0.00    +0.0278  H
ATOM     48 H36  QUI L   1       9.957  -8.464  -2.012  1.00  0.00    +0.0278  H
ATOM     49 H37  QUI L   1      11.244  -9.643  -1.652  1.00  0.00    +0.0278  H
ATOM     50 H38  QUI L   1      13.521  -7.721  -2.705  1.00  0.00    +0.0620  H
ATOM     51 H39  QUI L   1      14.836  -6.030  -1.492  1.00  0.00    +0.0626  H
ATOM     52 H58  QUI L   1      11.607  -4.296   1.705  1.00  0.00    +0.0278  H
ATOM     53 H59  QUI L   1      11.791  -5.836   2.599  1.00  0.00    +0.0278  H
ATOM     54 H60  QUI L   1      10.320  -5.490   1.672  1.00  0.00    +0.0278  H
ATOM     55 H61  QUI L   1      10.314  -7.275   0.129  1.00  0.00    +0.0623  H
ENDBRANCH 37 43
ENDBRANCH 36 37
ENDBRANCH 33 36
ENDBRANCH 23 33
ENDBRANCH 21 26
BRANCH 21 56
ATOM     56 C15  QUI L   1       9.683  -1.716   5.200  1.00  0.00    +0.0085  C
ATOM     57 N16  QUI L   1       8.509  -1.283   5.975  1.00  0.00    -0.3289 NA
ATOM     58 H45  QUI L   1      10.266  -0.830   4.917  1.00  0.00    +0.0432  H
ATOM     59 H46  QUI L   1       9.319  -2.168   4.269  1.00  0.00    +0.0432  H
ATOM     60 H47  QUI L   1       7.994  -0.593   5.427  1.00  0.00    +0.1182 HD
ATOM     61 H48  QUI L   1       8.831  -0.787   6.808  1.00  0.00    +0.1182 HD
ENDBRANCH 21 56
ENDBRANCH 17 21
ENDBRANCH 1 19
TORSDOF 8
ENDMDL
MODEL 15
REMARK VINA RESULT:    -6.715      3.392     11.346
REMARK INTER + INTRA:         -10.988
REMARK INTER:                  -9.577
REMARK INTRA:                  -1.412
REMARK UNBOUND:                -1.133
ROOT
ATOM      1 C20  QUI L   1      12.362  -8.501  -7.817  1.00  0.00    +0.0424  A
ATOM      2 C21  QUI L   1      13.361  -7.747  -8.425  1.00  0.00    -0.0363  A
ATOM      3 C22  QUI L   1      13.244  -7.372  -9.771  1.00  0.00    -0.0338  A
ATOM      4 C23  QUI L   1      12.146  -7.728 -10.539  1.00  0.00    +0.0711  A
ATOM      5 N24  QUI L   1      12.081  -7.342 -11.826  1.00  0.00    -0.2550 NA
ATOM      6 C25  QUI L   1      10.997  -7.708 -12.545  1.00  0.00    +0.0283  A
ATOM      7 C26  QUI L   1       9.952  -8.455 -12.035  1.00  0.00    -0.0430  A
ATOM      8 C27  QUI L   1      10.022  -8.852 -10.705  1.00  0.00    -0.0511  A
ATOM      9 C28  QUI L   1      11.131  -8.490  -9.928  1.00  0.00    +0.0023  A
ATOM     10 C29  QUI L   1      11.245  -8.869  -8.576  1.00  0.00    -0.0291  A
ATOM     11 H50  QUI L   1      14.248  -7.427  -7.889  1.00  0.00    +0.0639  H
ATOM     12 H51  QUI L   1      14.035  -6.783 -10.228  1.00  0.00    +0.0640  H
ATOM     13 H52  QUI L   1      10.995  -7.372 -13.578  1.00  0.00    +0.0830  H
ATOM     14 H53  QUI L   1       9.106  -8.721 -12.658  1.00  0.00    +0.0633  H
ATOM     15 H54  QUI L   1       9.213  -9.439 -10.282  1.00  0.00    +0.0625  H
ATOM     16 H55  QUI L   1      10.452  -9.459  -8.124  1.00  0.00    +0.0645  H
ENDROOT
BRANCH 1 19
ATOM     17 C17  QUI L   1      11.527  -8.559  -5.447  1.00  0.00    +0.2339  C
ATOM     18 O18  QUI L   1      10.587  -7.776  -5.545  1.00  0.00    -0.2722 OA
ATOM     19 N19  QUI L   1      12.394  -8.919  -6.471  1.00  0.00    -0.3256  N
ATOM     20 H49  QUI L   1      13.164  -9.525  -6.210  1.00  0.00    +0.1686 HD
BRANCH 17 21
ATOM     21 C14  QUI L   1      11.861  -9.269  -4.122  1.00  0.00    +0.0752  C
ATOM     22 H44  QUI L   1      12.819  -9.781  -4.295  1.00  0.00    +0.0458  H
BRANCH 21 26
ATOM     23 C10  QUI L   1      12.304  -6.442  -0.850  1.00  0.00    -0.0103  A
ATOM     24 C11  QUI L   1      11.221  -7.329  -0.889  1.00  0.00    -0.0551  A
ATOM     25 C12  QUI L   1      11.086  -8.238  -1.940  1.00  0.00    -0.0574  A
ATOM     26 C13  QUI L   1      12.029  -8.276  -2.978  1.00  0.00    -0.0341  A
ATOM     27 C30  QUI L   1      13.102  -7.372  -2.947  1.00  0.00    -0.0574  A
ATOM     28 C31  QUI L   1      13.236  -6.465  -1.894  1.00  0.00    -0.0551  A
ATOM     29 H42  QUI L   1      10.467  -7.307  -0.104  1.00  0.00    +0.0621  H
ATOM     30 H43  QUI L   1      10.225  -8.905  -1.953  1.00  0.00    +0.0621  H
ATOM     31 H56  QUI L   1      13.843  -7.361  -3.746  1.00  0.00    +0.0621  H
ATOM     32 H57  QUI L   1      14.071  -5.765  -1.898  1.00  0.00    +0.0621  H
BRANCH 23 33
ATOM     33  C9  QUI L   1      12.435  -5.442   0.269  1.00  0.00    +0.1179  C
ATOM     34 H40  QUI L   1      12.617  -4.429  -0.113  1.00  0.00    +0.0749  H
ATOM     35 H41  QUI L   1      13.307  -5.691   0.884  1.00  0.00    +0.0749  H
BRANCH 33 36
ATOM     36  O8  QUI L   1      11.280  -5.515   1.111  1.00  0.00    -0.4564 OA
BRANCH 36 37
ATOM     37  C6  QUI L   1      11.518  -5.861   2.398  1.00  0.00    +0.3398  C
ATOM     38  O7  QUI L   1      12.180  -6.808   2.790  1.00  0.00    -0.2449 OA
BRANCH 37 43
ATOM     39  C1  QUI L   1       8.947  -2.135   6.008  1.00  0.00    -0.0397  C
ATOM     40  C2  QUI L   1       9.620  -3.066   5.042  1.00  0.00    -0.0502  A
ATOM     41  C3  QUI L   1       8.961  -4.210   4.586  1.00  0.00    -0.0580  A
ATOM     42  C4  QUI L   1       9.605  -5.093   3.719  1.00  0.00    -0.0473  A
ATOM     43  C5  QUI L   1      10.923  -4.851   3.306  1.00  0.00    +0.0619  A
ATOM     44 C32  QUI L   1      11.597  -3.693   3.739  1.00  0.00    -0.0362  A
ATOM     45 C33  QUI L   1      12.998  -3.357   3.308  1.00  0.00    -0.0389  C
ATOM     46 C34  QUI L   1      10.938  -2.824   4.626  1.00  0.00    -0.0551  A
ATOM     47 H35  QUI L   1       7.862  -2.141   5.865  1.00  0.00    +0.0278  H
ATOM     48 H36  QUI L   1       9.289  -1.105   5.859  1.00  0.00    +0.0278  H
ATOM     49 H37  QUI L   1       9.170  -2.439   7.036  1.00  0.00    +0.0278  H
ATOM     50 H38  QUI L   1       7.942  -4.423   4.904  1.00  0.00    +0.0620  H
ATOM     51 H39  QUI L   1       9.077  -5.979   3.370  1.00  0.00    +0.0626  H
ATOM     52 H58  QUI L   1      13.138  -3.555   2.240  1.00  0.00    +0.0278  H
ATOM     53 H59  QUI L   1      13.723  -3.933   3.890  1.00  0.00    +0.0278  H
ATOM     54 H60  QUI L   1      13.211  -2.292   3.458  1.00  0.00    +0.0278  H
ATOM     55 H61  QUI L   1      11.453  -1.936   4.992  1.00  0.00    +0.0623  H
ENDBRANCH 37 43
ENDBRANCH 36 37
ENDBRANCH 33 36
ENDBRANCH 23 33
ENDBRANCH 21 26
BRANCH 21 56
ATOM     56 C15  QUI L   1      10.799 -10.345  -3.807  1.00  0.00    +0.0085  C
ATOM     57 N16  QUI L   1       9.907 -10.618  -4.945  1.00  0.00    -0.3289 NA
ATOM     58 H45  QUI L   1      11.273 -11.283  -3.496  1.00  0.00    +0.0432  H
ATOM     59 H46  QUI L   1      10.175 -10.011  -2.969  1.00  0.00    +0.0432  H
ATOM     60 H47  QUI L   1       9.254 -11.355  -4.677  1.00  0.00    +0.1182 HD
ATOM     61 H48  QUI L   1      10.461 -11.008  -5.710  1.00  0.00    +0.1182 HD
ENDBRANCH 21 56
ENDBRANCH 17 21
ENDBRANCH 1 19
TORSDOF 8
ENDMDL
MODEL 16
REMARK VINA RESULT:    -6.700      5.657      9.184
REMARK INTER + INTRA:         -10.966
REMARK INTER:                  -9.714
REMARK INTRA:                  -1.253
REMARK UNBOUND:                -1.133
ROOT
ATOM      1 C20  QUI L   1       9.808  -6.761   6.408  1.00  0.00    +0.0424  A
ATOM      2 C21  QUI L   1      10.492  -7.472   7.389  1.00  0.00    -0.0363  A
ATOM      3 C22  QUI L   1      10.045  -8.739   7.788  1.00  0.00    -0.0338  A
ATOM      4 C23  QUI L   1       8.921  -9.329   7.230  1.00  0.00    +0.0711  A
ATOM      5 N24  QUI L   1       8.533 -10.547   7.646  1.00  0.00    -0.2550 NA
ATOM      6 C25  QUI L   1       7.432 -11.091   7.081  1.00  0.00    +0.0283  A
ATOM      7 C26  QUI L   1       6.684 -10.469   6.099  1.00  0.00    -0.0430  A
ATOM      8 C27  QUI L   1       7.088  -9.210   5.671  1.00  0.00    -0.0511  A
ATOM      9 C28  QUI L   1       8.224  -8.614   6.234  1.00  0.00    +0.0023  A
ATOM     10 C29  QUI L   1       8.672  -7.341   5.832  1.00  0.00    -0.0291  A
ATOM     11 H50  QUI L   1      11.382  -7.078   7.871  1.00  0.00    +0.0639  H
ATOM     12 H51  QUI L   1      10.593  -9.278   8.556  1.00  0.00    +0.0640  H
ATOM     13 H52  QUI L   1       7.162 -12.075   7.453  1.00  0.00    +0.0830  H
ATOM     14 H53  QUI L   1       5.809 -10.952   5.681  1.00  0.00    +0.0633  H
ATOM     15 H54  QUI L   1       6.516  -8.701   4.901  1.00  0.00    +0.0625  H
ATOM     16 H55  QUI L   1       8.119  -6.805   5.064  1.00  0.00    +0.0645  H
ENDROOT
BRANCH 1 19
ATOM     17 C17  QUI L   1       9.496  -4.288   6.084  1.00  0.00    +0.2339  C
ATOM     18 O18  QUI L   1       8.402  -4.150   6.622  1.00  0.00    -0.2722 OA
ATOM     19 N19  QUI L   1      10.188  -5.485   5.944  1.00  0.00    -0.3256  N
ATOM     20 H49  QUI L   1      11.048  -5.442   5.411  1.00  0.00    +0.1686 HD
BRANCH 17 21
ATOM     21 C14  QUI L   1      10.264  -3.097   5.483  1.00  0.00    +0.0752  C
ATOM     22 H44  QUI L   1      10.895  -2.711   6.298  1.00  0.00    +0.0458  H
BRANCH 21 26
ATOM     23 C10  QUI L   1      12.841  -4.303   2.197  1.00  0.00    -0.0103  A
ATOM     24 C11  QUI L   1      13.354  -3.580   3.281  1.00  0.00    -0.0551  A
ATOM     25 C12  QUI L   1      12.522  -3.199   4.336  1.00  0.00    -0.0574  A
ATOM     26 C13  QUI L   1      11.159  -3.529   4.326  1.00  0.00    -0.0341  A
ATOM     27 C30  QUI L   1      10.644  -4.235   3.229  1.00  0.00    -0.0574  A
ATOM     28 C31  QUI L   1      11.477  -4.616   2.176  1.00  0.00    -0.0551  A
ATOM     29 H42  QUI L   1      14.405  -3.298   3.302  1.00  0.00    +0.0621  H
ATOM     30 H43  QUI L   1      12.945  -2.624   5.159  1.00  0.00    +0.0621  H
ATOM     31 H56  QUI L   1       9.586  -4.492   3.180  1.00  0.00    +0.0621  H
ATOM     32 H57  QUI L   1      11.051  -5.153   1.329  1.00  0.00    +0.0621  H
BRANCH 23 33
ATOM     33  C9  QUI L   1      13.731  -4.690   1.044  1.00  0.00    +0.1179  C
ATOM     34 H40  QUI L   1      14.610  -5.253   1.383  1.00  0.00    +0.0749  H
ATOM     35 H41  QUI L   1      14.122  -3.786   0.563  1.00  0.00    +0.0749  H
BRANCH 33 36
ATOM     36  O8  QUI L   1      12.963  -5.400   0.067  1.00  0.00    -0.4564 OA
BRANCH 36 37
ATOM     37  C6  QUI L   1      13.656  -6.285  -0.686  1.00  0.00    +0.3398  C
ATOM     38  O7  QUI L   1      14.684  -6.071  -1.307  1.00  0.00    -0.2449 OA
BRANCH 37 43
ATOM     39  C1  QUI L   1      11.096 -11.478  -0.602  1.00  0.00    -0.0397  C
ATOM     40  C2  QUI L   1      11.743 -10.124  -0.581  1.00  0.00    -0.0502  A
ATOM     41  C3  QUI L   1      11.453  -9.186  -1.575  1.00  0.00    -0.0580  A
ATOM     42  C4  QUI L   1      12.086  -7.943  -1.573  1.00  0.00    -0.0473  A
ATOM     43  C5  QUI L   1      13.030  -7.626  -0.584  1.00  0.00    +0.0619  A
ATOM     44 C32  QUI L   1      13.322  -8.551   0.436  1.00  0.00    -0.0362  A
ATOM     45 C33  QUI L   1      14.297  -8.262   1.543  1.00  0.00    -0.0389  C
ATOM     46 C34  QUI L   1      12.685  -9.805   0.408  1.00  0.00    -0.0551  A
ATOM     47 H35  QUI L   1      10.102 -11.430  -1.058  1.00  0.00    +0.0278  H
ATOM     48 H36  QUI L   1      10.969 -11.866   0.415  1.00  0.00    +0.0278  H
ATOM     49 H37  QUI L   1      11.713 -12.178  -1.174  1.00  0.00    +0.0278  H
ATOM     50 H38  QUI L   1      10.733  -9.416  -2.357  1.00  0.00    +0.0620  H
ATOM     51 H39  QUI L   1      11.848  -7.221  -2.352  1.00  0.00    +0.0626  H
ATOM     52 H58  QUI L   1      14.173  -7.241   1.918  1.00  0.00    +0.0278  H
ATOM     53 H59  QUI L   1      15.323  -8.406   1.192  1.00  0.00    +0.0278  H
ATOM     54 H60  QUI L   1      14.133  -8.930   2.396  1.00  0.00    +0.0278  H
ATOM     55 H61  QUI L   1      12.918 -10.543   1.175  1.00  0.00    +0.0623  H
ENDBRANCH 37 43
ENDBRANCH 36 37
ENDBRANCH 33 36
ENDBRANCH 23 33
ENDBRANCH 21 26
BRANCH 21 56
ATOM     56 C15  QUI L   1       9.283  -1.978   5.072  1.00  0.00    +0.0085  C
ATOM     57 N16  QUI L   1       8.820  -1.175   6.215  1.00  0.00    -0.3289 NA
ATOM     58 H45  QUI L   1       9.740  -1.309   4.333  1.00  0.00    +0.0432  H
ATOM     59 H46  QUI L   1       8.398  -2.421   4.597  1.00  0.00    +0.0432  H
ATOM     60 H47  QUI L   1       8.202  -0.440   5.867  1.00  0.00    +0.1182 HD
ATOM     61 H48  QUI L   1       9.622  -0.689   6.621  1.00  0.00    +0.1182 HD
ENDBRANCH 21 56
ENDBRANCH 17 21
ENDBRANCH 1 19
TORSDOF 8
ENDMDL
MODEL 17
REMARK VINA RESULT:    -6.646      4.947     11.178
REMARK INTER + INTRA:         -10.887
REMARK INTER:                  -9.779
REMARK INTRA:                  -1.108
REMARK UNBOUND:                -1.133
ROOT
ATOM      1 C20  QUI L   1      10.648  -8.355 -12.010  1.00  0.00    +0.0424  A
ATOM      2 C21  QUI L   1      10.487  -7.836 -13.291  1.00  0.00    -0.0363  A
ATOM      3 C22  QUI L   1      11.513  -7.092 -13.888  1.00  0.00    -0.0338  A
ATOM      4 C23  QUI L   1      12.713  -6.845 -13.239  1.00  0.00    +0.0711  A
ATOM      5 N24  QUI L   1      13.668  -6.125 -13.856  1.00  0.00    -0.2550 NA
ATOM      6 C25  QUI L   1      14.824  -5.904 -13.193  1.00  0.00    +0.0283  A
ATOM      7 C26  QUI L   1      15.085  -6.376 -11.921  1.00  0.00    -0.0430  A
ATOM      8 C27  QUI L   1      14.097  -7.119 -11.286  1.00  0.00    -0.0511  A
ATOM      9 C28  QUI L   1      12.883  -7.369 -11.942  1.00  0.00    +0.0023  A
ATOM     10 C29  QUI L   1      11.854  -8.118 -11.340  1.00  0.00    -0.0291  A
ATOM     11 H50  QUI L   1       9.577  -7.989 -13.863  1.00  0.00    +0.0639  H
ATOM     12 H51  QUI L   1      11.367  -6.695 -14.890  1.00  0.00    +0.0640  H
ATOM     13 H52  QUI L   1      15.560  -5.318 -13.735  1.00  0.00    +0.0830  H
ATOM     14 H53  QUI L   1      16.031  -6.168 -11.436  1.00  0.00    +0.0633  H
ATOM     15 H54  QUI L   1      14.277  -7.500 -10.286  1.00  0.00    +0.0625  H
ATOM     16 H55  QUI L   1      12.005  -8.512 -10.338  1.00  0.00    +0.0645  H
ENDROOT
BRANCH 1 19
ATOM     17 C17  QUI L   1       8.359  -8.762 -11.055  1.00  0.00    +0.2339  C
ATOM     18 O18  QUI L   1       7.831  -7.690 -11.333  1.00  0.00    -0.2722 OA
ATOM     19 N19  QUI L   1       9.673  -9.116 -11.335  1.00  0.00    -0.3256  N
ATOM     20 H49  QUI L   1       9.978 -10.014 -10.976  1.00  0.00    +0.1686 HD
BRANCH 17 21
ATOM     21 C14  QUI L   1       7.590  -9.889 -10.342  1.00  0.00    +0.0752  C
ATOM     22 H44  QUI L   1       7.930 -10.822 -10.812  1.00  0.00    +0.0458  H
BRANCH 21 26
ATOM     23 C10  QUI L   1       8.491 -10.057  -6.092  1.00  0.00    -0.0103  A
ATOM     24 C11  QUI L   1       7.858 -11.129  -6.733  1.00  0.00    -0.0551  A
ATOM     25 C12  QUI L   1       7.574 -11.071  -8.100  1.00  0.00    -0.0574  A
ATOM     26 C13  QUI L   1       7.915  -9.937  -8.852  1.00  0.00    -0.0341  A
ATOM     27 C30  QUI L   1       8.530  -8.857  -8.204  1.00  0.00    -0.0574  A
ATOM     28 C31  QUI L   1       8.814  -8.917  -6.838  1.00  0.00    -0.0551  A
ATOM     29 H42  QUI L   1       7.569 -12.012  -6.166  1.00  0.00    +0.0621  H
ATOM     30 H43  QUI L   1       7.067 -11.913  -8.568  1.00  0.00    +0.0621  H
ATOM     31 H56  QUI L   1       8.791  -7.953  -8.754  1.00  0.00    +0.0621  H
ATOM     32 H57  QUI L   1       9.281  -8.060  -6.354  1.00  0.00    +0.0621  H
BRANCH 23 33
ATOM     33  C9  QUI L   1       8.772 -10.106  -4.613  1.00  0.00    +0.1179  C
ATOM     34 H40  QUI L   1       8.955 -11.132  -4.270  1.00  0.00    +0.0749  H
ATOM     35 H41  QUI L   1       7.892  -9.758  -4.060  1.00  0.00    +0.0749  H
BRANCH 33 36
ATOM     36  O8  QUI L   1       9.852  -9.219  -4.303  1.00  0.00    -0.4564 OA
BRANCH 36 37
ATOM     37  C6  QUI L   1      10.765  -9.698  -3.426  1.00  0.00    +0.3398  C
ATOM     38  O7  QUI L   1      11.021 -10.869  -3.204  1.00  0.00    -0.2449 OA
BRANCH 37 43
ATOM     39  C1  QUI L   1      13.490  -5.352  -0.740  1.00  0.00    -0.0397  C
ATOM     40  C2  QUI L   1      12.778  -6.451  -1.474  1.00  0.00    -0.0502  A
ATOM     41  C3  QUI L   1      11.642  -7.049  -0.923  1.00  0.00    -0.0580  A
ATOM     42  C4  QUI L   1      11.006  -8.096  -1.590  1.00  0.00    -0.0473  A
ATOM     43  C5  QUI L   1      11.507  -8.570  -2.812  1.00  0.00    +0.0619  A
ATOM     44 C32  QUI L   1      12.639  -7.968  -3.392  1.00  0.00    -0.0362  A
ATOM     45 C33  QUI L   1      13.206  -8.405  -4.714  1.00  0.00    -0.0389  C
ATOM     46 C34  QUI L   1      13.276  -6.925  -2.697  1.00  0.00    -0.0551  A
ATOM     47 H35  QUI L   1      12.792  -4.775  -0.127  1.00  0.00    +0.0278  H
ATOM     48 H36  QUI L   1      13.959  -4.654  -1.443  1.00  0.00    +0.0278  H
ATOM     49 H37  QUI L   1      14.264  -5.776  -0.092  1.00  0.00    +0.0278  H
ATOM     50 H38  QUI L   1      11.245  -6.704   0.029  1.00  0.00    +0.0620  H
ATOM     51 H39  QUI L   1      10.120  -8.550  -1.149  1.00  0.00    +0.0626  H
ATOM     52 H58  QUI L   1      12.409  -8.596  -5.439  1.00  0.00    +0.0278  H
ATOM     53 H59  QUI L   1      13.816  -9.305  -4.587  1.00  0.00    +0.0278  H
ATOM     54 H60  QUI L   1      13.841  -7.624  -5.148  1.00  0.00    +0.0278  H
ATOM     55 H61  QUI L   1      14.169  -6.464  -3.119  1.00  0.00    +0.0623  H
ENDBRANCH 37 43
ENDBRANCH 36 37
ENDBRANCH 33 36
ENDBRANCH 23 33
ENDBRANCH 21 26
BRANCH 21 56
ATOM     56 C15  QUI L   1       6.074  -9.751 -10.601  1.00  0.00    +0.0085  C
ATOM     57 N16  QUI L   1       5.454  -8.674  -9.813  1.00  0.00    -0.3289 NA
ATOM     58 H45  QUI L   1       5.874  -9.570 -11.664  1.00  0.00    +0.0432  H
ATOM     59 H46  QUI L   1       5.568 -10.688 -10.338  1.00  0.00    +0.0432  H
ATOM     60 H47  QUI L   1       4.464  -8.621 -10.056  1.00  0.00    +0.1182 HD
ATOM     61 H48  QUI L   1       5.856  -7.781 -10.104  1.00  0.00    +0.1182 HD
ENDBRANCH 21 56
ENDBRANCH 17 21
ENDBRANCH 1 19
TORSDOF 8
ENDMDL
MODEL 18
REMARK VINA RESULT:    -6.608      2.963     10.917
REMARK INTER + INTRA:         -10.833
REMARK INTER:                  -9.843
REMARK INTRA:                  -0.990
REMARK UNBOUND:                -1.133
ROOT
ATOM      1 C20  QUI L   1       9.255  -9.540  -5.531  1.00  0.00    +0.0424  A
ATOM      2 C21  QUI L   1       7.949  -9.932  -5.253  1.00  0.00    -0.0363  A
ATOM      3 C22  QUI L   1       6.955  -9.834  -6.236  1.00  0.00    -0.0338  A
ATOM      4 C23  QUI L   1       7.226  -9.352  -7.508  1.00  0.00    +0.0711  A
ATOM      5 N24  QUI L   1       6.237  -9.279  -8.416  1.00  0.00    -0.2550 NA
ATOM      6 C25  QUI L   1       6.537  -8.803  -9.645  1.00  0.00    +0.0283  A
ATOM      7 C26  QUI L   1       7.801  -8.389 -10.023  1.00  0.00    -0.0430  A
ATOM      8 C27  QUI L   1       8.820  -8.467  -9.082  1.00  0.00    -0.0511  A
ATOM      9 C28  QUI L   1       8.547  -8.955  -7.796  1.00  0.00    +0.0023  A
ATOM     10 C29  QUI L   1       9.548  -9.052  -6.810  1.00  0.00    -0.0291  A
ATOM     11 H50  QUI L   1       7.660 -10.322  -4.282  1.00  0.00    +0.0639  H
ATOM     12 H51  QUI L   1       5.941 -10.145  -5.999  1.00  0.00    +0.0640  H
ATOM     13 H52  QUI L   1       5.704  -8.764 -10.340  1.00  0.00    +0.0830  H
ATOM     14 H53  QUI L   1       7.985  -8.015 -11.023  1.00  0.00    +0.0633  H
ATOM     15 H54  QUI L   1       9.822  -8.147  -9.355  1.00  0.00    +0.0625  H
ATOM     16 H55  QUI L   1      10.560  -8.738  -7.053  1.00  0.00    +0.0645  H
ENDROOT
BRANCH 1 19
ATOM     17 C17  QUI L   1      11.354  -8.699  -4.436  1.00  0.00    +0.2339  C
ATOM     18 O18  QUI L   1      11.534  -7.681  -5.098  1.00  0.00    -0.2722 OA
ATOM     19 N19  QUI L   1      10.317  -9.606  -4.607  1.00  0.00    -0.3256  N
ATOM     20 H49  QUI L   1      10.349 -10.434  -4.024  1.00  0.00    +0.1686 HD
BRANCH 17 21
ATOM     21 C14  QUI L   1      12.295  -9.097  -3.284  1.00  0.00    +0.0752  C
ATOM     22 H44  QUI L   1      13.183  -9.532  -3.764  1.00  0.00    +0.0458  H
BRANCH 21 26
ATOM     23 C10  QUI L   1      13.470  -5.634  -0.933  1.00  0.00    -0.0103  A
ATOM     24 C11  QUI L   1      12.137  -6.060  -0.963  1.00  0.00    -0.0551  A
ATOM     25 C12  QUI L   1      11.765  -7.176  -1.717  1.00  0.00    -0.0574  A
ATOM     26 C13  QUI L   1      12.720  -7.886  -2.460  1.00  0.00    -0.0341  A
ATOM     27 C30  QUI L   1      14.051  -7.445  -2.444  1.00  0.00    -0.0574  A
ATOM     28 C31  QUI L   1      14.421  -6.330  -1.689  1.00  0.00    -0.0551  A
ATOM     29 H42  QUI L   1      11.375  -5.514  -0.409  1.00  0.00    +0.0621  H
ATOM     30 H43  QUI L   1      10.718  -7.475  -1.735  1.00  0.00    +0.0621  H
ATOM     31 H56  QUI L   1      14.816  -7.962  -3.024  1.00  0.00    +0.0621  H
ATOM     32 H57  QUI L   1      15.459  -5.999  -1.702  1.00  0.00    +0.0621  H
BRANCH 23 33
ATOM     33  C9  QUI L   1      13.867  -4.414  -0.143  1.00  0.00    +0.1179  C
ATOM     34 H40  QUI L   1      13.085  -3.644  -0.168  1.00  0.00    +0.0749  H
ATOM     35 H41  QUI L   1      14.753  -3.955  -0.597  1.00  0.00    +0.0749  H
BRANCH 33 36
ATOM     36  O8  QUI L   1      14.218  -4.802   1.189  1.00  0.00    -0.4564 OA
BRANCH 36 37
ATOM     37  C6  QUI L   1      13.879  -3.923   2.160  1.00  0.00    +0.3398  C
ATOM     38  O7  QUI L   1      14.301  -2.787   2.297  1.00  0.00    -0.2449 OA
BRANCH 37 43
ATOM     39  C1  QUI L   1       9.555  -6.245   5.231  1.00  0.00    -0.0397  C
ATOM     40  C2  QUI L   1      10.681  -5.611   4.468  1.00  0.00    -0.0502  A
ATOM     41  C3  QUI L   1      10.491  -5.184   3.152  1.00  0.00    -0.0580  A
ATOM     42  C4  QUI L   1      11.551  -4.630   2.433  1.00  0.00    -0.0473  A
ATOM     43  C5  QUI L   1      12.821  -4.509   3.017  1.00  0.00    +0.0619  A
ATOM     44 C32  QUI L   1      13.027  -4.916   4.349  1.00  0.00    -0.0362  A
ATOM     45 C33  QUI L   1      14.353  -4.784   5.045  1.00  0.00    -0.0389  C
ATOM     46 C34  QUI L   1      11.950  -5.487   5.051  1.00  0.00    -0.0551  A
ATOM     47 H35  QUI L   1       8.588  -5.853   4.901  1.00  0.00    +0.0278  H
ATOM     48 H36  QUI L   1       9.642  -6.034   6.303  1.00  0.00    +0.0278  H
ATOM     49 H37  QUI L   1       9.566  -7.329   5.081  1.00  0.00    +0.0278  H
ATOM     50 H38  QUI L   1       9.517  -5.279   2.676  1.00  0.00    +0.0620  H
ATOM     51 H39  QUI L   1      11.386  -4.299   1.409  1.00  0.00    +0.0626  H
ATOM     52 H58  QUI L   1      14.820  -3.820   4.819  1.00  0.00    +0.0278  H
ATOM     53 H59  QUI L   1      15.021  -5.598   4.749  1.00  0.00    +0.0278  H
ATOM     54 H60  QUI L   1      14.232  -4.824   6.134  1.00  0.00    +0.0278  H
ATOM     55 H61  QUI L   1      12.098  -5.832   6.074  1.00  0.00    +0.0623  H
ENDBRANCH 37 43
ENDBRANCH 36 37
ENDBRANCH 33 36
ENDBRANCH 23 33
ENDBRANCH 21 26
BRANCH 21 56
ATOM     56 C15  QUI L   1      11.642 -10.192  -2.413  1.00  0.00    +0.0085  C
ATOM     57 N16  QUI L   1      11.918 -11.552  -2.902  1.00  0.00    -0.3289 NA
ATOM     58 H45  QUI L   1      11.979 -10.116  -1.372  1.00  0.00    +0.0432  H
ATOM     59 H46  QUI L   1      10.553 -10.056  -2.405  1.00  0.00    +0.0432  H
ATOM     60 H47  QUI L   1      11.484 -12.221  -2.265  1.00  0.00    +0.1182 HD
ATOM     61 H48  QUI L   1      12.923 -11.726  -2.839  1.00  0.00    +0.1182 HD
ENDBRANCH 21 56
ENDBRANCH 17 21
ENDBRANCH 1 19
TORSDOF 8
ENDMDL
MODEL 19
REMARK VINA RESULT:    -6.539      6.131     10.460
REMARK INTER + INTRA:         -10.731
REMARK INTER:                  -7.471
REMARK INTRA:                  -3.261
REMARK UNBOUND:                -1.133
ROOT
ATOM      1 C20  QUI L   1       9.328  -8.875 -10.644  1.00  0.00    +0.0424  A
ATOM      2 C21  QUI L   1       8.280  -8.126 -10.119  1.00  0.00    -0.0363  A
ATOM      3 C22  QUI L   1       6.951  -8.504 -10.355  1.00  0.00    -0.0338  A
ATOM      4 C23  QUI L   1       6.630  -9.622 -11.109  1.00  0.00    +0.0711  A
ATOM      5 N24  QUI L   1       5.338  -9.943 -11.306  1.00  0.00    -0.2550 NA
ATOM      6 C25  QUI L   1       5.062 -11.039 -12.047  1.00  0.00    +0.0283  A
ATOM      7 C26  QUI L   1       6.028 -11.850 -12.612  1.00  0.00    -0.0430  A
ATOM      8 C27  QUI L   1       7.362 -11.515 -12.406  1.00  0.00    -0.0511  A
ATOM      9 C28  QUI L   1       7.687 -10.386 -11.643  1.00  0.00    +0.0023  A
ATOM     10 C29  QUI L   1       9.024 -10.008 -11.407  1.00  0.00    -0.0291  A
ATOM     11 H50  QUI L   1       8.452  -7.240  -9.516  1.00  0.00    +0.0639  H
ATOM     12 H51  QUI L   1       6.147  -7.906  -9.935  1.00  0.00    +0.0640  H
ATOM     13 H52  QUI L   1       4.006 -11.253 -12.176  1.00  0.00    +0.0830  H
ATOM     14 H53  QUI L   1       5.750 -12.717 -13.198  1.00  0.00    +0.0633  H
ATOM     15 H54  QUI L   1       8.139 -12.137 -12.841  1.00  0.00    +0.0625  H
ATOM     16 H55  QUI L   1       9.824 -10.610 -11.830  1.00  0.00    +0.0645  H
ENDROOT
BRANCH 1 19
ATOM     17 C17  QUI L   1      11.491  -7.730 -11.220  1.00  0.00    +0.2339  C
ATOM     18 O18  QUI L   1      11.136  -7.122 -12.226  1.00  0.00    -0.2722 OA
ATOM     19 N19  QUI L   1      10.692  -8.571 -10.456  1.00  0.00    -0.3256  N
ATOM     20 H49  QUI L   1      11.155  -9.055  -9.695  1.00  0.00    +0.1686 HD
BRANCH 17 21
ATOM     21 C14  QUI L   1      12.921  -7.618 -10.662  1.00  0.00    +0.0752  C
ATOM     22 H44  QUI L   1      13.237  -6.584 -10.867  1.00  0.00    +0.0458  H
BRANCH 21 26
ATOM     23 C10  QUI L   1      13.010  -8.268  -6.365  1.00  0.00    -0.0103  A
ATOM     24 C11  QUI L   1      12.123  -7.345  -6.931  1.00  0.00    -0.0551  A
ATOM     25 C12  QUI L   1      12.096  -7.142  -8.313  1.00  0.00    -0.0574  A
ATOM     26 C13  QUI L   1      12.959  -7.857  -9.156  1.00  0.00    -0.0341  A
ATOM     27 C30  QUI L   1      13.860  -8.767  -8.585  1.00  0.00    -0.0574  A
ATOM     28 C31  QUI L   1      13.885  -8.969  -7.203  1.00  0.00    -0.0551  A
ATOM     29 H42  QUI L   1      11.456  -6.765  -6.295  1.00  0.00    +0.0621  H
ATOM     30 H43  QUI L   1      11.407  -6.406  -8.725  1.00  0.00    +0.0621  H
ATOM     31 H56  QUI L   1      14.558  -9.326  -9.208  1.00  0.00    +0.0621  H
ATOM     32 H57  QUI L   1      14.603  -9.671  -6.781  1.00  0.00    +0.0621  H
BRANCH 23 33
ATOM     33  C9  QUI L   1      13.060  -8.466  -4.872  1.00  0.00    +0.1179  C
ATOM     34 H40  QUI L   1      13.373  -7.551  -4.353  1.00  0.00    +0.0749  H
ATOM     35 H41  QUI L   1      13.814  -9.223  -4.627  1.00  0.00    +0.0749  H
BRANCH 33 36
ATOM     36  O8  QUI L   1      11.795  -8.955  -4.414  1.00  0.00    -0.4564 OA
BRANCH 36 37
ATOM     37  C6  QUI L   1      11.474 -10.207  -4.816  1.00  0.00    +0.3398  C
ATOM     38  O7  QUI L   1      12.113 -11.226  -4.615  1.00  0.00    -0.2449 OA
BRANCH 37 43
ATOM     39  C1  QUI L   1       6.180  -9.984  -7.150  1.00  0.00    -0.0397  C
ATOM     40  C2  QUI L   1       7.555 -10.086  -6.557  1.00  0.00    -0.0502  A
ATOM     41  C3  QUI L   1       7.775  -9.749  -5.219  1.00  0.00    -0.0580  A
ATOM     42  C4  QUI L   1       9.062  -9.810  -4.683  1.00  0.00    -0.0473  A
ATOM     43  C5  QUI L   1      10.149 -10.194  -5.482  1.00  0.00    +0.0619  A
ATOM     44 C32  QUI L   1       9.944 -10.555  -6.826  1.00  0.00    -0.0362  A
ATOM     45 C33  QUI L   1      11.059 -11.008  -7.727  1.00  0.00    -0.0389  C
ATOM     46 C34  QUI L   1       8.643 -10.473  -7.353  1.00  0.00    -0.0551  A
ATOM     47 H35  QUI L   1       5.412 -10.161  -6.391  1.00  0.00    +0.0278  H
ATOM     48 H36  QUI L   1       6.038 -10.732  -7.937  1.00  0.00    +0.0278  H
ATOM     49 H37  QUI L   1       6.031  -8.987  -7.577  1.00  0.00    +0.0278  H
ATOM     50 H38  QUI L   1       6.948  -9.437  -4.586  1.00  0.00    +0.0620  H
ATOM     51 H39  QUI L   1       9.217  -9.546  -3.638  1.00  0.00    +0.0626  H
ATOM     52 H58  QUI L   1      11.735 -11.692  -7.202  1.00  0.00    +0.0278  H
ATOM     53 H59  QUI L   1      11.620 -10.146  -8.100  1.00  0.00    +0.0278  H
ATOM     54 H60  QUI L   1      10.669 -11.558  -8.591  1.00  0.00    +0.0278  H
ATOM     55 H61  QUI L   1       8.469 -10.724  -8.399  1.00  0.00    +0.0623  H
ENDBRANCH 37 43
ENDBRANCH 36 37
ENDBRANCH 33 36
ENDBRANCH 23 33
ENDBRANCH 21 26
BRANCH 21 56
ATOM     56 C15  QUI L   1      13.871  -8.566 -11.425  1.00  0.00    +0.0085  C
ATOM     57 N16  QUI L   1      13.155  -9.538 -12.266  1.00  0.00    -0.3289 NA
ATOM     58 H45  QUI L   1      14.566  -7.998 -12.056  1.00  0.00    +0.0432  H
ATOM     59 H46  QUI L   1      14.480  -9.131 -10.709  1.00  0.00    +0.0432  H
ATOM     60 H47  QUI L   1      13.842 -10.108 -12.761  1.00  0.00    +0.1182 HD
ATOM     61 H48  QUI L   1      12.645  -9.031 -12.992  1.00  0.00    +0.1182 HD
ENDBRANCH 21 56
ENDBRANCH 17 21
ENDBRANCH 1 19
TORSDOF 8
ENDMDL
MODEL 20
REMARK VINA RESULT:    -6.487      3.641     10.928
REMARK INTER + INTRA:         -10.654
REMARK INTER:                  -8.944
REMARK INTRA:                  -1.710
REMARK UNBOUND:                -1.133
ROOT
ATOM      1 C20  QUI L   1       9.043  -9.463  -9.254  1.00  0.00    +0.0424  A
ATOM      2 C21  QUI L   1       9.374 -10.630  -9.936  1.00  0.00    -0.0363  A
ATOM      3 C22  QUI L   1       8.401 -11.319 -10.673  1.00  0.00    -0.0338  A
ATOM      4 C23  QUI L   1       7.091 -10.875 -10.755  1.00  0.00    +0.0711  A
ATOM      5 N24  QUI L   1       6.195 -11.573 -11.476  1.00  0.00    -0.2550 NA
ATOM      6 C25  QUI L   1       4.926 -11.111 -11.532  1.00  0.00    +0.0283  A
ATOM      7 C26  QUI L   1       4.496  -9.964 -10.893  1.00  0.00    -0.0430  A
ATOM      8 C27  QUI L   1       5.423  -9.245 -10.148  1.00  0.00    -0.0511  A
ATOM      9 C28  QUI L   1       6.749  -9.693 -10.067  1.00  0.00    +0.0023  A
ATOM     10 C29  QUI L   1       7.724  -8.998  -9.325  1.00  0.00    -0.0291  A
ATOM     11 H50  QUI L   1      10.379 -11.038  -9.923  1.00  0.00    +0.0639  H
ATOM     12 H51  QUI L   1       8.680 -12.229 -11.199  1.00  0.00    +0.0640  H
ATOM     13 H52  QUI L   1       4.244 -11.711 -12.127  1.00  0.00    +0.0830  H
ATOM     14 H53  QUI L   1       3.465  -9.640 -10.972  1.00  0.00    +0.0633  H
ATOM     15 H54  QUI L   1       5.109  -8.341  -9.637  1.00  0.00    +0.0625  H
ATOM     16 H55  QUI L   1       7.439  -8.089  -8.801  1.00  0.00    +0.0645  H
ENDROOT
BRANCH 1 19
ATOM     17 C17  QUI L   1       9.825  -8.294  -7.171  1.00  0.00    +0.2339  C
ATOM     18 O18  QUI L   1       8.859  -8.507  -6.445  1.00  0.00    -0.2722 OA
ATOM     19 N19  QUI L   1       9.954  -8.704  -8.492  1.00  0.00    -0.3256  N
ATOM     20 H49  QUI L   1      10.785  -8.387  -8.978  1.00  0.00    +0.1686 HD
BRANCH 17 21
ATOM     21 C14  QUI L   1      11.061  -7.522  -6.676  1.00  0.00    +0.0752  C
ATOM     22 H44  QUI L   1      10.669  -6.617  -6.189  1.00  0.00    +0.0458  H
BRANCH 21 26
ATOM     23 C10  QUI L   1      13.358  -9.794  -3.768  1.00  0.00    -0.0103  A
ATOM     24 C11  QUI L   1      13.613  -8.433  -3.977  1.00  0.00    -0.0551  A
ATOM     25 C12  QUI L   1      12.870  -7.707  -4.910  1.00  0.00    -0.0574  A
ATOM     26 C13  QUI L   1      11.858  -8.328  -5.656  1.00  0.00    -0.0341  A
ATOM     27 C30  QUI L   1      11.618  -9.696  -5.459  1.00  0.00    -0.0574  A
ATOM     28 C31  QUI L   1      12.362 -10.421  -4.525  1.00  0.00    -0.0551  A
ATOM     29 H42  QUI L   1      14.406  -7.933  -3.422  1.00  0.00    +0.0621  H
ATOM     30 H43  QUI L   1      13.100  -6.654  -5.063  1.00  0.00    +0.0621  H
ATOM     31 H56  QUI L   1      10.852 -10.216  -6.035  1.00  0.00    +0.0621  H
ATOM     32 H57  QUI L   1      12.166 -11.485  -4.399  1.00  0.00    +0.0621  H
BRANCH 23 33
ATOM     33  C9  QUI L   1      14.179 -10.585  -2.783  1.00  0.00    +0.1179  C
ATOM     34 H40  QUI L   1      15.216 -10.704  -3.123  1.00  0.00    +0.0749  H
ATOM     35 H41  QUI L   1      13.774 -11.600  -2.698  1.00  0.00    +0.0749  H
BRANCH 33 36
ATOM     36  O8  QUI L   1      14.089  -9.976  -1.490  1.00  0.00    -0.4564 OA
BRANCH 36 37
ATOM     37  C6  QUI L   1      12.923 -10.174  -0.834  1.00  0.00    +0.3398  C
ATOM     38  O7  QUI L   1      12.348 -11.238  -0.669  1.00  0.00    -0.2449 OA
BRANCH 37 43
ATOM     39  C1  QUI L   1      11.393  -5.190   1.684  1.00  0.00    -0.0397  C
ATOM     40  C2  QUI L   1      11.745  -6.497   1.036  1.00  0.00    -0.0502  A
ATOM     41  C3  QUI L   1      12.763  -7.296   1.563  1.00  0.00    -0.0580  A
ATOM     42  C4  QUI L   1      13.113  -8.491   0.935  1.00  0.00    -0.0473  A
ATOM     43  C5  QUI L   1      12.460  -8.897  -0.239  1.00  0.00    +0.0619  A
ATOM     44 C32  QUI L   1      11.419  -8.115  -0.774  1.00  0.00    -0.0362  A
ATOM     45 C33  QUI L   1      10.657  -8.509  -2.008  1.00  0.00    -0.0389  C
ATOM     46 C34  QUI L   1      11.092  -6.905  -0.136  1.00  0.00    -0.0551  A
ATOM     47 H35  QUI L   1      11.580  -5.224   2.762  1.00  0.00    +0.0278  H
ATOM     48 H36  QUI L   1      10.330  -4.960   1.547  1.00  0.00    +0.0278  H
ATOM     49 H37  QUI L   1      11.989  -4.383   1.247  1.00  0.00    +0.0278  H
ATOM     50 H38  QUI L   1      13.290  -6.994   2.465  1.00  0.00    +0.0620  H
ATOM     51 H39  QUI L   1      13.906  -9.105   1.359  1.00  0.00    +0.0626  H
ATOM     52 H58  QUI L   1      10.423  -9.578  -2.001  1.00  0.00    +0.0278  H
ATOM     53 H59  QUI L   1      11.232  -8.261  -2.906  1.00  0.00    +0.0278  H
ATOM     54 H60  QUI L   1       9.698  -7.980  -2.064  1.00  0.00    +0.0278  H
ATOM     55 H61  QUI L   1      10.306  -6.274  -0.551  1.00  0.00    +0.0623  H
ENDBRANCH 37 43
ENDBRANCH 36 37
ENDBRANCH 33 36
ENDBRANCH 23 33
ENDBRANCH 21 26
BRANCH 21 56
ATOM     56 C15  QUI L   1      11.931  -7.077  -7.872  1.00  0.00    +0.0085  C
ATOM     57 N16  QUI L   1      11.417  -5.868  -8.535  1.00  0.00    -0.3289 NA
ATOM     58 H45  QUI L   1      12.965  -6.895  -7.557  1.00  0.00    +0.0432  H
ATOM     59 H46  QUI L   1      11.963  -7.879  -8.621  1.00  0.00    +0.0432  H
ATOM     60 H47  QUI L   1      12.054  -5.617  -9.292  1.00  0.00    +0.1182 HD
ATOM     61 H48  QUI L   1      11.455  -5.090  -7.874  1.00  0.00    +0.1182 HD
ENDBRANCH 21 56
ENDBRANCH 17 21
ENDBRANCH 1 19
TORSDOF 8
ENDMDL
