MODEL 1
REMARK VINA RESULT:    -7.403      0.000      0.000
REMARK INTER + INTRA:         -12.014
REMARK INTER:                 -10.865
REMARK INTRA:                  -1.149
REMARK UNBOUND:                -1.149
ROOT
ATOM      1 C20  QUI L   1      12.736  -6.188   0.928  1.00  0.00    +0.0424  A
ATOM      2 C21  QUI L   1      13.971  -5.548   0.894  1.00  0.00    -0.0363  A
ATOM      3 C22  QUI L   1      14.201  -4.410   1.678  1.00  0.00    -0.0338  A
ATOM      4 C23  QUI L   1      13.224  -3.881   2.508  1.00  0.00    +0.0711  A
ATOM      5 N24  QUI L   1      13.495  -2.786   3.241  1.00  0.00    -0.2550 NA
ATOM      6 C25  QUI L   1      12.519  -2.298   4.038  1.00  0.00    +0.0283  A
ATOM      7 C26  QUI L   1      11.260  -2.858   4.145  1.00  0.00    -0.0430  A
ATOM      8 C27  QUI L   1      10.984  -3.989   3.386  1.00  0.00    -0.0511  A
ATOM      9 C28  QUI L   1      11.972  -4.525   2.548  1.00  0.00    +0.0023  A
ATOM     10 C29  QUI L   1      11.738  -5.670   1.761  1.00  0.00    -0.0291  A
ATOM     11 H50  QUI L   1      14.787  -5.904   0.272  1.00  0.00    +0.0639  H
ATOM     12 H51  QUI L   1      15.173  -3.925   1.638  1.00  0.00    +0.0640  H
ATOM     13 H52  QUI L   1      12.789  -1.414   4.607  1.00  0.00    +0.0830  H
ATOM     14 H53  QUI L   1      10.514  -2.424   4.800  1.00  0.00    +0.0633  H
ATOM     15 H54  QUI L   1      10.001  -4.448   3.452  1.00  0.00    +0.0625  H
ATOM     16 H55  QUI L   1      10.763  -6.150   1.805  1.00  0.00    +0.0645  H
ENDROOT
BRANCH 1 19
ATOM     17 C17  QUI L   1      11.479  -7.458  -0.839  1.00  0.00    +0.2339  C
ATOM     18 O18  QUI L   1      10.736  -6.567  -1.239  1.00  0.00    -0.2722 OA
ATOM     19 N19  QUI L   1      12.418  -7.338   0.178  1.00  0.00    -0.3256  N
ATOM     20 H49  QUI L   1      12.905  -8.188   0.437  1.00  0.00    +0.1686 HD
BRANCH 17 21
ATOM     21 C14  QUI L   1      11.460  -8.870  -1.452  1.00  0.00    +0.0752  C
ATOM     22 H44  QUI L   1      10.517  -9.325  -1.117  1.00  0.00    +0.0458  H
BRANCH 21 26
ATOM     23 C10  QUI L   1      11.477  -8.765  -5.798  1.00  0.00    -0.0103  A
ATOM     24 C11  QUI L   1      10.548  -9.551  -5.104  1.00  0.00    -0.0551  A
ATOM     25 C12  QUI L   1      10.545  -9.578  -3.708  1.00  0.00    -0.0574  A
ATOM     26 C13  QUI L   1      11.473  -8.822  -2.977  1.00  0.00    -0.0341  A
ATOM     27 C30  QUI L   1      12.415  -8.052  -3.675  1.00  0.00    -0.0574  A
ATOM     28 C31  QUI L   1      12.416  -8.025  -5.071  1.00  0.00    -0.0551  A
ATOM     29 H42  QUI L   1       9.830 -10.159  -5.650  1.00  0.00    +0.0621  H
ATOM     30 H43  QUI L   1       9.823 -10.210  -3.194  1.00  0.00    +0.0621  H
ATOM     31 H56  QUI L   1      13.163  -7.467  -3.139  1.00  0.00    +0.0621  H
ATOM     32 H57  QUI L   1      13.166  -7.429  -5.591  1.00  0.00    +0.0621  H
BRANCH 23 33
ATOM     33  C9  QUI L   1      11.500  -8.758  -7.305  1.00  0.00    +0.1179  C
ATOM     34 H40  QUI L   1      12.302  -9.393  -7.700  1.00  0.00    +0.0749  H
ATOM     35 H41  QUI L   1      11.716  -7.745  -7.664  1.00  0.00    +0.0749  H
BRANCH 33 36
ATOM     36  O8  QUI L   1      10.209  -9.125  -7.803  1.00  0.00    -0.4564 OA
BRANCH 36 37
ATOM     37  C6  QUI L   1       9.335  -8.104  -7.964  1.00  0.00    +0.3398  C
ATOM     38  O7  QUI L   1       9.525  -6.930  -7.694  1.00  0.00    -0.2449 OA
BRANCH 37 43
ATOM     39  C1  QUI L   1       4.669  -9.992 -10.826  1.00  0.00    -0.0397  C
ATOM     40  C2  QUI L   1       5.851  -9.478 -10.056  1.00  0.00    -0.0502  A
ATOM     41  C3  QUI L   1       6.886  -8.808 -10.713  1.00  0.00    -0.0580  A
ATOM     42  C4  QUI L   1       8.000  -8.366 -10.000  1.00  0.00    -0.0473  A
ATOM     43  C5  QUI L   1       8.102  -8.601  -8.620  1.00  0.00    +0.0619  A
ATOM     44 C32  QUI L   1       7.060  -9.257  -7.937  1.00  0.00    -0.0362  A
ATOM     45 C33  QUI L   1       7.091  -9.510  -6.456  1.00  0.00    -0.0389  C
ATOM     46 C34  QUI L   1       5.953  -9.709  -8.676  1.00  0.00    -0.0551  A
ATOM     47 H35  QUI L   1       4.468  -9.365 -11.699  1.00  0.00    +0.0278  H
ATOM     48 H36  QUI L   1       3.766  -9.984 -10.205  1.00  0.00    +0.0278  H
ATOM     49 H37  QUI L   1       4.859 -11.016 -11.162  1.00  0.00    +0.0278  H
ATOM     50 H38  QUI L   1       6.832  -8.626 -11.784  1.00  0.00    +0.0620  H
ATOM     51 H39  QUI L   1       8.797  -7.843 -10.525  1.00  0.00    +0.0626  H
ATOM     52 H58  QUI L   1       7.467  -8.635  -5.916  1.00  0.00    +0.0278  H
ATOM     53 H59  QUI L   1       7.714 -10.381  -6.232  1.00  0.00    +0.0278  H
ATOM     54 H60  QUI L   1       6.084  -9.706  -6.069  1.00  0.00    +0.0278  H
ATOM     55 H61  QUI L   1       5.149 -10.242  -8.169  1.00  0.00    +0.0623  H
ENDBRANCH 37 43
ENDBRANCH 36 37
ENDBRANCH 33 36
ENDBRANCH 23 33
ENDBRANCH 21 26
BRANCH 21 56
ATOM     56 C15  QUI L   1      12.622  -9.716  -0.888  1.00  0.00    +0.0085  C
ATOM     57 N16  QUI L   1      12.256 -10.449   0.334  1.00  0.00    -0.3289 NA
ATOM     58 H45  QUI L   1      12.983 -10.433  -1.635  1.00  0.00    +0.0432  H
ATOM     59 H46  QUI L   1      13.468  -9.061  -0.642  1.00  0.00    +0.0432  H
ATOM     60 H47  QUI L   1      13.057 -11.006   0.632  1.00  0.00    +0.1182 HD
ATOM     61 H48  QUI L   1      11.523 -11.123   0.105  1.00  0.00    +0.1182 HD
ENDBRANCH 21 56
ENDBRANCH 17 21
ENDBRANCH 1 19
TORSDOF 8
ENDMDL
MODEL 2
REMARK VINA RESULT:    -7.365      1.808      3.129
REMARK INTER + INTRA:         -11.959
REMARK INTER:                 -11.163
REMARK INTRA:                  -0.796
REMARK UNBOUND:                -1.149
ROOT
ATOM      1 C20  QUI L   1      10.937  -5.598   2.640  1.00  0.00    +0.0424  A
ATOM      2 C21  QUI L   1       9.784  -6.221   3.107  1.00  0.00    -0.0363  A
ATOM      3 C22  QUI L   1       8.989  -5.602   4.082  1.00  0.00    -0.0338  A
ATOM      4 C23  QUI L   1       9.313  -4.363   4.613  1.00  0.00    +0.0711  A
ATOM      5 N24  QUI L   1       8.517  -3.810   5.547  1.00  0.00    -0.2550 NA
ATOM      6 C25  QUI L   1       8.864  -2.602   6.043  1.00  0.00    +0.0283  A
ATOM      7 C26  QUI L   1       9.986  -1.900   5.646  1.00  0.00    -0.0430  A
ATOM      8 C27  QUI L   1      10.806  -2.474   4.681  1.00  0.00    -0.0511  A
ATOM      9 C28  QUI L   1      10.479  -3.726   4.143  1.00  0.00    +0.0023  A
ATOM     10 C29  QUI L   1      11.279  -4.345   3.163  1.00  0.00    -0.0291  A
ATOM     11 H50  QUI L   1       9.463  -7.190   2.738  1.00  0.00    +0.0639  H
ATOM     12 H51  QUI L   1       8.092  -6.105   4.434  1.00  0.00    +0.0640  H
ATOM     13 H52  QUI L   1       8.188  -2.202   6.793  1.00  0.00    +0.0830  H
ATOM     14 H53  QUI L   1      10.216  -0.934   6.078  1.00  0.00    +0.0633  H
ATOM     15 H54  QUI L   1      11.694  -1.942   4.354  1.00  0.00    +0.0625  H
ATOM     16 H55  QUI L   1      12.175  -3.838   2.816  1.00  0.00    +0.0645  H
ENDROOT
BRANCH 1 19
ATOM     17 C17  QUI L   1      11.630  -6.120   0.282  1.00  0.00    +0.2339  C
ATOM     18 O18  QUI L   1      10.678  -5.633  -0.321  1.00  0.00    -0.2722 OA
ATOM     19 N19  QUI L   1      11.792  -6.143   1.661  1.00  0.00    -0.3256  N
ATOM     20 H49  QUI L   1      12.600  -6.647   2.006  1.00  0.00    +0.1686 HD
BRANCH 17 21
ATOM     21 C14  QUI L   1      12.809  -6.781  -0.456  1.00  0.00    +0.0752  C
ATOM     22 H44  QUI L   1      13.225  -7.514   0.250  1.00  0.00    +0.0458  H
BRANCH 21 26
ATOM     23 C10  QUI L   1      11.516  -8.835  -4.062  1.00  0.00    -0.0103  A
ATOM     24 C11  QUI L   1      12.570  -7.914  -4.101  1.00  0.00    -0.0551  A
ATOM     25 C12  QUI L   1      12.984  -7.260  -2.939  1.00  0.00    -0.0574  A
ATOM     26 C13  QUI L   1      12.349  -7.510  -1.713  1.00  0.00    -0.0341  A
ATOM     27 C30  QUI L   1      11.280  -8.418  -1.681  1.00  0.00    -0.0574  A
ATOM     28 C31  QUI L   1      10.868  -9.072  -2.844  1.00  0.00    -0.0551  A
ATOM     29 H42  QUI L   1      13.067  -7.691  -5.044  1.00  0.00    +0.0621  H
ATOM     30 H43  QUI L   1      13.796  -6.537  -3.001  1.00  0.00    +0.0621  H
ATOM     31 H56  QUI L   1      10.751  -8.622  -0.750  1.00  0.00    +0.0621  H
ATOM     32 H57  QUI L   1      10.027  -9.762  -2.796  1.00  0.00    +0.0621  H
BRANCH 23 33
ATOM     33  C9  QUI L   1      11.049  -9.519  -5.321  1.00  0.00    +0.1179  C
ATOM     34 H40  QUI L   1      10.972 -10.606  -5.185  1.00  0.00    +0.0749  H
ATOM     35 H41  QUI L   1      11.788  -9.369  -6.116  1.00  0.00    +0.0749  H
BRANCH 33 36
ATOM     36  O8  QUI L   1       9.821  -8.928  -5.757  1.00  0.00    -0.4564 OA
BRANCH 36 37
ATOM     37  C6  QUI L   1       9.914  -8.124  -6.841  1.00  0.00    +0.3398  C
ATOM     38  O7  QUI L   1      10.797  -7.317  -7.079  1.00  0.00    -0.2449 OA
BRANCH 37 43
ATOM     39  C1  QUI L   1       5.408  -9.377 -10.255  1.00  0.00    -0.0397  C
ATOM     40  C2  QUI L   1       6.604  -9.076  -9.399  1.00  0.00    -0.0502  A
ATOM     41  C3  QUI L   1       6.612  -9.429  -8.047  1.00  0.00    -0.0580  A
ATOM     42  C4  QUI L   1       7.710  -9.112  -7.247  1.00  0.00    -0.0473  A
ATOM     43  C5  QUI L   1       8.809  -8.425  -7.784  1.00  0.00    +0.0619  A
ATOM     44 C32  QUI L   1       8.827  -8.079  -9.148  1.00  0.00    -0.0362  A
ATOM     45 C33  QUI L   1       9.986  -7.373  -9.794  1.00  0.00    -0.0389  C
ATOM     46 C34  QUI L   1       7.704  -8.391  -9.935  1.00  0.00    -0.0551  A
ATOM     47 H35  QUI L   1       4.892 -10.276  -9.904  1.00  0.00    +0.0278  H
ATOM     48 H36  QUI L   1       5.707  -9.558 -11.293  1.00  0.00    +0.0278  H
ATOM     49 H37  QUI L   1       4.709  -8.535 -10.229  1.00  0.00    +0.0278  H
ATOM     50 H38  QUI L   1       5.765  -9.951  -7.608  1.00  0.00    +0.0620  H
ATOM     51 H39  QUI L   1       7.704  -9.396  -6.195  1.00  0.00    +0.0626  H
ATOM     52 H58  QUI L   1      10.939  -7.787  -9.449  1.00  0.00    +0.0278  H
ATOM     53 H59  QUI L   1       9.947  -6.301  -9.577  1.00  0.00    +0.0278  H
ATOM     54 H60  QUI L   1       9.967  -7.499 -10.883  1.00  0.00    +0.0278  H
ATOM     55 H61  QUI L   1       7.690  -8.108 -10.987  1.00  0.00    +0.0623  H
ENDBRANCH 37 43
ENDBRANCH 36 37
ENDBRANCH 33 36
ENDBRANCH 23 33
ENDBRANCH 21 26
BRANCH 21 56
ATOM     56 C15  QUI L   1      13.906  -5.737  -0.758  1.00  0.00    +0.0085  C
ATOM     57 N16  QUI L   1      13.406  -4.353  -0.716  1.00  0.00    -0.3289 NA
ATOM     58 H45  QUI L   1      14.741  -5.832  -0.054  1.00  0.00    +0.0432  H
ATOM     59 H46  QUI L   1      14.314  -5.912  -1.761  1.00  0.00    +0.0432  H
ATOM     60 H47  QUI L   1      14.186  -3.720  -0.894  1.00  0.00    +0.1182 HD
ATOM     61 H48  QUI L   1      13.095  -4.146   0.235  1.00  0.00    +0.1182 HD
ENDBRANCH 21 56
ENDBRANCH 17 21
ENDBRANCH 1 19
TORSDOF 8
ENDMDL
MODEL 3
REMARK VINA RESULT:    -7.362      2.994     10.638
REMARK INTER + INTRA:         -11.953
REMARK INTER:                 -10.157
REMARK INTRA:                  -1.796
REMARK UNBOUND:                -1.149
ROOT
ATOM      1 C20  QUI L   1      11.376  -7.903  -5.946  1.00  0.00    +0.0424  A
ATOM      2 C21  QUI L   1      12.238  -7.289  -6.849  1.00  0.00    -0.0363  A
ATOM      3 C22  QUI L   1      11.862  -7.127  -8.190  1.00  0.00    -0.0338  A
ATOM      4 C23  QUI L   1      10.635  -7.564  -8.665  1.00  0.00    +0.0711  A
ATOM      5 N24  QUI L   1      10.322  -7.385  -9.961  1.00  0.00    -0.2550 NA
ATOM      6 C25  QUI L   1       9.118  -7.824 -10.390  1.00  0.00    +0.0283  A
ATOM      7 C26  QUI L   1       8.190  -8.445  -9.575  1.00  0.00    -0.0430  A
ATOM      8 C27  QUI L   1       8.517  -8.628  -8.237  1.00  0.00    -0.0511  A
ATOM      9 C28  QUI L   1       9.757  -8.186  -7.755  1.00  0.00    +0.0023  A
ATOM     10 C29  QUI L   1      10.131  -8.349  -6.407  1.00  0.00    -0.0291  A
ATOM     11 H50  QUI L   1      13.213  -6.918  -6.552  1.00  0.00    +0.0639  H
ATOM     12 H51  QUI L   1      12.550  -6.645  -8.879  1.00  0.00    +0.0640  H
ATOM     13 H52  QUI L   1       8.915  -7.656 -11.443  1.00  0.00    +0.0830  H
ATOM     14 H53  QUI L   1       7.239  -8.778  -9.973  1.00  0.00    +0.0633  H
ATOM     15 H54  QUI L   1       7.805  -9.114  -7.577  1.00  0.00    +0.0625  H
ATOM     16 H55  QUI L   1       9.440  -8.833  -5.723  1.00  0.00    +0.0645  H
ENDROOT
BRANCH 1 19
ATOM     17 C17  QUI L   1      12.903  -8.011  -3.954  1.00  0.00    +0.2339  C
ATOM     18 O18  QUI L   1      13.971  -7.760  -4.504  1.00  0.00    -0.2722 OA
ATOM     19 N19  QUI L   1      11.668  -8.104  -4.582  1.00  0.00    -0.3256  N
ATOM     20 H49  QUI L   1      10.891  -8.389  -3.997  1.00  0.00    +0.1686 HD
BRANCH 17 21
ATOM     21 C14  QUI L   1      12.806  -8.252  -2.436  1.00  0.00    +0.0752  C
ATOM     22 H44  QUI L   1      13.373  -9.175  -2.247  1.00  0.00    +0.0458  H
BRANCH 21 26
ATOM     23 C10  QUI L   1      14.579  -4.979  -0.191  1.00  0.00    -0.0103  A
ATOM     24 C11  QUI L   1      13.295  -4.860  -0.737  1.00  0.00    -0.0551  A
ATOM     25 C12  QUI L   1      12.729  -5.916  -1.454  1.00  0.00    -0.0574  A
ATOM     26 C13  QUI L   1      13.437  -7.112  -1.643  1.00  0.00    -0.0341  A
ATOM     27 C30  QUI L   1      14.731  -7.221  -1.113  1.00  0.00    -0.0574  A
ATOM     28 C31  QUI L   1      15.296  -6.164  -0.395  1.00  0.00    -0.0551  A
ATOM     29 H42  QUI L   1      12.734  -3.935  -0.617  1.00  0.00    +0.0621  H
ATOM     30 H43  QUI L   1      11.735  -5.790  -1.881  1.00  0.00    +0.0621  H
ATOM     31 H56  QUI L   1      15.317  -8.128  -1.257  1.00  0.00    +0.0621  H
ATOM     32 H57  QUI L   1      16.307  -6.267  -0.004  1.00  0.00    +0.0621  H
BRANCH 23 33
ATOM     33  C9  QUI L   1      15.203  -3.830   0.558  1.00  0.00    +0.1179  C
ATOM     34 H40  QUI L   1      15.604  -3.071  -0.126  1.00  0.00    +0.0749  H
ATOM     35 H41  QUI L   1      16.059  -4.192   1.139  1.00  0.00    +0.0749  H
BRANCH 33 36
ATOM     36  O8  QUI L   1      14.252  -3.292   1.483  1.00  0.00    -0.4564 OA
BRANCH 36 37
ATOM     37  C6  QUI L   1      14.230  -3.878   2.702  1.00  0.00    +0.3398  C
ATOM     38  O7  QUI L   1      15.169  -4.003   3.471  1.00  0.00    -0.2449 OA
BRANCH 37 43
ATOM     39  C1  QUI L   1       8.730  -5.135   4.004  1.00  0.00    -0.0397  C
ATOM     40  C2  QUI L   1      10.170  -4.840   3.699  1.00  0.00    -0.0502  A
ATOM     41  C3  QUI L   1      10.652  -3.530   3.766  1.00  0.00    -0.0580  A
ATOM     42  C4  QUI L   1      11.981  -3.254   3.444  1.00  0.00    -0.0473  A
ATOM     43  C5  QUI L   1      12.843  -4.283   3.037  1.00  0.00    +0.0619  A
ATOM     44 C32  QUI L   1      12.381  -5.612   2.983  1.00  0.00    -0.0362  A
ATOM     45 C33  QUI L   1      13.261  -6.765   2.588  1.00  0.00    -0.0389  C
ATOM     46 C34  QUI L   1      11.034  -5.868   3.295  1.00  0.00    -0.0551  A
ATOM     47 H35  QUI L   1       8.330  -4.425   4.734  1.00  0.00    +0.0278  H
ATOM     48 H36  QUI L   1       8.620  -6.138   4.433  1.00  0.00    +0.0278  H
ATOM     49 H37  QUI L   1       8.134  -5.074   3.088  1.00  0.00    +0.0278  H
ATOM     50 H38  QUI L   1       9.996  -2.716   4.068  1.00  0.00    +0.0620  H
ATOM     51 H39  QUI L   1      12.343  -2.229   3.503  1.00  0.00    +0.0626  H
ATOM     52 H58  QUI L   1      14.251  -6.679   3.048  1.00  0.00    +0.0278  H
ATOM     53 H59  QUI L   1      13.361  -6.811   1.499  1.00  0.00    +0.0278  H
ATOM     54 H60  QUI L   1      12.840  -7.717   2.930  1.00  0.00    +0.0278  H
ATOM     55 H61  QUI L   1      10.652  -6.886   3.233  1.00  0.00    +0.0623  H
ENDBRANCH 37 43
ENDBRANCH 36 37
ENDBRANCH 33 36
ENDBRANCH 23 33
ENDBRANCH 21 26
BRANCH 21 56
ATOM     56 C15  QUI L   1      11.338  -8.502  -2.026  1.00  0.00    +0.0085  C
ATOM     57 N16  QUI L   1      10.968  -9.926  -2.066  1.00  0.00    -0.3289 NA
ATOM     58 H45  QUI L   1      11.143  -8.115  -1.018  1.00  0.00    +0.0432  H
ATOM     59 H46  QUI L   1      10.669  -7.965  -2.709  1.00  0.00    +0.0432  H
ATOM     60 H47  QUI L   1      10.000 -10.019  -1.755  1.00  0.00    +0.1182 HD
ATOM     61 H48  QUI L   1      11.528 -10.430  -1.376  1.00  0.00    +0.1182 HD
ENDBRANCH 21 56
ENDBRANCH 17 21
ENDBRANCH 1 19
TORSDOF 8
ENDMDL
MODEL 4
REMARK VINA RESULT:    -7.355      1.996      3.178
REMARK INTER + INTRA:         -11.944
REMARK INTER:                 -11.089
REMARK INTRA:                  -0.855
REMARK UNBOUND:                -1.149
ROOT
ATOM      1 C20  QUI L   1      11.428  -5.323   2.609  1.00  0.00    +0.0424  A
ATOM      2 C21  QUI L   1      11.481  -3.956   2.863  1.00  0.00    -0.0363  A
ATOM      3 C22  QUI L   1      10.673  -3.389   3.858  1.00  0.00    -0.0338  A
ATOM      4 C23  QUI L   1       9.803  -4.153   4.620  1.00  0.00    +0.0711  A
ATOM      5 N24  QUI L   1       9.049  -3.560   5.564  1.00  0.00    -0.2550 NA
ATOM      6 C25  QUI L   1       8.211  -4.336   6.287  1.00  0.00    +0.0283  A
ATOM      7 C26  QUI L   1       8.085  -5.701   6.115  1.00  0.00    -0.0430  A
ATOM      8 C27  QUI L   1       8.865  -6.310   5.139  1.00  0.00    -0.0511  A
ATOM      9 C28  QUI L   1       9.746  -5.538   4.369  1.00  0.00    +0.0023  A
ATOM     10 C29  QUI L   1      10.557  -6.111   3.369  1.00  0.00    -0.0291  A
ATOM     11 H50  QUI L   1      12.139  -3.293   2.310  1.00  0.00    +0.0639  H
ATOM     12 H51  QUI L   1      10.729  -2.318   4.041  1.00  0.00    +0.0640  H
ATOM     13 H52  QUI L   1       7.626  -3.809   7.035  1.00  0.00    +0.0830  H
ATOM     14 H53  QUI L   1       7.396  -6.275   6.723  1.00  0.00    +0.0633  H
ATOM     15 H54  QUI L   1       8.783  -7.382   4.984  1.00  0.00    +0.0625  H
ATOM     16 H55  QUI L   1      10.495  -7.181   3.190  1.00  0.00    +0.0645  H
ENDROOT
BRANCH 1 19
ATOM     17 C17  QUI L   1      12.008  -5.993   0.257  1.00  0.00    +0.2339  C
ATOM     18 O18  QUI L   1      11.085  -5.448  -0.342  1.00  0.00    -0.2722 OA
ATOM     19 N19  QUI L   1      12.205  -5.978   1.632  1.00  0.00    -0.3256  N
ATOM     20 H49  QUI L   1      12.976  -6.537   1.977  1.00  0.00    +0.1686 HD
BRANCH 17 21
ATOM     21 C14  QUI L   1      13.104  -6.782  -0.481  1.00  0.00    +0.0752  C
ATOM     22 H44  QUI L   1      13.467  -7.529   0.240  1.00  0.00    +0.0458  H
BRANCH 21 26
ATOM     23 C10  QUI L   1      11.543  -8.815  -3.993  1.00  0.00    -0.0103  A
ATOM     24 C11  QUI L   1      12.611  -7.915  -4.101  1.00  0.00    -0.0551  A
ATOM     25 C12  QUI L   1      13.111  -7.268  -2.969  1.00  0.00    -0.0574  A
ATOM     26 C13  QUI L   1      12.550  -7.504  -1.705  1.00  0.00    -0.0341  A
ATOM     27 C30  QUI L   1      11.467  -8.390  -1.603  1.00  0.00    -0.0574  A
ATOM     28 C31  QUI L   1      10.969  -9.037  -2.736  1.00  0.00    -0.0551  A
ATOM     29 H42  QUI L   1      13.050  -7.703  -5.074  1.00  0.00    +0.0621  H
ATOM     30 H43  QUI L   1      13.931  -6.562  -3.085  1.00  0.00    +0.0621  H
ATOM     31 H56  QUI L   1      10.995  -8.583  -0.639  1.00  0.00    +0.0621  H
ATOM     32 H57  QUI L   1      10.120  -9.711  -2.633  1.00  0.00    +0.0621  H
BRANCH 23 33
ATOM     33  C9  QUI L   1      10.984  -9.491  -5.217  1.00  0.00    +0.1179  C
ATOM     34 H40  QUI L   1      10.766 -10.551  -5.031  1.00  0.00    +0.0749  H
ATOM     35 H41  QUI L   1      11.731  -9.477  -6.019  1.00  0.00    +0.0749  H
BRANCH 33 36
ATOM     36  O8  QUI L   1       9.841  -8.766  -5.682  1.00  0.00    -0.4564 OA
BRANCH 36 37
ATOM     37  C6  QUI L   1      10.011  -8.092  -6.843  1.00  0.00    +0.3398  C
ATOM     38  O7  QUI L   1      10.962  -7.391  -7.149  1.00  0.00    -0.2449 OA
BRANCH 37 43
ATOM     39  C1  QUI L   1       5.458  -9.365 -10.185  1.00  0.00    -0.0397  C
ATOM     40  C2  QUI L   1       6.666  -9.059  -9.349  1.00  0.00    -0.0502  A
ATOM     41  C3  QUI L   1       6.702  -9.422  -8.000  1.00  0.00    -0.0580  A
ATOM     42  C4  QUI L   1       7.811  -9.100  -7.217  1.00  0.00    -0.0473  A
ATOM     43  C5  QUI L   1       8.893  -8.397  -7.768  1.00  0.00    +0.0619  A
ATOM     44 C32  QUI L   1       8.883  -8.040  -9.130  1.00  0.00    -0.0362  A
ATOM     45 C33  QUI L   1      10.023  -7.317  -9.791  1.00  0.00    -0.0389  C
ATOM     46 C34  QUI L   1       7.749  -8.359  -9.899  1.00  0.00    -0.0551  A
ATOM     47 H35  QUI L   1       4.958 -10.272  -9.833  1.00  0.00    +0.0278  H
ATOM     48 H36  QUI L   1       5.741  -9.536 -11.231  1.00  0.00    +0.0278  H
ATOM     49 H37  QUI L   1       4.751  -8.532 -10.141  1.00  0.00    +0.0278  H
ATOM     50 H38  QUI L   1       5.869  -9.956  -7.550  1.00  0.00    +0.0620  H
ATOM     51 H39  QUI L   1       7.826  -9.392  -6.168  1.00  0.00    +0.0626  H
ATOM     52 H58  QUI L   1      10.986  -7.724  -9.466  1.00  0.00    +0.0278  H
ATOM     53 H59  QUI L   1       9.977  -6.248  -9.564  1.00  0.00    +0.0278  H
ATOM     54 H60  QUI L   1       9.986  -7.435 -10.880  1.00  0.00    +0.0278  H
ATOM     55 H61  QUI L   1       7.713  -8.067 -10.948  1.00  0.00    +0.0623  H
ENDBRANCH 37 43
ENDBRANCH 36 37
ENDBRANCH 33 36
ENDBRANCH 23 33
ENDBRANCH 21 26
BRANCH 21 56
ATOM     56 C15  QUI L   1      14.285  -5.854  -0.839  1.00  0.00    +0.0085  C
ATOM     57 N16  QUI L   1      14.052  -4.455  -0.446  1.00  0.00    -0.3289 NA
ATOM     58 H45  QUI L   1      15.212  -6.203  -0.370  1.00  0.00    +0.0432  H
ATOM     59 H46  QUI L   1      14.451  -5.871  -1.924  1.00  0.00    +0.0432  H
ATOM     60 H47  QUI L   1      14.881  -3.909  -0.684  1.00  0.00    +0.1182 HD
ATOM     61 H48  QUI L   1      13.976  -4.409   0.572  1.00  0.00    +0.1182 HD
ENDBRANCH 21 56
ENDBRANCH 17 21
ENDBRANCH 1 19
TORSDOF 8
ENDMDL
MODEL 5
REMARK VINA RESULT:    -7.331      2.480      4.616
REMARK INTER + INTRA:         -11.908
REMARK INTER:                 -10.536
REMARK INTRA:                  -1.372
REMARK UNBOUND:                -1.149
ROOT
ATOM      1 C20  QUI L   1      11.313  -4.511   3.124  1.00  0.00    +0.0424  A
ATOM      2 C21  QUI L   1      11.009  -3.256   3.641  1.00  0.00    -0.0363  A
ATOM      3 C22  QUI L   1      10.046  -3.119   4.651  1.00  0.00    -0.0338  A
ATOM      4 C23  QUI L   1       9.369  -4.212   5.171  1.00  0.00    +0.0711  A
ATOM      5 N24  QUI L   1       8.455  -4.028   6.140  1.00  0.00    -0.2550 NA
ATOM      6 C25  QUI L   1       7.813  -5.115   6.622  1.00  0.00    +0.0283  A
ATOM      7 C26  QUI L   1       8.042  -6.404   6.179  1.00  0.00    -0.0430  A
ATOM      8 C27  QUI L   1       8.987  -6.590   5.177  1.00  0.00    -0.0511  A
ATOM      9 C28  QUI L   1       9.673  -5.486   4.652  1.00  0.00    +0.0023  A
ATOM     10 C29  QUI L   1      10.640  -5.626   3.637  1.00  0.00    -0.0291  A
ATOM     11 H50  QUI L   1      11.499  -2.354   3.288  1.00  0.00    +0.0639  H
ATOM     12 H51  QUI L   1       9.823  -2.130   5.042  1.00  0.00    +0.0640  H
ATOM     13 H52  QUI L   1       7.085  -4.912   7.402  1.00  0.00    +0.0830  H
ATOM     14 H53  QUI L   1       7.497  -7.240   6.601  1.00  0.00    +0.0633  H
ATOM     15 H54  QUI L   1       9.184  -7.593   4.811  1.00  0.00    +0.0625  H
ATOM     16 H55  QUI L   1      10.858  -6.618   3.250  1.00  0.00    +0.0645  H
ENDROOT
BRANCH 1 19
ATOM     17 C17  QUI L   1      13.608  -5.066   2.266  1.00  0.00    +0.2339  C
ATOM     18 O18  QUI L   1      14.202  -5.179   3.334  1.00  0.00    -0.2722 OA
ATOM     19 N19  QUI L   1      12.266  -4.742   2.112  1.00  0.00    -0.3256  N
ATOM     20 H49  QUI L   1      11.944  -4.618   1.159  1.00  0.00    +0.1686 HD
BRANCH 17 21
ATOM     21 C14  QUI L   1      14.313  -5.291   0.915  1.00  0.00    +0.0752  C
ATOM     22 H44  QUI L   1      15.272  -5.771   1.158  1.00  0.00    +0.0458  H
BRANCH 21 26
ATOM     23 C10  QUI L   1      12.031  -7.965  -1.643  1.00  0.00    -0.0103  A
ATOM     24 C11  QUI L   1      12.276  -8.291  -0.303  1.00  0.00    -0.0551  A
ATOM     25 C12  QUI L   1      13.006  -7.426   0.515  1.00  0.00    -0.0574  A
ATOM     26 C13  QUI L   1      13.510  -6.219   0.009  1.00  0.00    -0.0341  A
ATOM     27 C30  QUI L   1      13.281  -5.904  -1.339  1.00  0.00    -0.0574  A
ATOM     28 C31  QUI L   1      12.549  -6.770  -2.155  1.00  0.00    -0.0551  A
ATOM     29 H42  QUI L   1      11.910  -9.231   0.107  1.00  0.00    +0.0621  H
ATOM     30 H43  QUI L   1      13.196  -7.713   1.548  1.00  0.00    +0.0621  H
ATOM     31 H56  QUI L   1      13.673  -4.984  -1.770  1.00  0.00    +0.0621  H
ATOM     32 H57  QUI L   1      12.395  -6.510  -3.202  1.00  0.00    +0.0621  H
BRANCH 23 33
ATOM     33  C9  QUI L   1      11.268  -8.910  -2.534  1.00  0.00    +0.1179  C
ATOM     34 H40  QUI L   1      10.331  -9.240  -2.067  1.00  0.00    +0.0749  H
ATOM     35 H41  QUI L   1      11.858  -9.820  -2.696  1.00  0.00    +0.0749  H
BRANCH 33 36
ATOM     36  O8  QUI L   1      11.062  -8.299  -3.812  1.00  0.00    -0.4564 OA
BRANCH 36 37
ATOM     37  C6  QUI L   1      11.227  -9.112  -4.880  1.00  0.00    +0.3398  C
ATOM     38  O7  QUI L   1      12.219  -9.766  -5.156  1.00  0.00    -0.2449 OA
BRANCH 37 43
ATOM     39  C1  QUI L   1       6.150  -9.521  -7.634  1.00  0.00    -0.0397  C
ATOM     40  C2  QUI L   1       7.487  -9.431  -6.959  1.00  0.00    -0.0502  A
ATOM     41  C3  QUI L   1       7.716 -10.098  -5.752  1.00  0.00    -0.0580  A
ATOM     42  C4  QUI L   1       8.948  -9.980  -5.108  1.00  0.00    -0.0473  A
ATOM     43  C5  QUI L   1       9.964  -9.182  -5.655  1.00  0.00    +0.0619  A
ATOM     44 C32  QUI L   1       9.759  -8.518  -6.879  1.00  0.00    -0.0362  A
ATOM     45 C33  QUI L   1      10.816  -7.675  -7.536  1.00  0.00    -0.0389  C
ATOM     46 C34  QUI L   1       8.505  -8.636  -7.505  1.00  0.00    -0.0551  A
ATOM     47 H35  QUI L   1       5.667 -10.479  -7.420  1.00  0.00    +0.0278  H
ATOM     48 H36  QUI L   1       6.257  -9.448  -8.723  1.00  0.00    +0.0278  H
ATOM     49 H37  QUI L   1       5.500  -8.712  -7.287  1.00  0.00    +0.0278  H
ATOM     50 H38  QUI L   1       6.938 -10.712  -5.305  1.00  0.00    +0.0620  H
ATOM     51 H39  QUI L   1       9.112 -10.507  -4.170  1.00  0.00    +0.0626  H
ATOM     52 H58  QUI L   1      11.797  -8.158  -7.474  1.00  0.00    +0.0278  H
ATOM     53 H59  QUI L   1      10.859  -6.687  -7.069  1.00  0.00    +0.0278  H
ATOM     54 H60  QUI L   1      10.603  -7.537  -8.603  1.00  0.00    +0.0278  H
ATOM     55 H61  QUI L   1       8.319  -8.109  -8.441  1.00  0.00    +0.0623  H
ENDBRANCH 37 43
ENDBRANCH 36 37
ENDBRANCH 33 36
ENDBRANCH 23 33
ENDBRANCH 21 26
BRANCH 21 56
ATOM     56 C15  QUI L   1      14.617  -3.937   0.237  1.00  0.00    +0.0085  C
ATOM     57 N16  QUI L   1      14.810  -2.844   1.203  1.00  0.00    -0.3289 NA
ATOM     58 H45  QUI L   1      15.509  -4.010  -0.397  1.00  0.00    +0.0432  H
ATOM     59 H46  QUI L   1      13.782  -3.658  -0.418  1.00  0.00    +0.0432  H
ATOM     60 H47  QUI L   1      15.036  -1.992   0.689  1.00  0.00    +0.1182 HD
ATOM     61 H48  QUI L   1      15.635  -3.050   1.770  1.00  0.00    +0.1182 HD
ENDBRANCH 21 56
ENDBRANCH 17 21
ENDBRANCH 1 19
TORSDOF 8
ENDMDL
MODEL 6
REMARK VINA RESULT:    -7.305      2.822     10.837
REMARK INTER + INTRA:         -11.869
REMARK INTER:                  -9.894
REMARK INTRA:                  -1.976
REMARK UNBOUND:                -1.149
ROOT
ATOM      1 C20  QUI L   1      11.120  -8.755  -4.640  1.00  0.00    +0.0424  A
ATOM      2 C21  QUI L   1      10.033  -9.617  -4.747  1.00  0.00    -0.0363  A
ATOM      3 C22  QUI L   1       9.217  -9.590  -5.886  1.00  0.00    -0.0338  A
ATOM      4 C23  QUI L   1       9.455  -8.720  -6.938  1.00  0.00    +0.0711  A
ATOM      5 N24  QUI L   1       8.642  -8.735  -8.011  1.00  0.00    -0.2550 NA
ATOM      6 C25  QUI L   1       8.904  -7.872  -9.017  1.00  0.00    +0.0283  A
ATOM      7 C26  QUI L   1       9.957  -6.977  -9.010  1.00  0.00    -0.0430  A
ATOM      8 C27  QUI L   1      10.795  -6.965  -7.901  1.00  0.00    -0.0511  A
ATOM      9 C28  QUI L   1      10.555  -7.845  -6.837  1.00  0.00    +0.0023  A
ATOM     10 C29  QUI L   1      11.377  -7.870  -5.694  1.00  0.00    -0.0291  A
ATOM     11 H50  QUI L   1       9.784 -10.329  -3.966  1.00  0.00    +0.0639  H
ATOM     12 H51  QUI L   1       8.373 -10.272  -5.950  1.00  0.00    +0.0640  H
ATOM     13 H52  QUI L   1       8.218  -7.924  -9.858  1.00  0.00    +0.0830  H
ATOM     14 H53  QUI L   1      10.120  -6.306  -9.846  1.00  0.00    +0.0633  H
ATOM     15 H54  QUI L   1      11.629  -6.270  -7.872  1.00  0.00    +0.0625  H
ATOM     16 H55  QUI L   1      12.219  -7.185  -5.635  1.00  0.00    +0.0645  H
ENDROOT
BRANCH 1 19
ATOM     17 C17  QUI L   1      11.771  -8.131  -2.294  1.00  0.00    +0.2339  C
ATOM     18 O18  QUI L   1      10.763  -7.517  -1.961  1.00  0.00    -0.2722 OA
ATOM     19 N19  QUI L   1      11.994  -8.714  -3.535  1.00  0.00    -0.3256  N
ATOM     20 H49  QUI L   1      12.910  -9.126  -3.676  1.00  0.00    +0.1686 HD
BRANCH 17 21
ATOM     21 C14  QUI L   1      12.952  -8.342  -1.329  1.00  0.00    +0.0752  C
ATOM     22 H44  QUI L   1      13.814  -8.588  -1.967  1.00  0.00    +0.0458  H
BRANCH 21 26
ATOM     23 C10  QUI L   1      13.866  -4.721   0.895  1.00  0.00    -0.0103  A
ATOM     24 C11  QUI L   1      13.955  -4.745  -0.502  1.00  0.00    -0.0551  A
ATOM     25 C12  QUI L   1      13.656  -5.910  -1.212  1.00  0.00    -0.0574  A
ATOM     26 C13  QUI L   1      13.266  -7.077  -0.538  1.00  0.00    -0.0341  A
ATOM     27 C30  QUI L   1      13.197  -7.056   0.863  1.00  0.00    -0.0574  A
ATOM     28 C31  QUI L   1      13.495  -5.890   1.571  1.00  0.00    -0.0551  A
ATOM     29 H42  QUI L   1      14.273  -3.857  -1.045  1.00  0.00    +0.0621  H
ATOM     30 H43  QUI L   1      13.750  -5.905  -2.297  1.00  0.00    +0.0621  H
ATOM     31 H56  QUI L   1      12.916  -7.950   1.420  1.00  0.00    +0.0621  H
ATOM     32 H57  QUI L   1      13.447  -5.901   2.659  1.00  0.00    +0.0621  H
BRANCH 23 33
ATOM     33  C9  QUI L   1      14.215  -3.473   1.664  1.00  0.00    +0.1179  C
ATOM     34 H40  QUI L   1      13.681  -2.596   1.277  1.00  0.00    +0.0749  H
ATOM     35 H41  QUI L   1      15.282  -3.253   1.541  1.00  0.00    +0.0749  H
BRANCH 33 36
ATOM     36  O8  QUI L   1      13.979  -3.691   3.059  1.00  0.00    -0.4564 OA
BRANCH 36 37
ATOM     37  C6  QUI L   1      13.033  -2.903   3.620  1.00  0.00    +0.3398  C
ATOM     38  O7  QUI L   1      13.027  -1.684   3.661  1.00  0.00    -0.2449 OA
BRANCH 37 43
ATOM     39  C1  QUI L   1       8.533  -6.156   5.260  1.00  0.00    -0.0397  C
ATOM     40  C2  QUI L   1       9.695  -5.289   4.874  1.00  0.00    -0.0502  A
ATOM     41  C3  QUI L   1       9.683  -4.585   3.667  1.00  0.00    -0.0580  A
ATOM     42  C4  QUI L   1      10.782  -3.810   3.295  1.00  0.00    -0.0473  A
ATOM     43  C5  QUI L   1      11.916  -3.741   4.119  1.00  0.00    +0.0619  A
ATOM     44 C32  QUI L   1      11.939  -4.427   5.347  1.00  0.00    -0.0362  A
ATOM     45 C33  QUI L   1      13.108  -4.368   6.292  1.00  0.00    -0.0389  C
ATOM     46 C34  QUI L   1      10.828  -5.216   5.698  1.00  0.00    -0.0551  A
ATOM     47 H35  QUI L   1       7.599  -5.765   4.846  1.00  0.00    +0.0278  H
ATOM     48 H36  QUI L   1       8.416  -6.191   6.349  1.00  0.00    +0.0278  H
ATOM     49 H37  QUI L   1       8.686  -7.174   4.887  1.00  0.00    +0.0278  H
ATOM     50 H38  QUI L   1       8.819  -4.635   3.009  1.00  0.00    +0.0620  H
ATOM     51 H39  QUI L   1      10.757  -3.266   2.353  1.00  0.00    +0.0626  H
ATOM     52 H58  QUI L   1      13.499  -3.348   6.368  1.00  0.00    +0.0278  H
ATOM     53 H59  QUI L   1      13.900  -5.045   5.959  1.00  0.00    +0.0278  H
ATOM     54 H60  QUI L   1      12.811  -4.665   7.304  1.00  0.00    +0.0278  H
ATOM     55 H61  QUI L   1      10.840  -5.775   6.633  1.00  0.00    +0.0623  H
ENDBRANCH 37 43
ENDBRANCH 36 37
ENDBRANCH 33 36
ENDBRANCH 23 33
ENDBRANCH 21 26
BRANCH 21 56
ATOM     56 C15  QUI L   1      12.682  -9.552  -0.408  1.00  0.00    +0.0085  C
ATOM     57 N16  QUI L   1      11.491 -10.318  -0.805  1.00  0.00    -0.3289 NA
ATOM     58 H45  QUI L   1      13.546 -10.227  -0.386  1.00  0.00    +0.0432  H
ATOM     59 H46  QUI L   1      12.526  -9.203   0.621  1.00  0.00    +0.0432  H
ATOM     60 H47  QUI L   1      11.392 -11.115  -0.174  1.00  0.00    +0.1182 HD
ATOM     61 H48  QUI L   1      11.652 -10.720  -1.730  1.00  0.00    +0.1182 HD
ENDBRANCH 21 56
ENDBRANCH 17 21
ENDBRANCH 1 19
TORSDOF 8
ENDMDL
MODEL 7
REMARK VINA RESULT:    -7.294      2.894     11.198
REMARK INTER + INTRA:         -11.854
REMARK INTER:                 -10.779
REMARK INTRA:                  -1.075
REMARK UNBOUND:                -1.149
ROOT
ATOM      1 C20  QUI L   1       8.997  -9.508  -6.120  1.00  0.00    +0.0424  A
ATOM      2 C21  QUI L   1       7.674  -9.692  -5.731  1.00  0.00    -0.0363  A
ATOM      3 C22  QUI L   1       6.641  -9.611  -6.675  1.00  0.00    -0.0338  A
ATOM      4 C23  QUI L   1       6.888  -9.350  -8.013  1.00  0.00    +0.0711  A
ATOM      5 N24  QUI L   1       5.861  -9.283  -8.880  1.00  0.00    -0.2550 NA
ATOM      6 C25  QUI L   1       6.140  -9.025 -10.177  1.00  0.00    +0.0283  A
ATOM      7 C26  QUI L   1       7.418  -8.829 -10.665  1.00  0.00    -0.0430  A
ATOM      8 C27  QUI L   1       8.477  -8.899  -9.768  1.00  0.00    -0.0511  A
ATOM      9 C28  QUI L   1       8.227  -9.164  -8.414  1.00  0.00    +0.0023  A
ATOM     10 C29  QUI L   1       9.268  -9.245  -7.468  1.00  0.00    -0.0291  A
ATOM     11 H50  QUI L   1       7.401  -9.903  -4.702  1.00  0.00    +0.0639  H
ATOM     12 H51  QUI L   1       5.613  -9.758  -6.351  1.00  0.00    +0.0640  H
ATOM     13 H52  QUI L   1       5.276  -8.981 -10.833  1.00  0.00    +0.0830  H
ATOM     14 H53  QUI L   1       7.584  -8.625 -11.716  1.00  0.00    +0.0633  H
ATOM     15 H54  QUI L   1       9.490  -8.747 -10.127  1.00  0.00    +0.0625  H
ATOM     16 H55  QUI L   1      10.293  -9.097  -7.798  1.00  0.00    +0.0645  H
ENDROOT
BRANCH 1 19
ATOM     17 C17  QUI L   1      11.110  -8.639  -5.074  1.00  0.00    +0.2339  C
ATOM     18 O18  QUI L   1      11.228  -7.589  -5.698  1.00  0.00    -0.2722 OA
ATOM     19 N19  QUI L   1      10.098  -9.575  -5.243  1.00  0.00    -0.3256  N
ATOM     20 H49  QUI L   1      10.183 -10.425  -4.698  1.00  0.00    +0.1686 HD
BRANCH 17 21
ATOM     21 C14  QUI L   1      12.110  -9.051  -3.979  1.00  0.00    +0.0752  C
ATOM     22 H44  QUI L   1      13.098  -9.047  -4.463  1.00  0.00    +0.0458  H
BRANCH 21 26
ATOM     23 C10  QUI L   1      12.180  -6.208  -0.691  1.00  0.00    -0.0103  A
ATOM     24 C11  QUI L   1      13.207  -6.228  -1.643  1.00  0.00    -0.0551  A
ATOM     25 C12  QUI L   1      13.178  -7.141  -2.699  1.00  0.00    -0.0574  A
ATOM     26 C13  QUI L   1      12.122  -8.056  -2.823  1.00  0.00    -0.0341  A
ATOM     27 C30  QUI L   1      11.105  -8.048  -1.857  1.00  0.00    -0.0574  A
ATOM     28 C31  QUI L   1      11.136  -7.133  -0.802  1.00  0.00    -0.0551  A
ATOM     29 H42  QUI L   1      14.046  -5.539  -1.557  1.00  0.00    +0.0621  H
ATOM     30 H43  QUI L   1      13.997  -7.145  -3.416  1.00  0.00    +0.0621  H
ATOM     31 H56  QUI L   1      10.279  -8.757  -1.911  1.00  0.00    +0.0621  H
ATOM     32 H57  QUI L   1      10.341  -7.154  -0.056  1.00  0.00    +0.0621  H
BRANCH 23 33
ATOM     33  C9  QUI L   1      12.226  -5.243   0.465  1.00  0.00    +0.1179  C
ATOM     34 H40  QUI L   1      12.338  -4.206   0.123  1.00  0.00    +0.0749  H
ATOM     35 H41  QUI L   1      13.107  -5.451   1.083  1.00  0.00    +0.0749  H
BRANCH 33 36
ATOM     36  O8  QUI L   1      11.069  -5.431   1.288  1.00  0.00    -0.4564 OA
BRANCH 36 37
ATOM     37  C6  QUI L   1      11.319  -5.740   2.581  1.00  0.00    +0.3398  C
ATOM     38  O7  QUI L   1      12.029  -6.642   2.994  1.00  0.00    -0.2449 OA
BRANCH 37 43
ATOM     39  C1  QUI L   1       9.005  -1.637   5.949  1.00  0.00    -0.0397  C
ATOM     40  C2  QUI L   1       9.600  -2.731   5.111  1.00  0.00    -0.0502  A
ATOM     41  C3  QUI L   1      10.868  -2.578   4.545  1.00  0.00    -0.0580  A
ATOM     42  C4  QUI L   1      11.401  -3.581   3.735  1.00  0.00    -0.0473  A
ATOM     43  C5  QUI L   1      10.666  -4.746   3.468  1.00  0.00    +0.0619  A
ATOM     44 C32  QUI L   1       9.395  -4.927   4.045  1.00  0.00    -0.0362  A
ATOM     45 C33  QUI L   1       8.570  -6.165   3.827  1.00  0.00    -0.0389  C
ATOM     46 C34  QUI L   1       8.868  -3.898   4.845  1.00  0.00    -0.0551  A
ATOM     47 H35  QUI L   1       9.786  -1.069   6.463  1.00  0.00    +0.0278  H
ATOM     48 H36  QUI L   1       8.344  -2.052   6.719  1.00  0.00    +0.0278  H
ATOM     49 H37  QUI L   1       8.429  -0.954   5.317  1.00  0.00    +0.0278  H
ATOM     50 H38  QUI L   1      11.449  -1.678   4.730  1.00  0.00    +0.0620  H
ATOM     51 H39  QUI L   1      12.391  -3.449   3.303  1.00  0.00    +0.0626  H
ATOM     52 H58  QUI L   1       9.192  -7.065   3.879  1.00  0.00    +0.0278  H
ATOM     53 H59  QUI L   1       8.065  -6.119   2.857  1.00  0.00    +0.0278  H
ATOM     54 H60  QUI L   1       7.804  -6.269   4.604  1.00  0.00    +0.0278  H
ATOM     55 H61  QUI L   1       7.874  -4.009   5.279  1.00  0.00    +0.0623  H
ENDBRANCH 37 43
ENDBRANCH 36 37
ENDBRANCH 33 36
ENDBRANCH 23 33
ENDBRANCH 21 26
BRANCH 21 56
ATOM     56 C15  QUI L   1      11.821 -10.491  -3.502  1.00  0.00    +0.0085  C
ATOM     57 N16  QUI L   1      12.234 -11.511  -4.479  1.00  0.00    -0.3289 NA
ATOM     58 H45  QUI L   1      12.320 -10.695  -2.547  1.00  0.00    +0.0432  H
ATOM     59 H46  QUI L   1      10.744 -10.613  -3.331  1.00  0.00    +0.0432  H
ATOM     60 H47  QUI L   1      12.042 -12.434  -4.087  1.00  0.00    +0.1182 HD
ATOM     61 H48  QUI L   1      13.249 -11.467  -4.590  1.00  0.00    +0.1182 HD
ENDBRANCH 21 56
ENDBRANCH 17 21
ENDBRANCH 1 19
TORSDOF 8
ENDMDL
MODEL 8
REMARK VINA RESULT:    -7.271      2.557      4.380
REMARK INTER + INTRA:         -11.820
REMARK INTER:                  -9.479
REMARK INTRA:                  -2.341
REMARK UNBOUND:                -1.149
ROOT
ATOM      1 C20  QUI L   1      11.840  -7.899  -1.909  1.00  0.00    +0.0424  A
ATOM      2 C21  QUI L   1      10.995  -7.035  -1.219  1.00  0.00    -0.0363  A
ATOM      3 C22  QUI L   1      11.517  -5.922  -0.545  1.00  0.00    -0.0338  A
ATOM      4 C23  QUI L   1      12.874  -5.638  -0.539  1.00  0.00    +0.0711  A
ATOM      5 N24  QUI L   1      13.325  -4.557   0.122  1.00  0.00    -0.2550 NA
ATOM      6 C25  QUI L   1      14.654  -4.312   0.107  1.00  0.00    +0.0283  A
ATOM      7 C26  QUI L   1      15.576  -5.106  -0.549  1.00  0.00    -0.0430  A
ATOM      8 C27  QUI L   1      15.107  -6.222  -1.231  1.00  0.00    -0.0511  A
ATOM      9 C28  QUI L   1      13.735  -6.509  -1.238  1.00  0.00    +0.0023  A
ATOM     10 C29  QUI L   1      13.213  -7.628  -1.916  1.00  0.00    -0.0291  A
ATOM     11 H50  QUI L   1       9.922  -7.189  -1.180  1.00  0.00    +0.0639  H
ATOM     12 H51  QUI L   1      10.841  -5.259  -0.011  1.00  0.00    +0.0640  H
ATOM     13 H52  QUI L   1      14.965  -3.429   0.656  1.00  0.00    +0.0830  H
ATOM     14 H53  QUI L   1      16.632  -4.862  -0.527  1.00  0.00    +0.0633  H
ATOM     15 H54  QUI L   1      15.812  -6.861  -1.754  1.00  0.00    +0.0625  H
ATOM     16 H55  QUI L   1      13.894  -8.287  -2.447  1.00  0.00    +0.0645  H
ENDROOT
BRANCH 1 19
ATOM     17 C17  QUI L   1      11.078  -9.130  -3.963  1.00  0.00    +0.2339  C
ATOM     18 O18  QUI L   1      11.091  -8.205  -4.770  1.00  0.00    -0.2722 OA
ATOM     19 N19  QUI L   1      11.403  -9.037  -2.616  1.00  0.00    -0.3256  N
ATOM     20 H49  QUI L   1      11.274  -9.880  -2.068  1.00  0.00    +0.1686 HD
BRANCH 17 21
ATOM     21 C14  QUI L   1      10.691 -10.563  -4.374  1.00  0.00    +0.0752  C
ATOM     22 H44  QUI L   1      10.348 -11.052  -3.450  1.00  0.00    +0.0458  H
BRANCH 21 26
ATOM     23 C10  QUI L   1       7.425 -10.575  -7.243  1.00  0.00    -0.0103  A
ATOM     24 C11  QUI L   1       7.278  -9.961  -5.993  1.00  0.00    -0.0551  A
ATOM     25 C12  QUI L   1       8.333  -9.957  -5.076  1.00  0.00    -0.0574  A
ATOM     26 C13  QUI L   1       9.554 -10.570  -5.390  1.00  0.00    -0.0341  A
ATOM     27 C30  QUI L   1       9.692 -11.202  -6.635  1.00  0.00    -0.0574  A
ATOM     28 C31  QUI L   1       8.637 -11.204  -7.550  1.00  0.00    -0.0551  A
ATOM     29 H42  QUI L   1       6.334  -9.494  -5.720  1.00  0.00    +0.0621  H
ATOM     30 H43  QUI L   1       8.185  -9.486  -4.106  1.00  0.00    +0.0621  H
ATOM     31 H56  QUI L   1      10.621 -11.704  -6.904  1.00  0.00    +0.0621  H
ATOM     32 H57  QUI L   1       8.764 -11.712  -8.506  1.00  0.00    +0.0621  H
BRANCH 23 33
ATOM     33  C9  QUI L   1       6.280 -10.605  -8.221  1.00  0.00    +0.1179  C
ATOM     34 H40  QUI L   1       5.450  -9.967  -7.892  1.00  0.00    +0.0749  H
ATOM     35 H41  QUI L   1       5.872 -11.621  -8.277  1.00  0.00    +0.0749  H
BRANCH 33 36
ATOM     36  O8  QUI L   1       6.758 -10.260  -9.525  1.00  0.00    -0.4564 OA
BRANCH 36 37
ATOM     37  C6  QUI L   1       6.780  -8.937  -9.806  1.00  0.00    +0.3398  C
ATOM     38  O7  QUI L   1       5.915  -8.119  -9.542  1.00  0.00    -0.2449 OA
BRANCH 37 43
ATOM     39  C1  QUI L   1      11.723  -7.589 -12.503  1.00  0.00    -0.0397  C
ATOM     40  C2  QUI L   1      10.466  -7.964 -11.773  1.00  0.00    -0.0502  A
ATOM     41  C3  QUI L   1       9.414  -8.584 -12.451  1.00  0.00    -0.0580  A
ATOM     42  C4  QUI L   1       8.232  -8.895 -11.777  1.00  0.00    -0.0473  A
ATOM     43  C5  QUI L   1       8.082  -8.578 -10.419  1.00  0.00    +0.0619  A
ATOM     44 C32  QUI L   1       9.139  -7.971  -9.714  1.00  0.00    -0.0362  A
ATOM     45 C33  QUI L   1       9.056  -7.635  -8.251  1.00  0.00    -0.0389  C
ATOM     46 C34  QUI L   1      10.316  -7.650 -10.414  1.00  0.00    -0.0551  A
ATOM     47 H35  QUI L   1      11.915  -8.277 -13.331  1.00  0.00    +0.0278  H
ATOM     48 H36  QUI L   1      12.591  -7.636 -11.834  1.00  0.00    +0.0278  H
ATOM     49 H37  QUI L   1      11.636  -6.573 -12.900  1.00  0.00    +0.0278  H
ATOM     50 H38  QUI L   1       9.505  -8.827 -13.507  1.00  0.00    +0.0620  H
ATOM     51 H39  QUI L   1       7.421  -9.380 -12.318  1.00  0.00    +0.0626  H
ATOM     52 H58  QUI L   1       8.581  -8.446  -7.689  1.00  0.00    +0.0278  H
ATOM     53 H59  QUI L   1       8.496  -6.707  -8.106  1.00  0.00    +0.0278  H
ATOM     54 H60  QUI L   1      10.055  -7.500  -7.821  1.00  0.00    +0.0278  H
ATOM     55 H61  QUI L   1      11.134  -7.156  -9.891  1.00  0.00    +0.0623  H
ENDBRANCH 37 43
ENDBRANCH 36 37
ENDBRANCH 33 36
ENDBRANCH 23 33
ENDBRANCH 21 26
BRANCH 21 56
ATOM     56 C15  QUI L   1      11.932 -11.327  -4.884  1.00  0.00    +0.0085  C
ATOM     57 N16  QUI L   1      13.161 -10.520  -4.837  1.00  0.00    -0.3289 NA
ATOM     58 H45  QUI L   1      12.090 -12.246  -4.306  1.00  0.00    +0.0432  H
ATOM     59 H46  QUI L   1      11.774 -11.631  -5.927  1.00  0.00    +0.0432  H
ATOM     60 H47  QUI L   1      13.941 -11.096  -5.158  1.00  0.00    +0.1182 HD
ATOM     61 H48  QUI L   1      13.369 -10.297  -3.861  1.00  0.00    +0.1182 HD
ENDBRANCH 21 56
ENDBRANCH 17 21
ENDBRANCH 1 19
TORSDOF 8
ENDMDL
MODEL 9
REMARK VINA RESULT:    -7.240      2.058      3.291
REMARK INTER + INTRA:         -11.774
REMARK INTER:                 -10.569
REMARK INTRA:                  -1.205
REMARK UNBOUND:                -1.149
ROOT
ATOM      1 C20  QUI L   1      11.565  -5.107   2.771  1.00  0.00    +0.0424  A
ATOM      2 C21  QUI L   1      11.742  -3.766   3.097  1.00  0.00    -0.0363  A
ATOM      3 C22  QUI L   1      10.993  -3.183   4.128  1.00  0.00    -0.0338  A
ATOM      4 C23  QUI L   1      10.059  -3.906   4.856  1.00  0.00    +0.0711  A
ATOM      5 N24  QUI L   1       9.366  -3.300   5.836  1.00  0.00    -0.2550 NA
ATOM      6 C25  QUI L   1       8.464  -4.035   6.523  1.00  0.00    +0.0283  A
ATOM      7 C26  QUI L   1       8.213  -5.372   6.279  1.00  0.00    -0.0430  A
ATOM      8 C27  QUI L   1       8.932  -5.995   5.265  1.00  0.00    -0.0511  A
ATOM      9 C28  QUI L   1       9.876  -5.265   4.530  1.00  0.00    +0.0023  A
ATOM     10 C29  QUI L   1      10.629  -5.853   3.495  1.00  0.00    -0.0291  A
ATOM     11 H50  QUI L   1      12.456  -3.136   2.576  1.00  0.00    +0.0639  H
ATOM     12 H51  QUI L   1      11.146  -2.134   4.368  1.00  0.00    +0.0640  H
ATOM     13 H52  QUI L   1       7.931  -3.499   7.303  1.00  0.00    +0.0830  H
ATOM     14 H53  QUI L   1       7.477  -5.913   6.861  1.00  0.00    +0.0633  H
ATOM     15 H54  QUI L   1       8.752  -7.045   5.054  1.00  0.00    +0.0625  H
ATOM     16 H55  QUI L   1      10.470  -6.902   3.259  1.00  0.00    +0.0645  H
ENDROOT
BRANCH 1 19
ATOM     17 C17  QUI L   1      11.839  -6.083   0.471  1.00  0.00    +0.2339  C
ATOM     18 O18  QUI L   1      10.726  -5.842   0.015  1.00  0.00    -0.2722 OA
ATOM     19 N19  QUI L   1      12.276  -5.775   1.754  1.00  0.00    -0.3256  N
ATOM     20 H49  QUI L   1      13.202  -6.105   2.000  1.00  0.00    +0.1686 HD
BRANCH 17 21
ATOM     21 C14  QUI L   1      12.929  -6.777  -0.366  1.00  0.00    +0.0752  C
ATOM     22 H44  QUI L   1      13.555  -7.321   0.357  1.00  0.00    +0.0458  H
BRANCH 21 26
ATOM     23 C10  QUI L   1      11.226  -9.590  -3.208  1.00  0.00    -0.0103  A
ATOM     24 C11  QUI L   1      11.820  -8.401  -3.647  1.00  0.00    -0.0551  A
ATOM     25 C12  QUI L   1      12.370  -7.502  -2.729  1.00  0.00    -0.0574  A
ATOM     26 C13  QUI L   1      12.332  -7.774  -1.354  1.00  0.00    -0.0341  A
ATOM     27 C30  QUI L   1      11.718  -8.956  -0.916  1.00  0.00    -0.0574  A
ATOM     28 C31  QUI L   1      11.170  -9.854  -1.835  1.00  0.00    -0.0551  A
ATOM     29 H42  QUI L   1      11.846  -8.161  -4.708  1.00  0.00    +0.0621  H
ATOM     30 H43  QUI L   1      12.811  -6.577  -3.097  1.00  0.00    +0.0621  H
ATOM     31 H56  QUI L   1      11.654  -9.190   0.147  1.00  0.00    +0.0621  H
ATOM     32 H57  QUI L   1      10.687 -10.760  -1.470  1.00  0.00    +0.0621  H
BRANCH 23 33
ATOM     33  C9  QUI L   1      10.607 -10.547  -4.195  1.00  0.00    +0.1179  C
ATOM     34 H40  QUI L   1       9.766 -11.095  -3.753  1.00  0.00    +0.0749  H
ATOM     35 H41  QUI L   1      11.343 -11.307  -4.480  1.00  0.00    +0.0749  H
BRANCH 33 36
ATOM     36  O8  QUI L   1      10.241  -9.836  -5.382  1.00  0.00    -0.4564 OA
BRANCH 36 37
ATOM     37  C6  QUI L   1       8.925  -9.547  -5.505  1.00  0.00    +0.3398  C
ATOM     38  O7  QUI L   1       8.097  -9.512  -4.610  1.00  0.00    -0.2449 OA
BRANCH 37 43
ATOM     39  C1  QUI L   1       8.072  -8.004 -11.020  1.00  0.00    -0.0397  C
ATOM     40  C2  QUI L   1       8.253  -8.383  -9.579  1.00  0.00    -0.0502  A
ATOM     41  C3  QUI L   1       9.415  -8.018  -8.893  1.00  0.00    -0.0580  A
ATOM     42  C4  QUI L   1       9.596  -8.405  -7.565  1.00  0.00    -0.0473  A
ATOM     43  C5  QUI L   1       8.624  -9.176  -6.909  1.00  0.00    +0.0619  A
ATOM     44 C32  QUI L   1       7.439  -9.536  -7.578  1.00  0.00    -0.0362  A
ATOM     45 C33  QUI L   1       6.344 -10.331  -6.923  1.00  0.00    -0.0389  C
ATOM     46 C34  QUI L   1       7.282  -9.150  -8.921  1.00  0.00    -0.0551  A
ATOM     47 H35  QUI L   1       8.589  -7.066 -11.246  1.00  0.00    +0.0278  H
ATOM     48 H36  QUI L   1       7.012  -7.855 -11.254  1.00  0.00    +0.0278  H
ATOM     49 H37  QUI L   1       8.471  -8.792 -11.667  1.00  0.00    +0.0278  H
ATOM     50 H38  QUI L   1      10.186  -7.431  -9.387  1.00  0.00    +0.0620  H
ATOM     51 H39  QUI L   1      10.505  -8.112  -7.043  1.00  0.00    +0.0626  H
ATOM     52 H58  QUI L   1       6.165  -9.984  -5.900  1.00  0.00    +0.0278  H
ATOM     53 H59  QUI L   1       6.599 -11.395  -6.914  1.00  0.00    +0.0278  H
ATOM     54 H60  QUI L   1       5.396 -10.215  -7.462  1.00  0.00    +0.0278  H
ATOM     55 H61  QUI L   1       6.382  -9.443  -9.462  1.00  0.00    +0.0623  H
ENDBRANCH 37 43
ENDBRANCH 36 37
ENDBRANCH 33 36
ENDBRANCH 23 33
ENDBRANCH 21 26
BRANCH 21 56
ATOM     56 C15  QUI L   1      13.818  -5.726  -1.066  1.00  0.00    +0.0085  C
ATOM     57 N16  QUI L   1      13.370  -4.345  -0.824  1.00  0.00    -0.3289 NA
ATOM     58 H45  QUI L   1      14.862  -5.820  -0.745  1.00  0.00    +0.0432  H
ATOM     59 H46  QUI L   1      13.802  -5.895  -2.150  1.00  0.00    +0.0432  H
ATOM     60 H47  QUI L   1      14.017  -3.707  -1.289  1.00  0.00    +0.1182 HD
ATOM     61 H48  QUI L   1      13.455  -4.143   0.174  1.00  0.00    +0.1182 HD
ENDBRANCH 21 56
ENDBRANCH 17 21
ENDBRANCH 1 19
TORSDOF 8
ENDMDL
MODEL 10
REMARK VINA RESULT:    -7.177      3.037     11.129
REMARK INTER + INTRA:         -11.682
REMARK INTER:                 -11.314
REMARK INTRA:                  -0.368
REMARK UNBOUND:                -1.149
ROOT
ATOM      1 C20  QUI L   1      10.462  -8.161  -6.869  1.00  0.00    +0.0424  A
ATOM      2 C21  QUI L   1      10.611  -7.409  -8.030  1.00  0.00    -0.0363  A
ATOM      3 C22  QUI L   1       9.620  -7.433  -9.021  1.00  0.00    -0.0338  A
ATOM      4 C23  QUI L   1       8.468  -8.192  -8.888  1.00  0.00    +0.0711  A
ATOM      5 N24  QUI L   1       7.546  -8.180  -9.868  1.00  0.00    -0.2550 NA
ATOM      6 C25  QUI L   1       6.435  -8.933  -9.704  1.00  0.00    +0.0283  A
ATOM      7 C26  QUI L   1       6.191  -9.713  -8.590  1.00  0.00    -0.0430  A
ATOM      8 C27  QUI L   1       7.145  -9.723  -7.580  1.00  0.00    -0.0511  A
ATOM      9 C28  QUI L   1       8.310  -8.955  -7.713  1.00  0.00    +0.0023  A
ATOM     10 C29  QUI L   1       9.304  -8.933  -6.715  1.00  0.00    -0.0291  A
ATOM     11 H50  QUI L   1      11.483  -6.788  -8.205  1.00  0.00    +0.0639  H
ATOM     12 H51  QUI L   1       9.755  -6.838  -9.921  1.00  0.00    +0.0640  H
ATOM     13 H52  QUI L   1       5.724  -8.888 -10.524  1.00  0.00    +0.0830  H
ATOM     14 H53  QUI L   1       5.283 -10.298  -8.512  1.00  0.00    +0.0633  H
ATOM     15 H54  QUI L   1       6.976 -10.328  -6.694  1.00  0.00    +0.0625  H
ATOM     16 H55  QUI L   1       9.164  -9.530  -5.818  1.00  0.00    +0.0645  H
ENDROOT
BRANCH 1 19
ATOM     17 C17  QUI L   1      11.213  -8.645  -4.520  1.00  0.00    +0.2339  C
ATOM     18 O18  QUI L   1      10.160  -9.069  -4.054  1.00  0.00    -0.2722 OA
ATOM     19 N19  QUI L   1      11.404  -8.195  -5.820  1.00  0.00    -0.3256  N
ATOM     20 H49  QUI L   1      12.317  -7.809  -6.029  1.00  0.00    +0.1686 HD
BRANCH 17 21
ATOM     21 C14  QUI L   1      12.502  -8.568  -3.681  1.00  0.00    +0.0752  C
ATOM     22 H44  QUI L   1      13.261  -8.130  -4.346  1.00  0.00    +0.0458  H
BRANCH 21 26
ATOM     23 C10  QUI L   1      11.973  -6.009  -0.207  1.00  0.00    -0.0103  A
ATOM     24 C11  QUI L   1      11.111  -7.086  -0.441  1.00  0.00    -0.0551  A
ATOM     25 C12  QUI L   1      11.287  -7.908  -1.557  1.00  0.00    -0.0574  A
ATOM     26 C13  QUI L   1      12.329  -7.666  -2.464  1.00  0.00    -0.0341  A
ATOM     27 C30  QUI L   1      13.180  -6.573  -2.239  1.00  0.00    -0.0574  A
ATOM     28 C31  QUI L   1      13.002  -5.753  -1.122  1.00  0.00    -0.0551  A
ATOM     29 H42  QUI L   1      10.284  -7.283   0.240  1.00  0.00    +0.0621  H
ATOM     30 H43  QUI L   1      10.592  -8.729  -1.722  1.00  0.00    +0.0621  H
ATOM     31 H56  QUI L   1      13.988  -6.344  -2.933  1.00  0.00    +0.0621  H
ATOM     32 H57  QUI L   1      13.667  -4.903  -0.975  1.00  0.00    +0.0621  H
BRANCH 23 33
ATOM     33  C9  QUI L   1      11.766  -5.105   0.980  1.00  0.00    +0.1179  C
ATOM     34 H40  QUI L   1      11.506  -4.084   0.671  1.00  0.00    +0.0749  H
ATOM     35 H41  QUI L   1      12.702  -5.017   1.542  1.00  0.00    +0.0749  H
BRANCH 33 36
ATOM     36  O8  QUI L   1      10.791  -5.682   1.854  1.00  0.00    -0.4564 OA
BRANCH 36 37
ATOM     37  C6  QUI L   1      11.170  -5.808   3.147  1.00  0.00    +0.3398  C
ATOM     38  O7  QUI L   1      11.993  -6.590   3.595  1.00  0.00    -0.2449 OA
BRANCH 37 43
ATOM     39  C1  QUI L   1       8.740  -1.531   6.200  1.00  0.00    -0.0397  C
ATOM     40  C2  QUI L   1       9.373  -2.665   5.448  1.00  0.00    -0.0502  A
ATOM     41  C3  QUI L   1      10.538  -2.457   4.705  1.00  0.00    -0.0580  A
ATOM     42  C4  QUI L   1      11.102  -3.505   3.976  1.00  0.00    -0.0473  A
ATOM     43  C5  QUI L   1      10.499  -4.772   3.968  1.00  0.00    +0.0619  A
ATOM     44 C32  QUI L   1       9.335  -5.005   4.725  1.00  0.00    -0.0362  A
ATOM     45 C33  QUI L   1       8.659  -6.346   4.787  1.00  0.00    -0.0389  C
ATOM     46 C34  QUI L   1       8.773  -3.932   5.441  1.00  0.00    -0.0551  A
ATOM     47 H35  QUI L   1       9.494  -0.808   6.526  1.00  0.00    +0.0278  H
ATOM     48 H36  QUI L   1       8.230  -1.895   7.099  1.00  0.00    +0.0278  H
ATOM     49 H37  QUI L   1       8.013  -1.019   5.562  1.00  0.00    +0.0278  H
ATOM     50 H38  QUI L   1      11.015  -1.480   4.688  1.00  0.00    +0.0620  H
ATOM     51 H39  QUI L   1      12.011  -3.329   3.405  1.00  0.00    +0.0626  H
ATOM     52 H58  QUI L   1       9.394  -7.152   4.879  1.00  0.00    +0.0278  H
ATOM     53 H59  QUI L   1       8.045  -6.504   3.895  1.00  0.00    +0.0278  H
ATOM     54 H60  QUI L   1       8.006  -6.417   5.665  1.00  0.00    +0.0278  H
ATOM     55 H61  QUI L   1       7.858  -4.088   6.012  1.00  0.00    +0.0623  H
ENDBRANCH 37 43
ENDBRANCH 36 37
ENDBRANCH 33 36
ENDBRANCH 23 33
ENDBRANCH 21 26
BRANCH 21 56
ATOM     56 C15  QUI L   1      12.973  -9.986  -3.291  1.00  0.00    +0.0085  C
ATOM     57 N16  QUI L   1      12.382 -11.038  -4.133  1.00  0.00    -0.3289 NA
ATOM     58 H45  QUI L   1      14.066 -10.063  -3.345  1.00  0.00    +0.0432  H
ATOM     59 H46  QUI L   1      12.691 -10.195  -2.251  1.00  0.00    +0.0432  H
ATOM     60 H47  QUI L   1      12.759 -11.940  -3.840  1.00  0.00    +0.1182 HD
ATOM     61 H48  QUI L   1      12.701 -10.906  -5.095  1.00  0.00    +0.1182 HD
ENDBRANCH 21 56
ENDBRANCH 17 21
ENDBRANCH 1 19
TORSDOF 8
ENDMDL
MODEL 11
REMARK VINA RESULT:    -7.134      2.798     10.713
REMARK INTER + INTRA:         -11.619
REMARK INTER:                  -9.712
REMARK INTRA:                  -1.908
REMARK UNBOUND:                -1.149
ROOT
ATOM      1 C20  QUI L   1      11.101  -8.744  -4.707  1.00  0.00    +0.0424  A
ATOM      2 C21  QUI L   1      11.266  -8.029  -5.889  1.00  0.00    -0.0363  A
ATOM      3 C22  QUI L   1      10.302  -8.105  -6.903  1.00  0.00    -0.0338  A
ATOM      4 C23  QUI L   1       9.160  -8.881  -6.773  1.00  0.00    +0.0711  A
ATOM      5 N24  QUI L   1       8.264  -8.919  -7.775  1.00  0.00    -0.2550 NA
ATOM      6 C25  QUI L   1       7.163  -9.686  -7.614  1.00  0.00    +0.0283  A
ATOM      7 C26  QUI L   1       6.905 -10.433  -6.481  1.00  0.00    -0.0430  A
ATOM      8 C27  QUI L   1       7.833 -10.392  -5.447  1.00  0.00    -0.0511  A
ATOM      9 C28  QUI L   1       8.986  -9.606  -5.577  1.00  0.00    +0.0023  A
ATOM     10 C29  QUI L   1       9.954  -9.532  -4.556  1.00  0.00    -0.0291  A
ATOM     11 H50  QUI L   1      12.132  -7.398  -6.063  1.00  0.00    +0.0639  H
ATOM     12 H51  QUI L   1      10.449  -7.538  -7.819  1.00  0.00    +0.0640  H
ATOM     13 H52  QUI L   1       6.473  -9.682  -8.452  1.00  0.00    +0.0830  H
ATOM     14 H53  QUI L   1       6.005 -11.033  -6.405  1.00  0.00    +0.0633  H
ATOM     15 H54  QUI L   1       7.652 -10.970  -4.546  1.00  0.00    +0.0625  H
ATOM     16 H55  QUI L   1       9.802 -10.102  -3.643  1.00  0.00    +0.0645  H
ENDROOT
BRANCH 1 19
ATOM     17 C17  QUI L   1      11.886  -8.072  -2.416  1.00  0.00    +0.2339  C
ATOM     18 O18  QUI L   1      10.942  -7.364  -2.079  1.00  0.00    -0.2722 OA
ATOM     19 N19  QUI L   1      12.016  -8.726  -3.635  1.00  0.00    -0.3256  N
ATOM     20 H49  QUI L   1      12.890  -9.216  -3.786  1.00  0.00    +0.1686 HD
BRANCH 17 21
ATOM     21 C14  QUI L   1      13.081  -8.335  -1.482  1.00  0.00    +0.0752  C
ATOM     22 H44  QUI L   1      13.926  -8.574  -2.143  1.00  0.00    +0.0458  H
BRANCH 21 26
ATOM     23 C10  QUI L   1      14.066  -4.837   0.904  1.00  0.00    -0.0103  A
ATOM     24 C11  QUI L   1      13.753  -6.057   1.516  1.00  0.00    -0.0551  A
ATOM     25 C12  QUI L   1      13.441  -7.179   0.745  1.00  0.00    -0.0574  A
ATOM     26 C13  QUI L   1      13.432  -7.102  -0.655  1.00  0.00    -0.0341  A
ATOM     27 C30  QUI L   1      13.726  -5.874  -1.266  1.00  0.00    -0.0574  A
ATOM     28 C31  QUI L   1      14.039  -4.754  -0.493  1.00  0.00    -0.0551  A
ATOM     29 H42  QUI L   1      13.737  -6.135   2.602  1.00  0.00    +0.0621  H
ATOM     30 H43  QUI L   1      13.186  -8.110   1.248  1.00  0.00    +0.0621  H
ATOM     31 H56  QUI L   1      13.710  -5.774  -2.351  1.00  0.00    +0.0621  H
ATOM     32 H57  QUI L   1      14.252  -3.808  -0.990  1.00  0.00    +0.0621  H
BRANCH 23 33
ATOM     33  C9  QUI L   1      14.375  -3.619   1.735  1.00  0.00    +0.1179  C
ATOM     34 H40  QUI L   1      13.892  -2.720   1.331  1.00  0.00    +0.0749  H
ATOM     35 H41  QUI L   1      15.452  -3.419   1.708  1.00  0.00    +0.0749  H
BRANCH 33 36
ATOM     36  O8  QUI L   1      14.019  -3.871   3.099  1.00  0.00    -0.4564 OA
BRANCH 36 37
ATOM     37  C6  QUI L   1      13.016  -3.107   3.589  1.00  0.00    +0.3398  C
ATOM     38  O7  QUI L   1      12.974  -1.888   3.625  1.00  0.00    -0.2449 OA
BRANCH 37 43
ATOM     39  C1  QUI L   1       8.560  -6.559   4.915  1.00  0.00    -0.0397  C
ATOM     40  C2  QUI L   1       9.699  -5.633   4.603  1.00  0.00    -0.0502  A
ATOM     41  C3  QUI L   1       9.924  -5.207   3.291  1.00  0.00    -0.0580  A
ATOM     42  C4  QUI L   1      11.007  -4.377   2.999  1.00  0.00    -0.0473  A
ATOM     43  C5  QUI L   1      11.889  -3.974   4.013  1.00  0.00    +0.0619  A
ATOM     44 C32  QUI L   1      11.668  -4.377   5.343  1.00  0.00    -0.0362  A
ATOM     45 C33  QUI L   1      12.554  -3.954   6.481  1.00  0.00    -0.0389  C
ATOM     46 C34  QUI L   1      10.580  -5.227   5.615  1.00  0.00    -0.0551  A
ATOM     47 H35  QUI L   1       7.727  -6.402   4.224  1.00  0.00    +0.0278  H
ATOM     48 H36  QUI L   1       8.179  -6.381   5.928  1.00  0.00    +0.0278  H
ATOM     49 H37  QUI L   1       8.892  -7.599   4.839  1.00  0.00    +0.0278  H
ATOM     50 H38  QUI L   1       9.259  -5.518   2.489  1.00  0.00    +0.0620  H
ATOM     51 H39  QUI L   1      11.168  -4.051   1.973  1.00  0.00    +0.0626  H
ATOM     52 H58  QUI L   1      12.821  -2.895   6.397  1.00  0.00    +0.0278  H
ATOM     53 H59  QUI L   1      13.462  -4.564   6.503  1.00  0.00    +0.0278  H
ATOM     54 H60  QUI L   1      12.043  -4.071   7.443  1.00  0.00    +0.0278  H
ATOM     55 H61  QUI L   1      10.408  -5.570   6.635  1.00  0.00    +0.0623  H
ENDBRANCH 37 43
ENDBRANCH 36 37
ENDBRANCH 33 36
ENDBRANCH 23 33
ENDBRANCH 21 26
BRANCH 21 56
ATOM     56 C15  QUI L   1      12.807  -9.570  -0.595  1.00  0.00    +0.0085  C
ATOM     57 N16  QUI L   1      11.489 -10.173  -0.846  1.00  0.00    -0.3289 NA
ATOM     58 H45  QUI L   1      13.579 -10.335  -0.742  1.00  0.00    +0.0432  H
ATOM     59 H46  QUI L   1      12.844  -9.279   0.462  1.00  0.00    +0.0432  H
ATOM     60 H47  QUI L   1      11.389 -10.996  -0.251  1.00  0.00    +0.1182 HD
ATOM     61 H48  QUI L   1      11.465 -10.523  -1.805  1.00  0.00    +0.1182 HD
ENDBRANCH 21 56
ENDBRANCH 17 21
ENDBRANCH 1 19
TORSDOF 8
ENDMDL
MODEL 12
REMARK VINA RESULT:    -7.041      3.766     11.037
REMARK INTER + INTRA:         -11.482
REMARK INTER:                  -9.340
REMARK INTRA:                  -2.142
REMARK UNBOUND:                -1.149
ROOT
ATOM      1 C20  QUI L   1      12.490  -8.300  -1.533  1.00  0.00    +0.0424  A
ATOM      2 C21  QUI L   1      11.547  -9.321  -1.478  1.00  0.00    -0.0363  A
ATOM      3 C22  QUI L   1      10.946  -9.796  -2.653  1.00  0.00    -0.0338  A
ATOM      4 C23  QUI L   1      11.263  -9.277  -3.899  1.00  0.00    +0.0711  A
ATOM      5 N24  QUI L   1      10.659  -9.768  -4.997  1.00  0.00    -0.2550 NA
ATOM      6 C25  QUI L   1      10.991  -9.238  -6.195  1.00  0.00    +0.0283  A
ATOM      7 C26  QUI L   1      11.915  -8.223  -6.358  1.00  0.00    -0.0430  A
ATOM      8 C27  QUI L   1      12.537  -7.719  -5.222  1.00  0.00    -0.0511  A
ATOM      9 C28  QUI L   1      12.218  -8.244  -3.962  1.00  0.00    +0.0023  A
ATOM     10 C29  QUI L   1      12.824  -7.765  -2.783  1.00  0.00    -0.0291  A
ATOM     11 H50  QUI L   1      11.249  -9.780  -0.541  1.00  0.00    +0.0639  H
ATOM     12 H51  QUI L   1      10.212 -10.594  -2.588  1.00  0.00    +0.0640  H
ATOM     13 H52  QUI L   1      10.475  -9.668  -7.047  1.00  0.00    +0.0830  H
ATOM     14 H53  QUI L   1      12.143  -7.835  -7.344  1.00  0.00    +0.0633  H
ATOM     15 H54  QUI L   1      13.267  -6.921  -5.324  1.00  0.00    +0.0625  H
ATOM     16 H55  QUI L   1      13.557  -6.966  -2.853  1.00  0.00    +0.0645  H
ENDROOT
BRANCH 1 19
ATOM     17 C17  QUI L   1      12.585  -7.047   0.643  1.00  0.00    +0.2339  C
ATOM     18 O18  QUI L   1      11.404  -6.732   0.747  1.00  0.00    -0.2722 OA
ATOM     19 N19  QUI L   1      13.145  -7.765  -0.406  1.00  0.00    -0.3256  N
ATOM     20 H49  QUI L   1      14.151  -7.883  -0.377  1.00  0.00    +0.1686 HD
BRANCH 17 21
ATOM     21 C14  QUI L   1      13.624  -6.676   1.717  1.00  0.00    +0.0752  C
ATOM     22 H44  QUI L   1      14.432  -6.159   1.179  1.00  0.00    +0.0458  H
BRANCH 21 26
ATOM     23 C10  QUI L   1      11.948  -4.011   4.715  1.00  0.00    -0.0103  A
ATOM     24 C11  QUI L   1      12.121  -5.374   4.984  1.00  0.00    -0.0551  A
ATOM     25 C12  QUI L   1      12.664  -6.225   4.019  1.00  0.00    -0.0574  A
ATOM     26 C13  QUI L   1      13.041  -5.730   2.762  1.00  0.00    -0.0341  A
ATOM     27 C30  QUI L   1      12.848  -4.369   2.487  1.00  0.00    -0.0574  A
ATOM     28 C31  QUI L   1      12.306  -3.519   3.454  1.00  0.00    -0.0551  A
ATOM     29 H42  QUI L   1      11.819  -5.784   5.947  1.00  0.00    +0.0621  H
ATOM     30 H43  QUI L   1      12.771  -7.283   4.250  1.00  0.00    +0.0621  H
ATOM     31 H56  QUI L   1      13.112  -3.954   1.514  1.00  0.00    +0.0621  H
ATOM     32 H57  QUI L   1      12.154  -2.467   3.212  1.00  0.00    +0.0621  H
BRANCH 23 33
ATOM     33  C9  QUI L   1      11.336  -3.097   5.744  1.00  0.00    +0.1179  C
ATOM     34 H40  QUI L   1      10.741  -2.302   5.278  1.00  0.00    +0.0749  H
ATOM     35 H41  QUI L   1      12.130  -2.589   6.302  1.00  0.00    +0.0749  H
BRANCH 33 36
ATOM     36  O8  QUI L   1      10.582  -3.873   6.681  1.00  0.00    -0.4564 OA
BRANCH 36 37
ATOM     37  C6  QUI L   1       9.243  -3.886   6.483  1.00  0.00    +0.3398  C
ATOM     38  O7  QUI L   1       8.505  -2.917   6.417  1.00  0.00    -0.2449 OA
BRANCH 37 43
ATOM     39  C1  QUI L   1       7.400  -9.348   5.937  1.00  0.00    -0.0397  C
ATOM     40  C2  QUI L   1       7.913  -7.941   6.049  1.00  0.00    -0.0502  A
ATOM     41  C3  QUI L   1       8.237  -7.404   7.298  1.00  0.00    -0.0580  A
ATOM     42  C4  QUI L   1       8.676  -6.084   7.401  1.00  0.00    -0.0473  A
ATOM     43  C5  QUI L   1       8.784  -5.278   6.258  1.00  0.00    +0.0619  A
ATOM     44 C32  QUI L   1       8.481  -5.807   4.989  1.00  0.00    -0.0362  A
ATOM     45 C33  QUI L   1       8.607  -5.009   3.722  1.00  0.00    -0.0389  C
ATOM     46 C34  QUI L   1       8.024  -7.135   4.907  1.00  0.00    -0.0551  A
ATOM     47 H35  QUI L   1       7.810  -9.978   6.732  1.00  0.00    +0.0278  H
ATOM     48 H36  QUI L   1       7.697  -9.796   4.982  1.00  0.00    +0.0278  H
ATOM     49 H37  QUI L   1       6.308  -9.354   6.008  1.00  0.00    +0.0278  H
ATOM     50 H38  QUI L   1       8.149  -8.009   8.198  1.00  0.00    +0.0620  H
ATOM     51 H39  QUI L   1       8.927  -5.680   8.380  1.00  0.00    +0.0626  H
ATOM     52 H58  QUI L   1       9.525  -4.411   3.725  1.00  0.00    +0.0278  H
ATOM     53 H59  QUI L   1       7.739  -4.354   3.597  1.00  0.00    +0.0278  H
ATOM     54 H60  QUI L   1       8.665  -5.666   2.847  1.00  0.00    +0.0278  H
ATOM     55 H61  QUI L   1       7.760  -7.553   3.936  1.00  0.00    +0.0623  H
ENDBRANCH 37 43
ENDBRANCH 36 37
ENDBRANCH 33 36
ENDBRANCH 23 33
ENDBRANCH 21 26
BRANCH 21 56
ATOM     56 C15  QUI L   1      14.217  -7.952   2.354  1.00  0.00    +0.0085  C
ATOM     57 N16  QUI L   1      13.369  -9.138   2.155  1.00  0.00    -0.3289 NA
ATOM     58 H45  QUI L   1      15.216  -8.160   1.953  1.00  0.00    +0.0432  H
ATOM     59 H46  QUI L   1      14.332  -7.803   3.435  1.00  0.00    +0.0432  H
ATOM     60 H47  QUI L   1      13.834  -9.944   2.573  1.00  0.00    +0.1182 HD
ATOM     61 H48  QUI L   1      13.317  -9.339   1.154  1.00  0.00    +0.1182 HD
ENDBRANCH 21 56
ENDBRANCH 17 21
ENDBRANCH 1 19
TORSDOF 8
ENDMDL
MODEL 13
REMARK VINA RESULT:    -7.035      1.726      2.768
REMARK INTER + INTRA:         -11.474
REMARK INTER:                  -9.986
REMARK INTRA:                  -1.488
REMARK UNBOUND:                -1.149
ROOT
ATOM      1 C20  QUI L   1      11.715  -6.795  -0.661  1.00  0.00    +0.0424  A
ATOM      2 C21  QUI L   1      11.086  -6.558   0.557  1.00  0.00    -0.0363  A
ATOM      3 C22  QUI L   1      11.637  -5.653   1.475  1.00  0.00    -0.0338  A
ATOM      4 C23  QUI L   1      12.813  -4.966   1.212  1.00  0.00    +0.0711  A
ATOM      5 N24  QUI L   1      13.300  -4.108   2.126  1.00  0.00    -0.2550 NA
ATOM      6 C25  QUI L   1      14.448  -3.456   1.836  1.00  0.00    +0.0283  A
ATOM      7 C26  QUI L   1      15.150  -3.619   0.656  1.00  0.00    -0.0430  A
ATOM      8 C27  QUI L   1      14.643  -4.507  -0.286  1.00  0.00    -0.0511  A
ATOM      9 C28  QUI L   1      13.454  -5.201  -0.021  1.00  0.00    +0.0023  A
ATOM     10 C29  QUI L   1      12.902  -6.109  -0.945  1.00  0.00    -0.0291  A
ATOM     11 H50  QUI L   1      10.162  -7.055   0.834  1.00  0.00    +0.0639  H
ATOM     12 H51  QUI L   1      11.131  -5.482   2.421  1.00  0.00    +0.0640  H
ATOM     13 H52  QUI L   1      14.799  -2.776   2.607  1.00  0.00    +0.0830  H
ATOM     14 H53  QUI L   1      16.067  -3.071   0.476  1.00  0.00    +0.0633  H
ATOM     15 H54  QUI L   1      15.176  -4.653  -1.220  1.00  0.00    +0.0625  H
ATOM     16 H55  QUI L   1      13.414  -6.278  -1.889  1.00  0.00    +0.0645  H
ENDROOT
BRANCH 1 19
ATOM     17 C17  QUI L   1      11.862  -8.810  -2.155  1.00  0.00    +0.2339  C
ATOM     18 O18  QUI L   1      12.981  -9.209  -1.848  1.00  0.00    -0.2722 OA
ATOM     19 N19  QUI L   1      11.232  -7.683  -1.643  1.00  0.00    -0.3256  N
ATOM     20 H49  QUI L   1      10.335  -7.450  -2.053  1.00  0.00    +0.1686 HD
BRANCH 17 21
ATOM     21 C14  QUI L   1      10.987  -9.553  -3.181  1.00  0.00    +0.0752  C
ATOM     22 H44  QUI L   1       9.962  -9.194  -3.009  1.00  0.00    +0.0458  H
BRANCH 21 26
ATOM     23 C10  QUI L   1      12.142  -8.643  -7.273  1.00  0.00    -0.0103  A
ATOM     24 C11  QUI L   1      11.462  -9.828  -6.967  1.00  0.00    -0.0551  A
ATOM     25 C12  QUI L   1      11.089 -10.113  -5.651  1.00  0.00    -0.0574  A
ATOM     26 C13  QUI L   1      11.394  -9.221  -4.613  1.00  0.00    -0.0341  A
ATOM     27 C30  QUI L   1      12.093  -8.044  -4.919  1.00  0.00    -0.0574  A
ATOM     28 C31  QUI L   1      12.464  -7.760  -6.235  1.00  0.00    -0.0551  A
ATOM     29 H42  QUI L   1      11.230 -10.544  -7.753  1.00  0.00    +0.0621  H
ATOM     30 H43  QUI L   1      10.576 -11.050  -5.440  1.00  0.00    +0.0621  H
ATOM     31 H56  QUI L   1      12.363  -7.336  -4.135  1.00  0.00    +0.0621  H
ATOM     32 H57  QUI L   1      13.017  -6.845  -6.446  1.00  0.00    +0.0621  H
BRANCH 23 33
ATOM     33  C9  QUI L   1      12.569  -8.347  -8.686  1.00  0.00    +0.1179  C
ATOM     34 H40  QUI L   1      13.450  -8.935  -8.974  1.00  0.00    +0.0749  H
ATOM     35 H41  QUI L   1      12.871  -7.297  -8.767  1.00  0.00    +0.0749  H
BRANCH 33 36
ATOM     36  O8  QUI L   1      11.461  -8.545  -9.570  1.00  0.00    -0.4564 OA
BRANCH 36 37
ATOM     37  C6  QUI L   1      10.550  -7.545  -9.595  1.00  0.00    +0.3398  C
ATOM     38  O7  QUI L   1      10.775  -6.348  -9.513  1.00  0.00    -0.2449 OA
BRANCH 37 43
ATOM     39  C1  QUI L   1       5.196  -9.664 -10.203  1.00  0.00    -0.0397  C
ATOM     40  C2  QUI L   1       6.601  -9.152 -10.069  1.00  0.00    -0.0502  A
ATOM     41  C3  QUI L   1       7.136  -8.879  -8.808  1.00  0.00    -0.0580  A
ATOM     42  C4  QUI L   1       8.428  -8.366  -8.690  1.00  0.00    -0.0473  A
ATOM     43  C5  QUI L   1       9.198  -8.105  -9.833  1.00  0.00    +0.0619  A
ATOM     44 C32  QUI L   1       8.683  -8.391 -11.112  1.00  0.00    -0.0362  A
ATOM     45 C33  QUI L   1       9.466  -8.167 -12.375  1.00  0.00    -0.0389  C
ATOM     46 C34  QUI L   1       7.372  -8.892 -11.211  1.00  0.00    -0.0551  A
ATOM     47 H35  QUI L   1       4.912 -10.259  -9.331  1.00  0.00    +0.0278  H
ATOM     48 H36  QUI L   1       5.100 -10.311 -11.083  1.00  0.00    +0.0278  H
ATOM     49 H37  QUI L   1       4.500  -8.825 -10.302  1.00  0.00    +0.0278  H
ATOM     50 H38  QUI L   1       6.552  -9.063  -7.909  1.00  0.00    +0.0620  H
ATOM     51 H39  QUI L   1       8.833  -8.161  -7.700  1.00  0.00    +0.0626  H
ATOM     52 H58  QUI L   1      10.506  -8.489 -12.254  1.00  0.00    +0.0278  H
ATOM     53 H59  QUI L   1       9.437  -7.110 -12.658  1.00  0.00    +0.0278  H
ATOM     54 H60  QUI L   1       9.052  -8.751 -13.204  1.00  0.00    +0.0278  H
ATOM     55 H61  QUI L   1       6.948  -9.095 -12.194  1.00  0.00    +0.0623  H
ENDBRANCH 37 43
ENDBRANCH 36 37
ENDBRANCH 33 36
ENDBRANCH 23 33
ENDBRANCH 21 26
BRANCH 21 56
ATOM     56 C15  QUI L   1      11.011 -11.072  -2.908  1.00  0.00    +0.0085  C
ATOM     57 N16  QUI L   1      10.785 -11.402  -1.492  1.00  0.00    -0.3289 NA
ATOM     58 H45  QUI L   1      10.260 -11.591  -3.516  1.00  0.00    +0.0432  H
ATOM     59 H46  QUI L   1      11.989 -11.482  -3.193  1.00  0.00    +0.0432  H
ATOM     60 H47  QUI L   1      10.784 -12.418  -1.391  1.00  0.00    +0.1182 HD
ATOM     61 H48  QUI L   1       9.845 -11.100  -1.231  1.00  0.00    +0.1182 HD
ENDBRANCH 21 56
ENDBRANCH 17 21
ENDBRANCH 1 19
TORSDOF 8
ENDMDL
MODEL 14
REMARK VINA RESULT:    -7.033      4.847     10.965
REMARK INTER + INTRA:         -11.472
REMARK INTER:                  -9.009
REMARK INTRA:                  -2.462
REMARK UNBOUND:                -1.149
ROOT
ATOM      1 C20  QUI L   1      12.633  -7.637   0.454  1.00  0.00    +0.0424  A
ATOM      2 C21  QUI L   1      11.797  -6.751  -0.219  1.00  0.00    -0.0363  A
ATOM      3 C22  QUI L   1      11.118  -7.158  -1.375  1.00  0.00    -0.0338  A
ATOM      4 C23  QUI L   1      11.246  -8.439  -1.889  1.00  0.00    +0.0711  A
ATOM      5 N24  QUI L   1      10.571  -8.781  -3.002  1.00  0.00    -0.2550 NA
ATOM      6 C25  QUI L   1      10.721 -10.038  -3.475  1.00  0.00    +0.0283  A
ATOM      7 C26  QUI L   1      11.525 -10.993  -2.882  1.00  0.00    -0.0430  A
ATOM      8 C27  QUI L   1      12.220 -10.637  -1.732  1.00  0.00    -0.0511  A
ATOM      9 C28  QUI L   1      12.090  -9.342  -1.212  1.00  0.00    +0.0023  A
ATOM     10 C29  QUI L   1      12.774  -8.936  -0.049  1.00  0.00    -0.0291  A
ATOM     11 H50  QUI L   1      11.643  -5.733   0.123  1.00  0.00    +0.0639  H
ATOM     12 H51  QUI L   1      10.469  -6.451  -1.886  1.00  0.00    +0.0640  H
ATOM     13 H52  QUI L   1      10.156 -10.261  -4.375  1.00  0.00    +0.0830  H
ATOM     14 H53  QUI L   1      11.609 -11.987  -3.305  1.00  0.00    +0.0633  H
ATOM     15 H54  QUI L   1      12.859 -11.370  -1.248  1.00  0.00    +0.0625  H
ATOM     16 H55  QUI L   1      13.422  -9.647   0.457  1.00  0.00    +0.0645  H
ENDROOT
BRANCH 1 19
ATOM     17 C17  QUI L   1      14.676  -6.911   1.724  1.00  0.00    +0.2339  C
ATOM     18 O18  QUI L   1      15.463  -6.790   0.790  1.00  0.00    -0.2722 OA
ATOM     19 N19  QUI L   1      13.351  -7.317   1.623  1.00  0.00    -0.3256  N
ATOM     20 H49  QUI L   1      12.854  -7.434   2.498  1.00  0.00    +0.1686 HD
BRANCH 17 21
ATOM     21 C14  QUI L   1      15.083  -6.603   3.177  1.00  0.00    +0.0752  C
ATOM     22 H44  QUI L   1      16.076  -6.133   3.112  1.00  0.00    +0.0458  H
BRANCH 21 26
ATOM     23 C10  QUI L   1      12.344  -3.792   5.046  1.00  0.00    -0.0103  A
ATOM     24 C11  QUI L   1      13.140  -3.403   3.962  1.00  0.00    -0.0551  A
ATOM     25 C12  QUI L   1      14.016  -4.311   3.362  1.00  0.00    -0.0574  A
ATOM     26 C13  QUI L   1      14.116  -5.627   3.838  1.00  0.00    -0.0341  A
ATOM     27 C30  QUI L   1      13.332  -6.008   4.937  1.00  0.00    -0.0574  A
ATOM     28 C31  QUI L   1      12.456  -5.099   5.534  1.00  0.00    -0.0551  A
ATOM     29 H42  QUI L   1      13.093  -2.382   3.586  1.00  0.00    +0.0621  H
ATOM     30 H43  QUI L   1      14.635  -3.977   2.531  1.00  0.00    +0.0621  H
ATOM     31 H56  QUI L   1      13.398  -7.017   5.345  1.00  0.00    +0.0621  H
ATOM     32 H57  QUI L   1      11.867  -5.415   6.395  1.00  0.00    +0.0621  H
BRANCH 23 33
ATOM     33  C9  QUI L   1      11.421  -2.805   5.711  1.00  0.00    +0.1179  C
ATOM     34 H40  QUI L   1      10.844  -2.230   4.975  1.00  0.00    +0.0749  H
ATOM     35 H41  QUI L   1      12.010  -2.070   6.270  1.00  0.00    +0.0749  H
BRANCH 33 36
ATOM     36  O8  QUI L   1      10.587  -3.492   6.651  1.00  0.00    -0.4564 OA
BRANCH 36 37
ATOM     37  C6  QUI L   1       9.267  -3.506   6.356  1.00  0.00    +0.3398  C
ATOM     38  O7  QUI L   1       8.540  -2.537   6.207  1.00  0.00    -0.2449 OA
BRANCH 37 43
ATOM     39  C1  QUI L   1       7.402  -8.962   5.829  1.00  0.00    -0.0397  C
ATOM     40  C2  QUI L   1       7.925  -7.560   5.944  1.00  0.00    -0.0502  A
ATOM     41  C3  QUI L   1       8.028  -6.944   7.194  1.00  0.00    -0.0580  A
ATOM     42  C4  QUI L   1       8.478  -5.627   7.292  1.00  0.00    -0.0473  A
ATOM     43  C5  QUI L   1       8.817  -4.903   6.139  1.00  0.00    +0.0619  A
ATOM     44 C32  QUI L   1       8.739  -5.513   4.873  1.00  0.00    -0.0362  A
ATOM     45 C33  QUI L   1       9.119  -4.805   3.603  1.00  0.00    -0.0389  C
ATOM     46 C34  QUI L   1       8.267  -6.835   4.793  1.00  0.00    -0.0551  A
ATOM     47 H35  QUI L   1       7.640  -9.543   6.726  1.00  0.00    +0.0278  H
ATOM     48 H36  QUI L   1       7.857  -9.480   4.977  1.00  0.00    +0.0278  H
ATOM     49 H37  QUI L   1       6.316  -8.946   5.696  1.00  0.00    +0.0278  H
ATOM     50 H38  QUI L   1       7.758  -7.484   8.098  1.00  0.00    +0.0620  H
ATOM     51 H39  QUI L   1       8.555  -5.161   8.273  1.00  0.00    +0.0626  H
ATOM     52 H58  QUI L   1      10.037  -4.224   3.737  1.00  0.00    +0.0278  H
ATOM     53 H59  QUI L   1       8.308  -4.147   3.277  1.00  0.00    +0.0278  H
ATOM     54 H60  QUI L   1       9.319  -5.521   2.797  1.00  0.00    +0.0278  H
ATOM     55 H61  QUI L   1       8.175  -7.315   3.819  1.00  0.00    +0.0623  H
ENDBRANCH 37 43
ENDBRANCH 36 37
ENDBRANCH 33 36
ENDBRANCH 23 33
ENDBRANCH 21 26
BRANCH 21 56
ATOM     56 C15  QUI L   1      15.229  -7.912   3.982  1.00  0.00    +0.0085  C
ATOM     57 N16  QUI L   1      15.221  -9.112   3.130  1.00  0.00    -0.3289 NA
ATOM     58 H45  QUI L   1      16.152  -7.906   4.575  1.00  0.00    +0.0432  H
ATOM     59 H46  QUI L   1      14.396  -8.003   4.691  1.00  0.00    +0.0432  H
ATOM     60 H47  QUI L   1      15.352  -9.933   3.722  1.00  0.00    +0.1182 HD
ATOM     61 H48  QUI L   1      16.039  -9.084   2.517  1.00  0.00    +0.1182 HD
ENDBRANCH 21 56
ENDBRANCH 17 21
ENDBRANCH 1 19
TORSDOF 8
ENDMDL
MODEL 15
REMARK VINA RESULT:    -6.927      5.925      9.929
REMARK INTER + INTRA:         -11.315
REMARK INTER:                  -9.349
REMARK INTRA:                  -1.966
REMARK UNBOUND:                -1.149
ROOT
ATOM      1 C20  QUI L   1       9.828  -6.614   6.381  1.00  0.00    +0.0424  A
ATOM      2 C21  QUI L   1      10.568  -7.292   7.344  1.00  0.00    -0.0363  A
ATOM      3 C22  QUI L   1      10.163  -8.559   7.787  1.00  0.00    -0.0338  A
ATOM      4 C23  QUI L   1       9.027  -9.180   7.292  1.00  0.00    +0.0711  A
ATOM      5 N24  QUI L   1       8.681 -10.397   7.750  1.00  0.00    -0.2550 NA
ATOM      6 C25  QUI L   1       7.567 -10.972   7.245  1.00  0.00    +0.0283  A
ATOM      7 C26  QUI L   1       6.763 -10.385   6.286  1.00  0.00    -0.0430  A
ATOM      8 C27  QUI L   1       7.124  -9.128   5.816  1.00  0.00    -0.0511  A
ATOM      9 C28  QUI L   1       8.273  -8.499   6.315  1.00  0.00    +0.0023  A
ATOM     10 C29  QUI L   1       8.678  -7.227   5.867  1.00  0.00    -0.0291  A
ATOM     11 H50  QUI L   1      11.470  -6.873   7.777  1.00  0.00    +0.0639  H
ATOM     12 H51  QUI L   1      10.755  -9.072   8.541  1.00  0.00    +0.0640  H
ATOM     13 H52  QUI L   1       7.332 -11.953   7.649  1.00  0.00    +0.0830  H
ATOM     14 H53  QUI L   1       5.880 -10.892   5.917  1.00  0.00    +0.0633  H
ATOM     15 H54  QUI L   1       6.508  -8.645   5.062  1.00  0.00    +0.0625  H
ATOM     16 H55  QUI L   1       8.081  -6.718   5.115  1.00  0.00    +0.0645  H
ENDROOT
BRANCH 1 19
ATOM     17 C17  QUI L   1       9.826  -4.101   6.403  1.00  0.00    +0.2339  C
ATOM     18 O18  QUI L   1       9.144  -3.908   7.405  1.00  0.00    -0.2722 OA
ATOM     19 N19  QUI L   1      10.161  -5.342   5.875  1.00  0.00    -0.3256  N
ATOM     20 H49  QUI L   1      10.674  -5.330   5.001  1.00  0.00    +0.1686 HD
BRANCH 17 21
ATOM     21 C14  QUI L   1      10.422  -2.940   5.587  1.00  0.00    +0.0752  C
ATOM     22 H44  QUI L   1      10.557  -2.115   6.302  1.00  0.00    +0.0458  H
BRANCH 21 26
ATOM     23 C10  QUI L   1      14.274  -3.975   3.858  1.00  0.00    -0.0103  A
ATOM     24 C11  QUI L   1      13.355  -3.196   3.145  1.00  0.00    -0.0551  A
ATOM     25 C12  QUI L   1      12.120  -2.862   3.707  1.00  0.00    -0.0574  A
ATOM     26 C13  QUI L   1      11.778  -3.306   4.993  1.00  0.00    -0.0341  A
ATOM     27 C30  QUI L   1      12.692  -4.104   5.697  1.00  0.00    -0.0574  A
ATOM     28 C31  QUI L   1      13.927  -4.435   5.133  1.00  0.00    -0.0551  A
ATOM     29 H42  QUI L   1      13.591  -2.855   2.138  1.00  0.00    +0.0621  H
ATOM     30 H43  QUI L   1      11.419  -2.269   3.123  1.00  0.00    +0.0621  H
ATOM     31 H56  QUI L   1      12.452  -4.482   6.690  1.00  0.00    +0.0621  H
ATOM     32 H57  QUI L   1      14.615  -5.067   5.694  1.00  0.00    +0.0621  H
BRANCH 23 33
ATOM     33  C9  QUI L   1      15.594  -4.359   3.241  1.00  0.00    +0.1179  C
ATOM     34 H40  QUI L   1      16.211  -4.943   3.937  1.00  0.00    +0.0749  H
ATOM     35 H41  QUI L   1      16.171  -3.455   3.016  1.00  0.00    +0.0749  H
BRANCH 33 36
ATOM     36  O8  QUI L   1      15.362  -5.041   2.004  1.00  0.00    -0.4564 OA
BRANCH 36 37
ATOM     37  C6  QUI L   1      15.078  -6.359   2.110  1.00  0.00    +0.3398  C
ATOM     38  O7  QUI L   1      15.520  -7.139   2.938  1.00  0.00    -0.2449 OA
BRANCH 37 43
ATOM     39  C1  QUI L   1      11.315  -7.903  -2.011  1.00  0.00    -0.0397  C
ATOM     40  C2  QUI L   1      12.265  -7.464  -0.935  1.00  0.00    -0.0502  A
ATOM     41  C3  QUI L   1      13.627  -7.323  -1.210  1.00  0.00    -0.0580  A
ATOM     42  C4  QUI L   1      14.513  -6.952  -0.198  1.00  0.00    -0.0473  A
ATOM     43  C5  QUI L   1      14.050  -6.732   1.108  1.00  0.00    +0.0619  A
ATOM     44 C32  QUI L   1      12.678  -6.850   1.400  1.00  0.00    -0.0362  A
ATOM     45 C33  QUI L   1      12.111  -6.595   2.769  1.00  0.00    -0.0389  C
ATOM     46 C34  QUI L   1      11.803  -7.240   0.370  1.00  0.00    -0.0551  A
ATOM     47 H35  QUI L   1      11.659  -7.574  -2.996  1.00  0.00    +0.0278  H
ATOM     48 H36  QUI L   1      10.320  -7.470  -1.853  1.00  0.00    +0.0278  H
ATOM     49 H37  QUI L   1      11.230  -8.994  -2.013  1.00  0.00    +0.0278  H
ATOM     50 H38  QUI L   1      14.009  -7.501  -2.213  1.00  0.00    +0.0620  H
ATOM     51 H39  QUI L   1      15.571  -6.844  -0.428  1.00  0.00    +0.0626  H
ATOM     52 H58  QUI L   1      12.567  -5.709   3.223  1.00  0.00    +0.0278  H
ATOM     53 H59  QUI L   1      12.269  -7.464   3.413  1.00  0.00    +0.0278  H
ATOM     54 H60  QUI L   1      11.033  -6.400   2.719  1.00  0.00    +0.0278  H
ATOM     55 H61  QUI L   1      10.741  -7.362   0.584  1.00  0.00    +0.0623  H
ENDBRANCH 37 43
ENDBRANCH 36 37
ENDBRANCH 33 36
ENDBRANCH 23 33
ENDBRANCH 21 26
BRANCH 21 56
ATOM     56 C15  QUI L   1       9.421  -2.473   4.508  1.00  0.00    +0.0085  C
ATOM     57 N16  QUI L   1       8.811  -3.592   3.772  1.00  0.00    -0.3289 NA
ATOM     58 H45  QUI L   1       8.624  -1.865   4.951  1.00  0.00    +0.0432  H
ATOM     59 H46  QUI L   1       9.938  -1.838   3.777  1.00  0.00    +0.0432  H
ATOM     60 H47  QUI L   1       8.142  -3.213   3.101  1.00  0.00    +0.1182 HD
ATOM     61 H48  QUI L   1       8.257  -4.150   4.425  1.00  0.00    +0.1182 HD
ENDBRANCH 21 56
ENDBRANCH 17 21
ENDBRANCH 1 19
TORSDOF 8
ENDMDL
MODEL 16
REMARK VINA RESULT:    -6.840      2.945     11.205
REMARK INTER + INTRA:         -11.187
REMARK INTER:                 -10.191
REMARK INTRA:                  -0.996
REMARK UNBOUND:                -1.149
ROOT
ATOM      1 C20  QUI L   1      10.060  -8.464  -6.538  1.00  0.00    +0.0424  A
ATOM      2 C21  QUI L   1       8.983  -9.235  -6.113  1.00  0.00    -0.0363  A
ATOM      3 C22  QUI L   1       7.937  -9.539  -6.996  1.00  0.00    -0.0338  A
ATOM      4 C23  QUI L   1       7.933  -9.094  -8.309  1.00  0.00    +0.0711  A
ATOM      5 N24  QUI L   1       6.906  -9.414  -9.117  1.00  0.00    -0.2550 NA
ATOM      6 C25  QUI L   1       6.935  -8.961 -10.390  1.00  0.00    +0.0283  A
ATOM      7 C26  QUI L   1       7.958  -8.191 -10.910  1.00  0.00    -0.0430  A
ATOM      8 C27  QUI L   1       9.017  -7.862 -10.073  1.00  0.00    -0.0511  A
ATOM      9 C28  QUI L   1       9.022  -8.313  -8.745  1.00  0.00    +0.0023  A
ATOM     10 C29  QUI L   1      10.074  -8.006  -7.861  1.00  0.00    -0.0291  A
ATOM     11 H50  QUI L   1       8.916  -9.623  -5.101  1.00  0.00    +0.0639  H
ATOM     12 H51  QUI L   1       7.104 -10.143  -6.644  1.00  0.00    +0.0640  H
ATOM     13 H52  QUI L   1       6.083  -9.247 -10.999  1.00  0.00    +0.0830  H
ATOM     14 H53  QUI L   1       7.929  -7.855 -11.940  1.00  0.00    +0.0633  H
ATOM     15 H54  QUI L   1       9.832  -7.258 -10.458  1.00  0.00    +0.0625  H
ATOM     16 H55  QUI L   1      10.904  -7.401  -8.217  1.00  0.00    +0.0645  H
ENDROOT
BRANCH 1 19
ATOM     17 C17  QUI L   1      12.180  -8.935  -5.273  1.00  0.00    +0.2339  C
ATOM     18 O18  QUI L   1      12.286 -10.137  -5.497  1.00  0.00    -0.2722 OA
ATOM     19 N19  QUI L   1      11.154  -8.113  -5.722  1.00  0.00    -0.3256  N
ATOM     20 H49  QUI L   1      11.174  -7.155  -5.390  1.00  0.00    +0.1686 HD
BRANCH 17 21
ATOM     21 C14  QUI L   1      13.222  -8.167  -4.440  1.00  0.00    +0.0752  C
ATOM     22 H44  QUI L   1      13.494  -7.289  -5.045  1.00  0.00    +0.0458  H
BRANCH 21 26
ATOM     23 C10  QUI L   1      11.540  -6.836  -0.660  1.00  0.00    -0.0103  A
ATOM     24 C11  QUI L   1      10.981  -7.917  -1.351  1.00  0.00    -0.0551  A
ATOM     25 C12  QUI L   1      11.528  -8.344  -2.564  1.00  0.00    -0.0574  A
ATOM     26 C13  QUI L   1      12.643  -7.693  -3.111  1.00  0.00    -0.0341  A
ATOM     27 C30  QUI L   1      13.189  -6.597  -2.427  1.00  0.00    -0.0574  A
ATOM     28 C31  QUI L   1      12.641  -6.173  -1.214  1.00  0.00    -0.0551  A
ATOM     29 H42  QUI L   1      10.104  -8.427  -0.954  1.00  0.00    +0.0621  H
ATOM     30 H43  QUI L   1      11.063  -9.177  -3.087  1.00  0.00    +0.0621  H
ATOM     31 H56  QUI L   1      14.044  -6.056  -2.833  1.00  0.00    +0.0621  H
ATOM     32 H57  QUI L   1      13.074  -5.311  -0.707  1.00  0.00    +0.0621  H
BRANCH 23 33
ATOM     33  C9  QUI L   1      10.933  -6.357   0.634  1.00  0.00    +0.1179  C
ATOM     34 H40  QUI L   1      10.447  -7.176   1.180  1.00  0.00    +0.0749  H
ATOM     35 H41  QUI L   1      10.142  -5.629   0.421  1.00  0.00    +0.0749  H
BRANCH 33 36
ATOM     36  O8  QUI L   1      11.933  -5.691   1.411  1.00  0.00    -0.4564 OA
BRANCH 36 37
ATOM     37  C6  QUI L   1      11.908  -5.952   2.739  1.00  0.00    +0.3398  C
ATOM     38  O7  QUI L   1      12.395  -6.918   3.303  1.00  0.00    -0.2449 OA
BRANCH 37 43
ATOM     39  C1  QUI L   1       9.158  -1.761   5.636  1.00  0.00    -0.0397  C
ATOM     40  C2  QUI L   1       9.878  -2.817   4.850  1.00  0.00    -0.0502  A
ATOM     41  C3  QUI L   1       9.249  -4.027   4.549  1.00  0.00    -0.0580  A
ATOM     42  C4  QUI L   1       9.935  -5.022   3.852  1.00  0.00    -0.0473  A
ATOM     43  C5  QUI L   1      11.268  -4.825   3.458  1.00  0.00    +0.0619  A
ATOM     44 C32  QUI L   1      11.913  -3.605   3.736  1.00  0.00    -0.0362  A
ATOM     45 C33  QUI L   1      13.326  -3.316   3.313  1.00  0.00    -0.0389  C
ATOM     46 C34  QUI L   1      11.209  -2.621   4.454  1.00  0.00    -0.0551  A
ATOM     47 H35  QUI L   1       8.080  -1.805   5.454  1.00  0.00    +0.0278  H
ATOM     48 H36  QUI L   1       9.496  -0.760   5.345  1.00  0.00    +0.0278  H
ATOM     49 H37  QUI L   1       9.341  -1.901   6.706  1.00  0.00    +0.0278  H
ATOM     50 H38  QUI L   1       8.220  -4.205   4.855  1.00  0.00    +0.0620  H
ATOM     51 H39  QUI L   1       9.431  -5.959   3.622  1.00  0.00    +0.0626  H
ATOM     52 H58  QUI L   1      13.512  -3.672   2.294  1.00  0.00    +0.0278  H
ATOM     53 H59  QUI L   1      14.033  -3.785   4.004  1.00  0.00    +0.0278  H
ATOM     54 H60  QUI L   1      13.523  -2.238   3.307  1.00  0.00    +0.0278  H
ATOM     55 H61  QUI L   1      11.701  -1.680   4.700  1.00  0.00    +0.0623  H
ENDBRANCH 37 43
ENDBRANCH 36 37
ENDBRANCH 33 36
ENDBRANCH 23 33
ENDBRANCH 21 26
BRANCH 21 56
ATOM     56 C15  QUI L   1      14.493  -9.023  -4.249  1.00  0.00    +0.0085  C
ATOM     57 N16  QUI L   1      15.190  -9.305  -5.514  1.00  0.00    -0.3289 NA
ATOM     58 H45  QUI L   1      15.193  -8.534  -3.560  1.00  0.00    +0.0432  H
ATOM     59 H46  QUI L   1      14.223  -9.986  -3.797  1.00  0.00    +0.0432  H
ATOM     60 H47  QUI L   1      16.031  -9.845  -5.308  1.00  0.00    +0.1182 HD
ATOM     61 H48  QUI L   1      15.520  -8.422  -5.909  1.00  0.00    +0.1182 HD
ENDBRANCH 21 56
ENDBRANCH 17 21
ENDBRANCH 1 19
TORSDOF 8
ENDMDL
MODEL 17
REMARK VINA RESULT:    -6.772      6.885     11.152
REMARK INTER + INTRA:         -11.088
REMARK INTER:                  -8.547
REMARK INTRA:                  -2.541
REMARK UNBOUND:                -1.149
ROOT
ATOM      1 C20  QUI L   1       8.399  -9.228 -11.419  1.00  0.00    +0.0424  A
ATOM      2 C21  QUI L   1       7.744  -8.469 -10.454  1.00  0.00    -0.0363  A
ATOM      3 C22  QUI L   1       6.416  -8.755 -10.109  1.00  0.00    -0.0338  A
ATOM      4 C23  QUI L   1       5.710  -9.788 -10.705  1.00  0.00    +0.0711  A
ATOM      5 N24  QUI L   1       4.436 -10.022 -10.339  1.00  0.00    -0.2550 NA
ATOM      6 C25  QUI L   1       3.779 -11.037 -10.941  1.00  0.00    +0.0283  A
ATOM      7 C26  QUI L   1       4.337 -11.850 -11.909  1.00  0.00    -0.0430  A
ATOM      8 C27  QUI L   1       5.653 -11.606 -12.285  1.00  0.00    -0.0511  A
ATOM      9 C28  QUI L   1       6.368 -10.561 -11.682  1.00  0.00    +0.0023  A
ATOM     10 C29  QUI L   1       7.703 -10.277 -12.030  1.00  0.00    -0.0291  A
ATOM     11 H50  QUI L   1       8.231  -7.646  -9.941  1.00  0.00    +0.0639  H
ATOM     12 H51  QUI L   1       5.922  -8.150  -9.353  1.00  0.00    +0.0640  H
ATOM     13 H52  QUI L   1       2.754 -11.183 -10.610  1.00  0.00    +0.0830  H
ATOM     14 H53  QUI L   1       3.763 -12.650 -12.359  1.00  0.00    +0.0633  H
ATOM     15 H54  QUI L   1       6.114 -12.231 -13.044  1.00  0.00    +0.0625  H
ATOM     16 H55  QUI L   1       8.191 -10.885 -12.788  1.00  0.00    +0.0645  H
ENDROOT
BRANCH 1 19
ATOM     17 C17  QUI L   1      10.191  -8.184 -12.838  1.00  0.00    +0.2339  C
ATOM     18 O18  QUI L   1       9.490  -7.504 -13.581  1.00  0.00    -0.2722 OA
ATOM     19 N19  QUI L   1       9.732  -9.015 -11.824  1.00  0.00    -0.3256  N
ATOM     20 H49  QUI L   1      10.437  -9.564 -11.345  1.00  0.00    +0.1686 HD
BRANCH 17 21
ATOM     21 C14  QUI L   1      11.727  -8.184 -12.943  1.00  0.00    +0.0752  C
ATOM     22 H44  QUI L   1      11.998  -7.184 -13.313  1.00  0.00    +0.0458  H
BRANCH 21 26
ATOM     23 C10  QUI L   1      13.621  -8.779  -9.075  1.00  0.00    -0.0103  A
ATOM     24 C11  QUI L   1      13.679  -7.536  -9.717  1.00  0.00    -0.0551  A
ATOM     25 C12  QUI L   1      13.065  -7.349 -10.958  1.00  0.00    -0.0574  A
ATOM     26 C13  QUI L   1      12.384  -8.404 -11.584  1.00  0.00    -0.0341  A
ATOM     27 C30  QUI L   1      12.345  -9.654 -10.948  1.00  0.00    -0.0574  A
ATOM     28 C31  QUI L   1      12.958  -9.838  -9.707  1.00  0.00    -0.0551  A
ATOM     29 H42  QUI L   1      14.217  -6.708  -9.259  1.00  0.00    +0.0621  H
ATOM     30 H43  QUI L   1      13.140  -6.377 -11.442  1.00  0.00    +0.0621  H
ATOM     31 H56  QUI L   1      11.841 -10.500 -11.414  1.00  0.00    +0.0621  H
ATOM     32 H57  QUI L   1      12.925 -10.821  -9.239  1.00  0.00    +0.0621  H
BRANCH 23 33
ATOM     33  C9  QUI L   1      14.307  -8.990  -7.751  1.00  0.00    +0.1179  C
ATOM     34 H40  QUI L   1      14.906  -8.117  -7.462  1.00  0.00    +0.0749  H
ATOM     35 H41  QUI L   1      15.014  -9.824  -7.832  1.00  0.00    +0.0749  H
BRANCH 33 36
ATOM     36  O8  QUI L   1      13.335  -9.345  -6.762  1.00  0.00    -0.4564 OA
BRANCH 36 37
ATOM     37  C6  QUI L   1      12.583  -8.323  -6.292  1.00  0.00    +0.3398  C
ATOM     38  O7  QUI L   1      12.984  -7.239  -5.901  1.00  0.00    -0.2449 OA
BRANCH 37 43
ATOM     39  C1  QUI L   1       7.005  -9.867  -6.440  1.00  0.00    -0.0397  C
ATOM     40  C2  QUI L   1       8.453  -9.474  -6.448  1.00  0.00    -0.0502  A
ATOM     41  C3  QUI L   1       9.373 -10.147  -5.641  1.00  0.00    -0.0580  A
ATOM     42  C4  QUI L   1      10.711  -9.753  -5.622  1.00  0.00    -0.0473  A
ATOM     43  C5  QUI L   1      11.145  -8.669  -6.400  1.00  0.00    +0.0619  A
ATOM     44 C32  QUI L   1      10.237  -7.990  -7.234  1.00  0.00    -0.0362  A
ATOM     45 C33  QUI L   1      10.642  -6.843  -8.117  1.00  0.00    -0.0389  C
ATOM     46 C34  QUI L   1       8.889  -8.392  -7.227  1.00  0.00    -0.0551  A
ATOM     47 H35  QUI L   1       6.890 -10.934  -6.226  1.00  0.00    +0.0278  H
ATOM     48 H36  QUI L   1       6.545  -9.681  -7.418  1.00  0.00    +0.0278  H
ATOM     49 H37  QUI L   1       6.466  -9.294  -5.680  1.00  0.00    +0.0278  H
ATOM     50 H38  QUI L   1       9.055 -10.983  -5.021  1.00  0.00    +0.0620  H
ATOM     51 H39  QUI L   1      11.417 -10.289  -4.990  1.00  0.00    +0.0626  H
ATOM     52 H58  QUI L   1      11.600  -7.046  -8.608  1.00  0.00    +0.0278  H
ATOM     53 H59  QUI L   1      10.713  -5.920  -7.534  1.00  0.00    +0.0278  H
ATOM     54 H60  QUI L   1       9.909  -6.683  -8.916  1.00  0.00    +0.0278  H
ATOM     55 H61  QUI L   1       8.166  -7.861  -7.847  1.00  0.00    +0.0623  H
ENDBRANCH 37 43
ENDBRANCH 36 37
ENDBRANCH 33 36
ENDBRANCH 23 33
ENDBRANCH 21 26
BRANCH 21 56
ATOM     56 C15  QUI L   1      12.193  -9.220 -13.988  1.00  0.00    +0.0085  C
ATOM     57 N16  QUI L   1      11.079  -9.803 -14.752  1.00  0.00    -0.3289 NA
ATOM     58 H45  QUI L   1      12.907  -8.773 -14.690  1.00  0.00    +0.0432  H
ATOM     59 H46  QUI L   1      12.716 -10.042 -13.483  1.00  0.00    +0.0432  H
ATOM     60 H47  QUI L   1      11.461 -10.452 -15.441  1.00  0.00    +0.1182 HD
ATOM     61 H48  QUI L   1      10.629  -9.062 -15.293  1.00  0.00    +0.1182 HD
ENDBRANCH 21 56
ENDBRANCH 17 21
ENDBRANCH 1 19
TORSDOF 8
ENDMDL
MODEL 18
REMARK VINA RESULT:    -6.701      3.734     11.230
REMARK INTER + INTRA:         -10.984
REMARK INTER:                  -8.822
REMARK INTRA:                  -2.162
REMARK UNBOUND:                -1.149
ROOT
ATOM      1 C20  QUI L   1       8.240  -8.540  -9.124  1.00  0.00    +0.0424  A
ATOM      2 C21  QUI L   1       8.281  -8.229 -10.479  1.00  0.00    -0.0363  A
ATOM      3 C22  QUI L   1       7.402  -8.851 -11.376  1.00  0.00    -0.0338  A
ATOM      4 C23  QUI L   1       6.468  -9.787 -10.958  1.00  0.00    +0.0711  A
ATOM      5 N24  QUI L   1       5.646 -10.355 -11.858  1.00  0.00    -0.2550 NA
ATOM      6 C25  QUI L   1       4.749 -11.264 -11.415  1.00  0.00    +0.0283  A
ATOM      7 C26  QUI L   1       4.627 -11.642 -10.091  1.00  0.00    -0.0430  A
ATOM      8 C27  QUI L   1       5.478 -11.053  -9.164  1.00  0.00    -0.0511  A
ATOM      9 C28  QUI L   1       6.421 -10.106  -9.586  1.00  0.00    +0.0023  A
ATOM     10 C29  QUI L   1       7.303  -9.482  -8.682  1.00  0.00    -0.0291  A
ATOM     11 H50  QUI L   1       8.982  -7.504 -10.882  1.00  0.00    +0.0639  H
ATOM     12 H51  QUI L   1       7.450  -8.594 -12.431  1.00  0.00    +0.0640  H
ATOM     13 H52  QUI L   1       4.111 -11.692 -12.182  1.00  0.00    +0.0830  H
ATOM     14 H53  QUI L   1       3.890 -12.377  -9.791  1.00  0.00    +0.0633  H
ATOM     15 H54  QUI L   1       5.401 -11.334  -8.118  1.00  0.00    +0.0625  H
ATOM     16 H55  QUI L   1       7.252  -9.744  -7.628  1.00  0.00    +0.0645  H
ENDROOT
BRANCH 1 19
ATOM     17 C17  QUI L   1      10.367  -8.354  -7.798  1.00  0.00    +0.2339  C
ATOM     18 O18  QUI L   1      10.982  -9.308  -8.267  1.00  0.00    -0.2722 OA
ATOM     19 N19  QUI L   1       9.082  -7.963  -8.152  1.00  0.00    -0.3256  N
ATOM     20 H49  QUI L   1       8.688  -7.196  -7.620  1.00  0.00    +0.1686 HD
BRANCH 17 21
ATOM     21 C14  QUI L   1      10.982  -7.438  -6.725  1.00  0.00    +0.0752  C
ATOM     22 H44  QUI L   1      10.166  -6.777  -6.398  1.00  0.00    +0.0458  H
BRANCH 21 26
ATOM     23 C10  QUI L   1      12.448  -9.699  -3.314  1.00  0.00    -0.0103  A
ATOM     24 C11  QUI L   1      13.269  -8.770  -3.963  1.00  0.00    -0.0551  A
ATOM     25 C12  QUI L   1      12.792  -8.043  -5.056  1.00  0.00    -0.0574  A
ATOM     26 C13  QUI L   1      11.484  -8.234  -5.525  1.00  0.00    -0.0341  A
ATOM     27 C30  QUI L   1      10.670  -9.181  -4.885  1.00  0.00    -0.0574  A
ATOM     28 C31  QUI L   1      11.149  -9.906  -3.791  1.00  0.00    -0.0551  A
ATOM     29 H42  QUI L   1      14.294  -8.617  -3.629  1.00  0.00    +0.0621  H
ATOM     30 H43  QUI L   1      13.458  -7.339  -5.552  1.00  0.00    +0.0621  H
ATOM     31 H56  QUI L   1       9.654  -9.368  -5.234  1.00  0.00    +0.0621  H
ATOM     32 H57  QUI L   1      10.502 -10.644  -3.319  1.00  0.00    +0.0621  H
BRANCH 23 33
ATOM     33  C9  QUI L   1      12.971 -10.505  -2.153  1.00  0.00    +0.1179  C
ATOM     34 H40  QUI L   1      13.507 -11.401  -2.491  1.00  0.00    +0.0749  H
ATOM     35 H41  QUI L   1      12.132 -10.868  -1.549  1.00  0.00    +0.0749  H
BRANCH 33 36
ATOM     36  O8  QUI L   1      13.773  -9.666  -1.314  1.00  0.00    -0.4564 OA
BRANCH 36 37
ATOM     37  C6  QUI L   1      13.142  -9.150  -0.234  1.00  0.00    +0.3398  C
ATOM     38  O7  QUI L   1      12.494  -9.764   0.597  1.00  0.00    -0.2449 OA
BRANCH 37 43
ATOM     39  C1  QUI L   1      14.569  -3.558   0.230  1.00  0.00    -0.0397  C
ATOM     40  C2  QUI L   1      14.160  -4.998   0.133  1.00  0.00    -0.0502  A
ATOM     41  C3  QUI L   1      15.003  -6.006   0.608  1.00  0.00    -0.0580  A
ATOM     42  C4  QUI L   1      14.636  -7.346   0.481  1.00  0.00    -0.0473  A
ATOM     43  C5  QUI L   1      13.426  -7.697  -0.136  1.00  0.00    +0.0619  A
ATOM     44 C32  QUI L   1      12.555  -6.696  -0.604  1.00  0.00    -0.0362  A
ATOM     45 C33  QUI L   1      11.230  -7.002  -1.244  1.00  0.00    -0.0389  C
ATOM     46 C34  QUI L   1      12.950  -5.351  -0.482  1.00  0.00    -0.0551  A
ATOM     47 H35  QUI L   1      15.212  -3.390   1.100  1.00  0.00    +0.0278  H
ATOM     48 H36  QUI L   1      13.692  -2.910   0.344  1.00  0.00    +0.0278  H
ATOM     49 H37  QUI L   1      15.113  -3.262  -0.673  1.00  0.00    +0.0278  H
ATOM     50 H38  QUI L   1      15.951  -5.755   1.079  1.00  0.00    +0.0620  H
ATOM     51 H39  QUI L   1      15.302  -8.120   0.859  1.00  0.00    +0.0626  H
ATOM     52 H58  QUI L   1      10.709  -7.800  -0.705  1.00  0.00    +0.0278  H
ATOM     53 H59  QUI L   1      11.371  -7.293  -2.289  1.00  0.00    +0.0278  H
ATOM     54 H60  QUI L   1      10.570  -6.128  -1.222  1.00  0.00    +0.0278  H
ATOM     55 H61  QUI L   1      12.300  -4.563  -0.861  1.00  0.00    +0.0623  H
ENDBRANCH 37 43
ENDBRANCH 36 37
ENDBRANCH 33 36
ENDBRANCH 23 33
ENDBRANCH 21 26
BRANCH 21 56
ATOM     56 C15  QUI L   1      12.090  -6.557  -7.341  1.00  0.00    +0.0085  C
ATOM     57 N16  QUI L   1      11.798  -6.158  -8.727  1.00  0.00    -0.3289 NA
ATOM     58 H45  QUI L   1      12.251  -5.654  -6.740  1.00  0.00    +0.0432  H
ATOM     59 H46  QUI L   1      13.038  -7.108  -7.347  1.00  0.00    +0.0432  H
ATOM     60 H47  QUI L   1      12.553  -5.556  -9.058  1.00  0.00    +0.1182 HD
ATOM     61 H48  QUI L   1      10.960  -5.573  -8.731  1.00  0.00    +0.1182 HD
ENDBRANCH 21 56
ENDBRANCH 17 21
ENDBRANCH 1 19
TORSDOF 8
ENDMDL
MODEL 19
REMARK VINA RESULT:    -6.697      3.578     11.321
REMARK INTER + INTRA:         -10.977
REMARK INTER:                  -9.863
REMARK INTRA:                  -1.115
REMARK UNBOUND:                -1.149
ROOT
ATOM      1 C20  QUI L   1      12.408  -8.536  -7.807  1.00  0.00    +0.0424  A
ATOM      2 C21  QUI L   1      11.334  -8.696  -8.676  1.00  0.00    -0.0363  A
ATOM      3 C22  QUI L   1      11.440  -8.294 -10.015  1.00  0.00    -0.0338  A
ATOM      4 C23  QUI L   1      12.600  -7.730 -10.522  1.00  0.00    +0.0711  A
ATOM      5 N24  QUI L   1      12.651  -7.361 -11.815  1.00  0.00    -0.2550 NA
ATOM      6 C25  QUI L   1      13.799  -6.814 -12.274  1.00  0.00    +0.0283  A
ATOM      7 C26  QUI L   1      14.922  -6.613 -11.495  1.00  0.00    -0.0430  A
ATOM      8 C27  QUI L   1      14.866  -6.996 -10.160  1.00  0.00    -0.0511  A
ATOM      9 C28  QUI L   1      13.693  -7.567  -9.647  1.00  0.00    +0.0023  A
ATOM     10 C29  QUI L   1      13.590  -7.970  -8.301  1.00  0.00    -0.0291  A
ATOM     11 H50  QUI L   1      10.393  -9.132  -8.355  1.00  0.00    +0.0639  H
ATOM     12 H51  QUI L   1      10.589  -8.427 -10.678  1.00  0.00    +0.0640  H
ATOM     13 H52  QUI L   1      13.787  -6.534 -13.323  1.00  0.00    +0.0830  H
ATOM     14 H53  QUI L   1      15.816  -6.169 -11.916  1.00  0.00    +0.0633  H
ATOM     15 H54  QUI L   1      15.736  -6.848  -9.527  1.00  0.00    +0.0625  H
ATOM     16 H55  QUI L   1      14.443  -7.833  -7.642  1.00  0.00    +0.0645  H
ENDROOT
BRANCH 1 19
ATOM     17 C17  QUI L   1      11.538  -8.465  -5.451  1.00  0.00    +0.2339  C
ATOM     18 O18  QUI L   1      10.654  -7.624  -5.587  1.00  0.00    -0.2722 OA
ATOM     19 N19  QUI L   1      12.393  -8.914  -6.449  1.00  0.00    -0.3256  N
ATOM     20 H49  QUI L   1      13.116  -9.561  -6.159  1.00  0.00    +0.1686 HD
BRANCH 17 21
ATOM     21 C14  QUI L   1      11.805  -9.155  -4.100  1.00  0.00    +0.0752  C
ATOM     22 H44  QUI L   1      12.742  -9.714  -4.234  1.00  0.00    +0.0458  H
BRANCH 21 26
ATOM     23 C10  QUI L   1      12.368  -6.260  -0.906  1.00  0.00    -0.0103  A
ATOM     24 C11  QUI L   1      13.301  -6.373  -1.944  1.00  0.00    -0.0551  A
ATOM     25 C12  QUI L   1      13.113  -7.302  -2.970  1.00  0.00    -0.0574  A
ATOM     26 C13  QUI L   1      11.989  -8.140  -2.976  1.00  0.00    -0.0341  A
ATOM     27 C30  QUI L   1      11.066  -8.040  -1.925  1.00  0.00    -0.0574  A
ATOM     28 C31  QUI L   1      11.255  -7.109  -0.901  1.00  0.00    -0.0551  A
ATOM     29 H42  QUI L   1      14.190  -5.744  -1.950  1.00  0.00    +0.0621  H
ATOM     30 H43  QUI L   1      13.864  -7.379  -3.755  1.00  0.00    +0.0621  H
ATOM     31 H56  QUI L   1      10.191  -8.688  -1.889  1.00  0.00    +0.0621  H
ATOM     32 H57  QUI L   1      10.531  -7.058  -0.089  1.00  0.00    +0.0621  H
BRANCH 23 33
ATOM     33  C9  QUI L   1      12.584  -5.278   0.216  1.00  0.00    +0.1179  C
ATOM     34 H40  QUI L   1      12.792  -4.270  -0.163  1.00  0.00    +0.0749  H
ATOM     35 H41  QUI L   1      13.469  -5.569   0.793  1.00  0.00    +0.0749  H
BRANCH 33 36
ATOM     36  O8  QUI L   1      11.461  -5.314   1.103  1.00  0.00    -0.4564 OA
BRANCH 36 37
ATOM     37  C6  QUI L   1      11.752  -5.564   2.400  1.00  0.00    +0.3398  C
ATOM     38  O7  QUI L   1      12.478  -6.445   2.831  1.00  0.00    -0.2449 OA
BRANCH 37 43
ATOM     39  C1  QUI L   1       9.046  -1.759   5.825  1.00  0.00    -0.0397  C
ATOM     40  C2  QUI L   1       9.755  -2.711   4.906  1.00  0.00    -0.0502  A
ATOM     41  C3  QUI L   1       9.116  -3.870   4.458  1.00  0.00    -0.0580  A
ATOM     42  C4  QUI L   1       9.792  -4.771   3.636  1.00  0.00    -0.0473  A
ATOM     43  C5  QUI L   1      11.123  -4.533   3.262  1.00  0.00    +0.0619  A
ATOM     44 C32  QUI L   1      11.778  -3.362   3.687  1.00  0.00    -0.0362  A
ATOM     45 C33  QUI L   1      13.190  -3.030   3.295  1.00  0.00    -0.0389  C
ATOM     46 C34  QUI L   1      11.085  -2.474   4.529  1.00  0.00    -0.0551  A
ATOM     47 H35  QUI L   1       7.966  -1.774   5.645  1.00  0.00    +0.0278  H
ATOM     48 H36  QUI L   1       9.389  -0.731   5.661  1.00  0.00    +0.0278  H
ATOM     49 H37  QUI L   1       9.235  -2.035   6.867  1.00  0.00    +0.0278  H
ATOM     50 H38  QUI L   1       8.088  -4.079   4.747  1.00  0.00    +0.0620  H
ATOM     51 H39  QUI L   1       9.280  -5.669   3.293  1.00  0.00    +0.0626  H
ATOM     52 H58  QUI L   1      13.367  -3.255   2.238  1.00  0.00    +0.0278  H
ATOM     53 H59  QUI L   1      13.898  -3.587   3.916  1.00  0.00    +0.0278  H
ATOM     54 H60  QUI L   1      13.394  -1.961   3.425  1.00  0.00    +0.0278  H
ATOM     55 H61  QUI L   1      11.584  -1.574   4.889  1.00  0.00    +0.0623  H
ENDBRANCH 37 43
ENDBRANCH 36 37
ENDBRANCH 33 36
ENDBRANCH 23 33
ENDBRANCH 21 26
BRANCH 21 56
ATOM     56 C15  QUI L   1      10.686 -10.172  -3.787  1.00  0.00    +0.0085  C
ATOM     57 N16  QUI L   1       9.360  -9.721  -4.239  1.00  0.00    -0.3289 NA
ATOM     58 H45  QUI L   1      10.902 -11.145  -4.245  1.00  0.00    +0.0432  H
ATOM     59 H46  QUI L   1      10.630 -10.335  -2.703  1.00  0.00    +0.0432  H
ATOM     60 H47  QUI L   1       8.678 -10.451  -4.028  1.00  0.00    +0.1182 HD
ATOM     61 H48  QUI L   1       9.370  -9.641  -5.257  1.00  0.00    +0.1182 HD
ENDBRANCH 21 56
ENDBRANCH 17 21
ENDBRANCH 1 19
TORSDOF 8
ENDMDL
MODEL 20
REMARK VINA RESULT:    -6.505      5.538      9.759
REMARK INTER + INTRA:         -10.695
REMARK INTER:                  -7.706
REMARK INTRA:                  -2.990
REMARK UNBOUND:                -1.149
ROOT
ATOM      1 C20  QUI L   1       8.278 -10.637  -8.286  1.00  0.00    +0.0424  A
ATOM      2 C21  QUI L   1       7.446 -11.504  -7.584  1.00  0.00    -0.0363  A
ATOM      3 C22  QUI L   1       6.188 -11.849  -8.096  1.00  0.00    -0.0338  A
ATOM      4 C23  QUI L   1       5.727 -11.351  -9.305  1.00  0.00    +0.0711  A
ATOM      5 N24  QUI L   1       4.511 -11.713  -9.753  1.00  0.00    -0.2550 NA
ATOM      6 C25  QUI L   1       4.094 -11.208 -10.935  1.00  0.00    +0.0283  A
ATOM      7 C26  QUI L   1       4.842 -10.342 -11.710  1.00  0.00    -0.0430  A
ATOM      8 C27  QUI L   1       6.097  -9.970 -11.243  1.00  0.00    -0.0511  A
ATOM      9 C28  QUI L   1       6.565 -10.474 -10.022  1.00  0.00    +0.0023  A
ATOM     10 C29  QUI L   1       7.830 -10.126  -9.510  1.00  0.00    -0.0291  A
ATOM     11 H50  QUI L   1       7.738 -11.937  -6.632  1.00  0.00    +0.0639  H
ATOM     12 H51  QUI L   1       5.553 -12.527  -7.532  1.00  0.00    +0.0640  H
ATOM     13 H52  QUI L   1       3.106 -11.531 -11.251  1.00  0.00    +0.0830  H
ATOM     14 H53  QUI L   1       4.457  -9.967 -12.650  1.00  0.00    +0.0633  H
ATOM     15 H54  QUI L   1       6.704  -9.291 -11.834  1.00  0.00    +0.0625  H
ATOM     16 H55  QUI L   1       8.460  -9.446 -10.078  1.00  0.00    +0.0645  H
ENDROOT
BRANCH 1 19
ATOM     17 C17  QUI L   1       9.874  -9.227  -6.953  1.00  0.00    +0.2339  C
ATOM     18 O18  QUI L   1       9.072  -8.478  -6.404  1.00  0.00    -0.2722 OA
ATOM     19 N19  QUI L   1       9.558 -10.239  -7.850  1.00  0.00    -0.3256  N
ATOM     20 H49  QUI L   1      10.343 -10.723  -8.270  1.00  0.00    +0.1686 HD
BRANCH 17 21
ATOM     21 C14  QUI L   1      11.389  -9.131  -6.692  1.00  0.00    +0.0752  C
ATOM     22 H44  QUI L   1      11.692 -10.129  -6.344  1.00  0.00    +0.0458  H
BRANCH 21 26
ATOM     23 C10  QUI L   1      13.599  -8.210 -10.321  1.00  0.00    -0.0103  A
ATOM     24 C11  QUI L   1      13.357  -9.538  -9.947  1.00  0.00    -0.0551  A
ATOM     25 C12  QUI L   1      12.643  -9.828  -8.782  1.00  0.00    -0.0574  A
ATOM     26 C13  QUI L   1      12.160  -8.795  -7.965  1.00  0.00    -0.0341  A
ATOM     27 C30  QUI L   1      12.421  -7.467  -8.331  1.00  0.00    -0.0574  A
ATOM     28 C31  QUI L   1      13.135  -7.179  -9.496  1.00  0.00    -0.0551  A
ATOM     29 H42  QUI L   1      13.737 -10.356 -10.556  1.00  0.00    +0.0621  H
ATOM     30 H43  QUI L   1      12.483 -10.869  -8.507  1.00  0.00    +0.0621  H
ATOM     31 H56  QUI L   1      12.077  -6.640  -7.709  1.00  0.00    +0.0621  H
ATOM     32 H57  QUI L   1      13.337  -6.139  -9.753  1.00  0.00    +0.0621  H
BRANCH 23 33
ATOM     33  C9  QUI L   1      14.394  -7.897 -11.561  1.00  0.00    +0.1179  C
ATOM     34 H40  QUI L   1      15.422  -8.274 -11.489  1.00  0.00    +0.0749  H
ATOM     35 H41  QUI L   1      14.482  -6.810 -11.676  1.00  0.00    +0.0749  H
BRANCH 33 36
ATOM     36  O8  QUI L   1      13.702  -8.396 -12.710  1.00  0.00    -0.4564 OA
BRANCH 36 37
ATOM     37  C6  QUI L   1      12.571  -7.732 -13.042  1.00  0.00    +0.3398  C
ATOM     38  O7  QUI L   1      12.447  -6.527 -13.190  1.00  0.00    -0.2449 OA
BRANCH 37 43
ATOM     39  C1  QUI L   1       8.511 -11.669 -14.282  1.00  0.00    -0.0397  C
ATOM     40  C2  QUI L   1       9.530 -10.615 -13.962  1.00  0.00    -0.0502  A
ATOM     41  C3  QUI L   1      10.663 -10.461 -14.765  1.00  0.00    -0.0580  A
ATOM     42  C4  QUI L   1      11.628  -9.506 -14.442  1.00  0.00    -0.0473  A
ATOM     43  C5  QUI L   1      11.479  -8.701 -13.302  1.00  0.00    +0.0619  A
ATOM     44 C32  QUI L   1      10.335  -8.829 -12.492  1.00  0.00    -0.0362  A
ATOM     45 C33  QUI L   1      10.098  -7.975 -11.278  1.00  0.00    -0.0389  C
ATOM     46 C34  QUI L   1       9.382  -9.808 -12.825  1.00  0.00    -0.0551  A
ATOM     47 H35  QUI L   1       8.468 -11.858 -15.359  1.00  0.00    +0.0278  H
ATOM     48 H36  QUI L   1       7.510 -11.351 -13.968  1.00  0.00    +0.0278  H
ATOM     49 H37  QUI L   1       8.764 -12.602 -13.769  1.00  0.00    +0.0278  H
ATOM     50 H38  QUI L   1      10.804 -11.083 -15.646  1.00  0.00    +0.0620  H
ATOM     51 H39  QUI L   1      12.504  -9.396 -15.078  1.00  0.00    +0.0626  H
ATOM     52 H58  QUI L   1      10.366  -6.932 -11.473  1.00  0.00    +0.0278  H
ATOM     53 H59  QUI L   1      10.675  -8.354 -10.429  1.00  0.00    +0.0278  H
ATOM     54 H60  QUI L   1       9.039  -7.978 -10.995  1.00  0.00    +0.0278  H
ATOM     55 H61  QUI L   1       8.502  -9.938 -12.195  1.00  0.00    +0.0623  H
ENDBRANCH 37 43
ENDBRANCH 36 37
ENDBRANCH 33 36
ENDBRANCH 23 33
ENDBRANCH 21 26
BRANCH 21 56
ATOM     56 C15  QUI L   1      11.675  -8.123  -5.557  1.00  0.00    +0.0085  C
ATOM     57 N16  QUI L   1      11.098  -8.536  -4.268  1.00  0.00    -0.3289 NA
ATOM     58 H45  QUI L   1      12.754  -7.974  -5.430  1.00  0.00    +0.0432  H
ATOM     59 H46  QUI L   1      11.246  -7.147  -5.815  1.00  0.00    +0.0432  H
ATOM     60 H47  QUI L   1      11.351  -7.843  -3.562  1.00  0.00    +0.1182 HD
ATOM     61 H48  QUI L   1      11.546  -9.405  -3.971  1.00  0.00    +0.1182 HD
ENDBRANCH 21 56
ENDBRANCH 17 21
ENDBRANCH 1 19
TORSDOF 8
ENDMDL
