ROOT
ATOM      1 C20  DES L   1      -4.215  -0.069  -0.497  1.00  0.00    +0.0423  A
ATOM      2 C21  DES L   1      -5.136  -0.284   0.534  1.00  0.00    -0.0377  A
ATOM      3 C22  DES L   1      -6.040   0.715   0.904  1.00  0.00    -0.0506  A
ATOM      4 C23  DES L   1      -6.035   1.953   0.244  1.00  0.00    +0.0004  A
ATOM      5 C24  DES L   1      -6.913   2.991   0.567  1.00  0.00    +0.0353  A
ATOM      6 N25  DES L   1      -6.937   4.197  -0.048  1.00  0.00    -0.2626 NA
ATOM      7 C26  DES L   1      -6.038   4.383  -1.037  1.00  0.00    +0.0281  A
ATOM      8 C27  DES L   1      -5.122   3.425  -1.440  1.00  0.00    -0.0358  A
ATOM      9 C28  DES L   1      -5.113   2.183  -0.794  1.00  0.00    -0.0131  A
ATOM     10 C29  DES L   1      -4.209   1.165  -1.153  1.00  0.00    -0.0305  A
ATOM     11 H49  DES L   1      -5.162  -1.234   1.063  1.00  0.00    +0.0638  H
ATOM     12 H50  DES L   1      -6.745   0.520   1.709  1.00  0.00    +0.0625  H
ATOM     13 H51  DES L   1      -7.650   2.879   1.358  1.00  0.00    +0.0836  H
ATOM     14 H52  DES L   1      -6.073   5.357  -1.516  1.00  0.00    +0.0830  H
ATOM     15 H53  DES L   1      -4.428   3.647  -2.245  1.00  0.00    +0.0639  H
ATOM     16 H54  DES L   1      -3.503   1.362  -1.954  1.00  0.00    +0.0644  H
ENDROOT
BRANCH 1 19
ATOM     17 C17  DES L   1      -2.359  -1.182  -1.776  1.00  0.00    +0.2339  C
ATOM     18 O18  DES L   1      -2.082  -0.281  -2.566  1.00  0.00    -0.2722 OA
ATOM     19 N19  DES L   1      -3.341  -1.128  -0.802  1.00  0.00    -0.3256  N
ATOM     20 H48  DES L   1      -3.440  -1.979  -0.241  1.00  0.00    +0.1686 HD
BRANCH 17 21
ATOM     21 C14  DES L   1      -1.558  -2.496  -1.788  1.00  0.00    +0.0752  C
ATOM     22 H43  DES L   1      -1.247  -2.595  -2.839  1.00  0.00    +0.0458  H
BRANCH 21 26
ATOM     23 C10  DES L   1       2.106  -2.497   0.564  1.00  0.00    -0.0103  A
ATOM     24 C11  DES L   1       2.028  -3.181  -0.654  1.00  0.00    -0.0551  A
ATOM     25 C12  DES L   1       0.847  -3.166  -1.400  1.00  0.00    -0.0574  A
ATOM     26 C13  DES L   1      -0.280  -2.457  -0.955  1.00  0.00    -0.0341  A
ATOM     27 C30  DES L   1      -0.193  -1.766   0.262  1.00  0.00    -0.0574  A
ATOM     28 C31  DES L   1       0.988  -1.783   1.010  1.00  0.00    -0.0551  A
ATOM     29 H41  DES L   1       2.891  -3.724  -1.034  1.00  0.00    +0.0621  H
ATOM     30 H42  DES L   1       0.819  -3.709  -2.344  1.00  0.00    +0.0621  H
ATOM     31 H55  DES L   1      -1.034  -1.195   0.649  1.00  0.00    +0.0621  H
ATOM     32 H56  DES L   1       1.034  -1.223   1.943  1.00  0.00    +0.0621  H
BRANCH 23 33
ATOM     33  C9  DES L   1       3.384  -2.484   1.361  1.00  0.00    +0.1178  C
ATOM     34 H39  DES L   1       3.179  -2.496   2.438  1.00  0.00    +0.0749  H
ATOM     35 H40  DES L   1       3.963  -3.392   1.156  1.00  0.00    +0.0749  H
BRANCH 33 36
ATOM     36  O8  DES L   1       4.182  -1.367   0.951  1.00  0.00    -0.4564 OA
BRANCH 36 37
ATOM     37  C6  DES L   1       4.162  -0.293   1.775  1.00  0.00    +0.3395  C
ATOM     38  O7  DES L   1       3.569  -0.212   2.840  1.00  0.00    -0.2450 OA
BRANCH 37 43
ATOM     39  C1  DES L   1       7.368   4.087  -0.275  1.00  0.00    -0.0397  C
ATOM     40  C2  DES L   1       6.520   2.958   0.233  1.00  0.00    -0.0504  A
ATOM     41  C3  DES L   1       5.945   3.022   1.507  1.00  0.00    -0.0581  A
ATOM     42  C4  DES L   1       5.179   1.958   1.991  1.00  0.00    -0.0475  A
ATOM     43  C5  DES L   1       4.988   0.810   1.212  1.00  0.00    +0.0590  A
ATOM     44 C32  DES L   1       5.572   0.739  -0.059  1.00  0.00    -0.0475  A
ATOM     45 C33  DES L   1       6.338   1.805  -0.541  1.00  0.00    -0.0581  A
ATOM     46 H34  DES L   1       8.411   3.932   0.017  1.00  0.00    +0.0278  H
ATOM     47 H35  DES L   1       7.312   4.158  -1.366  1.00  0.00    +0.0278  H
ATOM     48 H36  DES L   1       7.026   5.045   0.130  1.00  0.00    +0.0278  H
ATOM     49 H37  DES L   1       6.086   3.902   2.131  1.00  0.00    +0.0620  H
ATOM     50 H38  DES L   1       4.733   2.030   2.982  1.00  0.00    +0.0626  H
ATOM     51 H57  DES L   1       5.438  -0.137  -0.688  1.00  0.00    +0.0626  H
ATOM     52 H58  DES L   1       6.788   1.731  -1.529  1.00  0.00    +0.0620  H
ENDBRANCH 37 43
ENDBRANCH 36 37
ENDBRANCH 33 36
ENDBRANCH 23 33
ENDBRANCH 21 26
BRANCH 21 53
ATOM     53 C15  DES L   1      -2.419  -3.746  -1.491  1.00  0.00    +0.0085  C
ATOM     54 N16  DES L   1      -2.914  -3.829  -0.103  1.00  0.00    -0.3289 NA
ATOM     55 H44  DES L   1      -3.289  -3.753  -2.158  1.00  0.00    +0.0432  H
ATOM     56 H45  DES L   1      -1.842  -4.654  -1.703  1.00  0.00    +0.0432  H
ATOM     57 H46  DES L   1      -3.436  -4.703  -0.001  1.00  0.00    +0.1182 HD
ATOM     58 H47  DES L   1      -2.104  -3.940   0.517  1.00  0.00    +0.1182 HD
ENDBRANCH 21 53
ENDBRANCH 17 21
ENDBRANCH 1 19
TORSDOF 8
