ROOT
ATOM      1  C1  931 L   1       3.732   0.500   0.000  1.00  0.00    -0.0179  A
ATOM      2  C2  931 L   1       3.732  -0.500   0.000  1.00  0.00    -0.0179  A
ATOM      3  C3  931 L   1       4.626   1.035   0.000  1.00  0.00    -0.0540  A
ATOM      4  C4  931 L   1       4.626  -1.035   0.000  1.00  0.00    -0.0540  A
ATOM      5  C5  931 L   1       2.866   1.000   0.000  1.00  0.00    -0.0540  A
ATOM      6  C6  931 L   1       2.866  -1.000   0.000  1.00  0.00    -0.0540  A
ATOM      7  C7  931 L   1       5.532   0.521   0.000  1.00  0.00    -0.0612  A
ATOM      8  C8  931 L   1       5.532  -0.521   0.000  1.00  0.00    -0.0612  A
ATOM      9  C9  931 L   1       2.000   0.500   0.000  1.00  0.00    -0.0612  A
ATOM     10 C10  931 L   1       2.000  -0.500   0.000  1.00  0.00    -0.0612  A
ATOM     11 H11  931 L   1       4.619   1.655   0.000  1.00  0.00    +0.0624  H
ATOM     12 H12  931 L   1       4.619  -1.655   0.000  1.00  0.00    +0.0624  H
ATOM     13 H13  931 L   1       2.866   1.620   0.000  1.00  0.00    +0.0624  H
ATOM     14 H14  931 L   1       2.866  -1.620   0.000  1.00  0.00    +0.0624  H
ATOM     15 H15  931 L   1       6.068   0.833   0.000  1.00  0.00    +0.0618  H
ATOM     16 H16  931 L   1       6.068  -0.833   0.000  1.00  0.00    +0.0618  H
ATOM     17 H17  931 L   1       1.463   0.810   0.000  1.00  0.00    +0.0618  H
ATOM     18 H18  931 L   1       1.463  -0.810   0.000  1.00  0.00    +0.0618  H
ENDROOT
TORSDOF 0
