ROOT
ATOM      1 CL1  121 L   1      -3.695  -5.725  -8.484  1.00  0.00    -0.0817 Cl
ATOM      2 CL2  121 L   1      -4.417  -5.864  -5.457  1.00  0.00    -0.0820 Cl
ATOM      3  C5  121 L   1      -1.126  -5.571  -7.684  1.00  0.00    -0.0113  A
ATOM      4  C7  121 L   1      -2.423  -5.673  -7.274  1.00  0.00    +0.0639  A
ATOM      5  C8  121 L   1      -0.150  -5.533  -6.698  1.00  0.00    -0.0556  A
ATOM      6  C9  121 L   1      -2.744  -5.734  -5.947  1.00  0.00    +0.0596  A
ATOM      7 C10  121 L   1      -0.434  -5.592  -5.356  1.00  0.00    -0.0600  A
ATOM      8 C11  121 L   1      -1.761  -5.695  -4.970  1.00  0.00    -0.0420  A
ATOM      9 H18  121 L   1       0.902  -5.451  -7.007  1.00  0.00    +0.0621  H
ATOM     10 H19  121 L   1       0.371  -5.559  -4.607  1.00  0.00    +0.0618  H
ATOM     11 H20  121 L   1      -2.030  -5.746  -3.904  1.00  0.00    +0.0633  H
ENDROOT
BRANCH 3 13
ATOM     12  N3  121 L   1      -0.601  -4.155  -9.589  1.00  0.00    -0.3237 NA
ATOM     13  C4  121 L   1      -0.700  -5.500  -9.098  1.00  0.00    +0.0289  C
ATOM     14  C6  121 L   1      -1.688  -6.259  -9.991  1.00  0.00    -0.0457  C
ATOM     15 H12  121 L   1      -0.552  -3.501  -8.794  1.00  0.00    +0.1188 HD
ATOM     16 H13  121 L   1       0.250  -4.061 -10.163  1.00  0.00    +0.1188 HD
ATOM     17 H14  121 L   1       0.300  -5.956  -9.134  1.00  0.00    +0.0506  H
ATOM     18 H15  121 L   1      -2.403  -6.809  -9.361  1.00  0.00    +0.0248  H
ATOM     19 H16  121 L   1      -2.232  -5.544 -10.626  1.00  0.00    +0.0248  H
ATOM     20 H17  121 L   1      -1.137  -6.968 -10.626  1.00  0.00    +0.0248  H
ENDBRANCH 3 13
TORSDOF 1
