ROOT
ATOM      1 CL1  121 L   1       4.606  16.412  16.377  1.00  0.00    -0.0817 Cl
ATOM      2 CL2  121 L   1       1.974  15.039  15.386  1.00  0.00    -0.0820 Cl
ATOM      3  C5  121 L   1       5.253  16.671  13.769  1.00  0.00    -0.0113  A
ATOM      4  C7  121 L   1       4.308  16.212  14.656  1.00  0.00    +0.0639  A
ATOM      5  C8  121 L   1       5.043  16.527  12.413  1.00  0.00    -0.0556  A
ATOM      6  C9  121 L   1       3.139  15.602  14.191  1.00  0.00    +0.0596  A
ATOM      7 C10  121 L   1       3.876  15.918  11.957  1.00  0.00    -0.0600  A
ATOM      8 C11  121 L   1       2.940  15.464  12.842  1.00  0.00    -0.0420  A
ATOM      9 H18  121 L   1       5.794  16.891  11.696  1.00  0.00    +0.0621  H
ATOM     10 H19  121 L   1       3.706  15.802  10.876  1.00  0.00    +0.0618  H
ATOM     11 H20  121 L   1       2.022  14.984  12.471  1.00  0.00    +0.0633  H
ENDROOT
BRANCH 3 13
ATOM     12  N3  121 L   1       7.403  16.401  14.881  1.00  0.00    -0.3237 NA
ATOM     13  C4  121 L   1       6.512  17.327  14.208  1.00  0.00    +0.0289  C
ATOM     14  C6  121 L   1       6.235  18.560  15.041  1.00  0.00    -0.0457  C
ATOM     15 H12  121 L   1       7.302  16.506  15.900  1.00  0.00    +0.1188 HD
ATOM     16 H13  121 L   1       7.165  15.436  14.610  1.00  0.00    +0.1188 HD
ATOM     17 H14  121 L   1       7.037  17.661  13.301  1.00  0.00    +0.0506  H
ATOM     18 H15  121 L   1       6.293  18.302  16.109  1.00  0.00    +0.0248  H
ATOM     19 H16  121 L   1       6.982  19.334  14.809  1.00  0.00    +0.0248  H
ATOM     20 H17  121 L   1       5.229  18.940  14.809  1.00  0.00    +0.0248  H
ENDBRANCH 3 13
TORSDOF 1
