ROOT
ATOM      1 CL1  121 L   1      11.401  -0.039  -0.149  1.00  0.00    -0.0817 Cl
ATOM      2 CL2  121 L   1      14.063  -1.321  -1.135  1.00  0.00    -0.0820 Cl
ATOM      3  C5  121 L   1      10.228  -1.308  -2.216  1.00  0.00    -0.0113  A
ATOM      4  C7  121 L   1      11.405  -1.077  -1.564  1.00  0.00    +0.0639  A
ATOM      5  C8  121 L   1      10.272  -2.135  -3.330  1.00  0.00    -0.0556  A
ATOM      6  C9  121 L   1      12.574  -1.638  -1.994  1.00  0.00    +0.0596  A
ATOM      7 C10  121 L   1      11.428  -2.716  -3.791  1.00  0.00    -0.0600  A
ATOM      8 C11  121 L   1      12.607  -2.463  -3.108  1.00  0.00    -0.0420  A
ATOM      9 H18  121 L   1       9.335  -2.334  -3.870  1.00  0.00    +0.0621  H
ATOM     10 H19  121 L   1      11.417  -3.365  -4.679  1.00  0.00    +0.0618  H
ATOM     11 H20  121 L   1      13.554  -2.909  -3.446  1.00  0.00    +0.0633  H
ENDROOT
BRANCH 3 13
ATOM     12  N3  121 L   1       8.332  -1.422  -0.699  1.00  0.00    -0.3237 NA
ATOM     13  C4  121 L   1       8.925  -0.739  -1.814  1.00  0.00    +0.0289  C
ATOM     14  C6  121 L   1       7.936  -0.793  -2.984  1.00  0.00    -0.0457  C
ATOM     15 H12  121 L   1       8.685  -1.016   0.180  1.00  0.00    +0.1188 HD
ATOM     16 H13  121 L   1       7.308  -1.318  -0.738  1.00  0.00    +0.1188 HD
ATOM     17 H14  121 L   1       9.130   0.299  -1.514  1.00  0.00    +0.0506  H
ATOM     18 H15  121 L   1       6.909  -0.849  -2.593  1.00  0.00    +0.0248  H
ATOM     19 H16  121 L   1       8.045   0.112  -3.599  1.00  0.00    +0.0248  H
ATOM     20 H17  121 L   1       8.143  -1.682  -3.599  1.00  0.00    +0.0248  H
ENDBRANCH 3 13
TORSDOF 1
