ROOT
ATOM      1 CL1  121 L   1      10.641  -0.886   0.101  1.00  0.00    -0.0817 Cl
ATOM      2 CL2  121 L   1      13.065  -0.531  -1.824  1.00  0.00    -0.0820 Cl
ATOM      3  C5  121 L   1       9.098  -0.788  -2.107  1.00  0.00    -0.0113  A
ATOM      4  C7  121 L   1      10.376  -0.742  -1.629  1.00  0.00    +0.0639  A
ATOM      5  C8  121 L   1       8.930  -0.671  -3.479  1.00  0.00    -0.0556  A
ATOM      6  C9  121 L   1      11.442  -0.587  -2.470  1.00  0.00    +0.0596  A
ATOM      7 C10  121 L   1       9.976  -0.514  -4.355  1.00  0.00    -0.0600  A
ATOM      8 C11  121 L   1      11.262  -0.470  -3.840  1.00  0.00    -0.0420  A
ATOM      9 H18  121 L   1       7.909  -0.706  -3.886  1.00  0.00    +0.0621  H
ATOM     10 H19  121 L   1       9.798  -0.424  -5.437  1.00  0.00    +0.0618  H
ATOM     11 H20  121 L   1      12.127  -0.345  -4.508  1.00  0.00    +0.0633  H
ENDROOT
BRANCH 3 13
ATOM     12  N3  121 L   1       6.691  -1.115  -2.025  1.00  0.00    -0.3237 NA
ATOM     13  C4  121 L   1       7.897  -0.954  -1.263  1.00  0.00    +0.0289  C
ATOM     14  C6  121 L   1       7.719   0.261  -0.344  1.00  0.00    -0.0457  C
ATOM     15 H12  121 L   1       5.892  -1.222  -1.384  1.00  0.00    +0.1188 HD
ATOM     16 H13  121 L   1       6.546  -0.286  -2.618  1.00  0.00    +0.1188 HD
ATOM     17 H14  121 L   1       8.063  -1.872  -0.680  1.00  0.00    +0.0506  H
ATOM     18 H15  121 L   1       7.767  -0.064   0.706  1.00  0.00    +0.0248  H
ATOM     19 H16  121 L   1       8.520   0.989  -0.540  1.00  0.00    +0.0248  H
ATOM     20 H17  121 L   1       6.743   0.728  -0.540  1.00  0.00    +0.0248  H
ENDBRANCH 3 13
TORSDOF 1
