ROOT
ATOM      1 CL1  121 L   1      21.568   9.007 -11.632  1.00  0.00    -0.0817 Cl
ATOM      2 CL2  121 L   1      23.072   7.117 -13.621  1.00  0.00    -0.0820 Cl
ATOM      3  C5  121 L   1      20.343  10.040 -13.803  1.00  0.00    -0.0113  A
ATOM      4  C7  121 L   1      21.256   9.114 -13.358  1.00  0.00    +0.0639  A
ATOM      5  C8  121 L   1      20.079  10.145 -15.153  1.00  0.00    -0.0556  A
ATOM      6  C9  121 L   1      21.916   8.280 -14.265  1.00  0.00    +0.0596  A
ATOM      7 C10  121 L   1      20.742   9.310 -16.052  1.00  0.00    -0.0600  A
ATOM      8 C11  121 L   1      21.648   8.391 -15.604  1.00  0.00    -0.0420  A
ATOM      9 H18  121 L   1      19.350  10.883 -15.518  1.00  0.00    +0.0621  H
ATOM     10 H19  121 L   1      20.533   9.392 -17.129  1.00  0.00    +0.0618  H
ATOM     11 H20  121 L   1      22.164   7.738 -16.322  1.00  0.00    +0.0633  H
ENDROOT
BRANCH 3 13
ATOM     12  N3  121 L   1      18.674  11.802 -13.591  1.00  0.00    -0.3237 NA
ATOM     13  C4  121 L   1      19.613  10.951 -12.884  1.00  0.00    +0.0289  C
ATOM     14  C6  121 L   1      20.566  11.748 -12.018  1.00  0.00    -0.0457  C
ATOM     15 H12  121 L   1      18.102  12.321 -12.910  1.00  0.00    +0.1188 HD
ATOM     16 H13  121 L   1      19.192  12.468 -14.182  1.00  0.00    +0.1188 HD
ATOM     17 H14  121 L   1      19.015  10.321 -12.210  1.00  0.00    +0.0506  H
ATOM     18 H15  121 L   1      20.342  11.561 -10.958  1.00  0.00    +0.0248  H
ATOM     19 H16  121 L   1      21.600  11.442 -12.234  1.00  0.00    +0.0248  H
ATOM     20 H17  121 L   1      20.448  12.820 -12.234  1.00  0.00    +0.0248  H
ENDBRANCH 3 13
TORSDOF 1
