ROOT
ATOM      1 CL1  121 L   1      18.744  -5.628 -15.247  1.00  0.00    -0.0817 Cl
ATOM      2 CL2  121 L   1      19.504  -3.496 -13.086  1.00  0.00    -0.0820 Cl
ATOM      3  C5  121 L   1      16.875  -6.487 -13.499  1.00  0.00    -0.0113  A
ATOM      4  C7  121 L   1      17.881  -5.576 -13.717  1.00  0.00    +0.0639  A
ATOM      5  C8  121 L   1      16.183  -6.469 -12.307  1.00  0.00    -0.0556  A
ATOM      6  C9  121 L   1      18.203  -4.632 -12.737  1.00  0.00    +0.0596  A
ATOM      7 C10  121 L   1      16.509  -5.525 -11.335  1.00  0.00    -0.0600  A
ATOM      8 C11  121 L   1      17.509  -4.621 -11.555  1.00  0.00    -0.0420  A
ATOM      9 H18  121 L   1      15.376  -7.194 -12.125  1.00  0.00    +0.0621  H
ATOM     10 H19  121 L   1      15.958  -5.508 -10.383  1.00  0.00    +0.0618  H
ATOM     11 H20  121 L   1      17.759  -3.881 -10.781  1.00  0.00    +0.0633  H
ENDROOT
BRANCH 3 13
ATOM     12  N3  121 L   1      15.621  -6.969 -15.531  1.00  0.00    -0.3237 NA
ATOM     13  C4  121 L   1      16.492  -7.511 -14.506  1.00  0.00    +0.0289  C
ATOM     14  C6  121 L   1      15.903  -8.742 -13.849  1.00  0.00    -0.0457  C
ATOM     15 H12  121 L   1      14.833  -6.477 -15.088  1.00  0.00    +0.1188 HD
ATOM     16 H13  121 L   1      16.152  -6.308 -16.117  1.00  0.00    +0.1188 HD
ATOM     17 H14  121 L   1      17.414  -7.827 -15.015  1.00  0.00    +0.0506  H
ATOM     18 H15  121 L   1      15.954  -8.635 -12.756  1.00  0.00    +0.0248  H
ATOM     19 H16  121 L   1      14.853  -8.855 -14.158  1.00  0.00    +0.0248  H
ATOM     20 H17  121 L   1      16.473  -9.631 -14.158  1.00  0.00    +0.0248  H
ENDBRANCH 3 13
TORSDOF 1
