ROOT
ATOM      1 CL1  121 L   1       3.279 -10.369  13.974  1.00  0.00    -0.0817 Cl
ATOM      2 CL2  121 L   1       1.299  -8.280  15.202  1.00  0.00    -0.0820 Cl
ATOM      3  C5  121 L   1       1.696 -12.262  15.067  1.00  0.00    -0.0113  A
ATOM      4  C7  121 L   1       1.887 -10.911  14.900  1.00  0.00    +0.0639  A
ATOM      5  C8  121 L   1       0.612 -12.714  15.790  1.00  0.00    -0.0556  A
ATOM      6  C9  121 L   1       0.990  -9.996  15.458  1.00  0.00    +0.0596  A
ATOM      7 C10  121 L   1      -0.279 -11.796  16.343  1.00  0.00    -0.0600  A
ATOM      8 C11  121 L   1      -0.085 -10.454  16.174  1.00  0.00    -0.0420  A
ATOM      9 H18  121 L   1       0.451 -13.793  15.929  1.00  0.00    +0.0621  H
ATOM     10 H19  121 L   1      -1.145 -12.154  16.920  1.00  0.00    +0.0618  H
ATOM     11 H20  121 L   1      -0.794  -9.739  16.615  1.00  0.00    +0.0633  H
ENDROOT
BRANCH 3 13
ATOM     12  N3  121 L   1       3.240 -14.089  15.526  1.00  0.00    -0.3237 NA
ATOM     13  C4  121 L   1       2.618 -13.278  14.497  1.00  0.00    +0.0289  C
ATOM     14  C6  121 L   1       3.638 -12.646  13.573  1.00  0.00    -0.0457  C
ATOM     15 H12  121 L   1       2.968 -13.734  16.454  1.00  0.00    +0.1188 HD
ATOM     16 H13  121 L   1       2.930 -15.066  15.427  1.00  0.00    +0.1188 HD
ATOM     17 H14  121 L   1       2.010 -13.962  13.887  1.00  0.00    +0.0506  H
ATOM     18 H15  121 L   1       4.423 -12.160  14.171  1.00  0.00    +0.0248  H
ATOM     19 H16  121 L   1       4.089 -13.423  12.939  1.00  0.00    +0.0248  H
ATOM     20 H17  121 L   1       3.143 -11.896  12.939  1.00  0.00    +0.0248  H
ENDBRANCH 3 13
TORSDOF 1
