ROOT
ATOM      1 CL1  121 L   1     -10.199  -4.936  16.801  1.00  0.00    -0.0817 Cl
ATOM      2 CL2  121 L   1      -7.671  -4.694  14.972  1.00  0.00    -0.0820 Cl
ATOM      3  C5  121 L   1     -11.446  -5.988  14.650  1.00  0.00    -0.0113  A
ATOM      4  C7  121 L   1     -10.266  -5.468  15.127  1.00  0.00    +0.0639  A
ATOM      5  C8  121 L   1     -11.525  -6.413  13.341  1.00  0.00    -0.0556  A
ATOM      6  C9  121 L   1      -9.149  -5.370  14.292  1.00  0.00    +0.0596  A
ATOM      7 C10  121 L   1     -10.408  -6.311  12.514  1.00  0.00    -0.0600  A
ATOM      8 C11  121 L   1      -9.237  -5.795  12.992  1.00  0.00    -0.0420  A
ATOM      9 H18  121 L   1     -12.466  -6.829  12.951  1.00  0.00    +0.0621  H
ATOM     10 H19  121 L   1     -10.469  -6.650  11.469  1.00  0.00    +0.0618  H
ATOM     11 H20  121 L   1      -8.362  -5.719  12.331  1.00  0.00    +0.0633  H
ENDROOT
BRANCH 3 13
ATOM     12  N3  121 L   1     -12.978  -4.881  16.187  1.00  0.00    -0.3237 NA
ATOM     13  C4  121 L   1     -12.663  -6.115  15.494  1.00  0.00    +0.0289  C
ATOM     14  C6  121 L   1     -12.562  -7.293  16.440  1.00  0.00    -0.0457  C
ATOM     15 H12  121 L   1     -12.938  -5.039  17.204  1.00  0.00    +0.1188 HD
ATOM     16 H13  121 L   1     -12.295  -4.156  15.925  1.00  0.00    +0.1188 HD
ATOM     17 H14  121 L   1     -13.507  -6.317  14.817  1.00  0.00    +0.0506  H
ATOM     18 H15  121 L   1     -12.593  -6.932  17.479  1.00  0.00    +0.0248  H
ATOM     19 H16  121 L   1     -13.405  -7.978  16.265  1.00  0.00    +0.0248  H
ATOM     20 H17  121 L   1     -11.615  -7.824  16.265  1.00  0.00    +0.0248  H
ENDBRANCH 3 13
TORSDOF 1
