ROOT
ATOM      1 CL1  121 L   1      19.260  12.501   5.274  1.00  0.00    -0.0817 Cl
ATOM      2 CL2  121 L   1      19.679  11.596   8.240  1.00  0.00    -0.0820 Cl
ATOM      3  C5  121 L   1      18.923   9.885   4.700  1.00  0.00    -0.0113  A
ATOM      4  C7  121 L   1      19.175  10.797   5.697  1.00  0.00    +0.0639  A
ATOM      5  C8  121 L   1      18.852   8.542   5.005  1.00  0.00    -0.0556  A
ATOM      6  C9  121 L   1      19.360  10.370   7.015  1.00  0.00    +0.0596  A
ATOM      7 C10  121 L   1      19.036   8.123   6.322  1.00  0.00    -0.0600  A
ATOM      8 C11  121 L   1      19.287   9.033   7.309  1.00  0.00    -0.0420  A
ATOM      9 H18  121 L   1      18.650   7.805   4.214  1.00  0.00    +0.0621  H
ATOM     10 H19  121 L   1      18.980   7.053   6.568  1.00  0.00    +0.0618  H
ATOM     11 H20  121 L   1      19.431   8.692   8.344  1.00  0.00    +0.0633  H
ENDROOT
BRANCH 3 13
ATOM     12  N3  121 L   1      17.620   9.566   2.667  1.00  0.00    -0.3237 NA
ATOM     13  C4  121 L   1      18.719  10.284   3.283  1.00  0.00    +0.0289  C
ATOM     14  C6  121 L   1      19.999  10.164   2.483  1.00  0.00    -0.0457  C
ATOM     15 H12  121 L   1      17.014   9.170   3.400  1.00  0.00    +0.1188 HD
ATOM     16 H13  121 L   1      17.072  10.212   2.082  1.00  0.00    +0.1188 HD
ATOM     17 H14  121 L   1      18.436  11.346   3.282  1.00  0.00    +0.0506  H
ATOM     18 H15  121 L   1      20.855  10.084   3.170  1.00  0.00    +0.0248  H
ATOM     19 H16  121 L   1      19.953   9.267   1.849  1.00  0.00    +0.0248  H
ATOM     20 H17  121 L   1      20.119  11.055   1.849  1.00  0.00    +0.0248  H
ENDBRANCH 3 13
TORSDOF 1
