ROOT
ATOM      1 CL1  121 L   1      12.239 -10.803 -10.413  1.00  0.00    -0.0817 Cl
ATOM      2 CL2  121 L   1      14.494 -10.783 -12.562  1.00  0.00    -0.0820 Cl
ATOM      3  C5  121 L   1      10.887  -9.162 -12.069  1.00  0.00    -0.0113  A
ATOM      4  C7  121 L   1      12.040  -9.871 -11.887  1.00  0.00    +0.0639  A
ATOM      5  C8  121 L   1      10.768  -8.439 -13.247  1.00  0.00    -0.0556  A
ATOM      6  C9  121 L   1      13.031  -9.865 -12.827  1.00  0.00    +0.0596  A
ATOM      7 C10  121 L   1      11.741  -8.408 -14.214  1.00  0.00    -0.0600  A
ATOM      8 C11  121 L   1      12.901  -9.138 -14.001  1.00  0.00    -0.0420  A
ATOM      9 H18  121 L   1       9.847  -7.861 -13.414  1.00  0.00    +0.0621  H
ATOM     10 H19  121 L   1      11.605  -7.821 -15.134  1.00  0.00    +0.0618  H
ATOM     11 H20  121 L   1      13.705  -9.140 -14.752  1.00  0.00    +0.0633  H
ENDROOT
BRANCH 3 13
ATOM     12  N3  121 L   1       8.732  -8.205 -11.479  1.00  0.00    -0.3237 NA
ATOM     13  C4  121 L   1       9.772  -9.119 -11.100  1.00  0.00    +0.0289  C
ATOM     14  C6  121 L   1      10.285  -8.707  -9.716  1.00  0.00    -0.0457  C
ATOM     15 H12  121 L   1       8.291  -7.817 -10.633  1.00  0.00    +0.1188 HD
ATOM     16 H13  121 L   1       9.135  -7.439 -12.038  1.00  0.00    +0.1188 HD
ATOM     17 H14  121 L   1       9.350 -10.135 -11.082  1.00  0.00    +0.0506  H
ATOM     18 H15  121 L   1       9.677  -9.196  -8.940  1.00  0.00    +0.0248  H
ATOM     19 H16  121 L   1      11.335  -9.015  -9.607  1.00  0.00    +0.0248  H
ATOM     20 H17  121 L   1      10.210  -7.615  -9.607  1.00  0.00    +0.0248  H
ENDBRANCH 3 13
TORSDOF 1
