ROOT
ATOM      1 CL1  121 L   1      16.905  -0.888 -11.683  1.00  0.00    -0.0817 Cl
ATOM      2 CL2  121 L   1      18.479  -0.345 -14.315  1.00  0.00    -0.0820 Cl
ATOM      3  C5  121 L   1      19.184  -0.248 -10.395  1.00  0.00    -0.0113  A
ATOM      4  C7  121 L   1      18.587  -0.390 -11.614  1.00  0.00    +0.0639  A
ATOM      5  C8  121 L   1      20.514   0.147 -10.382  1.00  0.00    -0.0556  A
ATOM      6  C9  121 L   1      19.274  -0.153 -12.771  1.00  0.00    +0.0596  A
ATOM      7 C10  121 L   1      21.237   0.394 -11.523  1.00  0.00    -0.0600  A
ATOM      8 C11  121 L   1      20.604   0.241 -12.747  1.00  0.00    -0.0420  A
ATOM      9 H18  121 L   1      21.014   0.268  -9.410  1.00  0.00    +0.0621  H
ATOM     10 H19  121 L   1      22.290   0.705 -11.468  1.00  0.00    +0.0618  H
ATOM     11 H20  121 L   1      21.147   0.429 -13.684  1.00  0.00    +0.0633  H
ENDROOT
BRANCH 3 13
ATOM     12  N3  121 L   1      18.451  -1.874  -8.743  1.00  0.00    -0.3237 NA
ATOM     13  C4  121 L   1      18.509  -0.485  -9.102  1.00  0.00    +0.0289  C
ATOM     14  C6  121 L   1      17.074   0.055  -9.142  1.00  0.00    -0.0457  C
ATOM     15 H12  121 L   1      18.447  -1.963  -7.717  1.00  0.00    +0.1188 HD
ATOM     16 H13  121 L   1      17.592  -2.292  -9.127  1.00  0.00    +0.1188 HD
ATOM     17 H14  121 L   1      19.111   0.042  -8.347  1.00  0.00    +0.0506  H
ATOM     18 H15  121 L   1      16.706   0.193  -8.115  1.00  0.00    +0.0248  H
ATOM     19 H16  121 L   1      17.060   1.020  -9.670  1.00  0.00    +0.0248  H
ATOM     20 H17  121 L   1      16.428  -0.662  -9.670  1.00  0.00    +0.0248  H
ENDBRANCH 3 13
TORSDOF 1
