ROOT
ATOM      1 CL1  121 L   1       5.056  -2.022  -2.213  1.00  0.00    -0.0817 Cl
ATOM      2 CL2  121 L   1       6.212  -4.118  -4.206  1.00  0.00    -0.0820 Cl
ATOM      3  C5  121 L   1       7.604  -1.224  -1.847  1.00  0.00    -0.0113  A
ATOM      4  C7  121 L   1       6.786  -2.096  -2.505  1.00  0.00    +0.0639  A
ATOM      5  C8  121 L   1       8.965  -1.315  -2.104  1.00  0.00    -0.0556  A
ATOM      6  C9  121 L   1       7.289  -3.017  -3.380  1.00  0.00    +0.0596  A
ATOM      7 C10  121 L   1       9.507  -2.226  -2.976  1.00  0.00    -0.0600  A
ATOM      8 C11  121 L   1       8.651  -3.098  -3.630  1.00  0.00    -0.0420  A
ATOM      9 H18  121 L   1       9.642  -0.622  -1.584  1.00  0.00    +0.0621  H
ATOM     10 H19  121 L   1      10.592  -2.264  -3.151  1.00  0.00    +0.0618  H
ATOM     11 H20  121 L   1       9.045  -3.844  -4.337  1.00  0.00    +0.0633  H
ENDROOT
BRANCH 3 13
ATOM     12  N3  121 L   1       7.913   1.004  -0.926  1.00  0.00    -0.3237 NA
ATOM     13  C4  121 L   1       7.137  -0.203  -0.887  1.00  0.00    +0.0289  C
ATOM     14  C6  121 L   1       7.185  -0.752   0.543  1.00  0.00    -0.0457  C
ATOM     15 H12  121 L   1       8.113   1.315   0.035  1.00  0.00    +0.1188 HD
ATOM     16 H13  121 L   1       8.799   0.827  -1.421  1.00  0.00    +0.1188 HD
ATOM     17 H14  121 L   1       6.106   0.040  -1.185  1.00  0.00    +0.0506  H
ATOM     18 H15  121 L   1       7.112   0.080   1.258  1.00  0.00    +0.0248  H
ATOM     19 H16  121 L   1       6.345  -1.445   0.699  1.00  0.00    +0.0248  H
ATOM     20 H17  121 L   1       8.134  -1.286   0.699  1.00  0.00    +0.0248  H
ENDBRANCH 3 13
TORSDOF 1
