ROOT
ATOM      1 CL1  121 L   1       7.591  -3.250  -1.910  1.00  0.00    -0.0817 Cl
ATOM      2 CL2  121 L   1       9.240  -0.689  -1.259  1.00  0.00    -0.0820 Cl
ATOM      3  C5  121 L   1       5.885  -1.610  -3.200  1.00  0.00    -0.0113  A
ATOM      4  C7  121 L   1       7.039  -1.682  -2.476  1.00  0.00    +0.0639  A
ATOM      5  C8  121 L   1       5.482  -0.354  -3.629  1.00  0.00    -0.0556  A
ATOM      6  C9  121 L   1       7.766  -0.561  -2.188  1.00  0.00    +0.0596  A
ATOM      7 C10  121 L   1       6.185   0.795  -3.359  1.00  0.00    -0.0600  A
ATOM      8 C11  121 L   1       7.354   0.691  -2.622  1.00  0.00    -0.0420  A
ATOM      9 H18  121 L   1       4.554  -0.273  -4.214  1.00  0.00    +0.0621  H
ATOM     10 H19  121 L   1       5.829   1.772  -3.718  1.00  0.00    +0.0618  H
ATOM     11 H20  121 L   1       7.946   1.587  -2.384  1.00  0.00    +0.0633  H
ENDROOT
BRANCH 3 13
ATOM     12  N3  121 L   1       4.089  -2.490  -4.582  1.00  0.00    -0.3237 NA
ATOM     13  C4  121 L   1       5.046  -2.775  -3.551  1.00  0.00    +0.0289  C
ATOM     14  C6  121 L   1       4.282  -3.273  -2.319  1.00  0.00    -0.0457  C
ATOM     15 H12  121 L   1       3.191  -2.223  -4.153  1.00  0.00    +0.1188 HD
ATOM     16 H13  121 L   1       4.434  -1.715  -5.167  1.00  0.00    +0.1188 HD
ATOM     17 H14  121 L   1       5.739  -3.543  -3.926  1.00  0.00    +0.0506  H
ATOM     18 H15  121 L   1       4.797  -2.937  -1.407  1.00  0.00    +0.0248  H
ATOM     19 H16  121 L   1       3.259  -2.867  -2.333  1.00  0.00    +0.0248  H
ATOM     20 H17  121 L   1       4.240  -4.372  -2.333  1.00  0.00    +0.0248  H
ENDBRANCH 3 13
TORSDOF 1
