ROOT
ATOM      1 CL1  121 L   1       2.828  -9.160  16.215  1.00  0.00    -0.0817 Cl
ATOM      2 CL2  121 L   1       2.342  -6.069  16.274  1.00  0.00    -0.0820 Cl
ATOM      3  C5  121 L   1       0.245  -9.411  16.957  1.00  0.00    -0.0113  A
ATOM      4  C7  121 L   1       1.249  -8.523  16.648  1.00  0.00    +0.0639  A
ATOM      5  C8  121 L   1      -1.003  -8.937  17.301  1.00  0.00    -0.0556  A
ATOM      6  C9  121 L   1       1.009  -7.146  16.681  1.00  0.00    +0.0596  A
ATOM      7 C10  121 L   1      -1.235  -7.563  17.332  1.00  0.00    -0.0600  A
ATOM      8 C11  121 L   1      -0.235  -6.685  17.024  1.00  0.00    -0.0420  A
ATOM      9 H18  121 L   1      -1.812  -9.640  17.549  1.00  0.00    +0.0621  H
ATOM     10 H19  121 L   1      -2.231  -7.183  17.605  1.00  0.00    +0.0618  H
ATOM     11 H20  121 L   1      -0.429  -5.603  17.052  1.00  0.00    +0.0633  H
ENDROOT
BRANCH 3 13
ATOM     12  N3  121 L   1       0.651 -11.388  15.594  1.00  0.00    -0.3237 NA
ATOM     13  C4  121 L   1       0.445 -10.883  16.938  1.00  0.00    +0.0289  C
ATOM     14  C6  121 L   1      -0.677 -11.605  17.654  1.00  0.00    -0.0457  C
ATOM     15 H12  121 L   1       1.040 -12.341  15.641  1.00  0.00    +0.1188 HD
ATOM     16 H13  121 L   1      -0.249 -11.409  15.093  1.00  0.00    +0.1188 HD
ATOM     17 H14  121 L   1       1.370 -11.092  17.495  1.00  0.00    +0.0506  H
ATOM     18 H15  121 L   1      -0.536 -11.515  18.741  1.00  0.00    +0.0248  H
ATOM     19 H16  121 L   1      -1.641 -11.158  17.370  1.00  0.00    +0.0248  H
ATOM     20 H17  121 L   1      -0.669 -12.668  17.370  1.00  0.00    +0.0248  H
ENDBRANCH 3 13
TORSDOF 1
