ROOT
ATOM      1 CL1  121 L   1       4.609  21.417   5.920  1.00  0.00    -0.0817 Cl
ATOM      2 CL2  121 L   1       5.981  21.758   3.128  1.00  0.00    -0.0820 Cl
ATOM      3  C5  121 L   1       3.045  19.562   4.737  1.00  0.00    -0.0113  A
ATOM      4  C7  121 L   1       4.072  20.457   4.550  1.00  0.00    +0.0639  A
ATOM      5  C8  121 L   1       2.605  18.796   3.679  1.00  0.00    -0.0556  A
ATOM      6  C9  121 L   1       4.671  20.592   3.294  1.00  0.00    +0.0596  A
ATOM      7 C10  121 L   1       3.206  18.936   2.429  1.00  0.00    -0.0600  A
ATOM      8 C11  121 L   1       4.226  19.826   2.248  1.00  0.00    -0.0420  A
ATOM      9 H18  121 L   1       1.784  18.078   3.820  1.00  0.00    +0.0621  H
ATOM     10 H19  121 L   1       2.857  18.326   1.583  1.00  0.00    +0.0618  H
ATOM     11 H20  121 L   1       4.694  19.929   1.257  1.00  0.00    +0.0633  H
ENDROOT
BRANCH 3 13
ATOM     12  N3  121 L   1       2.910  18.247   6.783  1.00  0.00    -0.3237 NA
ATOM     13  C4  121 L   1       2.374  19.378   6.050  1.00  0.00    +0.0289  C
ATOM     14  C6  121 L   1       0.869  19.300   5.899  1.00  0.00    -0.0457  C
ATOM     15 H12  121 L   1       2.827  18.422   7.795  1.00  0.00    +0.1188 HD
ATOM     16 H13  121 L   1       2.381  17.397   6.537  1.00  0.00    +0.1188 HD
ATOM     17 H14  121 L   1       2.592  20.271   6.654  1.00  0.00    +0.0506  H
ATOM     18 H15  121 L   1       0.402  19.276   6.894  1.00  0.00    +0.0248  H
ATOM     19 H16  121 L   1       0.510  20.181   5.346  1.00  0.00    +0.0248  H
ATOM     20 H17  121 L   1       0.604  18.387   5.346  1.00  0.00    +0.0248  H
ENDBRANCH 3 13
TORSDOF 1
