ROOT
ATOM      1 CL1  121 L   1      -4.042  -5.767  -8.008  1.00  0.00    -0.0817 Cl
ATOM      2 CL2  121 L   1      -4.375  -5.712  -4.911  1.00  0.00    -0.0820 Cl
ATOM      3  C5  121 L   1      -1.388  -5.672  -7.549  1.00  0.00    -0.0113  A
ATOM      4  C7  121 L   1      -2.625  -5.699  -6.973  1.00  0.00    +0.0639  A
ATOM      5  C8  121 L   1      -0.294  -5.618  -6.697  1.00  0.00    -0.0556  A
ATOM      6  C9  121 L   1      -2.776  -5.675  -5.615  1.00  0.00    +0.0596  A
ATOM      7 C10  121 L   1      -0.405  -5.593  -5.329  1.00  0.00    -0.0600  A
ATOM      8 C11  121 L   1      -1.675  -5.622  -4.773  1.00  0.00    -0.0420  A
ATOM      9 H18  121 L   1       0.712  -5.595  -7.140  1.00  0.00    +0.0621  H
ATOM     10 H19  121 L   1       0.490  -5.550  -4.691  1.00  0.00    +0.0618  H
ATOM     11 H20  121 L   1      -1.807  -5.603  -3.682  1.00  0.00    +0.0633  H
ENDROOT
BRANCH 3 13
ATOM     12  N3  121 L   1      -0.352  -6.815  -9.428  1.00  0.00    -0.3237 NA
ATOM     13  C4  121 L   1      -1.145  -5.695  -9.006  1.00  0.00    +0.0289  C
ATOM     14  C6  121 L   1      -0.428  -4.413  -9.447  1.00  0.00    -0.0457  C
ATOM     15 H12  121 L   1       0.002  -7.315  -8.600  1.00  0.00    +0.1188 HD
ATOM     16 H13  121 L   1      -0.931  -7.452  -9.993  1.00  0.00    +0.1188 HD
ATOM     17 H14  121 L   1      -2.136  -5.777  -9.475  1.00  0.00    +0.0506  H
ATOM     18 H15  121 L   1      -0.111  -3.846  -8.560  1.00  0.00    +0.0248  H
ATOM     19 H16  121 L   1       0.454  -4.676 -10.049  1.00  0.00    +0.0248  H
ATOM     20 H17  121 L   1      -1.113  -3.799 -10.049  1.00  0.00    +0.0248  H
ENDBRANCH 3 13
TORSDOF 1
