ROOT
ATOM      1 CL1  121 L   1      -3.234  -3.927  -6.697  1.00  0.00    -0.0817 Cl
ATOM      2 CL2  121 L   1      -4.565  -5.143  -4.157  1.00  0.00    -0.0820 Cl
ATOM      3  C5  121 L   1      -1.372  -5.858  -6.432  1.00  0.00    -0.0113  A
ATOM      4  C7  121 L   1      -2.515  -5.323  -5.911  1.00  0.00    +0.0639  A
ATOM      5  C8  121 L   1      -0.836  -6.960  -5.782  1.00  0.00    -0.0556  A
ATOM      6  C9  121 L   1      -3.102  -5.853  -4.797  1.00  0.00    +0.0596  A
ATOM      7 C10  121 L   1      -1.397  -7.521  -4.661  1.00  0.00    -0.0600  A
ATOM      8 C11  121 L   1      -2.557  -6.955  -4.156  1.00  0.00    -0.0420  A
ATOM      9 H18  121 L   1       0.085  -7.407  -6.185  1.00  0.00    +0.0621  H
ATOM     10 H19  121 L   1      -0.937  -8.395  -4.177  1.00  0.00    +0.0618  H
ATOM     11 H20  121 L   1      -3.038  -7.374  -3.260  1.00  0.00    +0.0633  H
ENDROOT
BRANCH 3 13
ATOM     12  N3  121 L   1      -0.273  -6.378  -8.536  1.00  0.00    -0.3237 NA
ATOM     13  C4  121 L   1      -0.680  -5.342  -7.630  1.00  0.00    +0.0289  C
ATOM     14  C6  121 L   1       0.569  -4.549  -7.225  1.00  0.00    -0.0457  C
ATOM     15 H12  121 L   1       0.049  -7.196  -8.000  1.00  0.00    +0.1188 HD
ATOM     16 H13  121 L   1      -1.070  -6.648  -9.130  1.00  0.00    +0.1188 HD
ATOM     17 H14  121 L   1      -1.408  -4.699  -8.146  1.00  0.00    +0.0506  H
ATOM     18 H15  121 L   1       0.636  -4.506  -6.128  1.00  0.00    +0.0248  H
ATOM     19 H16  121 L   1       1.464  -5.044  -7.628  1.00  0.00    +0.0248  H
ATOM     20 H17  121 L   1       0.501  -3.528  -7.628  1.00  0.00    +0.0248  H
ENDBRANCH 3 13
TORSDOF 1
