ROOT
ATOM      1 CL1  121 L   1      -4.626  11.565  20.215  1.00  0.00    -0.0817 Cl
ATOM      2 CL2  121 L   1      -6.720  13.054  18.429  1.00  0.00    -0.0820 Cl
ATOM      3  C5  121 L   1      -2.773  13.175  19.092  1.00  0.00    -0.0113  A
ATOM      4  C7  121 L   1      -4.108  12.848  19.132  1.00  0.00    +0.0639  A
ATOM      5  C8  121 L   1      -2.340  14.178  18.251  1.00  0.00    -0.0556  A
ATOM      6  C9  121 L   1      -5.026  13.527  18.325  1.00  0.00    +0.0596  A
ATOM      7 C10  121 L   1      -3.261  14.851  17.449  1.00  0.00    -0.0600  A
ATOM      8 C11  121 L   1      -4.586  14.522  17.492  1.00  0.00    -0.0420  A
ATOM      9 H18  121 L   1      -1.274  14.446  18.213  1.00  0.00    +0.0621  H
ATOM     10 H19  121 L   1      -2.918  15.651  16.777  1.00  0.00    +0.0618  H
ATOM     11 H20  121 L   1      -5.304  15.060  16.855  1.00  0.00    +0.0633  H
ENDROOT
BRANCH 3 13
ATOM     12  N3  121 L   1      -1.672  13.051  21.262  1.00  0.00    -0.3237 NA
ATOM     13  C4  121 L   1      -1.755  12.487  19.928  1.00  0.00    +0.0289  C
ATOM     14  C6  121 L   1      -0.407  12.446  19.240  1.00  0.00    -0.0457  C
ATOM     15 H12  121 L   1      -1.783  12.301  21.959  1.00  0.00    +0.1188 HD
ATOM     16 H13  121 L   1      -0.755  13.503  21.386  1.00  0.00    +0.1188 HD
ATOM     17 H14  121 L   1      -2.087  11.445  20.050  1.00  0.00    +0.0506  H
ATOM     18 H15  121 L   1       0.391  12.421  19.997  1.00  0.00    +0.0248  H
ATOM     19 H16  121 L   1      -0.343  11.545  18.611  1.00  0.00    +0.0248  H
ATOM     20 H17  121 L   1      -0.289  13.341  18.611  1.00  0.00    +0.0248  H
ENDBRANCH 3 13
TORSDOF 1
