ROOT
ATOM      1 CL1  121 L   1       4.189  -3.445  -1.706  1.00  0.00    -0.0817 Cl
ATOM      2 CL2  121 L   1       7.017  -2.431  -0.882  1.00  0.00    -0.0820 Cl
ATOM      3  C5  121 L   1       5.331  -4.210  -4.023  1.00  0.00    -0.0113  A
ATOM      4  C7  121 L   1       5.543  -3.624  -2.810  1.00  0.00    +0.0639  A
ATOM      5  C8  121 L   1       6.426  -4.333  -4.867  1.00  0.00    -0.0556  A
ATOM      6  C9  121 L   1       6.782  -3.178  -2.445  1.00  0.00    +0.0596  A
ATOM      7 C10  121 L   1       7.685  -3.897  -4.536  1.00  0.00    -0.0600  A
ATOM      8 C11  121 L   1       7.869  -3.305  -3.296  1.00  0.00    -0.0420  A
ATOM      9 H18  121 L   1       6.278  -4.803  -5.851  1.00  0.00    +0.0621  H
ATOM     10 H19  121 L   1       8.525  -4.014  -5.236  1.00  0.00    +0.0618  H
ATOM     11 H20  121 L   1       8.862  -2.942  -2.992  1.00  0.00    +0.0633  H
ENDROOT
BRANCH 3 13
ATOM     12  N3  121 L   1       4.121  -5.523  -5.674  1.00  0.00    -0.3237 NA
ATOM     13  C4  121 L   1       4.024  -4.717  -4.489  1.00  0.00    +0.0289  C
ATOM     14  C6  121 L   1       3.075  -3.550  -4.786  1.00  0.00    -0.0457  C
ATOM     15 H12  121 L   1       4.240  -6.511  -5.408  1.00  0.00    +0.1188 HD
ATOM     16 H13  121 L   1       3.261  -5.418  -6.231  1.00  0.00    +0.1188 HD
ATOM     17 H14  121 L   1       3.637  -5.347  -3.674  1.00  0.00    +0.0506  H
ATOM     18 H15  121 L   1       2.721  -3.116  -3.839  1.00  0.00    +0.0248  H
ATOM     19 H16  121 L   1       3.608  -2.782  -5.365  1.00  0.00    +0.0248  H
ATOM     20 H17  121 L   1       2.214  -3.916  -5.365  1.00  0.00    +0.0248  H
ENDBRANCH 3 13
TORSDOF 1
