ROOT
ATOM      1 CL1  121 L   1       0.359  -2.424   0.001  1.00  0.00    -0.0817 Cl
ATOM      2 CL2  121 L   1       3.256  -1.034   0.014  1.00  0.00    -0.0820 Cl
ATOM      3  C5  121 L   1      -0.611   0.100  -0.008  1.00  0.00    -0.0113  A
ATOM      4  C7  121 L   1       0.534  -0.698  -0.001  1.00  0.00    +0.0639  A
ATOM      5  C8  121 L   1      -0.492   1.490  -0.009  1.00  0.00    -0.0556  A
ATOM      6  C9  121 L   1       1.797  -0.106   0.005  1.00  0.00    +0.0596  A
ATOM      7 C10  121 L   1       0.771   2.081  -0.003  1.00  0.00    -0.0600  A
ATOM      8 C11  121 L   1       1.916   1.284   0.004  1.00  0.00    -0.0420  A
ATOM      9 H16  121 L   1      -1.367   2.134  -0.020  1.00  0.00    +0.0621  H
ATOM     10 H19  121 L   1       0.864   3.163  -0.006  1.00  0.00    +0.0618  H
ATOM     11 H20  121 L   1       2.892   1.762   0.008  1.00  0.00    +0.0633  H
ENDROOT
BRANCH 3 13
ATOM     12  N3  121 L   1      -2.745  -0.113  -1.220  1.00  0.00    -0.3237 NA
ATOM     13  C4  121 L   1      -1.986  -0.487  -0.014  1.00  0.00    +0.0289  C
ATOM     14  C6  121 L   1      -2.799  -0.092   1.230  1.00  0.00    -0.0457  C
ATOM     15 H12  121 L   1      -1.976  -1.578  -0.013  1.00  0.00    +0.0506  H
ATOM     16 H13  121 L   1      -2.264  -0.369   2.146  1.00  0.00    +0.0248  H
ATOM     17 H14  121 L   1      -3.766  -0.608   1.243  1.00  0.00    +0.0248  H
ATOM     18 H15  121 L   1      -3.000   0.985   1.274  1.00  0.00    +0.0248  H
ATOM     19 H17  121 L   1      -3.675  -0.529  -1.182  1.00  0.00    +0.1188 HD
ATOM     20 H18  121 L   1      -2.290  -0.508  -2.042  1.00  0.00    +0.1188 HD
ENDBRANCH 3 13
TORSDOF 1
