ROOT
ATOM      1 CL1  121 L   1      20.213   8.218   5.270  1.00  0.00    -0.0817 Cl
ATOM      2 CL2  121 L   1      21.451  10.312   3.302  1.00  0.00    -0.0820 Cl
ATOM      3  C5  121 L   1      17.816   9.276   4.621  1.00  0.00    -0.0113  A
ATOM      4  C7  121 L   1      19.173   9.342   4.408  1.00  0.00    +0.0639  A
ATOM      5  C8  121 L   1      16.977  10.147   3.958  1.00  0.00    -0.0556  A
ATOM      6  C9  121 L   1      19.704  10.286   3.525  1.00  0.00    +0.0596  A
ATOM      7 C10  121 L   1      17.514  11.086   3.078  1.00  0.00    -0.0600  A
ATOM      8 C11  121 L   1      18.863  11.147   2.870  1.00  0.00    -0.0420  A
ATOM      9 H18  121 L   1      15.891  10.102   4.122  1.00  0.00    +0.0621  H
ATOM     10 H19  121 L   1      16.847  11.782   2.548  1.00  0.00    +0.0618  H
ATOM     11 H20  121 L   1      19.275  11.892   2.173  1.00  0.00    +0.0633  H
ENDROOT
BRANCH 3 13
ATOM     12  N3  121 L   1      16.979   7.008   4.915  1.00  0.00    -0.3237 NA
ATOM     13  C4  121 L   1      17.198   8.294   5.549  1.00  0.00    +0.0289  C
ATOM     14  C6  121 L   1      15.935   8.842   6.179  1.00  0.00    -0.0457  C
ATOM     15 H12  121 L   1      16.856   6.285   5.638  1.00  0.00    +0.1188 HD
ATOM     16 H13  121 L   1      16.134   7.054   4.328  1.00  0.00    +0.1188 HD
ATOM     17 H14  121 L   1      17.916   8.121   6.364  1.00  0.00    +0.0506  H
ATOM     18 H15  121 L   1      16.025   8.803   7.275  1.00  0.00    +0.0248  H
ATOM     19 H16  121 L   1      15.790   9.885   5.860  1.00  0.00    +0.0248  H
ATOM     20 H17  121 L   1      15.074   8.237   5.860  1.00  0.00    +0.0248  H
ENDBRANCH 3 13
TORSDOF 1
