ROOT
ATOM      1 CL1  121 L   1      23.276   8.843 -15.434  1.00  0.00    -0.0817 Cl
ATOM      2 CL2  121 L   1      23.415   6.250 -13.687  1.00  0.00    -0.0820 Cl
ATOM      3  C5  121 L   1      20.609   8.437 -15.525  1.00  0.00    -0.0113  A
ATOM      4  C7  121 L   1      21.807   7.961 -15.045  1.00  0.00    +0.0639  A
ATOM      5  C8  121 L   1      19.441   7.764 -15.234  1.00  0.00    -0.0556  A
ATOM      6  C9  121 L   1      21.845   6.801 -14.267  1.00  0.00    +0.0596  A
ATOM      7 C10  121 L   1      19.487   6.608 -14.457  1.00  0.00    -0.0600  A
ATOM      8 C11  121 L   1      20.679   6.139 -13.983  1.00  0.00    -0.0420  A
ATOM      9 H18  121 L   1      18.479   8.138 -15.614  1.00  0.00    +0.0621  H
ATOM     10 H19  121 L   1      18.557   6.069 -14.224  1.00  0.00    +0.0618  H
ATOM     11 H20  121 L   1      20.703   5.225 -13.371  1.00  0.00    +0.0633  H
ENDROOT
BRANCH 3 13
ATOM     12  N3  121 L   1      19.456  10.550 -15.900  1.00  0.00    -0.3237 NA
ATOM     13  C4  121 L   1      20.511   9.665 -16.357  1.00  0.00    +0.0289  C
ATOM     14  C6  121 L   1      20.380   9.330 -17.827  1.00  0.00    -0.0457  C
ATOM     15 H12  121 L   1      19.441  10.563 -14.870  1.00  0.00    +0.1188 HD
ATOM     16 H13  121 L   1      19.630  11.502 -16.253  1.00  0.00    +0.1188 HD
ATOM     17 H14  121 L   1      21.455  10.216 -16.234  1.00  0.00    +0.0506  H
ATOM     18 H15  121 L   1      19.980   8.311 -17.937  1.00  0.00    +0.0248  H
ATOM     19 H16  121 L   1      19.696  10.046 -18.307  1.00  0.00    +0.0248  H
ATOM     20 H17  121 L   1      21.368   9.390 -18.307  1.00  0.00    +0.0248  H
ENDBRANCH 3 13
TORSDOF 1
