ROOT
ATOM      1 CL1  121 L   1      12.252  13.966  10.693  1.00  0.00    -0.0817 Cl
ATOM      2 CL2  121 L   1      14.138  16.234   9.647  1.00  0.00    -0.0820 Cl
ATOM      3  C5  121 L   1      13.765  13.969  12.928  1.00  0.00    -0.0113  A
ATOM      4  C7  121 L   1      13.581  14.539  11.690  1.00  0.00    +0.0639  A
ATOM      5  C8  121 L   1      14.800  14.400  13.730  1.00  0.00    -0.0556  A
ATOM      6  C9  121 L   1      14.435  15.551  11.243  1.00  0.00    +0.0596  A
ATOM      7 C10  121 L   1      15.649  15.410  13.278  1.00  0.00    -0.0600  A
ATOM      8 C11  121 L   1      15.461  15.973  12.048  1.00  0.00    -0.0420  A
ATOM      9 H18  121 L   1      14.955  13.950  14.722  1.00  0.00    +0.0621  H
ATOM     10 H19  121 L   1      16.475  15.755  13.917  1.00  0.00    +0.0618  H
ATOM     11 H20  121 L   1      16.137  16.769  11.702  1.00  0.00    +0.0633  H
ENDROOT
BRANCH 3 13
ATOM     12  N3  121 L   1      11.489  13.277  13.450  1.00  0.00    -0.3237 NA
ATOM     13  C4  121 L   1      12.887  12.891  13.452  1.00  0.00    +0.0289  C
ATOM     14  C6  121 L   1      13.346  12.414  14.813  1.00  0.00    -0.0457  C
ATOM     15 H12  121 L   1      11.157  13.369  14.420  1.00  0.00    +0.1188 HD
ATOM     16 H13  121 L   1      11.382  14.179  12.964  1.00  0.00    +0.1188 HD
ATOM     17 H14  121 L   1      12.975  12.038  12.763  1.00  0.00    +0.0506  H
ATOM     18 H15  121 L   1      12.811  12.970  15.596  1.00  0.00    +0.0248  H
ATOM     19 H16  121 L   1      13.132  11.339  14.916  1.00  0.00    +0.0248  H
ATOM     20 H17  121 L   1      14.428  12.584  14.916  1.00  0.00    +0.0248  H
ENDBRANCH 3 13
TORSDOF 1
