ROOT
ATOM      1 CL1  121 L   1      -1.302  -3.996  -5.647  1.00  0.00    -0.0817 Cl
ATOM      2 CL2  121 L   1      -0.907  -6.988  -4.876  1.00  0.00    -0.0820 Cl
ATOM      3  C5  121 L   1      -3.869  -4.322  -4.895  1.00  0.00    -0.0113  A
ATOM      4  C7  121 L   1      -2.654  -4.929  -5.029  1.00  0.00    +0.0639  A
ATOM      5  C8  121 L   1      -4.912  -5.094  -4.404  1.00  0.00    -0.0556  A
ATOM      6  C9  121 L   1      -2.477  -6.242  -4.692  1.00  0.00    +0.0596  A
ATOM      7 C10  121 L   1      -4.772  -6.414  -4.054  1.00  0.00    -0.0600  A
ATOM      8 C11  121 L   1      -3.526  -7.004  -4.201  1.00  0.00    -0.0420  A
ATOM      9 H18  121 L   1      -5.900  -4.624  -4.288  1.00  0.00    +0.0621  H
ATOM     10 H19  121 L   1      -5.627  -6.989  -3.668  1.00  0.00    +0.0618  H
ATOM     11 H20  121 L   1      -3.372  -8.059  -3.933  1.00  0.00    +0.0633  H
ENDROOT
BRANCH 3 13
ATOM     12  N3  121 L   1      -5.321  -2.394  -4.608  1.00  0.00    -0.3237 NA
ATOM     13  C4  121 L   1      -4.139  -2.911  -5.238  1.00  0.00    +0.0289  C
ATOM     14  C6  121 L   1      -4.301  -2.751  -6.754  1.00  0.00    -0.0457  C
ATOM     15 H12  121 L   1      -5.213  -2.441  -3.584  1.00  0.00    +0.1188 HD
ATOM     16 H13  121 L   1      -5.462  -1.414  -4.893  1.00  0.00    +0.1188 HD
ATOM     17 H14  121 L   1      -3.273  -2.341  -4.869  1.00  0.00    +0.0506  H
ATOM     18 H15  121 L   1      -5.072  -1.995  -6.963  1.00  0.00    +0.0248  H
ATOM     19 H16  121 L   1      -3.345  -2.431  -7.193  1.00  0.00    +0.0248  H
ATOM     20 H17  121 L   1      -4.603  -3.713  -7.193  1.00  0.00    +0.0248  H
ENDBRANCH 3 13
TORSDOF 1
