ROOT
ATOM      1 N18  SAM L   1       2.862   0.290  -0.006  1.00  0.00    -0.2855  N
ATOM      2 C19  SAM L   1       2.426   1.448   0.567  1.00  0.00    +0.1004  A
ATOM      3 N20  SAM L   1       3.411   2.292   0.670  1.00  0.00    -0.2304 NA
ATOM      4 C21  SAM L   1       4.539   1.731   0.172  1.00  0.00    +0.1495  A
ATOM      5 C22  SAM L   1       5.870   2.155   0.022  1.00  0.00    +0.1554  A
ATOM      6 N23  SAM L   1       6.263   3.415   0.438  1.00  0.00    -0.3818  N
ATOM      7 N24  SAM L   1       6.744   1.317  -0.527  1.00  0.00    -0.2167 NA
ATOM      8 C25  SAM L   1       6.378   0.112  -0.925  1.00  0.00    +0.1207  A
ATOM      9 N26  SAM L   1       5.143  -0.327  -0.805  1.00  0.00    -0.2159 NA
ATOM     10 C27  SAM L   1       4.201   0.438  -0.263  1.00  0.00    +0.1676  A
ATOM     11 H46  SAM L   1       1.412   1.637   0.887  1.00  0.00    +0.1030  H
ATOM     12 H47  SAM L   1       5.616   4.017   0.837  1.00  0.00    +0.1574 HD
ATOM     13 H48  SAM L   1       7.185   3.696   0.329  1.00  0.00    +0.1574 HD
ATOM     14 H49  SAM L   1       7.120  -0.537  -1.367  1.00  0.00    +0.1048  H
ENDROOT
BRANCH 1 21
ATOM     15 C11  SAM L   1      -0.103  -1.741  -0.177  1.00  0.00    +0.1340  C
ATOM     16 O12  SAM L   1       0.656  -0.542  -0.407  1.00  0.00    -0.3433 OA
ATOM     17 C13  SAM L   1       0.752  -2.664   0.713  1.00  0.00    +0.1158  C
ATOM     18 O14  SAM L   1       1.004  -3.909   0.058  1.00  0.00    -0.3863 OA
ATOM     19 C15  SAM L   1       2.075  -1.877   0.910  1.00  0.00    +0.1286  C
ATOM     20 O16  SAM L   1       3.203  -2.751   0.832  1.00  0.00    -0.3847 OA
ATOM     21 C17  SAM L   1       2.050  -0.896  -0.290  1.00  0.00    +0.1668  C
ATOM     22 H40  SAM L   1      -0.314  -2.234  -1.127  1.00  0.00    +0.0671  H
ATOM     23 H41  SAM L   1       0.261  -2.831   1.672  1.00  0.00    +0.0648  H
ATOM     24 H42  SAM L   1       1.590  -4.416   0.637  1.00  0.00    +0.2100 HD
ATOM     25 H43  SAM L   1       2.069  -1.336   1.856  1.00  0.00    +0.0665  H
ATOM     26 H44  SAM L   1       3.160  -3.333   1.603  1.00  0.00    +0.2101 HD
ATOM     27 H45  SAM L   1       2.399  -1.390  -1.197  1.00  0.00    +0.0866  H
BRANCH 15 28
ATOM     28 C10  SAM L   1      -1.413  -1.400   0.534  1.00  0.00    +0.1381  C
ATOM     29 H38  SAM L   1      -1.199  -0.819   1.432  1.00  0.00    +0.0867  H
ATOM     30 H39  SAM L   1      -1.927  -2.320   0.811  1.00  0.00    +0.0867  H
BRANCH 28 31
ATOM     31  S8  SAM L   1      -2.469  -0.429  -0.576  1.00  0.00    -0.0106  S
ATOM     32  C9  SAM L   1      -3.103  -1.751  -1.644  1.00  0.00    +0.0995  C
ATOM     33 H35  SAM L   1      -2.339  -2.030  -2.370  1.00  0.00    +0.0803  H
ATOM     34 H36  SAM L   1      -3.359  -2.619  -1.035  1.00  0.00    +0.0803  H
ATOM     35 H37  SAM L   1      -3.992  -1.400  -2.169  1.00  0.00    +0.0803  H
BRANCH 31 36
ATOM     36  C7  SAM L   1      -3.908  -0.176   0.499  1.00  0.00    +0.1114  C
ATOM     37 H33  SAM L   1      -4.328  -1.142   0.778  1.00  0.00    +0.0840  H
ATOM     38 H34  SAM L   1      -3.600   0.359   1.398  1.00  0.00    +0.0840  H
BRANCH 36 39
ATOM     39  C6  SAM L   1      -4.964   0.644  -0.246  1.00  0.00    +0.0135  C
ATOM     40 H31  SAM L   1      -4.543   1.610  -0.524  1.00  0.00    +0.0330  H
ATOM     41 H32  SAM L   1      -5.271   0.109  -1.145  1.00  0.00    +0.0330  H
BRANCH 39 43
ATOM     42  N1  SAM L   1      -6.815  -0.436   0.939  1.00  0.00    -0.3219 NA
ATOM     43  C2  SAM L   1      -6.177   0.858   0.661  1.00  0.00    +0.0584  C
ATOM     44 H28  SAM L   1      -7.662  -0.238   1.449  1.00  0.00    +0.1188 HD
ATOM     45 H29  SAM L   1      -7.095  -0.819   0.048  1.00  0.00    +0.1188 HD
ATOM     46 H30  SAM L   1      -5.855   1.313   1.598  1.00  0.00    +0.0529  H
BRANCH 43 47
ATOM     47  C3  SAM L   1      -7.164   1.767  -0.026  1.00  0.00    +0.1044  C
ATOM     48  O4  SAM L   1      -8.035   1.295  -0.737  1.00  0.00    -0.3074 OA
ATOM     49  O5  SAM L   1      -7.091   2.974   0.130  1.00  0.00    -0.8465 OA
ENDBRANCH 43 47
ENDBRANCH 39 43
ENDBRANCH 36 39
ENDBRANCH 31 36
ENDBRANCH 28 31
ENDBRANCH 15 28
ENDBRANCH 1 21
TORSDOF 7
