ROOT
ATOM      1 CL1  121 L   1      14.589  14.738  14.490  1.00  0.00    -0.0817 Cl
ATOM      2 CL2  121 L   1      16.579  13.555  12.383  1.00  0.00    -0.0820 Cl
ATOM      3  C5  121 L   1      12.813  14.913  12.465  1.00  0.00    -0.0113  A
ATOM      4  C7  121 L   1      14.088  14.538  12.817  1.00  0.00    +0.0639  A
ATOM      5  C8  121 L   1      12.395  14.767  11.159  1.00  0.00    -0.0556  A
ATOM      6  C9  121 L   1      14.960  14.012  11.859  1.00  0.00    +0.0596  A
ATOM      7 C10  121 L   1      13.269  14.241  10.209  1.00  0.00    -0.0600  A
ATOM      8 C11  121 L   1      14.535  13.871  10.564  1.00  0.00    -0.0420  A
ATOM      9 H18  121 L   1      11.376  15.063  10.868  1.00  0.00    +0.0621  H
ATOM     10 H19  121 L   1      12.938  14.124   9.167  1.00  0.00    +0.0618  H
ATOM     11 H20  121 L   1      15.217  13.457   9.806  1.00  0.00    +0.0633  H
ENDROOT
BRANCH 3 13
ATOM     12  N3  121 L   1      12.340  16.695  14.056  1.00  0.00    -0.3237 NA
ATOM     13  C4  121 L   1      11.846  15.477  13.441  1.00  0.00    +0.0289  C
ATOM     14  C6  121 L   1      11.429  14.447  14.469  1.00  0.00    -0.0457  C
ATOM     15 H12  121 L   1      12.302  16.602  15.081  1.00  0.00    +0.1188 HD
ATOM     16 H13  121 L   1      13.313  16.858  13.762  1.00  0.00    +0.1188 HD
ATOM     17 H14  121 L   1      10.943  15.757  12.879  1.00  0.00    +0.0506  H
ATOM     18 H15  121 L   1      11.592  14.850  15.480  1.00  0.00    +0.0248  H
ATOM     19 H16  121 L   1      10.363  14.208  14.337  1.00  0.00    +0.0248  H
ATOM     20 H17  121 L   1      12.028  13.534  14.337  1.00  0.00    +0.0248  H
ENDBRANCH 3 13
TORSDOF 1
