ROOT
ATOM      1 CL1  121 L   1       6.824  -4.799  -3.988  1.00  0.00    -0.0817 Cl
ATOM      2 CL2  121 L   1       8.534  -2.474  -2.817  1.00  0.00    -0.0820 Cl
ATOM      3  C5  121 L   1       4.782  -3.041  -4.032  1.00  0.00    -0.0113  A
ATOM      4  C7  121 L   1       6.098  -3.223  -3.720  1.00  0.00    +0.0639  A
ATOM      5  C8  121 L   1       4.245  -1.782  -3.806  1.00  0.00    -0.0556  A
ATOM      6  C9  121 L   1       6.852  -2.206  -3.206  1.00  0.00    +0.0596  A
ATOM      7 C10  121 L   1       4.971  -0.736  -3.291  1.00  0.00    -0.0600  A
ATOM      8 C11  121 L   1       6.305  -0.951  -2.983  1.00  0.00    -0.0420  A
ATOM      9 H18  121 L   1       3.186  -1.614  -4.050  1.00  0.00    +0.0621  H
ATOM     10 H19  121 L   1       4.505   0.247  -3.127  1.00  0.00    +0.0618  H
ATOM     11 H20  121 L   1       6.920  -0.139  -2.569  1.00  0.00    +0.0633  H
ENDROOT
BRANCH 3 13
ATOM     12  N3  121 L   1       2.824  -3.562  -5.375  1.00  0.00    -0.3237 NA
ATOM     13  C4  121 L   1       3.904  -4.090  -4.591  1.00  0.00    +0.0289  C
ATOM     14  C6  121 L   1       3.302  -4.937  -3.463  1.00  0.00    -0.0457  C
ATOM     15 H12  121 L   1       2.089  -3.203  -4.749  1.00  0.00    +0.1188 HD
ATOM     16 H13  121 L   1       3.173  -2.797  -5.969  1.00  0.00    +0.1188 HD
ATOM     17 H14  121 L   1       4.542  -4.699  -5.247  1.00  0.00    +0.0506  H
ATOM     18 H15  121 L   1       3.600  -4.518  -2.491  1.00  0.00    +0.0248  H
ATOM     19 H16  121 L   1       2.205  -4.930  -3.545  1.00  0.00    +0.0248  H
ATOM     20 H17  121 L   1       3.669  -5.971  -3.545  1.00  0.00    +0.0248  H
ENDBRANCH 3 13
TORSDOF 1
