ROOT
ATOM      1 CL1  121 L   1       2.390  16.967  13.285  1.00  0.00    -0.0817 Cl
ATOM      2 CL2  121 L   1       1.410  15.197  10.898  1.00  0.00    -0.0820 Cl
ATOM      3  C5  121 L   1       4.790  17.007  12.050  1.00  0.00    -0.0113  A
ATOM      4  C7  121 L   1       3.497  16.544  11.987  1.00  0.00    +0.0639  A
ATOM      5  C8  121 L   1       5.679  16.689  11.045  1.00  0.00    -0.0556  A
ATOM      6  C9  121 L   1       3.081  15.754  10.912  1.00  0.00    +0.0596  A
ATOM      7 C10  121 L   1       5.257  15.901   9.975  1.00  0.00    -0.0600  A
ATOM      8 C11  121 L   1       3.972  15.444   9.917  1.00  0.00    -0.0420  A
ATOM      9 H18  121 L   1       6.715  17.056  11.087  1.00  0.00    +0.0621  H
ATOM     10 H19  121 L   1       5.964  15.647   9.172  1.00  0.00    +0.0618  H
ATOM     11 H20  121 L   1       3.649  14.823   9.068  1.00  0.00    +0.0633  H
ENDROOT
BRANCH 3 13
ATOM     12  N3  121 L   1       5.139  19.265  12.893  1.00  0.00    -0.3237 NA
ATOM     13  C4  121 L   1       5.285  17.849  13.170  1.00  0.00    +0.0289  C
ATOM     14  C6  121 L   1       6.704  17.485  13.554  1.00  0.00    -0.0457  C
ATOM     15 H12  121 L   1       5.086  19.785  13.781  1.00  0.00    +0.1188 HD
ATOM     16 H13  121 L   1       5.951  19.595  12.351  1.00  0.00    +0.1188 HD
ATOM     17 H14  121 L   1       4.650  17.635  14.042  1.00  0.00    +0.0506  H
ATOM     18 H15  121 L   1       6.793  17.462  14.650  1.00  0.00    +0.0248  H
ATOM     19 H16  121 L   1       6.952  16.494  13.145  1.00  0.00    +0.0248  H
ATOM     20 H17  121 L   1       7.398  18.234  13.145  1.00  0.00    +0.0248  H
ENDBRANCH 3 13
TORSDOF 1
