ROOT
ATOM      1 CL1  121 L   1       1.271  15.559  11.211  1.00  0.00    -0.0817 Cl
ATOM      2 CL2  121 L   1       3.311  14.542  13.356  1.00  0.00    -0.0820 Cl
ATOM      3  C5  121 L   1       3.380  16.742  10.011  1.00  0.00    -0.0113  A
ATOM      4  C7  121 L   1       2.974  15.970  11.074  1.00  0.00    +0.0639  A
ATOM      5  C8  121 L   1       4.711  17.079   9.880  1.00  0.00    -0.0556  A
ATOM      6  C9  121 L   1       3.903  15.527  12.020  1.00  0.00    +0.0596  A
ATOM      7 C10  121 L   1       5.631  16.633  10.827  1.00  0.00    -0.0600  A
ATOM      8 C11  121 L   1       5.223  15.867  11.882  1.00  0.00    -0.0420  A
ATOM      9 H18  121 L   1       5.044  17.696   9.033  1.00  0.00    +0.0621  H
ATOM     10 H19  121 L   1       6.693  16.900  10.725  1.00  0.00    +0.0618  H
ATOM     11 H20  121 L   1       5.958  15.521  12.623  1.00  0.00    +0.0633  H
ENDROOT
BRANCH 3 13
ATOM     12  N3  121 L   1       2.236  16.276   7.911  1.00  0.00    -0.3237 NA
ATOM     13  C4  121 L   1       2.436  17.240   8.977  1.00  0.00    +0.0289  C
ATOM     14  C6  121 L   1       2.854  18.596   8.450  1.00  0.00    -0.0457  C
ATOM     15 H12  121 L   1       2.044  15.350   8.318  1.00  0.00    +0.1188 HD
ATOM     16 H13  121 L   1       1.438  16.568   7.330  1.00  0.00    +0.1188 HD
ATOM     17 H14  121 L   1       1.459  17.371   9.466  1.00  0.00    +0.0506  H
ATOM     18 H15  121 L   1       3.062  19.270   9.294  1.00  0.00    +0.0248  H
ATOM     19 H16  121 L   1       3.760  18.487   7.836  1.00  0.00    +0.0248  H
ATOM     20 H17  121 L   1       2.044  19.017   7.836  1.00  0.00    +0.0248  H
ENDBRANCH 3 13
TORSDOF 1
