ROOT
ATOM      1 CL1  121 L   1       5.096  -3.251  -0.604  1.00  0.00    -0.0817 Cl
ATOM      2 CL2  121 L   1       8.121  -2.792  -0.020  1.00  0.00    -0.0820 Cl
ATOM      3  C5  121 L   1       5.799  -3.396  -3.202  1.00  0.00    -0.0113  A
ATOM      4  C7  121 L   1       6.250  -3.218  -1.926  1.00  0.00    +0.0639  A
ATOM      5  C8  121 L   1       6.742  -3.363  -4.219  1.00  0.00    -0.0556  A
ATOM      6  C9  121 L   1       7.577  -3.016  -1.666  1.00  0.00    +0.0596  A
ATOM      7 C10  121 L   1       8.082  -3.163  -3.996  1.00  0.00    -0.0600  A
ATOM      8 C11  121 L   1       8.511  -2.985  -2.690  1.00  0.00    -0.0420  A
ATOM      9 H18  121 L   1       6.399  -3.504  -5.254  1.00  0.00    +0.0621  H
ATOM     10 H19  121 L   1       8.796  -3.144  -4.833  1.00  0.00    +0.0618  H
ATOM     11 H20  121 L   1       9.576  -2.822  -2.469  1.00  0.00    +0.0633  H
ENDROOT
BRANCH 3 13
ATOM     12  N3  121 L   1       3.975  -4.988  -3.424  1.00  0.00    -0.3237 NA
ATOM     13  C4  121 L   1       4.383  -3.619  -3.563  1.00  0.00    +0.0289  C
ATOM     14  C6  121 L   1       4.129  -3.192  -5.013  1.00  0.00    -0.0457  C
ATOM     15 H12  121 L   1       3.904  -5.226  -2.425  1.00  0.00    +0.1188 HD
ATOM     16 H13  121 L   1       3.058  -5.120  -3.875  1.00  0.00    +0.1188 HD
ATOM     17 H14  121 L   1       3.794  -3.011  -2.861  1.00  0.00    +0.0506  H
ATOM     18 H15  121 L   1       3.567  -2.247  -5.024  1.00  0.00    +0.0248  H
ATOM     19 H16  121 L   1       5.091  -3.052  -5.528  1.00  0.00    +0.0248  H
ATOM     20 H17  121 L   1       3.548  -3.971  -5.528  1.00  0.00    +0.0248  H
ENDBRANCH 3 13
TORSDOF 1
