ROOT
ATOM      1 CL1  121 L   1       6.717  -2.113  -3.829  1.00  0.00    -0.0817 Cl
ATOM      2 CL2  121 L   1       9.126  -1.361  -2.003  1.00  0.00    -0.0820 Cl
ATOM      3  C5  121 L   1       6.123  -3.980  -1.978  1.00  0.00    -0.0113  A
ATOM      4  C7  121 L   1       6.985  -2.980  -2.326  1.00  0.00    +0.0639  A
ATOM      5  C8  121 L   1       6.369  -4.642  -0.784  1.00  0.00    -0.0556  A
ATOM      6  C9  121 L   1       8.043  -2.648  -1.528  1.00  0.00    +0.0596  A
ATOM      7 C10  121 L   1       7.421  -4.336   0.044  1.00  0.00    -0.0600  A
ATOM      8 C11  121 L   1       8.279  -3.315  -0.335  1.00  0.00    -0.0420  A
ATOM      9 H18  121 L   1       5.687  -5.451  -0.485  1.00  0.00    +0.0621  H
ATOM     10 H19  121 L   1       7.579  -4.886   0.983  1.00  0.00    +0.0618  H
ATOM     11 H20  121 L   1       9.134  -3.039   0.300  1.00  0.00    +0.0633  H
ENDROOT
BRANCH 3 13
ATOM     12  N3  121 L   1       5.320  -4.871  -4.093  1.00  0.00    -0.3237 NA
ATOM     13  C4  121 L   1       4.959  -4.398  -2.787  1.00  0.00    +0.0289  C
ATOM     14  C6  121 L   1       3.983  -3.229  -2.959  1.00  0.00    -0.0457  C
ATOM     15 H12  121 L   1       5.943  -5.686  -4.003  1.00  0.00    +0.1188 HD
ATOM     16 H13  121 L   1       4.470  -5.143  -4.607  1.00  0.00    +0.1188 HD
ATOM     17 H14  121 L   1       4.492  -5.228  -2.236  1.00  0.00    +0.0506  H
ATOM     18 H15  121 L   1       3.675  -2.860  -1.969  1.00  0.00    +0.0248  H
ATOM     19 H16  121 L   1       4.476  -2.418  -3.515  1.00  0.00    +0.0248  H
ATOM     20 H17  121 L   1       3.097  -3.569  -3.515  1.00  0.00    +0.0248  H
ENDBRANCH 3 13
TORSDOF 1
