ROOT
ATOM      1 N14  CHE L   1      -1.597   0.004   1.140  1.00  0.00    -0.2953 NA
ATOM      2 C15  CHE L   1      -1.997  -1.378   0.819  1.00  0.00    +0.0033  C
ATOM      3 C16  CHE L   1      -3.046  -1.495  -0.297  1.00  0.00    -0.0146  C
ATOM      4 C17  CHE L   1      -4.156  -0.483  -0.158  1.00  0.00    -0.0418  A
ATOM      5 C18  CHE L   1      -5.312  -0.601  -0.941  1.00  0.00    -0.0582  A
ATOM      6 C19  CHE L   1      -6.327   0.349  -0.846  1.00  0.00    -0.0615  A
ATOM      7 C20  CHE L   1      -6.194   1.426   0.028  1.00  0.00    -0.0614  A
ATOM      8 C21  CHE L   1      -5.044   1.557   0.806  1.00  0.00    -0.0571  A
ATOM      9 C22  CHE L   1      -4.010   0.613   0.712  1.00  0.00    -0.0302  A
ATOM     10 C23  CHE L   1      -2.790   0.748   1.599  1.00  0.00    +0.0244  C
ATOM     11 H36  CHE L   1      -2.401  -1.835   1.733  1.00  0.00    +0.0430  H
ATOM     12 H37  CHE L   1      -1.122  -1.988   0.568  1.00  0.00    +0.0430  H
ATOM     13 H38  CHE L   1      -2.567  -1.351  -1.273  1.00  0.00    +0.0326  H
ATOM     14 H39  CHE L   1      -3.467  -2.507  -0.279  1.00  0.00    +0.0326  H
ATOM     15 H40  CHE L   1      -5.425  -1.434  -1.631  1.00  0.00    +0.0620  H
ATOM     16 H41  CHE L   1      -7.222   0.251  -1.454  1.00  0.00    +0.0618  H
ATOM     17 H42  CHE L   1      -6.988   2.165   0.104  1.00  0.00    +0.0618  H
ATOM     18 H43  CHE L   1      -4.957   2.400   1.487  1.00  0.00    +0.0621  H
ATOM     19 H44  CHE L   1      -3.063   0.376   2.595  1.00  0.00    +0.0476  H
ATOM     20 H45  CHE L   1      -2.536   1.807   1.733  1.00  0.00    +0.0476  H
ENDROOT
BRANCH 1 21
ATOM     21 C13  CHE L   1      -0.925   0.709   0.033  1.00  0.00    +0.0270  C
ATOM     22 H34  CHE L   1      -0.743   1.751   0.334  1.00  0.00    +0.0452  H
ATOM     23 H35  CHE L   1      -1.565   0.783  -0.856  1.00  0.00    +0.0452  H
BRANCH 21 24
ATOM     24 C11  CHE L   1       0.441   0.119  -0.383  1.00  0.00    +0.0857  C
ATOM     25 O12  CHE L   1       0.947   0.921  -1.463  1.00  0.00    -0.3888 OA
ATOM     26 H32  CHE L   1       0.303  -0.892  -0.782  1.00  0.00    +0.0624  H
ATOM     27 H33  CHE L   1       1.714   0.449  -1.837  1.00  0.00    +0.2099 HD
BRANCH 24 28
ATOM     28 C10  CHE L   1       1.431   0.122   0.790  1.00  0.00    +0.0505  C
ATOM     29 H30  CHE L   1       1.742   1.140   1.047  1.00  0.00    +0.0518  H
ATOM     30 H31  CHE L   1       1.000  -0.333   1.689  1.00  0.00    +0.0518  H
BRANCH 28 37
ATOM     31  C3  CHE L   1       5.474   1.372  -0.908  1.00  0.00    +0.0538  A
ATOM     32  C4  CHE L   1       6.363   0.304  -1.048  1.00  0.00    -0.0437  A
ATOM     33  C5  CHE L   1       5.983  -0.993  -0.682  1.00  0.00    -0.0514  A
ATOM     34  C6  CHE L   1       4.691  -1.220  -0.168  1.00  0.00    -0.0001  A
ATOM     35  C7  CHE L   1       4.009  -2.380   0.288  1.00  0.00    -0.0364  A
ATOM     36  C8  CHE L   1       2.750  -1.997   0.687  1.00  0.00    +0.0058  A
ATOM     37  N9  CHE L   1       2.636  -0.644   0.485  1.00  0.00    -0.3441  N
ATOM     38 C24  CHE L   1       3.813  -0.140  -0.033  1.00  0.00    +0.0504  A
ATOM     39 C25  CHE L   1       4.183   1.167  -0.400  1.00  0.00    -0.0202  A
ATOM     40 H26  CHE L   1       7.364   0.468  -1.442  1.00  0.00    +0.0631  H
ATOM     41 H27  CHE L   1       6.681  -1.819  -0.793  1.00  0.00    +0.0624  H
ATOM     42 H28  CHE L   1       4.402  -3.387   0.324  1.00  0.00    +0.0639  H
ATOM     43 H29  CHE L   1       1.932  -2.575   1.097  1.00  0.00    +0.0809  H
ATOM     44 H46  CHE L   1       3.490   1.998  -0.294  1.00  0.00    +0.0651  H
BRANCH 31 46
ATOM     45  N1  CHE L   1       6.220   3.761  -1.596  1.00  0.00    -0.1909 NA
ATOM     46  C2  CHE L   1       5.885   2.693  -1.288  1.00  0.00    +0.0992  C
ENDBRANCH 31 46
ENDBRANCH 28 37
ENDBRANCH 24 28
ENDBRANCH 21 24
ENDBRANCH 1 21
TORSDOF 5
