ROOT
ATOM      1  C8  WH0 L   1       1.416   1.364  -0.491  1.00  0.00    -0.0452  A
ATOM      2  C9  WH0 L   1       1.248   2.024  -1.731  1.00  0.00    -0.0566  A
ATOM      3 C10  WH0 L   1       0.012   2.553  -2.110  1.00  0.00    -0.0377  A
ATOM      4 C11  WH0 L   1      -1.036   2.410  -1.228  1.00  0.00    +0.0486  A
ATOM      5 C12  WH0 L   1      -0.895   1.768   0.008  1.00  0.00    +0.0214  A
ATOM      6 C13  WH0 L   1       0.328   1.234   0.387  1.00  0.00    -0.0498  A
ATOM      7 C14  WH0 L   1      -2.223   1.799   0.736  1.00  0.00    +0.2010  C
ATOM      8 S15  WH0 L   1      -2.114   3.040   2.089  1.00  0.00    -0.1088 SA
ATOM      9 C16  WH0 L   1      -2.116   1.794   3.363  1.00  0.00    +0.0758  C
ATOM     10 C17  WH0 L   1      -2.512   0.481   2.733  1.00  0.00    +0.2395  C
ATOM     11 O18  WH0 L   1      -2.638  -0.516   3.441  1.00  0.00    -0.2717 OA
ATOM     12 N19  WH0 L   1      -2.648   0.542   1.340  1.00  0.00    -0.2840  N
ATOM     13 C26  WH0 L   1      -3.168   2.436  -0.354  1.00  0.00    +0.2665  C
ATOM     14 O27  WH0 L   1      -4.377   2.603  -0.308  1.00  0.00    -0.2689 OA
ATOM     15 N28  WH0 L   1      -2.352   2.808  -1.427  1.00  0.00    -0.3228  N
ATOM     16 H37  WH0 L   1       2.092   2.117  -2.414  1.00  0.00    +0.0621  H
ATOM     17 H38  WH0 L   1      -0.109   3.046  -3.069  1.00  0.00    +0.0638  H
ATOM     18 H39  WH0 L   1       0.438   0.723   1.340  1.00  0.00    +0.0625  H
ATOM     19 H40  WH0 L   1      -2.834   2.056   4.144  1.00  0.00    +0.0474  H
ATOM     20 H41  WH0 L   1      -1.116   1.697   3.794  1.00  0.00    +0.0474  H
ATOM     21 H47  WH0 L   1      -2.717   3.250  -2.258  1.00  0.00    +0.1687 HD
ENDROOT
BRANCH 1 22
ATOM     22  C7  WH0 L   1       2.759   0.774  -0.129  1.00  0.00    -0.0102  C
ATOM     23 H35  WH0 L   1       3.554   1.462  -0.443  1.00  0.00    +0.0330  H
ATOM     24 H36  WH0 L   1       2.849   0.702   0.963  1.00  0.00    +0.0330  H
BRANCH 22 25
ATOM     25  C6  WH0 L   1       2.969  -0.600  -0.765  1.00  0.00    +0.0223  C
ATOM     26 H33  WH0 L   1       2.191  -1.302  -0.441  1.00  0.00    +0.0489  H
ATOM     27 H34  WH0 L   1       2.912  -0.532  -1.857  1.00  0.00    +0.0489  H
BRANCH 25 30
ATOM     28  C3  WH0 L   1       4.877  -2.084  -1.193  1.00  0.00    +0.2443  C
ATOM     29  O4  WH0 L   1       4.498  -2.399  -2.314  1.00  0.00    -0.2683 OA
ATOM     30  N5  WH0 L   1       4.246  -1.174  -0.383  1.00  0.00    -0.3522  N
ATOM     31 H32  WH0 L   1       4.483  -1.185   0.600  1.00  0.00    +0.1626 HD
BRANCH 28 33
ATOM     32  C1  WH0 L   1       6.858  -2.222   0.342  1.00  0.00    -0.0936  C
ATOM     33  C2  WH0 L   1       6.063  -2.751  -0.598  1.00  0.00    -0.0047  C
ATOM     34 H29  WH0 L   1       7.726  -2.774   0.692  1.00  0.00    +0.0536  H
ATOM     35 H30  WH0 L   1       6.701  -1.234   0.759  1.00  0.00    +0.0536  H
ATOM     36 H31  WH0 L   1       6.295  -3.716  -1.038  1.00  0.00    +0.0666  H
ENDBRANCH 28 33
ENDBRANCH 25 30
ENDBRANCH 22 25
ENDBRANCH 1 22
BRANCH 12 37
ATOM     37 C20  WH0 L   1      -3.161  -0.558   0.566  1.00  0.00    +0.0468  A
ATOM     38 C21  WH0 L   1      -3.977  -1.537   1.160  1.00  0.00    -0.0380  A
ATOM     39 C22  WH0 L   1      -4.500  -2.609   0.426  1.00  0.00    -0.0598  A
ATOM     40 C23  WH0 L   1      -4.221  -2.731  -0.928  1.00  0.00    -0.0616  A
ATOM     41 C24  WH0 L   1      -3.422  -1.777  -1.543  1.00  0.00    -0.0598  A
ATOM     42 C25  WH0 L   1      -2.902  -0.704  -0.805  1.00  0.00    -0.0380  A
ATOM     43 H42  WH0 L   1      -4.263  -1.481   2.206  1.00  0.00    +0.0638  H
ATOM     44 H43  WH0 L   1      -5.132  -3.343   0.922  1.00  0.00    +0.0618  H
ATOM     45 H44  WH0 L   1      -4.625  -3.562  -1.499  1.00  0.00    +0.0618  H
ATOM     46 H45  WH0 L   1      -3.192  -1.866  -2.602  1.00  0.00    +0.0618  H
ATOM     47 H46  WH0 L   1      -2.263  -0.026  -1.355  1.00  0.00    +0.0638  H
ENDBRANCH 12 37
TORSDOF 5
