ROOT
ATOM      1 C34  WH0 L   1      -0.919  -3.228  -0.351  1.00  0.00    -0.0133  A
ATOM      2 C35  WH0 L   1      -0.913  -4.415   0.418  1.00  0.00    -0.0519  A
ATOM      3 C36  WH0 L   1      -1.830  -5.441   0.168  1.00  0.00    -0.0374  A
ATOM      4 C37  WH0 L   1      -2.736  -5.242  -0.850  1.00  0.00    +0.0454  A
ATOM      5 C38  WH0 L   1      -2.760  -4.079  -1.616  1.00  0.00    -0.0145  A
ATOM      6 C39  WH0 L   1      -1.858  -3.057  -1.381  1.00  0.00    -0.0483  A
ATOM      7 C40  WH0 L   1      -3.860  -4.175  -2.631  1.00  0.00    +0.0535  C
ATOM      8 C41  WH0 L   1      -4.454  -5.557  -2.332  1.00  0.00    +0.2296  C
ATOM      9 O42  WH0 L   1      -5.387  -6.090  -2.908  1.00  0.00    -0.2725 OA
ATOM     10 N43  WH0 L   1      -3.733  -6.103  -1.277  1.00  0.00    -0.3256  N
ATOM     11 H66  WH0 L   1      -0.193  -4.537   1.225  1.00  0.00    +0.0624  H
ATOM     12 H67  WH0 L   1      -1.824  -6.349   0.760  1.00  0.00    +0.0638  H
ATOM     13 H68  WH0 L   1      -1.880  -2.153  -1.981  1.00  0.00    +0.0627  H
ATOM     14 H69  WH0 L   1      -4.619  -3.405  -2.469  1.00  0.00    +0.0410  H
ATOM     15 H70  WH0 L   1      -3.465  -4.157  -3.649  1.00  0.00    +0.0410  H
ATOM     16 H71  WH0 L   1      -3.934  -7.014  -0.893  1.00  0.00    +0.1686 HD
ENDROOT
BRANCH 1 25
ATOM     17 C18  WH0 L   1      -0.196  -0.804   0.305  1.00  0.00    +0.1018  A
ATOM     18 N19  WH0 L   1       0.958  -0.147   0.491  1.00  0.00    -0.1627 NA
ATOM     19 N20  WH0 L   1       1.924  -1.075   0.255  1.00  0.00    -0.1987  N
ATOM     20 C21  WH0 L   1       3.331  -0.832   0.389  1.00  0.00    +0.2282  A
ATOM     21 N29  WH0 L   1       4.157  -1.832   0.163  1.00  0.00    -0.2207 NA
ATOM     22 C30  WH0 L   1       3.634  -3.045  -0.221  1.00  0.00    +0.0334  A
ATOM     23 C31  WH0 L   1       2.330  -3.326  -0.362  1.00  0.00    -0.0173  A
ATOM     24 C32  WH0 L   1       1.396  -2.303  -0.088  1.00  0.00    +0.0803  A
ATOM     25 C33  WH0 L   1       0.027  -2.167  -0.058  1.00  0.00    +0.0353  A
ATOM     26 H64  WH0 L   1       4.372  -3.819  -0.424  1.00  0.00    +0.0831  H
ATOM     27 H65  WH0 L   1       2.001  -4.311  -0.675  1.00  0.00    +0.0654  H
BRANCH 17 33
ATOM     28  C8  WH0 L   1      -1.955   0.883  -0.342  1.00  0.00    -0.0359  A
ATOM     29  C9  WH0 L   1      -3.240   1.416  -0.117  1.00  0.00    -0.0463  A
ATOM     30 C10  WH0 L   1      -4.053   0.959   0.933  1.00  0.00    +0.0551  A
ATOM     31 C15  WH0 L   1      -3.569  -0.052   1.770  1.00  0.00    -0.0495  A
ATOM     32 C16  WH0 L   1      -2.302  -0.598   1.555  1.00  0.00    -0.0517  A
ATOM     33 C17  WH0 L   1      -1.488  -0.145   0.504  1.00  0.00    +0.0060  A
ATOM     34 H51  WH0 L   1      -3.621   2.200  -0.773  1.00  0.00    +0.0626  H
ATOM     35 H52  WH0 L   1      -4.176  -0.426   2.593  1.00  0.00    +0.0623  H
ATOM     36 H53  WH0 L   1      -1.950  -1.387   2.218  1.00  0.00    +0.0624  H
BRANCH 28 37
ATOM     37  C7  WH0 L   1      -1.128   1.444  -1.482  1.00  0.00    -0.0095  C
ATOM     38 H49  WH0 L   1      -1.798   1.783  -2.284  1.00  0.00    +0.0330  H
ATOM     39 H50  WH0 L   1      -0.529   0.642  -1.929  1.00  0.00    +0.0330  H
BRANCH 37 40
ATOM     40  C6  WH0 L   1      -0.211   2.591  -1.053  1.00  0.00    +0.0221  C
ATOM     41 H47  WH0 L   1       0.505   2.800  -1.857  1.00  0.00    +0.0489  H
ATOM     42 H48  WH0 L   1       0.360   2.342  -0.155  1.00  0.00    +0.0489  H
BRANCH 40 45
ATOM     43  O1  WH0 L   1       0.950   5.124  -0.943  1.00  0.00    -0.2720 OA
ATOM     44  C2  WH0 L   1      -0.231   5.007  -0.623  1.00  0.00    +0.2356  C
ATOM     45  N5  WH0 L   1      -0.926   3.819  -0.756  1.00  0.00    -0.3547  N
ATOM     46 H46  WH0 L   1      -1.741   3.744  -0.153  1.00  0.00    +0.1623 HD
BRANCH 44 47
ATOM     47  C3  WH0 L   1      -1.046   6.193  -0.137  1.00  0.00    +0.1010  C
ATOM     48 CL4  WH0 L   1      -2.313   5.688   1.008  1.00  0.00    -0.1154 Cl
ATOM     49 H44  WH0 L   1      -1.519   6.684  -0.991  1.00  0.00    +0.0527  H
ATOM     50 H45  WH0 L   1      -0.389   6.896   0.383  1.00  0.00    +0.0527  H
ENDBRANCH 44 47
ENDBRANCH 40 45
ENDBRANCH 37 40
ENDBRANCH 28 37
BRANCH 30 51
ATOM     51 C11  WH0 L   1      -5.426   1.555   1.136  1.00  0.00    +0.4174  C
ATOM     52 F12  WH0 L   1      -6.086   1.054   2.218  1.00  0.00    -0.1659  F
ATOM     53 F13  WH0 L   1      -5.385   2.904   1.313  1.00  0.00    -0.1659  F
ATOM     54 F14  WH0 L   1      -6.244   1.342   0.068  1.00  0.00    -0.1659  F
ENDBRANCH 30 51
ENDBRANCH 17 33
BRANCH 20 55
ATOM     55 N22  WH0 L   1       3.839   0.418   0.772  1.00  0.00    -0.3401  N
ATOM     56 C23  WH0 L   1       5.231   0.513   1.225  1.00  0.00    +0.0237  C
ATOM     57 C24  WH0 L   1       5.399   1.677   2.197  1.00  0.00    -0.0090  C
ATOM     58 C25  WH0 L   1       4.967   3.005   1.576  1.00  0.00    +0.0585  C
ATOM     59 O26  WH0 L   1       6.113   3.807   1.290  1.00  0.00    -0.3917 OA
ATOM     60 C27  WH0 L   1       4.139   2.830   0.309  1.00  0.00    -0.0090  C
ATOM     61 C28  WH0 L   1       3.156   1.676   0.457  1.00  0.00    +0.0237  C
ATOM     62 H54  WH0 L   1       5.530  -0.403   1.750  1.00  0.00    +0.0489  H
ATOM     63 H55  WH0 L   1       5.898   0.627   0.361  1.00  0.00    +0.0489  H
ATOM     64 H56  WH0 L   1       4.770   1.481   3.075  1.00  0.00    +0.0307  H
ATOM     65 H57  WH0 L   1       6.436   1.723   2.548  1.00  0.00    +0.0307  H
ATOM     66 H58  WH0 L   1       4.385   3.563   2.320  1.00  0.00    +0.0594  H
ATOM     67 H59  WH0 L   1       6.624   3.372   0.585  1.00  0.00    +0.2098 HD
ATOM     68 H60  WH0 L   1       4.795   2.656  -0.555  1.00  0.00    +0.0307  H
ATOM     69 H61  WH0 L   1       3.604   3.762   0.087  1.00  0.00    +0.0307  H
ATOM     70 H62  WH0 L   1       2.620   1.584  -0.494  1.00  0.00    +0.0489  H
ATOM     71 H63  WH0 L   1       2.436   1.910   1.250  1.00  0.00    +0.0489  H
ENDBRANCH 20 55
ENDBRANCH 1 25
TORSDOF 8
