ROOT
ATOM      1  C3  CHE L   1      -4.098   0.271  -0.927  1.00  0.00    +0.1635  A
ATOM      2  C4  CHE L   1      -3.526   1.549  -0.922  1.00  0.00    +0.0099  A
ATOM      3  C5  CHE L   1      -2.150   1.739  -0.926  1.00  0.00    +0.0812  A
ATOM      4  N6  CHE L   1      -1.676   2.988  -0.916  1.00  0.00    -0.2183 NA
ATOM      5  C7  CHE L   1      -0.340   3.128  -0.917  1.00  0.00    +0.2343  A
ATOM      6 N10  CHE L   1       0.561   2.136  -0.935  1.00  0.00    -0.2008 NA
ATOM      7 C11  CHE L   1       0.069   0.885  -0.946  1.00  0.00    +0.1420  A
ATOM      8 C21  CHE L   1      -1.315   0.618  -0.941  1.00  0.00    +0.0463  A
ATOM      9 C22  CHE L   1      -1.882  -0.680  -0.940  1.00  0.00    -0.0036  A
ATOM     10 C23  CHE L   1      -3.265  -0.859  -0.934  1.00  0.00    +0.1623  A
ATOM     11 H29  CHE L   1      -4.146   2.440  -0.912  1.00  0.00    +0.0677  H
ATOM     12 H45  CHE L   1      -1.207  -1.530  -0.941  1.00  0.00    +0.0663  H
ENDROOT
BRANCH 1 14
ATOM     13  C1  CHE L   1      -6.326   1.143  -0.916  1.00  0.00    +0.0790  C
ATOM     14  O2  CHE L   1      -5.449   0.026  -0.923  1.00  0.00    -0.4914 OA
ATOM     15 H26  CHE L   1      -7.352   0.763  -0.916  1.00  0.00    +0.0660  H
ATOM     16 H27  CHE L   1      -6.194   1.743  -0.010  1.00  0.00    +0.0660  H
ATOM     17 H28  CHE L   1      -6.197   1.752  -1.818  1.00  0.00    +0.0660  H
ENDBRANCH 1 14
BRANCH 5 18
ATOM     18  C8  CHE L   1       0.174   4.473  -0.902  1.00  0.00    +0.1400  C
ATOM     19  N9  CHE L   1       0.588   5.560  -0.890  1.00  0.00    -0.1876 NA
ENDBRANCH 5 18
BRANCH 7 20
ATOM     20 N12  CHE L   1       0.983  -0.213  -0.987  1.00  0.00    -0.3553  N
ATOM     21 C13  CHE L   1       1.408  -0.340  -2.394  1.00  0.00    +0.0088  C
ATOM     22 H30  CHE L   1       1.973  -1.267  -2.539  1.00  0.00    +0.0452  H
ATOM     23 H31  CHE L   1       2.043   0.498  -2.706  1.00  0.00    +0.0452  H
ATOM     24 H32  CHE L   1       0.547  -0.400  -3.071  1.00  0.00    +0.0452  H
BRANCH 20 25
ATOM     25 C14  CHE L   1       2.122  -0.040  -0.030  1.00  0.00    +0.0333  C
ATOM     26 C15  CHE L   1       1.632   0.111   1.419  1.00  0.00    -0.0196  C
ATOM     27 C16  CHE L   1       2.812   0.322   2.376  1.00  0.00    +0.0005  C
ATOM     28 N17  CHE L   1       4.049  -0.338   1.937  1.00  0.00    -0.3052 NA
ATOM     29 C18  CHE L   1       4.955  -0.552   3.063  1.00  0.00    -0.0128  C
ATOM     30 C19  CHE L   1       3.767  -1.578   1.223  1.00  0.00    +0.0005  C
ATOM     31 C20  CHE L   1       3.056  -1.273  -0.099  1.00  0.00    -0.0196  C
ATOM     32 H33  CHE L   1       2.707   0.849  -0.307  1.00  0.00    +0.0525  H
ATOM     33 H34  CHE L   1       1.074  -0.789   1.710  1.00  0.00    +0.0297  H
ATOM     34 H35  CHE L   1       0.939   0.951   1.537  1.00  0.00    +0.0297  H
ATOM     35 H36  CHE L   1       3.014   1.397   2.463  1.00  0.00    +0.0427  H
ATOM     36 H37  CHE L   1       2.500  -0.024   3.370  1.00  0.00    +0.0427  H
ATOM     37 H38  CHE L   1       4.538  -1.244   3.803  1.00  0.00    +0.0391  H
ATOM     38 H39  CHE L   1       5.178   0.397   3.563  1.00  0.00    +0.0391  H
ATOM     39 H40  CHE L   1       5.912  -0.957   2.715  1.00  0.00    +0.0391  H
ATOM     40 H41  CHE L   1       3.157  -2.254   1.837  1.00  0.00    +0.0427  H
ATOM     41 H42  CHE L   1       4.695  -2.117   0.991  1.00  0.00    +0.0427  H
ATOM     42 H43  CHE L   1       3.804  -1.096  -0.882  1.00  0.00    +0.0297  H
ATOM     43 H44  CHE L   1       2.500  -2.171  -0.397  1.00  0.00    +0.0297  H
ENDBRANCH 20 25
ENDBRANCH 7 20
BRANCH 10 44
ATOM     44 O24  CHE L   1      -3.893  -2.078  -0.935  1.00  0.00    -0.4914 OA
ATOM     45 C25  CHE L   1      -3.078  -3.241  -0.910  1.00  0.00    +0.0790  C
ATOM     46 H46  CHE L   1      -3.739  -4.113  -0.901  1.00  0.00    +0.0660  H
ATOM     47 H47  CHE L   1      -2.456  -3.306  -1.809  1.00  0.00    +0.0660  H
ATOM     48 H48  CHE L   1      -2.467  -3.278  -0.002  1.00  0.00    +0.0660  H
ENDBRANCH 10 44
TORSDOF 5
