ROOT
ATOM      1  C5  EUB L   1       0.066   1.049  -1.699  1.00  0.00    +0.0815  A
ATOM      2  C6  EUB L   1       0.637   1.188  -0.426  1.00  0.00    -0.0335  A
ATOM      3  C7  EUB L   1       0.512   0.152   0.517  1.00  0.00    +0.0402  A
ATOM      4 C17  EUB L   1      -0.213  -1.008   0.208  1.00  0.00    -0.0420  A
ATOM      5 C18  EUB L   1      -0.773  -1.124  -1.059  1.00  0.00    +0.0068  A
ATOM      6 C19  EUB L   1      -0.622  -0.118  -2.001  1.00  0.00    +0.1373  A
ATOM      7 O20  EUB L   1      -1.223  -0.393  -3.199  1.00  0.00    -0.4843 OA
ATOM      8 C21  EUB L   1      -1.941  -1.641  -3.000  1.00  0.00    +0.1390  C
ATOM      9 C24  EUB L   1      -1.525  -2.270  -1.650  1.00  0.00    +0.0521  C
ATOM     10 H35  EUB L   1       1.177   2.098  -0.177  1.00  0.00    +0.0634  H
ATOM     11 H44  EUB L   1      -0.321  -1.804   0.942  1.00  0.00    +0.0629  H
ATOM     12 H45  EUB L   1      -3.005  -1.373  -3.020  1.00  0.00    +0.0769  H
ATOM     13 H48  EUB L   1      -0.806  -3.086  -1.800  1.00  0.00    +0.0435  H
ENDROOT
BRANCH 1 16
ATOM     14  C1  EUB L   1      -0.187   4.509  -3.133  1.00  0.00    +0.0069  C
ATOM     15  N2  EUB L   1      -0.157   3.385  -2.233  1.00  0.00    -0.3549  N
ATOM     16  C3  EUB L   1       0.209   2.134  -2.692  1.00  0.00    +0.2554  C
ATOM     17  O4  EUB L   1       0.633   1.908  -3.816  1.00  0.00    -0.2675 OA
ATOM     18 H31  EUB L   1      -1.095   4.450  -3.739  1.00  0.00    +0.0450  H
ATOM     19 H32  EUB L   1       0.690   4.497  -3.787  1.00  0.00    +0.0450  H
ATOM     20 H33  EUB L   1      -0.198   5.427  -2.541  1.00  0.00    +0.0450  H
ATOM     21 H34  EUB L   1      -0.696   3.447  -1.378  1.00  0.00    +0.1623 HD
ENDBRANCH 1 16
BRANCH 3 22
ATOM     22  C8  EUB L   1       1.131   0.262   1.863  1.00  0.00    +0.2523  C
ATOM     23  O9  EUB L   1       0.561  -0.213   2.838  1.00  0.00    -0.2676 OA
ATOM     24 N10  EUB L   1       2.365   0.885   1.904  1.00  0.00    -0.3486  N
ATOM     25 H36  EUB L   1       2.866   1.025   1.035  1.00  0.00    +0.1629 HD
BRANCH 24 26
ATOM     26 C11  EUB L   1       3.113   0.977   3.121  1.00  0.00    +0.0405  C
ATOM     27 C12  EUB L   1       4.291   1.912   3.230  1.00  0.00    +0.0099  C
ATOM     28 C13  EUB L   1       5.340   1.715   4.270  1.00  0.00    +0.0528  C
ATOM     29 O14  EUB L   1       4.652   1.578   5.527  1.00  0.00    -0.3791 OA
ATOM     30 C15  EUB L   1       3.360   2.205   5.404  1.00  0.00    +0.0528  C
ATOM     31 C16  EUB L   1       3.041   2.230   3.951  1.00  0.00    +0.0099  C
ATOM     32 H37  EUB L   1       3.178   0.030   3.653  1.00  0.00    +0.0530  H
ATOM     33 H38  EUB L   1       4.601   2.503   2.384  1.00  0.00    +0.0347  H
ATOM     34 H39  EUB L   1       6.002   2.584   4.333  1.00  0.00    +0.0563  H
ATOM     35 H40  EUB L   1       5.936   0.816   4.089  1.00  0.00    +0.0563  H
ATOM     36 H41  EUB L   1       2.626   1.632   5.981  1.00  0.00    +0.0563  H
ATOM     37 H42  EUB L   1       3.430   3.219   5.816  1.00  0.00    +0.0563  H
ATOM     38 H43  EUB L   1       2.418   3.052   3.638  1.00  0.00    +0.0347  H
ENDBRANCH 24 26
ENDBRANCH 3 22
BRANCH 8 39
ATOM     39 C22  EUB L   1      -1.677  -2.571  -4.178  1.00  0.00    +0.1278  C
ATOM     40 F23  EUB L   1      -0.404  -3.053  -4.117  1.00  0.00    -0.2452  F
ATOM     41 H46  EUB L   1      -2.354  -3.430  -4.161  1.00  0.00    +0.0652  H
ATOM     42 H47  EUB L   1      -1.781  -2.045  -5.132  1.00  0.00    +0.0652  H
ENDBRANCH 8 39
BRANCH 9 43
ATOM     43 C25  EUB L   1      -2.705  -2.767  -0.840  1.00  0.00    -0.0362  A
ATOM     44 C26  EUB L   1      -3.690  -1.893  -0.350  1.00  0.00    -0.0579  A
ATOM     45 C27  EUB L   1      -4.779  -2.381   0.377  1.00  0.00    -0.0615  A
ATOM     46 C28  EUB L   1      -4.897  -3.746   0.623  1.00  0.00    -0.0617  A
ATOM     47 C29  EUB L   1      -3.930  -4.626   0.143  1.00  0.00    -0.0615  A
ATOM     48 C30  EUB L   1      -2.840  -4.142  -0.585  1.00  0.00    -0.0579  A
ATOM     49 H49  EUB L   1      -3.619  -0.823  -0.528  1.00  0.00    +0.0620  H
ATOM     50 H50  EUB L   1      -5.533  -1.693   0.748  1.00  0.00    +0.0618  H
ATOM     51 H51  EUB L   1      -5.744  -4.126   1.191  1.00  0.00    +0.0618  H
ATOM     52 H52  EUB L   1      -4.021  -5.692   0.338  1.00  0.00    +0.0618  H
ATOM     53 H53  EUB L   1      -2.098  -4.849  -0.952  1.00  0.00    +0.0620  H
ENDBRANCH 9 43
TORSDOF 5
