ROOT
ATOM      1 C30  WH0 L   1      -1.718  -0.961   0.110  1.00  0.00    -0.0133  A
ATOM      2 C31  WH0 L   1      -2.181  -1.442   1.356  1.00  0.00    -0.0519  A
ATOM      3 C32  WH0 L   1      -3.547  -1.695   1.559  1.00  0.00    -0.0374  A
ATOM      4 C33  WH0 L   1      -4.424  -1.465   0.501  1.00  0.00    +0.0454  A
ATOM      5 C34  WH0 L   1      -3.979  -1.013  -0.724  1.00  0.00    -0.0145  A
ATOM      6 C35  WH0 L   1      -2.627  -0.762  -0.950  1.00  0.00    -0.0483  A
ATOM      7 C36  WH0 L   1      -5.122  -0.842  -1.672  1.00  0.00    +0.0535  C
ATOM      8 C37  WH0 L   1      -6.254  -1.268  -0.785  1.00  0.00    +0.2296  C
ATOM      9 O38  WH0 L   1      -7.460  -1.294  -1.145  1.00  0.00    -0.2725 OA
ATOM     10 N39  WH0 L   1      -5.828  -1.643   0.520  1.00  0.00    -0.3256  N
ATOM     11 H65  WH0 L   1      -1.485  -1.603   2.170  1.00  0.00    +0.0624  H
ATOM     12 H66  WH0 L   1      -3.913  -2.048   2.515  1.00  0.00    +0.0638  H
ATOM     13 H67  WH0 L   1      -2.289  -0.406  -1.916  1.00  0.00    +0.0627  H
ATOM     14 H68  WH0 L   1      -5.022  -1.521  -2.545  1.00  0.00    +0.0410  H
ATOM     15 H69  WH0 L   1      -5.232   0.222  -1.973  1.00  0.00    +0.0410  H
ATOM     16 H70  WH0 L   1      -6.420  -1.978   1.313  1.00  0.00    +0.1686 HD
ENDROOT
BRANCH 1 24
ATOM     17  C8  WH0 L   1      -0.165   1.875  -0.366  1.00  0.00    -0.0014  A
ATOM     18  C9  WH0 L   1       0.784   2.879  -0.667  1.00  0.00    +0.0366  A
ATOM     19 N10  WH0 L   1       2.112   2.585  -0.758  1.00  0.00    -0.2204 NA
ATOM     20 C11  WH0 L   1       2.573   1.319  -0.574  1.00  0.00    +0.2282  A
ATOM     21 N19  WH0 L   1       1.668   0.331  -0.347  1.00  0.00    -0.1984  N
ATOM     22 N20  WH0 L   1       1.936  -0.955  -0.201  1.00  0.00    -0.1627 NA
ATOM     23 C21  WH0 L   1       0.762  -1.596  -0.029  1.00  0.00    +0.1015  A
ATOM     24 C29  WH0 L   1      -0.287  -0.673  -0.079  1.00  0.00    +0.0356  A
ATOM     25 C40  WH0 L   1       0.343   0.558  -0.274  1.00  0.00    +0.0835  A
ATOM     26 H49  WH0 L   1       0.484   3.905  -0.819  1.00  0.00    +0.0834  H
BRANCH 17 27
ATOM     27  C7  WH0 L   1      -1.643   2.191  -0.223  1.00  0.00    -0.0067  C
ATOM     28 H47  WH0 L   1      -2.077   1.504   0.525  1.00  0.00    +0.0331  H
ATOM     29 H48  WH0 L   1      -2.146   2.025  -1.200  1.00  0.00    +0.0331  H
BRANCH 27 30
ATOM     30  C6  WH0 L   1      -1.962   3.612   0.267  1.00  0.00    +0.0225  C
ATOM     31 H45  WH0 L   1      -1.712   4.343  -0.533  1.00  0.00    +0.0489  H
ATOM     32 H46  WH0 L   1      -1.363   3.860   1.171  1.00  0.00    +0.0489  H
BRANCH 30 35
ATOM     33  C3  WH0 L   1      -3.976   3.120   1.739  1.00  0.00    +0.2443  C
ATOM     34  O4  WH0 L   1      -3.228   2.603   2.612  1.00  0.00    -0.2683 OA
ATOM     35  N5  WH0 L   1      -3.388   3.731   0.574  1.00  0.00    -0.3522  N
ATOM     36 H44  WH0 L   1      -3.967   4.294  -0.089  1.00  0.00    +0.1626 HD
BRANCH 33 38
ATOM     37  C1  WH0 L   1      -6.353   3.568   1.129  1.00  0.00    -0.0936  C
ATOM     38  C2  WH0 L   1      -5.437   3.058   1.958  1.00  0.00    -0.0047  C
ATOM     39 H41  WH0 L   1      -7.402   3.466   1.371  1.00  0.00    +0.0536  H
ATOM     40 H42  WH0 L   1      -6.102   4.082   0.214  1.00  0.00    +0.0536  H
ATOM     41 H43  WH0 L   1      -5.787   2.560   2.855  1.00  0.00    +0.0666  H
ENDBRANCH 33 38
ENDBRANCH 30 35
ENDBRANCH 27 30
ENDBRANCH 17 27
BRANCH 20 42
ATOM     42 N12  WH0 L   1       3.986   1.051  -0.644  1.00  0.00    -0.3402  N
ATOM     43 C13  WH0 L   1       4.805   1.783  -1.622  1.00  0.00    +0.0228  C
ATOM     44 C14  WH0 L   1       6.153   1.088  -1.835  1.00  0.00    -0.0199  C
ATOM     45 C15  WH0 L   1       6.927   0.921  -0.508  1.00  0.00    +0.0080  C
ATOM     46 N16  WH0 L   1       7.939  -0.129  -0.662  1.00  0.00    -0.3271 NA
ATOM     47 C17  WH0 L   1       6.001   0.638   0.709  1.00  0.00    -0.0199  C
ATOM     48 C18  WH0 L   1       4.622   0.115   0.295  1.00  0.00    +0.0228  C
ATOM     49 H50  WH0 L   1       4.969   2.823  -1.265  1.00  0.00    +0.0489  H
ATOM     50 H51  WH0 L   1       4.273   1.826  -2.597  1.00  0.00    +0.0489  H
ATOM     51 H52  WH0 L   1       6.764   1.674  -2.554  1.00  0.00    +0.0297  H
ATOM     52 H53  WH0 L   1       5.962   0.090  -2.289  1.00  0.00    +0.0297  H
ATOM     53 H54  WH0 L   1       7.458   1.882  -0.312  1.00  0.00    +0.0459  H
ATOM     54 H55  WH0 L   1       8.567  -0.113   0.174  1.00  0.00    +0.1185 HD
ATOM     55 H56  WH0 L   1       7.466  -1.063  -0.680  1.00  0.00    +0.1185 HD
ATOM     56 H57  WH0 L   1       5.851   1.587   1.273  1.00  0.00    +0.0297  H
ATOM     57 H58  WH0 L   1       6.472  -0.083   1.414  1.00  0.00    +0.0297  H
ATOM     58 H59  WH0 L   1       4.722  -0.883  -0.184  1.00  0.00    +0.0489  H
ATOM     59 H60  WH0 L   1       4.003   0.007   1.213  1.00  0.00    +0.0489  H
ENDBRANCH 20 42
BRANCH 23 60
ATOM     60 C22  WH0 L   1       0.679  -3.057   0.196  1.00  0.00    +0.0029  A
ATOM     61 C23  WH0 L   1       1.716  -3.708   0.890  1.00  0.00    -0.0498  A
ATOM     62 C24  WH0 L   1       1.663  -5.087   1.113  1.00  0.00    -0.0258  A
ATOM     63 C25  WH0 L   1       0.582  -5.832   0.635  1.00  0.00    +0.1234  A
ATOM     64 F26  WH0 L   1       0.535  -7.171   0.847  1.00  0.00    -0.2055  F
ATOM     65 C27  WH0 L   1      -0.445  -5.199  -0.070  1.00  0.00    -0.0258  A
ATOM     66 C28  WH0 L   1      -0.396  -3.820  -0.297  1.00  0.00    -0.0498  A
ATOM     67 H61  WH0 L   1       2.560  -3.146   1.272  1.00  0.00    +0.0625  H
ATOM     68 H62  WH0 L   1       2.461  -5.578   1.655  1.00  0.00    +0.0646  H
ATOM     69 H63  WH0 L   1      -1.276  -5.781  -0.451  1.00  0.00    +0.0646  H
ATOM     70 H64  WH0 L   1      -1.184  -3.361  -0.878  1.00  0.00    +0.0625  H
ENDBRANCH 23 60
ENDBRANCH 1 24
TORSDOF 7
