ROOT
ATOM      1 C28  MCU L   1       4.414  -0.056   1.953  1.00  0.00    -0.0223  A
ATOM      2 C29  MCU L   1       5.162  -1.218   2.208  1.00  0.00    -0.0531  A
ATOM      3 C30  MCU L   1       6.014  -1.739   1.232  1.00  0.00    -0.0160  A
ATOM      4 C31  MCU L   1       6.128  -1.106  -0.003  1.00  0.00    +0.1621  A
ATOM      5 C32  MCU L   1       5.360   0.028  -0.281  1.00  0.00    +0.1624  A
ATOM      6 C33  MCU L   1       4.517   0.558   0.695  1.00  0.00    -0.0114  A
ATOM      7 O34  MCU L   1       5.391   0.680  -1.487  1.00  0.00    -0.4849 OA
ATOM      8 C35  MCU L   1       6.021  -0.118  -2.497  1.00  0.00    +0.1237  C
ATOM      9 C36  MCU L   1       7.297  -0.747  -1.967  1.00  0.00    +0.1237  C
ATOM     10 O37  MCU L   1       7.006  -1.657  -0.901  1.00  0.00    -0.4849 OA
ATOM     11 H54  MCU L   1       5.084  -1.725   3.169  1.00  0.00    +0.0622  H
ATOM     12 H55  MCU L   1       6.597  -2.634   1.440  1.00  0.00    +0.0655  H
ATOM     13 H56  MCU L   1       3.929   1.443   0.462  1.00  0.00    +0.0659  H
ATOM     14 H57  MCU L   1       6.244   0.537  -3.344  1.00  0.00    +0.0731  H
ATOM     15 H58  MCU L   1       5.307  -0.879  -2.834  1.00  0.00    +0.0731  H
ATOM     16 H59  MCU L   1       7.798  -1.314  -2.759  1.00  0.00    +0.0731  H
ATOM     17 H60  MCU L   1       7.996   0.012  -1.597  1.00  0.00    +0.0731  H
ENDROOT
BRANCH 1 18
ATOM     18 C27  MCU L   1       3.497   0.513   3.007  1.00  0.00    +0.0705  C
ATOM     19 H52  MCU L   1       3.243   1.558   2.794  1.00  0.00    +0.0560  H
ATOM     20 H53  MCU L   1       3.983   0.497   3.990  1.00  0.00    +0.0560  H
BRANCH 18 30
ATOM     21  O1  MCU L   1      -1.924  -1.902   2.657  1.00  0.00    -0.2653 OA
ATOM     22  C2  MCU L   1      -1.032  -1.149   2.284  1.00  0.00    +0.2810  A
ATOM     23  N3  MCU L   1      -1.208  -0.296   1.200  1.00  0.00    -0.3087  N
ATOM     24  C4  MCU L   1      -0.248   0.593   0.737  1.00  0.00    +0.1154  A
ATOM     25 N21  MCU L   1       0.933   0.727   1.277  1.00  0.00    -0.2127 NA
ATOM     26 C22  MCU L   1       1.137  -0.103   2.329  1.00  0.00    +0.1859  A
ATOM     27 C23  MCU L   1       0.270  -1.017   2.873  1.00  0.00    +0.1954  A
ATOM     28 N24  MCU L   1       0.841  -1.651   3.932  1.00  0.00    -0.1223 NA
ATOM     29 N25  MCU L   1       2.071  -1.156   4.073  1.00  0.00    -0.0628 NA
ATOM     30 N26  MCU L   1       2.259  -0.233   3.097  1.00  0.00    -0.2220  N
ATOM     31 H38  MCU L   1      -2.118  -0.376   0.779  1.00  0.00    +0.1701 HD
BRANCH 24 32
ATOM     32  C5  MCU L   1      -0.605   1.466  -0.466  1.00  0.00    +0.0205  C
ATOM     33  C6  MCU L   1      -1.693   2.497  -0.152  1.00  0.00    -0.0249  C
ATOM     34  C7  MCU L   1      -3.115   1.992  -0.362  1.00  0.00    +0.0301  C
ATOM     35  N8  MCU L   1      -3.230   1.385  -1.703  1.00  0.00    -0.2970 NA
ATOM     36 C19  MCU L   1      -2.335   0.230  -1.919  1.00  0.00    +0.0301  C
ATOM     37 C20  MCU L   1      -0.883   0.663  -1.741  1.00  0.00    -0.0249  C
ATOM     38 H39  MCU L   1       0.313   2.041  -0.663  1.00  0.00    +0.0380  H
ATOM     39 H40  MCU L   1      -1.586   2.872   0.873  1.00  0.00    +0.0289  H
ATOM     40 H41  MCU L   1      -1.540   3.359  -0.815  1.00  0.00    +0.0289  H
ATOM     41 H42  MCU L   1      -3.391   1.268   0.409  1.00  0.00    +0.0495  H
ATOM     42 H43  MCU L   1      -3.791   2.847  -0.266  1.00  0.00    +0.0495  H
ATOM     43 H48  MCU L   1      -2.590  -0.580  -1.231  1.00  0.00    +0.0495  H
ATOM     44 H49  MCU L   1      -2.448  -0.159  -2.936  1.00  0.00    +0.0495  H
ATOM     45 H50  MCU L   1      -0.231  -0.218  -1.795  1.00  0.00    +0.0289  H
ATOM     46 H51  MCU L   1      -0.617   1.297  -2.598  1.00  0.00    +0.0289  H
BRANCH 35 47
ATOM     47  S9  MCU L   1      -4.802   1.273  -2.363  1.00  0.00    +0.2612  S
ATOM     48 O10  MCU L   1      -4.688   0.748  -3.706  1.00  0.00    -0.2001 OA
ATOM     49 O11  MCU L   1      -5.499   2.512  -2.095  1.00  0.00    -0.2001 OA
BRANCH 47 50
ATOM     50 C12  MCU L   1      -5.560   0.010  -1.357  1.00  0.00    +0.0869  A
ATOM     51 C13  MCU L   1      -5.544  -1.323  -1.790  1.00  0.00    -0.0391  A
ATOM     52 C14  MCU L   1      -6.152  -2.306  -1.009  1.00  0.00    -0.0252  A
ATOM     53 C15  MCU L   1      -6.777  -1.948   0.183  1.00  0.00    +0.1235  A
ATOM     54 F16  MCU L   1      -7.365  -2.894   0.927  1.00  0.00    -0.2055  F
ATOM     55 C17  MCU L   1      -6.814  -0.622   0.606  1.00  0.00    -0.0252  A
ATOM     56 C18  MCU L   1      -6.212   0.369  -0.171  1.00  0.00    -0.0391  A
ATOM     57 H44  MCU L   1      -5.075  -1.599  -2.733  1.00  0.00    +0.0631  H
ATOM     58 H45  MCU L   1      -6.155  -3.346  -1.323  1.00  0.00    +0.0646  H
ATOM     59 H46  MCU L   1      -7.322  -0.372   1.532  1.00  0.00    +0.0646  H
ATOM     60 H47  MCU L   1      -6.262   1.409   0.146  1.00  0.00    +0.0631  H
ENDBRANCH 47 50
ENDBRANCH 35 47
ENDBRANCH 24 32
ENDBRANCH 18 30
ENDBRANCH 1 18
TORSDOF 5
