ROOT
ATOM      1  C1  EUB L   1       6.813  -0.836  -0.268  1.00  0.00    -0.0126  C
ATOM      2  N2  EUB L   1       5.515  -0.261   0.075  1.00  0.00    -0.3020 NA
ATOM      3  C3  EUB L   1       5.212   0.901  -0.788  1.00  0.00    +0.0163  C
ATOM      4  C4  EUB L   1       3.818   1.512  -0.507  1.00  0.00    +0.0327  C
ATOM      5  N5  EUB L   1       2.766   0.478  -0.639  1.00  0.00    -0.3533  N
ATOM      6 C21  EUB L   1       3.039  -0.690   0.229  1.00  0.00    +0.0327  C
ATOM      7 C22  EUB L   1       4.441  -1.268  -0.074  1.00  0.00    +0.0163  C
ATOM      8 H23  EUB L   1       6.851  -1.192  -1.304  1.00  0.00    +0.0391  H
ATOM      9 H24  EUB L   1       7.609  -0.096  -0.129  1.00  0.00    +0.0391  H
ATOM     10 H25  EUB L   1       7.046  -1.678   0.394  1.00  0.00    +0.0391  H
ATOM     11 H26  EUB L   1       5.966   1.682  -0.626  1.00  0.00    +0.0444  H
ATOM     12 H27  EUB L   1       5.263   0.610  -1.846  1.00  0.00    +0.0444  H
ATOM     13 H28  EUB L   1       3.801   1.941   0.504  1.00  0.00    +0.0501  H
ATOM     14 H29  EUB L   1       3.665   2.329  -1.221  1.00  0.00    +0.0501  H
ATOM     15 H42  EUB L   1       2.991  -0.407   1.290  1.00  0.00    +0.0501  H
ATOM     16 H43  EUB L   1       2.300  -1.481   0.047  1.00  0.00    +0.0501  H
ATOM     17 H44  EUB L   1       4.625  -2.101   0.616  1.00  0.00    +0.0444  H
ATOM     18 H45  EUB L   1       4.443  -1.677  -1.093  1.00  0.00    +0.0444  H
ENDROOT
BRANCH 5 19
ATOM     19  C6  EUB L   1       1.463   0.996  -0.467  1.00  0.00    +0.1349  A
ATOM     20  C7  EUB L   1       0.992   1.952  -1.347  1.00  0.00    -0.0012  A
ATOM     21  C8  EUB L   1      -0.289   2.403  -1.146  1.00  0.00    +0.0348  A
ATOM     22  N9  EUB L   1      -1.080   1.961  -0.158  1.00  0.00    -0.2208 NA
ATOM     23 C10  EUB L   1      -0.560   1.029   0.648  1.00  0.00    +0.2258  A
ATOM     24 N20  EUB L   1       0.673   0.523   0.516  1.00  0.00    -0.1954 NA
ATOM     25 H30  EUB L   1       1.585   2.316  -2.174  1.00  0.00    +0.0669  H
ATOM     26 H31  EUB L   1      -0.730   3.151  -1.797  1.00  0.00    +0.0832  H
BRANCH 23 27
ATOM     27 N11  EUB L   1      -1.307   0.506   1.691  1.00  0.00    -0.3537  N
ATOM     28 H32  EUB L   1      -0.843  -0.347   1.980  1.00  0.00    +0.1625 HD
BRANCH 27 29
ATOM     29 C12  EUB L   1      -2.744   0.413   1.480  1.00  0.00    +0.0223  C
ATOM     30 H33  EUB L   1      -3.200   0.154   2.444  1.00  0.00    +0.0489  H
ATOM     31 H34  EUB L   1      -3.169   1.388   1.207  1.00  0.00    +0.0489  H
BRANCH 29 32
ATOM     32 C13  EUB L   1      -3.110  -0.663   0.449  1.00  0.00    -0.0102  C
ATOM     33 H35  EUB L   1      -2.681  -0.428  -0.533  1.00  0.00    +0.0330  H
ATOM     34 H36  EUB L   1      -2.668  -1.625   0.740  1.00  0.00    +0.0330  H
BRANCH 32 35
ATOM     35 C14  EUB L   1      -4.605  -0.816   0.305  1.00  0.00    -0.0457  A
ATOM     36 C15  EUB L   1      -5.325   0.050  -0.529  1.00  0.00    -0.0585  A
ATOM     37 C16  EUB L   1      -6.710  -0.076  -0.652  1.00  0.00    -0.0615  A
ATOM     38 C17  EUB L   1      -7.386  -1.065   0.061  1.00  0.00    -0.0617  A
ATOM     39 C18  EUB L   1      -6.679  -1.928   0.896  1.00  0.00    -0.0615  A
ATOM     40 C19  EUB L   1      -5.294  -1.804   1.020  1.00  0.00    -0.0585  A
ATOM     41 H37  EUB L   1      -4.810   0.829  -1.088  1.00  0.00    +0.0620  H
ATOM     42 H38  EUB L   1      -7.261   0.599  -1.302  1.00  0.00    +0.0618  H
ATOM     43 H39  EUB L   1      -8.464  -1.162  -0.035  1.00  0.00    +0.0618  H
ATOM     44 H40  EUB L   1      -7.207  -2.698   1.453  1.00  0.00    +0.0618  H
ATOM     45 H41  EUB L   1      -4.758  -2.483   1.678  1.00  0.00    +0.0620  H
ENDBRANCH 32 35
ENDBRANCH 29 32
ENDBRANCH 27 29
ENDBRANCH 23 27
ENDBRANCH 5 19
TORSDOF 5
