ROOT
ATOM      1 C14  WH0 L   1      -2.546  -1.774   0.007  1.00  0.00    -0.0133  A
ATOM      2 C15  WH0 L   1      -3.547  -2.029   0.973  1.00  0.00    -0.0519  A
ATOM      3 C16  WH0 L   1      -4.271  -3.232   0.950  1.00  0.00    -0.0374  A
ATOM      4 C17  WH0 L   1      -3.975  -4.161  -0.044  1.00  0.00    +0.0454  A
ATOM      5 C18  WH0 L   1      -2.998  -3.925  -0.986  1.00  0.00    -0.0145  A
ATOM      6 C19  WH0 L   1      -2.267  -2.737  -0.984  1.00  0.00    -0.0483  A
ATOM      7 C20  WH0 L   1      -2.890  -5.075  -1.936  1.00  0.00    +0.0535  C
ATOM      8 C21  WH0 L   1      -3.952  -5.972  -1.372  1.00  0.00    +0.2296  C
ATOM      9 O22  WH0 L   1      -4.249  -7.099  -1.846  1.00  0.00    -0.2725 OA
ATOM     10 N23  WH0 L   1      -4.601  -5.416  -0.233  1.00  0.00    -0.3256  N
ATOM     11 H51  WH0 L   1      -3.762  -1.299   1.743  1.00  0.00    +0.0624  H
ATOM     12 H52  WH0 L   1      -5.039  -3.431   1.685  1.00  0.00    +0.0638  H
ATOM     13 H53  WH0 L   1      -1.517  -2.560  -1.745  1.00  0.00    +0.0627  H
ATOM     14 H54  WH0 L   1      -3.140  -4.762  -2.971  1.00  0.00    +0.0410  H
ATOM     15 H55  WH0 L   1      -1.889  -5.551  -1.871  1.00  0.00    +0.0410  H
ATOM     16 H56  WH0 L   1      -5.370  -5.839   0.332  1.00  0.00    +0.1686 HD
ENDROOT
BRANCH 1 20
ATOM     17 C10  WH0 L   1       1.912  -0.750  -0.059  1.00  0.00    +0.0488  A
ATOM     18 C11  WH0 L   1       0.596  -1.247  -0.064  1.00  0.00    -0.0140  A
ATOM     19 C12  WH0 L   1      -0.436  -0.314   0.022  1.00  0.00    +0.0806  A
ATOM     20 C13  WH0 L   1      -1.808  -0.495   0.025  1.00  0.00    +0.0353  A
ATOM     21 C24  WH0 L   1      -2.316   0.805   0.148  1.00  0.00    +0.1015  A
ATOM     22 N32  WH0 L   1      -1.294   1.690   0.219  1.00  0.00    -0.1627 NA
ATOM     23 N33  WH0 L   1      -0.172   0.993   0.150  1.00  0.00    -0.1987  N
ATOM     24 C34  WH0 L   1       1.097   1.479   0.183  1.00  0.00    +0.2285  A
ATOM     25 N42  WH0 L   1       2.130   0.596   0.069  1.00  0.00    -0.2172 NA
ATOM     26 H50  WH0 L   1       0.396  -2.309  -0.133  1.00  0.00    +0.0657  H
BRANCH 17 27
ATOM     27  C9  WH0 L   1       3.069  -1.714  -0.129  1.00  0.00    +0.0073  C
ATOM     28 H48  WH0 L   1       2.868  -2.462  -0.928  1.00  0.00    +0.0345  H
ATOM     29 H49  WH0 L   1       3.132  -2.255   0.839  1.00  0.00    +0.0345  H
BRANCH 27 30
ATOM     30  C8  WH0 L   1       4.408  -1.024  -0.428  1.00  0.00    +0.0238  C
ATOM     31 H46  WH0 L   1       4.670  -0.308   0.383  1.00  0.00    +0.0490  H
ATOM     32 H47  WH0 L   1       4.318  -0.451  -1.377  1.00  0.00    +0.0490  H
BRANCH 30 35
ATOM     33  C5  WH0 L   1       6.066  -2.680   0.558  1.00  0.00    +0.2618  C
ATOM     34  O6  WH0 L   1       5.595  -2.489   1.713  1.00  0.00    -0.2669 OA
ATOM     35  N7  WH0 L   1       5.474  -2.014  -0.573  1.00  0.00    -0.3511  N
ATOM     36 H45  WH0 L   1       5.796  -2.239  -1.541  1.00  0.00    +0.1627 HD
BRANCH 33 38
ATOM     37  C1  WH0 L   1       8.054  -3.530  -0.633  1.00  0.00    -0.0760  C
ATOM     38  C2  WH0 L   1       7.207  -3.612   0.397  1.00  0.00    +0.1085  C
ATOM     39 H43  WH0 L   1       7.965  -2.762  -1.388  1.00  0.00    +0.0549  H
ATOM     40 H44  WH0 L   1       8.885  -4.220  -0.721  1.00  0.00    +0.0549  H
BRANCH 38 41
ATOM     41  C3  WH0 L   1       7.438  -4.615   1.409  1.00  0.00    +0.1040  C
ATOM     42  N4  WH0 L   1       7.622  -5.421   2.220  1.00  0.00    -0.1907 NA
ENDBRANCH 38 41
ENDBRANCH 33 38
ENDBRANCH 30 35
ENDBRANCH 27 30
ENDBRANCH 17 27
BRANCH 21 43
ATOM     43 C25  WH0 L   1      -3.734   1.226   0.164  1.00  0.00    +0.0029  A
ATOM     44 C26  WH0 L   1      -4.117   2.346   0.923  1.00  0.00    -0.0498  A
ATOM     45 C27  WH0 L   1      -5.451   2.765   0.941  1.00  0.00    -0.0258  A
ATOM     46 C28  WH0 L   1      -6.412   2.076   0.198  1.00  0.00    +0.1234  A
ATOM     47 F29  WH0 L   1      -7.704   2.486   0.211  1.00  0.00    -0.2055  F
ATOM     48 C30  WH0 L   1      -6.037   0.975  -0.579  1.00  0.00    -0.0258  A
ATOM     49 C31  WH0 L   1      -4.704   0.554  -0.600  1.00  0.00    -0.0498  A
ATOM     50 H57  WH0 L   1      -3.386   2.890   1.508  1.00  0.00    +0.0625  H
ATOM     51 H58  WH0 L   1      -5.738   3.626   1.529  1.00  0.00    +0.0646  H
ATOM     52 H59  WH0 L   1      -6.778   0.452  -1.170  1.00  0.00    +0.0646  H
ATOM     53 H60  WH0 L   1      -4.433  -0.281  -1.234  1.00  0.00    +0.0625  H
ENDBRANCH 21 43
BRANCH 24 54
ATOM     54 N35  WH0 L   1       1.359   2.886   0.305  1.00  0.00    -0.3402  N
ATOM     55 C36  WH0 L   1       0.753   3.674   1.385  1.00  0.00    +0.0228  C
ATOM     56 C37  WH0 L   1       0.114   4.957   0.828  1.00  0.00    -0.0199  C
ATOM     57 C38  WH0 L   1       0.853   5.529  -0.411  1.00  0.00    +0.0080  C
ATOM     58 N39  WH0 L   1       0.815   6.993  -0.388  1.00  0.00    -0.3271 NA
ATOM     59 C40  WH0 L   1       2.312   5.040  -0.477  1.00  0.00    -0.0199  C
ATOM     60 C41  WH0 L   1       2.357   3.508  -0.574  1.00  0.00    +0.0228  C
ATOM     61 H61  WH0 L   1      -0.003   3.087   1.948  1.00  0.00    +0.0489  H
ATOM     62 H62  WH0 L   1       1.549   3.947   2.111  1.00  0.00    +0.0489  H
ATOM     63 H63  WH0 L   1       0.087   5.711   1.645  1.00  0.00    +0.0297  H
ATOM     64 H64  WH0 L   1      -0.941   4.744   0.546  1.00  0.00    +0.0297  H
ATOM     65 H65  WH0 L   1       0.330   5.171  -1.330  1.00  0.00    +0.0459  H
ATOM     66 H66  WH0 L   1       1.233   7.347  -1.280  1.00  0.00    +0.1185 HD
ATOM     67 H67  WH0 L   1      -0.187   7.294  -0.404  1.00  0.00    +0.1185 HD
ATOM     68 H68  WH0 L   1       2.822   5.474  -1.365  1.00  0.00    +0.0297  H
ATOM     69 H69  WH0 L   1       2.862   5.376   0.430  1.00  0.00    +0.0297  H
ATOM     70 H70  WH0 L   1       2.146   3.213  -1.625  1.00  0.00    +0.0489  H
ATOM     71 H71  WH0 L   1       3.372   3.146  -0.306  1.00  0.00    +0.0489  H
ENDBRANCH 24 54
ENDBRANCH 1 20
TORSDOF 8
