ROOT
ATOM      1 C19  EUB L   1      -3.357   1.011   1.586  1.00  0.00    +0.0390  A
ATOM      2 C20  EUB L   1      -4.703   0.819   1.246  1.00  0.00    -0.0481  A
ATOM      3 C21  EUB L   1      -5.616   0.381   2.209  1.00  0.00    -0.0427  A
ATOM      4 C22  EUB L   1      -5.185   0.147   3.514  1.00  0.00    +0.0410  A
ATOM      5 CL23 EUB L   1      -6.307  -0.393   4.701  1.00  0.00    -0.0835 Cl
ATOM      6 C24  EUB L   1      -3.851   0.352   3.865  1.00  0.00    -0.0427  A
ATOM      7 C25  EUB L   1      -2.934   0.789   2.903  1.00  0.00    -0.0481  A
ATOM      8 H34  EUB L   1      -5.042   1.008   0.229  1.00  0.00    +0.0626  H
ATOM      9 H35  EUB L   1      -6.657   0.230   1.936  1.00  0.00    +0.0632  H
ATOM     10 H36  EUB L   1      -3.522   0.184   4.888  1.00  0.00    +0.0632  H
ATOM     11 H37  EUB L   1      -1.907   0.978   3.202  1.00  0.00    +0.0626  H
ENDROOT
BRANCH 1 13
ATOM     12  O1  EUB L   1      -2.827   2.170  -0.396  1.00  0.00    -0.2676 OA
ATOM     13  C2  EUB L   1      -2.420   1.479   0.530  1.00  0.00    +0.2521  C
ATOM     14  N3  EUB L   1      -1.113   1.054   0.642  1.00  0.00    -0.3510  N
ATOM     15 H26  EUB L   1      -0.879   0.331   1.310  1.00  0.00    +0.1627 HD
BRANCH 14 16
ATOM     16  C4  EUB L   1      -0.107   1.425  -0.343  1.00  0.00    +0.0324  C
ATOM     17 H27  EUB L   1       0.865   1.209   0.111  1.00  0.00    +0.0496  H
ATOM     18 H28  EUB L   1      -0.163   2.509  -0.492  1.00  0.00    +0.0496  H
BRANCH 16 19
ATOM     19  C5  EUB L   1      -0.295   0.707  -1.667  1.00  0.00    +0.0732  C
ATOM     20 H29  EUB L   1      -0.463  -0.368  -1.544  1.00  0.00    +0.0447  H
ATOM     21 H30  EUB L   1      -1.166   1.107  -2.197  1.00  0.00    +0.0447  H
BRANCH 19 22
ATOM     22  S6  EUB L   1       1.095   0.937  -2.748  1.00  0.00    +0.1978  S
ATOM     23  O7  EUB L   1       1.579   2.299  -2.607  1.00  0.00    -0.2205 OA
ATOM     24  O8  EUB L   1       0.733   0.412  -4.053  1.00  0.00    -0.2205 OA
BRANCH 22 25
ATOM     25  C9  EUB L   1       2.383  -0.129  -2.130  1.00  0.00    +0.1548  A
ATOM     26 C10  EUB L   1       3.582  -0.213  -2.820  1.00  0.00    -0.0245  A
ATOM     27 C11  EUB L   1       4.549  -1.079  -2.318  1.00  0.00    -0.0460  A
ATOM     28 C12  EUB L   1       4.283  -1.826  -1.161  1.00  0.00    +0.0729  A
ATOM     29 C17  EUB L   1       3.045  -1.659  -0.549  1.00  0.00    +0.0406  A
ATOM     30 N18  EUB L   1       2.078  -0.827  -1.005  1.00  0.00    -0.2433 NA
ATOM     31 H31  EUB L   1       3.754   0.368  -3.720  1.00  0.00    +0.0646  H
ATOM     32 H32  EUB L   1       5.505  -1.179  -2.831  1.00  0.00    +0.0624  H
ATOM     33 H33  EUB L   1       2.782  -2.210   0.352  1.00  0.00    +0.0835  H
BRANCH 28 34
ATOM     34 C13  EUB L   1       5.300  -2.762  -0.580  1.00  0.00    +0.4188  C
ATOM     35 F14  EUB L   1       6.298  -2.101   0.067  1.00  0.00    -0.1658  F
ATOM     36 F15  EUB L   1       5.908  -3.531  -1.524  1.00  0.00    -0.1658  F
ATOM     37 F16  EUB L   1       4.776  -3.630   0.329  1.00  0.00    -0.1658  F
ENDBRANCH 28 34
ENDBRANCH 22 25
ENDBRANCH 19 22
ENDBRANCH 16 19
ENDBRANCH 14 16
ENDBRANCH 1 13
TORSDOF 6
