ROOT
ATOM      1 C30  WH0 L   1      -0.311   2.037  -0.117  1.00  0.00    -0.0133  A
ATOM      2 C31  WH0 L   1       0.345   2.469   1.058  1.00  0.00    -0.0519  A
ATOM      3 C32  WH0 L   1       0.928   3.737   1.132  1.00  0.00    -0.0374  A
ATOM      4 C33  WH0 L   1       0.825   4.543   0.019  1.00  0.00    +0.0454  A
ATOM      5 C34  WH0 L   1       0.171   4.140  -1.143  1.00  0.00    -0.0145  A
ATOM      6 C35  WH0 L   1      -0.412   2.889  -1.229  1.00  0.00    -0.0483  A
ATOM      7 C36  WH0 L   1       0.234   5.243  -2.158  1.00  0.00    +0.0535  C
ATOM      8 C37  WH0 L   1       1.017   6.327  -1.405  1.00  0.00    +0.2296  C
ATOM      9 O38  WH0 L   1       1.322   7.430  -1.826  1.00  0.00    -0.2725 OA
ATOM     10 N39  WH0 L   1       1.318   5.827  -0.144  1.00  0.00    -0.3256  N
ATOM     11 H64  WH0 L   1       0.405   1.809   1.922  1.00  0.00    +0.0624  H
ATOM     12 H65  WH0 L   1       1.435   4.066   2.032  1.00  0.00    +0.0638  H
ATOM     13 H66  WH0 L   1      -0.928   2.576  -2.132  1.00  0.00    +0.0627  H
ATOM     14 H67  WH0 L   1      -0.763   5.614  -2.405  1.00  0.00    +0.0410  H
ATOM     15 H68  WH0 L   1       0.793   4.935  -3.045  1.00  0.00    +0.0410  H
ATOM     16 H69  WH0 L   1       1.833   6.356   0.543  1.00  0.00    +0.1686 HD
ENDROOT
BRANCH 1 24
ATOM     17  C9  WH0 L   1       0.554  -0.652  -1.832  1.00  0.00    -0.0030  A
ATOM     18 C10  WH0 L   1       0.472  -1.852  -2.449  1.00  0.00    +0.0366  A
ATOM     19 N11  WH0 L   1      -0.471  -2.828  -2.241  1.00  0.00    -0.2204 NA
ATOM     20 C12  WH0 L   1      -1.395  -2.630  -1.331  1.00  0.00    +0.2284  A
ATOM     21 N19  WH0 L   1      -1.402  -1.369  -0.656  1.00  0.00    -0.1984  N
ATOM     22 N20  WH0 L   1      -2.306  -1.041   0.298  1.00  0.00    -0.1627 NA
ATOM     23 C21  WH0 L   1      -2.049   0.239   0.595  1.00  0.00    +0.1015  A
ATOM     24 C29  WH0 L   1      -0.930   0.725  -0.150  1.00  0.00    +0.0356  A
ATOM     25 C40  WH0 L   1      -0.500  -0.350  -0.910  1.00  0.00    +0.0835  A
ATOM     26 H51  WH0 L   1       1.236  -2.140  -3.171  1.00  0.00    +0.0834  H
BRANCH 17 27
ATOM     27  C8  WH0 L   1       1.749   0.230  -2.153  1.00  0.00    -0.0226  C
ATOM     28 H49  WH0 L   1       2.255  -0.123  -3.061  1.00  0.00    +0.0315  H
ATOM     29 H50  WH0 L   1       1.405   1.238  -2.401  1.00  0.00    +0.0315  H
BRANCH 27 30
ATOM     30  C7  WH0 L   1       2.783   0.303  -1.023  1.00  0.00    -0.0314  C
ATOM     31 H47  WH0 L   1       3.564   1.015  -1.317  1.00  0.00    +0.0285  H
ATOM     32 H48  WH0 L   1       2.333   0.711  -0.112  1.00  0.00    +0.0285  H
BRANCH 30 33
ATOM     33  C6  WH0 L   1       3.417  -1.050  -0.701  1.00  0.00    +0.0187  C
ATOM     34 H45  WH0 L   1       2.673  -1.749  -0.309  1.00  0.00    +0.0486  H
ATOM     35 H46  WH0 L   1       3.860  -1.488  -1.602  1.00  0.00    +0.0486  H
BRANCH 33 38
ATOM     36  C3  WH0 L   1       5.722  -0.551   0.002  1.00  0.00    +0.2443  C
ATOM     37  O4  WH0 L   1       6.118  -0.310  -1.132  1.00  0.00    -0.2683 OA
ATOM     38  N5  WH0 L   1       4.442  -0.928   0.314  1.00  0.00    -0.3525  N
ATOM     39 H44  WH0 L   1       4.158  -0.956   1.283  1.00  0.00    +0.1626 HD
BRANCH 36 41
ATOM     40  C1  WH0 L   1       6.546  -1.024   2.326  1.00  0.00    -0.0936  C
ATOM     41  C2  WH0 L   1       6.635  -0.372   1.159  1.00  0.00    -0.0047  C
ATOM     42 H41  WH0 L   1       5.779  -1.762   2.532  1.00  0.00    +0.0536  H
ATOM     43 H42  WH0 L   1       7.286  -0.851   3.102  1.00  0.00    +0.0536  H
ATOM     44 H43  WH0 L   1       7.460   0.308   0.968  1.00  0.00    +0.0666  H
ENDBRANCH 36 41
ENDBRANCH 33 38
ENDBRANCH 30 33
ENDBRANCH 27 30
ENDBRANCH 17 27
BRANCH 20 45
ATOM     45 N13  WH0 L   1      -2.341  -3.632  -1.060  1.00  0.00    -0.3359  N
ATOM     46 C14  WH0 L   1      -2.967  -3.772   0.273  1.00  0.00    +0.0449  C
ATOM     47 C15  WH0 L   1      -3.604  -5.156   0.470  1.00  0.00    +0.0653  C
ATOM     48 O16  WH0 L   1      -2.688  -6.234   0.242  1.00  0.00    -0.3763 OA
ATOM     49 C17  WH0 L   1      -1.856  -6.038  -0.915  1.00  0.00    +0.0653  C
ATOM     50 C18  WH0 L   1      -2.310  -4.892  -1.827  1.00  0.00    +0.0449  C
ATOM     51 H52  WH0 L   1      -2.197  -3.638   1.043  1.00  0.00    +0.0511  H
ATOM     52 H53  WH0 L   1      -3.754  -3.021   0.402  1.00  0.00    +0.0511  H
ATOM     53 H54  WH0 L   1      -3.974  -5.250   1.497  1.00  0.00    +0.0577  H
ATOM     54 H55  WH0 L   1      -4.468  -5.288  -0.194  1.00  0.00    +0.0577  H
ATOM     55 H56  WH0 L   1      -0.836  -5.858  -0.555  1.00  0.00    +0.0577  H
ATOM     56 H57  WH0 L   1      -1.844  -6.980  -1.473  1.00  0.00    +0.0577  H
ATOM     57 H58  WH0 L   1      -3.322  -5.087  -2.203  1.00  0.00    +0.0511  H
ATOM     58 H59  WH0 L   1      -1.662  -4.840  -2.707  1.00  0.00    +0.0511  H
ENDBRANCH 20 45
BRANCH 23 59
ATOM     59 C22  WH0 L   1      -2.871   0.942   1.582  1.00  0.00    +0.0029  A
ATOM     60 C23  WH0 L   1      -3.322   2.251   1.352  1.00  0.00    -0.0498  A
ATOM     61 C24  WH0 L   1      -4.097   2.909   2.310  1.00  0.00    -0.0258  A
ATOM     62 C25  WH0 L   1      -4.423   2.259   3.495  1.00  0.00    +0.1234  A
ATOM     63 F26  WH0 L   1      -5.163   2.893   4.413  1.00  0.00    -0.2055  F
ATOM     64 C27  WH0 L   1      -3.995   0.960   3.738  1.00  0.00    -0.0258  A
ATOM     65 C28  WH0 L   1      -3.222   0.300   2.781  1.00  0.00    -0.0498  A
ATOM     66 H60  WH0 L   1      -3.088   2.764   0.423  1.00  0.00    +0.0625  H
ATOM     67 H61  WH0 L   1      -4.450   3.922   2.139  1.00  0.00    +0.0646  H
ATOM     68 H62  WH0 L   1      -4.264   0.468   4.668  1.00  0.00    +0.0646  H
ATOM     69 H63  WH0 L   1      -2.890  -0.719   2.973  1.00  0.00    +0.0625  H
ENDBRANCH 23 59
ENDBRANCH 1 24
TORSDOF 8
