ROOT
ATOM      1  C9  CHE L   1       2.592   0.318  -0.406  1.00  0.00    +0.0933  A
ATOM      2 C10  CHE L   1       1.744   1.330  -0.805  1.00  0.00    +0.0373  A
ATOM      3 N11  CHE L   1       0.487   0.915  -0.447  1.00  0.00    -0.3053  N
ATOM      4 C12  CHE L   1      -0.731   1.559  -0.604  1.00  0.00    +0.0209  A
ATOM      5 C13  CHE L   1      -1.867   0.965  -0.177  1.00  0.00    +0.0219  A
ATOM      6 C22  CHE L   1      -1.777  -0.383   0.463  1.00  0.00    +0.0506  A
ATOM      7 C29  CHE L   1      -0.558  -0.960   0.607  1.00  0.00    +0.0050  A
ATOM      8 C30  CHE L   1       0.626  -0.326   0.146  1.00  0.00    +0.1402  A
ATOM      9 N31  CHE L   1       1.886  -0.711   0.170  1.00  0.00    -0.2276 NA
ATOM     10 H42  CHE L   1       1.920   2.283  -1.284  1.00  0.00    +0.0835  H
ATOM     11 H43  CHE L   1      -0.701   2.543  -1.055  1.00  0.00    +0.0820  H
ATOM     12 H57  CHE L   1      -0.440  -1.942   1.045  1.00  0.00    +0.0675  H
ENDROOT
BRANCH 1 16
ATOM     13  C3  CHE L   1       6.838   0.343  -0.985  1.00  0.00    +0.1418  A
ATOM     14  C4  CHE L   1       6.302   0.002   0.259  1.00  0.00    +0.0239  A
ATOM     15  C5  CHE L   1       4.913  -0.029   0.449  1.00  0.00    +0.1328  A
ATOM     16  C8  CHE L   1       4.032   0.314  -0.587  1.00  0.00    +0.0451  A
ATOM     17 C32  CHE L   1       4.572   0.655  -1.834  1.00  0.00    -0.0271  A
ATOM     18 C33  CHE L   1       5.957   0.667  -2.029  1.00  0.00    +0.0834  A
ATOM     19 CL34 CHE L   1       6.544   1.104  -3.599  1.00  0.00    -0.0797 Cl
ATOM     20 H38  CHE L   1       6.934  -0.227   1.110  1.00  0.00    +0.0691  H
ATOM     21 H58  CHE L   1       3.915   0.907  -2.663  1.00  0.00    +0.0641  H
BRANCH 13 23
ATOM     22  C1  CHE L   1       9.085   0.050  -0.227  1.00  0.00    +0.0789  C
ATOM     23  O2  CHE L   1       8.179   0.399  -1.265  1.00  0.00    -0.4935 OA
ATOM     24 H35  CHE L   1      10.100   0.142  -0.626  1.00  0.00    +0.0660  H
ATOM     25 H36  CHE L   1       8.999   0.739   0.620  1.00  0.00    +0.0660  H
ATOM     26 H37  CHE L   1       8.943  -0.989   0.088  1.00  0.00    +0.0660  H
ENDBRANCH 13 23
BRANCH 15 27
ATOM     27  O6  CHE L   1       4.451  -0.301   1.713  1.00  0.00    -0.4943 OA
ATOM     28  C7  CHE L   1       4.387  -1.713   1.921  1.00  0.00    +0.0788  C
ATOM     29 H39  CHE L   1       5.392  -2.123   2.072  1.00  0.00    +0.0660  H
ATOM     30 H40  CHE L   1       3.893  -2.235   1.095  1.00  0.00    +0.0660  H
ATOM     31 H41  CHE L   1       3.808  -1.891   2.832  1.00  0.00    +0.0660  H
ENDBRANCH 15 27
ENDBRANCH 1 16
BRANCH 5 32
ATOM     32 C14  CHE L   1      -3.104   1.763  -0.313  1.00  0.00    -0.0145  A
ATOM     33 C15  CHE L   1      -3.779   2.210   0.831  1.00  0.00    -0.0527  A
ATOM     34 C16  CHE L   1      -4.949   2.967   0.715  1.00  0.00    -0.0438  A
ATOM     35 C17  CHE L   1      -5.454   3.285  -0.549  1.00  0.00    +0.0518  A
ATOM     36 C20  CHE L   1      -4.786   2.844  -1.696  1.00  0.00    -0.0438  A
ATOM     37 C21  CHE L   1      -3.616   2.086  -1.578  1.00  0.00    -0.0527  A
ATOM     38 H44  CHE L   1      -3.399   1.959   1.820  1.00  0.00    +0.0624  H
ATOM     39 H45  CHE L   1      -5.460   3.300   1.616  1.00  0.00    +0.0631  H
ATOM     40 H46  CHE L   1      -5.170   3.082  -2.686  1.00  0.00    +0.0631  H
ATOM     41 H47  CHE L   1      -3.113   1.740  -2.479  1.00  0.00    +0.0624  H
BRANCH 35 42
ATOM     42 C18  CHE L   1      -6.654   4.061  -0.670  1.00  0.00    +0.0992  C
ATOM     43 N19  CHE L   1      -7.625   4.690  -0.769  1.00  0.00    -0.1909 NA
ENDBRANCH 35 42
ENDBRANCH 5 32
BRANCH 6 44
ATOM     44 N23  CHE L   1      -2.958  -1.000   0.889  1.00  0.00    -0.3685  N
ATOM     45 C24  CHE L   1      -3.066  -1.832   2.099  1.00  0.00    +0.0202  C
ATOM     46 C25  CHE L   1      -3.988  -2.982   1.708  1.00  0.00    -0.0184  C
ATOM     47 C26  CHE L   1      -4.953  -2.312   0.741  1.00  0.00    +0.0242  C
ATOM     48 N27  CHE L   1      -5.721  -3.274  -0.048  1.00  0.00    -0.3257 NA
ATOM     49 C28  CHE L   1      -4.010  -1.401  -0.070  1.00  0.00    +0.0339  C
ATOM     50 H48  CHE L   1      -2.110  -2.212   2.470  1.00  0.00    +0.0488  H
ATOM     51 H49  CHE L   1      -3.521  -1.231   2.895  1.00  0.00    +0.0488  H
ATOM     52 H50  CHE L   1      -4.488  -3.426   2.575  1.00  0.00    +0.0298  H
ATOM     53 H51  CHE L   1      -3.408  -3.768   1.207  1.00  0.00    +0.0298  H
ATOM     54 H52  CHE L   1      -5.655  -1.686   1.306  1.00  0.00    +0.0476  H
ATOM     55 H53  CHE L   1      -6.234  -3.896   0.577  1.00  0.00    +0.1185 HD
ATOM     56 H54  CHE L   1      -5.088  -3.872  -0.579  1.00  0.00    +0.1185 HD
ATOM     57 H55  CHE L   1      -4.564  -0.549  -0.473  1.00  0.00    +0.0503  H
ATOM     58 H56  CHE L   1      -3.555  -1.951  -0.903  1.00  0.00    +0.0503  H
ENDBRANCH 6 44
TORSDOF 6
