ROOT
ATOM      1  C9  CHE L   1       0.843   1.100  -1.316  1.00  0.00    +0.0338  C
ATOM      2 C10  CHE L   1      -0.013  -0.052  -1.889  1.00  0.00    -0.0113  C
ATOM      3 C11  CHE L   1      -0.488  -1.062  -0.829  1.00  0.00    +0.0426  C
ATOM      4 C12  CHE L   1       0.659  -1.697  -0.039  1.00  0.00    -0.0298  C
ATOM      5 C13  CHE L   1       0.924  -0.735   1.119  1.00  0.00    -0.0298  C
ATOM      6 C14  CHE L   1      -0.124   0.373   0.963  1.00  0.00    +0.0426  C
ATOM      7 C15  CHE L   1       0.376   1.538   0.093  1.00  0.00    -0.0113  C
ATOM      8 N16  CHE L   1      -1.226  -0.264   0.187  1.00  0.00    -0.2944 NA
ATOM      9 H36  CHE L   1       0.740   1.961  -1.989  1.00  0.00    +0.0524  H
ATOM     10 H37  CHE L   1      -0.906   0.393  -2.349  1.00  0.00    +0.0305  H
ATOM     11 H38  CHE L   1       0.524  -0.574  -2.690  1.00  0.00    +0.0305  H
ATOM     12 H39  CHE L   1      -1.113  -1.818  -1.313  1.00  0.00    +0.0532  H
ATOM     13 H40  CHE L   1       1.548  -1.883  -0.649  1.00  0.00    +0.0286  H
ATOM     14 H41  CHE L   1       0.342  -2.666   0.365  1.00  0.00    +0.0286  H
ATOM     15 H42  CHE L   1       0.784  -1.263   2.070  1.00  0.00    +0.0286  H
ATOM     16 H43  CHE L   1       1.949  -0.352   1.125  1.00  0.00    +0.0286  H
ATOM     17 H44  CHE L   1      -0.456   0.758   1.931  1.00  0.00    +0.0532  H
ATOM     18 H45  CHE L   1      -0.454   2.245  -0.034  1.00  0.00    +0.0305  H
ATOM     19 H46  CHE L   1       1.166   2.077   0.628  1.00  0.00    +0.0305  H
ENDROOT
BRANCH 1 22
ATOM     20  C6  CHE L   1       3.247   1.744  -1.238  1.00  0.00    +0.2739  C
ATOM     21  O7  CHE L   1       2.962   2.921  -1.032  1.00  0.00    -0.2658 OA
ATOM     22  N8  CHE L   1       2.268   0.763  -1.347  1.00  0.00    -0.3478  N
ATOM     23 H35  CHE L   1       2.544  -0.120  -1.752  1.00  0.00    +0.1629 HD
BRANCH 20 26
ATOM     24  C3  CHE L   1       6.476   0.054  -1.565  1.00  0.00    +0.1378  A
ATOM     25  C4  CHE L   1       5.124  -0.070  -1.364  1.00  0.00    +0.0129  A
ATOM     26  C5  CHE L   1       4.627   1.264  -1.399  1.00  0.00    +0.1701  A
ATOM     27 N27  CHE L   1       5.638   2.126  -1.604  1.00  0.00    -0.0732 NA
ATOM     28 O28  CHE L   1       6.784   1.367  -1.713  1.00  0.00    -0.3589 OA
ATOM     29 H34  CHE L   1       4.583  -0.989  -1.198  1.00  0.00    +0.0676  H
BRANCH 24 31
ATOM     30  C1  CHE L   1       8.343  -1.007  -0.318  1.00  0.00    -0.0583  C
ATOM     31  C2  CHE L   1       7.603  -0.904  -1.642  1.00  0.00    +0.0054  C
ATOM     32 H29  CHE L   1       8.763  -0.039  -0.023  1.00  0.00    +0.0234  H
ATOM     33 H30  CHE L   1       9.166  -1.724  -0.397  1.00  0.00    +0.0234  H
ATOM     34 H31  CHE L   1       7.676  -1.341   0.484  1.00  0.00    +0.0234  H
ATOM     35 H32  CHE L   1       8.301  -0.592  -2.429  1.00  0.00    +0.0342  H
ATOM     36 H33  CHE L   1       7.227  -1.894  -1.925  1.00  0.00    +0.0342  H
ENDBRANCH 24 31
ENDBRANCH 20 26
ENDBRANCH 1 22
BRANCH 8 37
ATOM     37 S17  CHE L   1      -2.451  -1.072   1.037  1.00  0.00    +0.2356  S
ATOM     38 O18  CHE L   1      -1.820  -1.838   2.090  1.00  0.00    -0.2051 OA
ATOM     39 O19  CHE L   1      -3.290  -1.722   0.054  1.00  0.00    -0.2051 OA
BRANCH 37 40
ATOM     40 C20  CHE L   1      -3.383   0.291   1.788  1.00  0.00    +0.0801  C
ATOM     41 C21  CHE L   1      -3.834   1.333   0.763  1.00  0.00    -0.0334  C
ATOM     42 C22  CHE L   1      -5.027   0.910  -0.101  1.00  0.00    -0.0365  C
ATOM     43 C23  CHE L   1      -6.042   0.019   0.631  1.00  0.00    +0.0049  C
ATOM     44 N24  CHE L   1      -7.404   0.317   0.192  1.00  0.00    -0.3272 NA
ATOM     45 C25  CHE L   1      -5.933   0.166   2.146  1.00  0.00    -0.0365  C
ATOM     46 C26  CHE L   1      -4.545  -0.249   2.642  1.00  0.00    -0.0334  C
ATOM     47 H47  CHE L   1      -2.664   0.761   2.470  1.00  0.00    +0.0479  H
ATOM     48 H48  CHE L   1      -3.011   1.644   0.111  1.00  0.00    +0.0278  H
ATOM     49 H49  CHE L   1      -4.126   2.237   1.316  1.00  0.00    +0.0278  H
ATOM     50 H50  CHE L   1      -5.503   1.826  -0.475  1.00  0.00    +0.0281  H
ATOM     51 H51  CHE L   1      -4.673   0.384  -0.996  1.00  0.00    +0.0281  H
ATOM     52 H52  CHE L   1      -5.844  -1.029   0.374  1.00  0.00    +0.0458  H
ATOM     53 H53  CHE L   1      -7.468   0.201  -0.819  1.00  0.00    +0.1185 HD
ATOM     54 H54  CHE L   1      -7.630   1.293   0.381  1.00  0.00    +0.1185 HD
ATOM     55 H55  CHE L   1      -6.132   1.204   2.443  1.00  0.00    +0.0281  H
ATOM     56 H56  CHE L   1      -6.688  -0.451   2.651  1.00  0.00    +0.0281  H
ATOM     57 H57  CHE L   1      -4.507  -1.343   2.710  1.00  0.00    +0.0278  H
ATOM     58 H58  CHE L   1      -4.432   0.115   3.671  1.00  0.00    +0.0278  H
ENDBRANCH 37 40
ENDBRANCH 8 37
TORSDOF 5
