ROOT
ATOM      1 C11  197 L   1       0.655   0.008  -0.713  1.00  0.00    +0.0494  A
ATOM      2 C12  197 L   1       0.702  -0.103  -2.095  1.00  0.00    -0.0115  A
ATOM      3 S13  197 L   1       2.293  -0.167  -2.717  1.00  0.00    -0.1006  S
ATOM      4 C14  197 L   1       2.958  -0.015  -1.164  1.00  0.00    -0.0063  A
ATOM      5 C15  197 L   1       1.996   0.064  -0.174  1.00  0.00    -0.0249  A
ATOM      6 C16  197 L   1       2.372   0.217   1.276  1.00  0.00    -0.0262  C
ATOM      7 C17  197 L   1       3.851  -0.117   1.527  1.00  0.00    -0.0487  C
ATOM      8 C18  197 L   1       4.764   0.517   0.470  1.00  0.00    -0.0483  C
ATOM      9 C19  197 L   1       4.439  -0.001  -0.939  1.00  0.00    -0.0211  C
ATOM     10 H26  197 L   1      -0.122  -0.130  -2.794  1.00  0.00    +0.0701  H
ATOM     11 H27  197 L   1       2.179   1.254   1.577  1.00  0.00    +0.0314  H
ATOM     12 H28  197 L   1       1.752  -0.433   1.903  1.00  0.00    +0.0314  H
ATOM     13 H29  197 L   1       3.989  -1.206   1.514  1.00  0.00    +0.0268  H
ATOM     14 H30  197 L   1       4.138   0.229   2.527  1.00  0.00    +0.0268  H
ATOM     15 H31  197 L   1       5.813   0.304   0.704  1.00  0.00    +0.0269  H
ATOM     16 H32  197 L   1       4.644   1.607   0.499  1.00  0.00    +0.0269  H
ATOM     17 H33  197 L   1       4.824  -1.023  -1.047  1.00  0.00    +0.0318  H
ATOM     18 H34  197 L   1       4.946   0.625  -1.682  1.00  0.00    +0.0318  H
ENDROOT
BRANCH 1 20
ATOM     19  O1  197 L   1      -0.615   0.576   1.202  1.00  0.00    -0.2676 OA
ATOM     20  C2  197 L   1      -0.580   0.096   0.074  1.00  0.00    +0.2533  C
ATOM     21  N3  197 L   1      -1.709  -0.426  -0.530  1.00  0.00    -0.3449  N
ATOM     22 H20  197 L   1      -1.565  -1.031  -1.326  1.00  0.00    +0.1632 HD
BRANCH 21 23
ATOM     23  C4  197 L   1      -2.948  -0.527   0.214  1.00  0.00    +0.0631  C
ATOM     24  C5  197 L   1      -3.951  -1.259  -0.634  1.00  0.00    -0.0501  C
ATOM     25  C6  197 L   1      -5.198  -0.770  -0.614  1.00  0.00    +0.0284  C
ATOM     26  S7  197 L   1      -5.309   0.610   0.426  1.00  0.00    +0.1745  S
ATOM     27  O8  197 L   1      -5.875   1.721  -0.310  1.00  0.00    -0.2226 OA
ATOM     28  O9  197 L   1      -5.833   0.191   1.709  1.00  0.00    -0.2226 OA
ATOM     29 C10  197 L   1      -3.545   0.837   0.567  1.00  0.00    +0.0776  C
ATOM     30 H21  197 L   1      -2.753  -1.110   1.123  1.00  0.00    +0.0577  H
ATOM     31 H22  197 L   1      -3.697  -2.156  -1.185  1.00  0.00    +0.0599  H
ATOM     32 H23  197 L   1      -6.062  -1.159  -1.127  1.00  0.00    +0.0737  H
ATOM     33 H24  197 L   1      -3.302   1.157   1.583  1.00  0.00    +0.0452  H
ATOM     34 H25  197 L   1      -3.251   1.616  -0.145  1.00  0.00    +0.0452  H
ENDBRANCH 21 23
ENDBRANCH 1 20
TORSDOF 2
