ROOT
ATOM      1  C9  CHE L   1       0.516  -0.964  -0.225  1.00  0.00    -0.0418  A
ATOM      2 C10  CHE L   1      -0.149  -1.991  -0.920  1.00  0.00    -0.0533  A
ATOM      3 C11  CHE L   1      -1.552  -2.036  -1.058  1.00  0.00    -0.0248  A
ATOM      4 C12  CHE L   1      -2.196  -3.158  -1.813  1.00  0.00    -0.0377  C
ATOM      5 C13  CHE L   1      -2.249  -0.976  -0.461  1.00  0.00    +0.0694  A
ATOM      6 N14  CHE L   1      -3.582  -0.666  -0.384  1.00  0.00    -0.3375  N
ATOM      7 C15  CHE L   1      -3.746   0.499   0.334  1.00  0.00    +0.1456  A
ATOM      8 N25  CHE L   1      -2.562   0.949   0.711  1.00  0.00    -0.2275 NA
ATOM      9 C26  CHE L   1      -1.636   0.056   0.233  1.00  0.00    +0.0900  A
ATOM     10 C27  CHE L   1      -0.240   0.070   0.358  1.00  0.00    -0.0308  A
ATOM     11 H43  CHE L   1       0.440  -2.790  -1.371  1.00  0.00    +0.0624  H
ATOM     12 H44  CHE L   1      -1.847  -4.123  -1.431  1.00  0.00    +0.0278  H
ATOM     13 H45  CHE L   1      -3.286  -3.135  -1.715  1.00  0.00    +0.0278  H
ATOM     14 H46  CHE L   1      -1.949  -3.084  -2.875  1.00  0.00    +0.0278  H
ATOM     15 H47  CHE L   1      -4.344  -1.183  -0.796  1.00  0.00    +0.1674 HD
ATOM     16 H54  CHE L   1       0.227   0.882   0.904  1.00  0.00    +0.0642  H
ENDROOT
BRANCH 1 20
ATOM     17  N5  CHE L   1       4.532   0.288   0.806  1.00  0.00    -0.3011 NA
ATOM     18  C6  CHE L   1       4.154   0.312  -0.617  1.00  0.00    -0.0005  C
ATOM     19  C7  CHE L   1       2.653   0.192  -0.888  1.00  0.00    -0.0333  C
ATOM     20  C8  CHE L   1       2.033  -0.980  -0.115  1.00  0.00    -0.0135  C
ATOM     21 C28  CHE L   1       2.518  -1.024   1.346  1.00  0.00    -0.0333  C
ATOM     22 C29  CHE L   1       3.384   0.181   1.712  1.00  0.00    -0.0005  C
ATOM     23 H38  CHE L   1       4.666  -0.521  -1.111  1.00  0.00    +0.0427  H
ATOM     24 H39  CHE L   1       4.504   1.222  -1.118  1.00  0.00    +0.0427  H
ATOM     25 H40  CHE L   1       2.169   1.143  -0.621  1.00  0.00    +0.0283  H
ATOM     26 H41  CHE L   1       2.484   0.059  -1.964  1.00  0.00    +0.0283  H
ATOM     27 H42  CHE L   1       2.394  -1.904  -0.590  1.00  0.00    +0.0350  H
ATOM     28 H55  CHE L   1       1.686  -1.105   2.057  1.00  0.00    +0.0283  H
ATOM     29 H56  CHE L   1       3.112  -1.938   1.488  1.00  0.00    +0.0283  H
ATOM     30 H57  CHE L   1       2.783   1.099   1.704  1.00  0.00    +0.0427  H
ATOM     31 H58  CHE L   1       3.739   0.039   2.739  1.00  0.00    +0.0427  H
BRANCH 17 32
ATOM     32  C4  CHE L   1       5.391   1.426   1.176  1.00  0.00    +0.0114  C
ATOM     33 H36  CHE L   1       5.518   1.448   2.267  1.00  0.00    +0.0439  H
ATOM     34 H37  CHE L   1       4.900   2.372   0.909  1.00  0.00    +0.0439  H
BRANCH 32 35
ATOM     35  C3  CHE L   1       6.812   1.401   0.557  1.00  0.00    +0.0084  C
ATOM     36 H34  CHE L   1       7.308   2.327   0.871  1.00  0.00    +0.0436  H
ATOM     37 H35  CHE L   1       6.772   1.447  -0.538  1.00  0.00    +0.0436  H
BRANCH 35 39
ATOM     38  C1  CHE L   1       7.656  -0.835   0.109  1.00  0.00    -0.0157  C
ATOM     39  N2  CHE L   1       7.663   0.297   1.026  1.00  0.00    -0.3178 NA
ATOM     40 H30  CHE L   1       6.674  -1.309   0.044  1.00  0.00    +0.0388  H
ATOM     41 H31  CHE L   1       7.983  -0.541  -0.893  1.00  0.00    +0.0388  H
ATOM     42 H32  CHE L   1       8.362  -1.591   0.471  1.00  0.00    +0.0388  H
ATOM     43 H33  CHE L   1       7.310  -0.026   1.928  1.00  0.00    +0.1217 HD
ENDBRANCH 35 39
ENDBRANCH 32 35
ENDBRANCH 17 32
ENDBRANCH 1 20
BRANCH 7 44
ATOM     44 C16  CHE L   1      -5.058   1.106   0.619  1.00  0.00    +0.0939  A
ATOM     45 C17  CHE L   1      -5.155   2.104   1.605  1.00  0.00    +0.1375  A
ATOM     46 F18  CHE L   1      -4.078   2.502   2.301  1.00  0.00    -0.2046  F
ATOM     47 C19  CHE L   1      -6.369   2.712   1.921  1.00  0.00    -0.0255  A
ATOM     48 C20  CHE L   1      -7.526   2.332   1.255  1.00  0.00    -0.0556  A
ATOM     49 C21  CHE L   1      -7.465   1.344   0.272  1.00  0.00    -0.0191  A
ATOM     50 C22  CHE L   1      -6.244   0.732  -0.060  1.00  0.00    +0.1335  A
ATOM     51 H48  CHE L   1      -6.396   3.475   2.695  1.00  0.00    +0.0646  H
ATOM     52 H49  CHE L   1      -8.476   2.800   1.504  1.00  0.00    +0.0620  H
ATOM     53 H50  CHE L   1      -8.396   1.064  -0.213  1.00  0.00    +0.0654  H
BRANCH 50 54
ATOM     54 O23  CHE L   1      -6.140  -0.254  -1.017  1.00  0.00    -0.4943 OA
ATOM     55 C24  CHE L   1      -7.224  -0.393  -1.931  1.00  0.00    +0.0788  C
ATOM     56 H51  CHE L   1      -6.906  -1.079  -2.722  1.00  0.00    +0.0660  H
ATOM     57 H52  CHE L   1      -8.093  -0.836  -1.437  1.00  0.00    +0.0660  H
ATOM     58 H53  CHE L   1      -7.477   0.563  -2.403  1.00  0.00    +0.0660  H
ENDBRANCH 50 54
ENDBRANCH 7 44
TORSDOF 6
