ROOT
ATOM      1  O1  SEL L   1       0.455   1.389   0.616  1.00  0.00    -0.2727 OA
ATOM      2  C2  SEL L   1       1.086   0.474   0.083  1.00  0.00    +0.2284  C
ATOM      3 N15  SEL L   1       2.473   0.429   0.173  1.00  0.00    -0.3376  N
ATOM      4 C16  SEL L   1       3.145   1.358   1.091  1.00  0.00    +0.0446  C
ATOM      5 C17  SEL L   1       4.459   1.878   0.501  1.00  0.00    +0.0653  C
ATOM      6 O18  SEL L   1       5.311   0.795   0.098  1.00  0.00    -0.3763 OA
ATOM      7 C19  SEL L   1       4.664  -0.002  -0.903  1.00  0.00    +0.0653  C
ATOM      8 C20  SEL L   1       3.359  -0.607  -0.372  1.00  0.00    +0.0446  C
ATOM      9 H34  SEL L   1       2.501   2.201   1.357  1.00  0.00    +0.0511  H
ATOM     10 H35  SEL L   1       3.349   0.789   2.005  1.00  0.00    +0.0511  H
ATOM     11 H36  SEL L   1       4.998   2.466   1.250  1.00  0.00    +0.0577  H
ATOM     12 H37  SEL L   1       4.273   2.526  -0.364  1.00  0.00    +0.0577  H
ATOM     13 H38  SEL L   1       5.354  -0.800  -1.193  1.00  0.00    +0.0577  H
ATOM     14 H39  SEL L   1       4.477   0.618  -1.788  1.00  0.00    +0.0577  H
ATOM     15 H40  SEL L   1       3.583  -1.289   0.458  1.00  0.00    +0.0511  H
ATOM     16 H41  SEL L   1       2.876  -1.179  -1.165  1.00  0.00    +0.0511  H
ENDROOT
BRANCH 2 17
ATOM     17  C3  SEL L   1       0.371  -0.623  -0.719  1.00  0.00    +0.0554  C
ATOM     18  C4  SEL L   1       0.408  -1.992  -0.024  1.00  0.00    -0.0385  C
ATOM     19  C5  SEL L   1      -0.628  -2.111   1.090  1.00  0.00    -0.0346  C
ATOM     20  C6  SEL L   1      -2.026  -1.794   0.573  1.00  0.00    +0.0187  C
ATOM     21  N7  SEL L   1      -2.027  -0.443   0.014  1.00  0.00    -0.3687  N
ATOM     22 C14  SEL L   1      -1.067  -0.211  -1.085  1.00  0.00    +0.0300  C
ATOM     23 H21  SEL L   1       0.908  -0.693  -1.673  1.00  0.00    +0.0414  H
ATOM     24 H22  SEL L   1       0.209  -2.770  -0.772  1.00  0.00    +0.0274  H
ATOM     25 H23  SEL L   1       1.392  -2.212   0.399  1.00  0.00    +0.0274  H
ATOM     26 H24  SEL L   1      -0.610  -3.126   1.503  1.00  0.00    +0.0282  H
ATOM     27 H25  SEL L   1      -0.368  -1.426   1.907  1.00  0.00    +0.0282  H
ATOM     28 H26  SEL L   1      -2.323  -2.529  -0.186  1.00  0.00    +0.0488  H
ATOM     29 H27  SEL L   1      -2.724  -1.868   1.415  1.00  0.00    +0.0488  H
ATOM     30 H32  SEL L   1      -1.065   0.836  -1.412  1.00  0.00    +0.0495  H
ATOM     31 H33  SEL L   1      -1.389  -0.806  -1.951  1.00  0.00    +0.0495  H
BRANCH 21 32
ATOM     32  C8  SEL L   1      -3.271   0.174  -0.191  1.00  0.00    +0.0562  A
ATOM     33  C9  SEL L   1      -3.352   1.570  -0.269  1.00  0.00    -0.0356  A
ATOM     34 C10  SEL L   1      -4.576   2.209  -0.464  1.00  0.00    -0.0417  A
ATOM     35 C11  SEL L   1      -5.712   1.429  -0.576  1.00  0.00    +0.0277  A
ATOM     36 N12  SEL L   1      -5.702   0.083  -0.502  1.00  0.00    -0.2612 NA
ATOM     37 C13  SEL L   1      -4.491  -0.501  -0.304  1.00  0.00    +0.0507  A
ATOM     38 H28  SEL L   1      -2.454   2.171  -0.142  1.00  0.00    +0.0639  H
ATOM     39 H29  SEL L   1      -4.636   3.290  -0.515  1.00  0.00    +0.0633  H
ATOM     40 H30  SEL L   1      -6.688   1.879  -0.726  1.00  0.00    +0.0829  H
ATOM     41 H31  SEL L   1      -4.542  -1.584  -0.257  1.00  0.00    +0.0850  H
ENDBRANCH 21 32
ENDBRANCH 2 17
TORSDOF 2
