ROOT
ATOM      1  C1  CHE L   1      -2.138  -4.461  -1.437  1.00  0.00    +0.0324  C
ATOM      2  N2  CHE L   1      -2.456  -3.324  -0.611  1.00  0.00    -0.2493  N
ATOM      3  N3  CHE L   1      -3.722  -3.158  -0.164  1.00  0.00    -0.1773 NA
ATOM      4  C4  CHE L   1      -3.647  -2.032   0.554  1.00  0.00    +0.0622  A
ATOM      5  C5  CHE L   1      -2.360  -1.459   0.550  1.00  0.00    +0.0806  A
ATOM      6  C6  CHE L   1      -1.693  -0.354   1.076  1.00  0.00    +0.1435  A
ATOM      7 N15  CHE L   1      -0.358  -0.260   0.871  1.00  0.00    -0.1948 NA
ATOM      8 C16  CHE L   1       0.283  -1.187   0.133  1.00  0.00    +0.2278  A
ATOM      9 N27  CHE L   1      -0.283  -2.256  -0.438  1.00  0.00    -0.1929 NA
ATOM     10 C28  CHE L   1      -1.599  -2.344  -0.191  1.00  0.00    +0.1653  A
ATOM     11 H29  CHE L   1      -2.396  -5.369  -0.886  1.00  0.00    +0.0473  H
ATOM     12 H30  CHE L   1      -2.725  -4.392  -2.356  1.00  0.00    +0.0473  H
ATOM     13 H31  CHE L   1      -1.072  -4.463  -1.677  1.00  0.00    +0.0473  H
ATOM     14 H32  CHE L   1      -4.539  -1.686   1.059  1.00  0.00    +0.0856  H
ENDROOT
BRANCH 6 15
ATOM     15  N7  CHE L   1      -2.263   0.686   1.833  1.00  0.00    -0.3634  N
ATOM     16 H33  CHE L   1      -1.452   1.267   2.060  1.00  0.00    +0.1616 HD
BRANCH 15 17
ATOM     17  C8  CHE L   1      -3.338   1.451   1.411  1.00  0.00    +0.0441  C
ATOM     18  C9  CHE L   1      -4.846   1.152   1.414  1.00  0.00    -0.0110  C
ATOM     19 C10  CHE L   1      -4.742   2.632   0.927  1.00  0.00    +0.0637  C
ATOM     20 C13  CHE L   1      -3.698   2.814   2.064  1.00  0.00    -0.0110  C
ATOM     21 C14  CHE L   1      -3.538   2.151   0.054  1.00  0.00    -0.0110  C
ATOM     22 H34  CHE L   1      -5.323   0.973   2.383  1.00  0.00    +0.0303  H
ATOM     23 H35  CHE L   1      -5.237   0.442   0.679  1.00  0.00    +0.0303  H
ATOM     24 H36  CHE L   1      -2.975   3.630   1.956  1.00  0.00    +0.0303  H
ATOM     25 H37  CHE L   1      -4.069   2.795   3.096  1.00  0.00    +0.0303  H
ATOM     26 H38  CHE L   1      -2.798   2.904  -0.241  1.00  0.00    +0.0303  H
ATOM     27 H39  CHE L   1      -3.771   1.514  -0.807  1.00  0.00    +0.0303  H
BRANCH 19 28
ATOM     28 C11  CHE L   1      -5.784   3.502   0.561  1.00  0.00    +0.0695  C
ATOM     29 N12  CHE L   1      -6.643   4.221   0.261  1.00  0.00    -0.1960 NA
ENDBRANCH 19 28
ENDBRANCH 15 17
ENDBRANCH 6 15
BRANCH 8 30
ATOM     30 N17  CHE L   1       1.649  -1.065  -0.079  1.00  0.00    -0.3521  N
ATOM     31 H40  CHE L   1       1.975  -1.969  -0.405  1.00  0.00    +0.1626 HD
BRANCH 30 32
ATOM     32 C18  CHE L   1       2.393  -0.482   1.032  1.00  0.00    +0.0376  C
ATOM     33 H41  CHE L   1       2.105   0.566   1.183  1.00  0.00    +0.0505  H
ATOM     34 H42  CHE L   1       2.143  -1.027   1.954  1.00  0.00    +0.0505  H
BRANCH 32 35
ATOM     35 C19  CHE L   1       3.938  -0.577   0.817  1.00  0.00    +0.0480  C
ATOM     36 N20  CHE L   1       4.654  -0.181   2.046  1.00  0.00    -0.3222 NA
ATOM     37 H43  CHE L   1       4.164  -1.637   0.641  1.00  0.00    +0.0525  H
ATOM     38 H44  CHE L   1       4.551   0.826   2.173  1.00  0.00    +0.1188 HD
ATOM     39 H45  CHE L   1       4.229  -0.624   2.857  1.00  0.00    +0.1188 HD
BRANCH 35 40
ATOM     40 C21  CHE L   1       4.519   0.189  -0.367  1.00  0.00    -0.0290  A
ATOM     41 C22  CHE L   1       5.872  -0.019  -0.703  1.00  0.00    -0.0570  A
ATOM     42 C23  CHE L   1       6.462   0.651  -1.777  1.00  0.00    -0.0615  A
ATOM     43 C24  CHE L   1       5.710   1.539  -2.540  1.00  0.00    -0.0617  A
ATOM     44 C25  CHE L   1       4.373   1.761  -2.224  1.00  0.00    -0.0615  A
ATOM     45 C26  CHE L   1       3.783   1.096  -1.144  1.00  0.00    -0.0570  A
ATOM     46 H46  CHE L   1       6.476  -0.707  -0.112  1.00  0.00    +0.0621  H
ATOM     47 H47  CHE L   1       7.507   0.475  -2.017  1.00  0.00    +0.0618  H
ATOM     48 H48  CHE L   1       6.165   2.056  -3.380  1.00  0.00    +0.0618  H
ATOM     49 H49  CHE L   1       3.781   2.444  -2.825  1.00  0.00    +0.0618  H
ATOM     50 H50  CHE L   1       2.734   1.293  -0.939  1.00  0.00    +0.0621  H
ENDBRANCH 35 40
ENDBRANCH 32 35
ENDBRANCH 30 32
ENDBRANCH 8 30
TORSDOF 7
