ROOT
ATOM      1  C8  187 L   1       0.181   0.149  -1.257  1.00  0.00    +0.2257  C
ATOM      2  O9  187 L   1       0.112   0.677  -2.368  1.00  0.00    -0.2730 OA
ATOM      3 N10  187 L   1      -0.935  -0.399  -0.630  1.00  0.00    -0.3349  N
ATOM      4 C11  187 L   1      -2.240  -0.215  -1.258  1.00  0.00    +0.0469  C
ATOM      5 C12  187 L   1      -3.178   0.433  -0.271  1.00  0.00    -0.0221  A
ATOM      6 C13  187 L   1      -4.058   1.452  -0.646  1.00  0.00    -0.0213  A
ATOM      7 C14  187 L   1      -4.909   2.004   0.305  1.00  0.00    +0.1237  A
ATOM      8 F15  187 L   1      -5.750   2.983  -0.055  1.00  0.00    -0.2055  F
ATOM      9 C16  187 L   1      -4.909   1.553   1.621  1.00  0.00    -0.0262  A
ATOM     10 C17  187 L   1      -4.040   0.530   2.001  1.00  0.00    -0.0555  A
ATOM     11 C18  187 L   1      -3.166  -0.026   1.060  1.00  0.00    -0.0404  A
ATOM     12 C19  187 L   1      -2.254  -1.174   1.408  1.00  0.00    -0.0070  C
ATOM     13 C20  187 L   1      -0.907  -1.169   0.634  1.00  0.00    +0.0340  C
ATOM     14 C21  187 L   1      -0.478  -2.618   0.371  1.00  0.00    -0.0442  C
ATOM     15 H30  187 L   1      -2.166   0.394  -2.164  1.00  0.00    +0.0538  H
ATOM     16 H31  187 L   1      -2.625  -1.199  -1.548  1.00  0.00    +0.0538  H
ATOM     17 H32  187 L   1      -4.086   1.826  -1.665  1.00  0.00    +0.0649  H
ATOM     18 H33  187 L   1      -5.590   1.998   2.339  1.00  0.00    +0.0646  H
ATOM     19 H34  187 L   1      -4.053   0.170   3.027  1.00  0.00    +0.0621  H
ATOM     20 H35  187 L   1      -2.813  -2.095   1.197  1.00  0.00    +0.0333  H
ATOM     21 H36  187 L   1      -2.040  -1.182   2.484  1.00  0.00    +0.0333  H
ATOM     22 H37  187 L   1      -0.158  -0.703   1.284  1.00  0.00    +0.0525  H
ATOM     23 H38  187 L   1       0.491  -2.676  -0.133  1.00  0.00    +0.0250  H
ATOM     24 H39  187 L   1      -1.202  -3.131  -0.271  1.00  0.00    +0.0250  H
ATOM     25 H40  187 L   1      -0.401  -3.175   1.311  1.00  0.00    +0.0250  H
ENDROOT
BRANCH 1 26
ATOM     26  C7  187 L   1       1.491   0.128  -0.489  1.00  0.00    +0.0437  C
ATOM     27 H28  187 L   1       1.715  -0.888  -0.159  1.00  0.00    +0.0378  H
ATOM     28 H29  187 L   1       1.379   0.762   0.399  1.00  0.00    +0.0378  H
BRANCH 26 29
ATOM     29  C6  187 L   1       2.641   0.650  -1.344  1.00  0.00    +0.0268  C
ATOM     30 H26  187 L   1       2.803  -0.002  -2.211  1.00  0.00    +0.0491  H
ATOM     31 H27  187 L   1       2.422   1.657  -1.717  1.00  0.00    +0.0491  H
BRANCH 29 34
ATOM     32  C3  187 L   1       4.595  -0.372  -0.236  1.00  0.00    +0.2443  C
ATOM     33  O4  187 L   1       4.218  -1.523  -0.416  1.00  0.00    -0.2683 OA
ATOM     34  N5  187 L   1       3.889   0.744  -0.604  1.00  0.00    -0.3520  N
ATOM     35 H25  187 L   1       4.359   1.638  -0.594  1.00  0.00    +0.1626 HD
BRANCH 32 37
ATOM     36  C1  187 L   1       6.268   0.984   1.054  1.00  0.00    -0.0936  C
ATOM     37  C2  187 L   1       5.926  -0.115   0.369  1.00  0.00    -0.0047  C
ATOM     38 H22  187 L   1       5.583   1.806   1.231  1.00  0.00    +0.0536  H
ATOM     39 H23  187 L   1       7.260   1.066   1.489  1.00  0.00    +0.0536  H
ATOM     40 H24  187 L   1       6.623  -0.943   0.271  1.00  0.00    +0.0666  H
ENDBRANCH 32 37
ENDBRANCH 29 34
ENDBRANCH 26 29
ENDBRANCH 1 26
TORSDOF 4
