ROOT
ATOM      1  C1  EUB L   1      -4.987  -1.683  -0.947  1.00  0.00    -0.0490  C
ATOM      2  C2  EUB L   1      -4.170  -0.397  -1.062  1.00  0.00    +0.0494  C
ATOM      3  C3  EUB L   1      -4.561   0.415  -2.296  1.00  0.00    -0.0490  C
ATOM      4  C4  EUB L   1      -4.379   0.457   0.202  1.00  0.00    +0.1530  C
ATOM      5  O5  EUB L   1      -5.460   0.916   0.558  1.00  0.00    -0.2956 OA
ATOM      6  C6  EUB L   1      -3.057   0.665   0.964  1.00  0.00    +0.0494  C
ATOM      7  C7  EUB L   1      -2.736   2.158   1.032  1.00  0.00    -0.0490  C
ATOM      8  C8  EUB L   1      -3.169   0.045   2.356  1.00  0.00    -0.0490  C
ATOM      9  C9  EUB L   1      -2.064  -0.080   0.096  1.00  0.00    -0.0298  A
ATOM     10 C10  EUB L   1      -0.697  -0.224   0.312  1.00  0.00    -0.0450  A
ATOM     11 C11  EUB L   1       0.058  -0.964  -0.611  1.00  0.00    +0.0396  A
ATOM     12 C24  EUB L   1      -0.568  -1.568  -1.716  1.00  0.00    -0.0491  A
ATOM     13 C25  EUB L   1      -1.940  -1.419  -1.929  1.00  0.00    -0.0566  A
ATOM     14 C26  EUB L   1      -2.681  -0.671  -1.021  1.00  0.00    -0.0304  A
ATOM     15 H27  EUB L   1      -6.060  -1.466  -0.895  1.00  0.00    +0.0242  H
ATOM     16 H28  EUB L   1      -4.727  -2.244  -0.041  1.00  0.00    +0.0242  H
ATOM     17 H29  EUB L   1      -4.821  -2.344  -1.805  1.00  0.00    +0.0242  H
ATOM     18 H30  EUB L   1      -4.370  -0.141  -3.220  1.00  0.00    +0.0242  H
ATOM     19 H31  EUB L   1      -3.998   1.355  -2.352  1.00  0.00    +0.0242  H
ATOM     20 H32  EUB L   1      -5.625   0.677  -2.275  1.00  0.00    +0.0242  H
ATOM     21 H33  EUB L   1      -2.694   2.605   0.031  1.00  0.00    +0.0242  H
ATOM     22 H34  EUB L   1      -3.503   2.700   1.596  1.00  0.00    +0.0242  H
ATOM     23 H35  EUB L   1      -1.771   2.340   1.517  1.00  0.00    +0.0242  H
ATOM     24 H36  EUB L   1      -2.226   0.124   2.909  1.00  0.00    +0.0242  H
ATOM     25 H37  EUB L   1      -3.433  -1.018   2.301  1.00  0.00    +0.0242  H
ATOM     26 H38  EUB L   1      -3.947   0.541   2.947  1.00  0.00    +0.0242  H
ATOM     27 H39  EUB L   1      -0.237   0.203   1.198  1.00  0.00    +0.0628  H
ATOM     28 H46  EUB L   1       0.023  -2.159  -2.415  1.00  0.00    +0.0625  H
ATOM     29 H47  EUB L   1      -2.410  -1.889  -2.789  1.00  0.00    +0.0621  H
ENDROOT
BRANCH 11 30
ATOM     30 C12  EUB L   1       1.525  -1.160  -0.436  1.00  0.00    +0.2563  C
ATOM     31 O13  EUB L   1       2.008  -2.237  -0.763  1.00  0.00    -0.2673 OA
ATOM     32 N14  EUB L   1       2.202  -0.058   0.055  1.00  0.00    -0.3221  N
ATOM     33 H40  EUB L   1       1.676   0.801   0.143  1.00  0.00    +0.1689 HD
BRANCH 32 34
ATOM     34 C15  EUB L   1       3.577   0.035   0.359  1.00  0.00    +0.0420  A
ATOM     35 C16  EUB L   1       4.059   1.287   0.762  1.00  0.00    -0.0375  A
ATOM     36 C17  EUB L   1       5.409   1.464   1.087  1.00  0.00    -0.0458  A
ATOM     37 C18  EUB L   1       6.294   0.384   1.015  1.00  0.00    +0.0590  A
ATOM     38 C22  EUB L   1       5.816  -0.868   0.617  1.00  0.00    -0.0458  A
ATOM     39 C23  EUB L   1       4.465  -1.041   0.292  1.00  0.00    -0.0375  A
ATOM     40 H41  EUB L   1       3.396   2.146   0.827  1.00  0.00    +0.0638  H
ATOM     41 H42  EUB L   1       5.757   2.447   1.395  1.00  0.00    +0.0626  H
ATOM     42 H44  EUB L   1       6.491  -1.721   0.556  1.00  0.00    +0.0626  H
ATOM     43 H45  EUB L   1       4.140  -2.033  -0.006  1.00  0.00    +0.0638  H
BRANCH 37 44
ATOM     44 C19  EUB L   1       7.733   0.518   1.349  1.00  0.00    +0.3368  C
ATOM     45 O20  EUB L   1       8.562  -0.372   1.313  1.00  0.00    -0.2451 OA
ATOM     46 O21  EUB L   1       8.068   1.768   1.715  1.00  0.00    -0.4771 OA
ATOM     47 H43  EUB L   1       9.029   1.705   1.900  1.00  0.00    +0.2954 HD
ENDBRANCH 37 44
ENDBRANCH 32 34
ENDBRANCH 11 30
TORSDOF 3
