ROOT
ATOM      1 C11  WH0 L   1      -0.265  -0.423  -2.078  1.00  0.00    +0.1686  A
ATOM      2 N12  WH0 L   1       0.155  -0.066  -3.310  1.00  0.00    -0.1289 NA
ATOM      3 N13  WH0 L   1      -0.923   0.271  -4.006  1.00  0.00    -0.1321 NA
ATOM      4 C14  WH0 L   1      -1.979   0.114  -3.185  1.00  0.00    +0.1540  A
ATOM      5 N15  WH0 L   1      -1.607  -0.316  -1.972  1.00  0.00    -0.2971  N
ATOM      6 C16  WH0 L   1      -2.469  -0.339  -0.789  1.00  0.00    +0.1160  C
ATOM      7 C21  WH0 L   1      -3.896  -0.536  -1.235  1.00  0.00    +0.2469  C
ATOM      8 O22  WH0 L   1      -4.701  -1.133  -0.469  1.00  0.00    -0.2707 OA
ATOM      9 N23  WH0 L   1      -4.338  -0.061  -2.531  1.00  0.00    -0.3335  N
ATOM     10 C26  WH0 L   1      -3.388   0.494  -3.512  1.00  0.00    +0.0811  C
ATOM     11 H45  WH0 L   1      -2.176  -1.192  -0.144  1.00  0.00    +0.0627  H
ATOM     12 H60  WH0 L   1      -3.626   0.111  -4.528  1.00  0.00    +0.0569  H
ATOM     13 H61  WH0 L   1      -3.472   1.601  -3.518  1.00  0.00    +0.0569  H
ENDROOT
BRANCH 1 16
ATOM     14  C8  WH0 L   1       2.500  -0.131   0.465  1.00  0.00    +0.0005  A
ATOM     15  C9  WH0 L   1       1.641   0.141  -0.605  1.00  0.00    -0.0406  A
ATOM     16 C10  WH0 L   1       0.646  -0.770  -0.973  1.00  0.00    +0.0650  A
ATOM     17 C27  WH0 L   1       0.509  -1.988  -0.284  1.00  0.00    +0.1759  A
ATOM     18 C30  WH0 L   1       1.336  -2.242   0.839  1.00  0.00    +0.2045  A
ATOM     19 C33  WH0 L   1       2.382  -1.346   1.166  1.00  0.00    +0.1684  A
ATOM     20 H44  WH0 L   1       1.739   1.073  -1.152  1.00  0.00    +0.0630  H
BRANCH 14 21
ATOM     21  C7  WH0 L   1       3.587   0.858   0.810  1.00  0.00    -0.0066  C
ATOM     22 H42  WH0 L   1       3.257   1.888   0.552  1.00  0.00    +0.0331  H
ATOM     23 H43  WH0 L   1       3.779   0.849   1.905  1.00  0.00    +0.0331  H
BRANCH 21 24
ATOM     24  C6  WH0 L   1       4.881   0.525   0.061  1.00  0.00    +0.0225  C
ATOM     25 H40  WH0 L   1       4.720   0.583  -1.038  1.00  0.00    +0.0489  H
ATOM     26 H41  WH0 L   1       5.191  -0.515   0.306  1.00  0.00    +0.0489  H
BRANCH 24 29
ATOM     27  C3  WH0 L   1       6.003   2.804   0.011  1.00  0.00    +0.2443  C
ATOM     28  O4  WH0 L   1       5.151   3.235  -0.814  1.00  0.00    -0.2683 OA
ATOM     29  N5  WH0 L   1       5.948   1.442   0.457  1.00  0.00    -0.3522  N
ATOM     30 H39  WH0 L   1       6.719   1.073   1.059  1.00  0.00    +0.1626 HD
BRANCH 27 32
ATOM     31  C1  WH0 L   1       7.160   4.971   0.157  1.00  0.00    -0.0936  C
ATOM     32  C2  WH0 L   1       7.061   3.694   0.521  1.00  0.00    -0.0047  C
ATOM     33 H36  WH0 L   1       7.954   5.587   0.560  1.00  0.00    +0.0536  H
ATOM     34 H37  WH0 L   1       6.459   5.419  -0.537  1.00  0.00    +0.0536  H
ATOM     35 H38  WH0 L   1       7.786   3.294   1.220  1.00  0.00    +0.0666  H
ENDBRANCH 27 32
ENDBRANCH 24 29
ENDBRANCH 21 24
ENDBRANCH 14 21
BRANCH 17 36
ATOM     36 O28  WH0 L   1      -0.450  -2.903  -0.765  1.00  0.00    -0.4906 OA
ATOM     37 C29  WH0 L   1      -0.641  -4.241  -0.322  1.00  0.00    +0.0790  C
ATOM     38 H62  WH0 L   1      -1.356  -4.744  -1.006  1.00  0.00    +0.0660  H
ATOM     39 H63  WH0 L   1       0.319  -4.799  -0.347  1.00  0.00    +0.0660  H
ATOM     40 H64  WH0 L   1      -1.081  -4.250   0.695  1.00  0.00    +0.0660  H
ENDBRANCH 17 36
BRANCH 18 41
ATOM     41 O31  WH0 L   1       1.082  -3.339   1.661  1.00  0.00    -0.4885 OA
ATOM     42 C32  WH0 L   1       0.407  -3.179   2.904  1.00  0.00    +0.0791  C
ATOM     43 H65  WH0 L   1       0.311  -4.168   3.398  1.00  0.00    +0.0660  H
ATOM     44 H66  WH0 L   1       0.977  -2.495   3.569  1.00  0.00    +0.0660  H
ATOM     45 H67  WH0 L   1      -0.608  -2.758   2.733  1.00  0.00    +0.0660  H
ENDBRANCH 18 41
BRANCH 19 46
ATOM     46 O34  WH0 L   1       3.321  -1.627   2.173  1.00  0.00    -0.4910 OA
ATOM     47 C35  WH0 L   1       3.855  -2.921   2.438  1.00  0.00    +0.0790  C
ATOM     48 H68  WH0 L   1       3.155  -3.524   3.048  1.00  0.00    +0.0660  H
ATOM     49 H69  WH0 L   1       4.084  -3.447   1.486  1.00  0.00    +0.0660  H
ATOM     50 H70  WH0 L   1       4.795  -2.807   3.015  1.00  0.00    +0.0660  H
ENDBRANCH 19 46
ENDBRANCH 1 16
BRANCH 6 51
ATOM     51 C17  WH0 L   1      -2.300   0.979   0.000  1.00  0.00    -0.0209  C
ATOM     52 H46  WH0 L   1      -1.210   1.189   0.067  1.00  0.00    +0.0292  H
ATOM     53 H47  WH0 L   1      -2.730   1.825  -0.581  1.00  0.00    +0.0292  H
BRANCH 51 54
ATOM     54 C18  WH0 L   1      -2.899   0.921   1.433  1.00  0.00    -0.0444  C
ATOM     55 C19  WH0 L   1      -4.266   1.615   1.497  1.00  0.00    -0.0626  C
ATOM     56 C20  WH0 L   1      -1.946   1.569   2.449  1.00  0.00    -0.0626  C
ATOM     57 H48  WH0 L   1      -3.036  -0.138   1.749  1.00  0.00    +0.0296  H
ATOM     58 H49  WH0 L   1      -4.174   2.690   1.228  1.00  0.00    +0.0232  H
ATOM     59 H50  WH0 L   1      -4.979   1.135   0.798  1.00  0.00    +0.0232  H
ATOM     60 H51  WH0 L   1      -4.689   1.538   2.522  1.00  0.00    +0.0232  H
ATOM     61 H52  WH0 L   1      -1.770   2.638   2.193  1.00  0.00    +0.0232  H
ATOM     62 H53  WH0 L   1      -2.374   1.509   3.473  1.00  0.00    +0.0232  H
ATOM     63 H54  WH0 L   1      -0.969   1.036   2.455  1.00  0.00    +0.0232  H
ENDBRANCH 51 54
ENDBRANCH 6 51
BRANCH 9 64
ATOM     64 C24  WH0 L   1      -5.766  -0.083  -2.876  1.00  0.00    +0.0188  C
ATOM     65 C25  WH0 L   1      -6.524   0.998  -2.112  1.00  0.00    -0.0474  C
ATOM     66 H55  WH0 L   1      -6.197  -1.082  -2.650  1.00  0.00    +0.0486  H
ATOM     67 H56  WH0 L   1      -5.906   0.096  -3.964  1.00  0.00    +0.0486  H
ATOM     68 H57  WH0 L   1      -6.056   1.989  -2.286  1.00  0.00    +0.0247  H
ATOM     69 H58  WH0 L   1      -7.576   1.032  -2.463  1.00  0.00    +0.0247  H
ATOM     70 H59  WH0 L   1      -6.525   0.778  -1.025  1.00  0.00    +0.0247  H
ENDBRANCH 9 64
TORSDOF 11
