ROOT
ATOM      1  C1  CHE L   1      -5.648   1.588  -1.744  1.00  0.00    -0.0377  C
ATOM      2  C2  CHE L   1      -6.102   1.762  -0.324  1.00  0.00    -0.0264  A
ATOM      3  C3  CHE L   1      -7.224   2.574  -0.054  1.00  0.00    -0.0541  A
ATOM      4  C4  CHE L   1      -7.708   2.753   1.241  1.00  0.00    -0.0255  A
ATOM      5  C5  CHE L   1      -7.086   2.117   2.311  1.00  0.00    +0.1325  A
ATOM      6  F6  CHE L   1      -7.566   2.301   3.550  1.00  0.00    -0.2048  F
ATOM      7  C7  CHE L   1      -5.966   1.297   2.091  1.00  0.00    +0.0358  A
ATOM      8  C8  CHE L   1      -5.127   0.521   2.935  1.00  0.00    -0.0212  A
ATOM      9  C9  CHE L   1      -4.142  -0.065   2.160  1.00  0.00    +0.1055  A
ATOM     10 N28  CHE L   1      -4.422   0.282   0.856  1.00  0.00    -0.3501  N
ATOM     11 C29  CHE L   1      -5.501   1.136   0.786  1.00  0.00    +0.0527  A
ATOM     12 H30  CHE L   1      -5.566   2.562  -2.240  1.00  0.00    +0.0278  H
ATOM     13 H31  CHE L   1      -6.367   0.969  -2.290  1.00  0.00    +0.0278  H
ATOM     14 H32  CHE L   1      -4.667   1.107  -1.799  1.00  0.00    +0.0278  H
ATOM     15 H33  CHE L   1      -7.733   3.075  -0.874  1.00  0.00    +0.0622  H
ATOM     16 H34  CHE L   1      -8.571   3.385   1.426  1.00  0.00    +0.0646  H
ATOM     17 H35  CHE L   1      -5.220   0.414   4.010  1.00  0.00    +0.0647  H
ATOM     18 H56  CHE L   1      -3.921  -0.065   0.050  1.00  0.00    +0.1661 HD
ENDROOT
BRANCH 9 19
ATOM     19 C10  CHE L   1      -3.054  -0.924   2.596  1.00  0.00    +0.2726  C
ATOM     20 O11  CHE L   1      -3.155  -1.635   3.587  1.00  0.00    -0.2657 OA
ATOM     21 N12  CHE L   1      -1.927  -0.806   1.801  1.00  0.00    -0.3209  N
ATOM     22 H36  CHE L   1      -1.916  -0.036   1.148  1.00  0.00    +0.1690 HD
BRANCH 21 23
ATOM     23 C13  CHE L   1      -0.711  -1.516   1.912  1.00  0.00    +0.0440  A
ATOM     24 C14  CHE L   1      -0.503  -2.573   2.790  1.00  0.00    -0.0382  A
ATOM     25 C15  CHE L   1       0.735  -3.210   2.824  1.00  0.00    -0.0579  A
ATOM     26 C16  CHE L   1       1.767  -2.796   1.977  1.00  0.00    -0.0384  A
ATOM     27 C17  CHE L   1       1.601  -1.736   1.073  1.00  0.00    +0.0398  A
ATOM     28 C27  CHE L   1       0.338  -1.117   1.063  1.00  0.00    -0.0151  A
ATOM     29 H37  CHE L   1      -1.280  -2.929   3.459  1.00  0.00    +0.0638  H
ATOM     30 H38  CHE L   1       0.897  -4.038   3.510  1.00  0.00    +0.0619  H
ATOM     31 H39  CHE L   1       2.705  -3.341   2.018  1.00  0.00    +0.0638  H
ATOM     32 H55  CHE L   1       0.169  -0.280   0.394  1.00  0.00    +0.0659  H
BRANCH 27 33
ATOM     33 N18  CHE L   1       2.629  -1.341   0.224  1.00  0.00    -0.3704  N
ATOM     34 C19  CHE L   1       4.021  -1.462   0.671  1.00  0.00    +0.0200  C
ATOM     35 C20  CHE L   1       4.865  -0.315   0.119  1.00  0.00    -0.0196  C
ATOM     36 C21  CHE L   1       4.884  -0.308  -1.425  1.00  0.00    +0.0130  C
ATOM     37 C25  CHE L   1       3.485  -0.676  -1.973  1.00  0.00    -0.0196  C
ATOM     38 C26  CHE L   1       2.371  -0.500  -0.945  1.00  0.00    +0.0200  C
ATOM     39 H40  CHE L   1       4.095  -1.427   1.765  1.00  0.00    +0.0488  H
ATOM     40 H41  CHE L   1       4.428  -2.425   0.337  1.00  0.00    +0.0488  H
ATOM     41 H42  CHE L   1       4.463   0.634   0.500  1.00  0.00    +0.0297  H
ATOM     42 H43  CHE L   1       5.887  -0.411   0.507  1.00  0.00    +0.0297  H
ATOM     43 H44  CHE L   1       5.577  -1.105  -1.733  1.00  0.00    +0.0463  H
ATOM     44 H51  CHE L   1       3.217  -0.096  -2.862  1.00  0.00    +0.0297  H
ATOM     45 H52  CHE L   1       3.509  -1.725  -2.298  1.00  0.00    +0.0297  H
ATOM     46 H53  CHE L   1       2.282   0.552  -0.648  1.00  0.00    +0.0488  H
ATOM     47 H54  CHE L   1       1.432  -0.792  -1.431  1.00  0.00    +0.0488  H
BRANCH 36 48
ATOM     48 N22  CHE L   1       5.382   0.971  -2.004  1.00  0.00    -0.3053 NA
ATOM     49 C23  CHE L   1       5.709   0.821  -3.431  1.00  0.00    -0.0128  C
ATOM     50 C24  CHE L   1       6.573   1.492  -1.323  1.00  0.00    -0.0128  C
ATOM     51 H45  CHE L   1       6.023   1.783  -3.853  1.00  0.00    +0.0391  H
ATOM     52 H46  CHE L   1       6.518   0.097  -3.591  1.00  0.00    +0.0391  H
ATOM     53 H47  CHE L   1       4.848   0.502  -4.025  1.00  0.00    +0.0391  H
ATOM     54 H48  CHE L   1       6.359   1.763  -0.283  1.00  0.00    +0.0391  H
ATOM     55 H49  CHE L   1       7.403   0.774  -1.339  1.00  0.00    +0.0391  H
ATOM     56 H50  CHE L   1       6.915   2.418  -1.801  1.00  0.00    +0.0391  H
ENDBRANCH 36 48
ENDBRANCH 27 33
ENDBRANCH 21 23
ENDBRANCH 9 19
TORSDOF 4
