ROOT
ATOM      1  C7  EUB L   1      -1.153  -0.543   0.477  1.00  0.00    +0.0102  C
ATOM      2  C8  EUB L   1      -1.717   0.777   1.044  1.00  0.00    -0.0438  C
ATOM      3  C9  EUB L   1      -3.136   1.043   0.557  1.00  0.00    -0.0523  C
ATOM      4 C10  EUB L   1      -3.195   1.203  -0.962  1.00  0.00    -0.0507  C
ATOM      5 C11  EUB L   1      -2.133   0.394  -1.707  1.00  0.00    -0.0263  C
ATOM      6 C12  EUB L   1      -1.719  -0.860  -0.939  1.00  0.00    +0.0620  C
ATOM      7 O13  EUB L   1      -0.831  -1.633  -1.739  1.00  0.00    -0.3912 OA
ATOM      8 H22  EUB L   1      -1.540  -1.356   1.110  1.00  0.00    +0.0374  H
ATOM      9 H23  EUB L   1      -1.703   0.741   2.141  1.00  0.00    +0.0272  H
ATOM     10 H24  EUB L   1      -1.084   1.627   0.759  1.00  0.00    +0.0272  H
ATOM     11 H25  EUB L   1      -3.540   1.942   1.036  1.00  0.00    +0.0265  H
ATOM     12 H26  EUB L   1      -3.784   0.211   0.862  1.00  0.00    +0.0265  H
ATOM     13 H27  EUB L   1      -3.079   2.261  -1.228  1.00  0.00    +0.0266  H
ATOM     14 H28  EUB L   1      -4.194   0.911  -1.307  1.00  0.00    +0.0266  H
ATOM     15 H29  EUB L   1      -1.256   1.025  -1.890  1.00  0.00    +0.0290  H
ATOM     16 H30  EUB L   1      -2.501   0.126  -2.705  1.00  0.00    +0.0290  H
ATOM     17 H31  EUB L   1      -2.623  -1.471  -0.812  1.00  0.00    +0.0599  H
ATOM     18 H32  EUB L   1      -0.547  -2.399  -1.210  1.00  0.00    +0.2098 HD
ENDROOT
BRANCH 1 22
ATOM     19  C3  EUB L   1       3.161  -0.594   1.032  1.00  0.00    +0.0634  A
ATOM     20  C4  EUB L   1       2.306  -1.204   1.958  1.00  0.00    -0.0435  A
ATOM     21  C5  EUB L   1       0.923  -1.185   1.767  1.00  0.00    -0.0570  A
ATOM     22  C6  EUB L   1       0.363  -0.563   0.643  1.00  0.00    -0.0412  A
ATOM     23 C14  EUB L   1       1.226   0.057  -0.274  1.00  0.00    -0.0453  A
ATOM     24 C15  EUB L   1       2.623   0.048  -0.096  1.00  0.00    +0.0724  A
ATOM     25 H20  EUB L   1       2.712  -1.699   2.840  1.00  0.00    +0.0631  H
ATOM     26 H21  EUB L   1       0.285  -1.661   2.510  1.00  0.00    +0.0621  H
ATOM     27 H33  EUB L   1       0.812   0.552  -1.153  1.00  0.00    +0.0626  H
BRANCH 19 29
ATOM     28  N1  EUB L   1       5.718  -0.686   1.473  1.00  0.00    -0.1909 NA
ATOM     29  C2  EUB L   1       4.577  -0.641   1.270  1.00  0.00    +0.0997  C
ENDBRANCH 19 29
BRANCH 24 30
ATOM     30 C16  EUB L   1       3.521   0.718  -1.108  1.00  0.00    +0.4186  C
ATOM     31 F17  EUB L   1       4.283   1.700  -0.555  1.00  0.00    -0.1659  F
ATOM     32 F18  EUB L   1       2.841   1.312  -2.128  1.00  0.00    -0.1659  F
ATOM     33 F19  EUB L   1       4.384  -0.153  -1.696  1.00  0.00    -0.1659  F
ENDBRANCH 24 30
ENDBRANCH 1 22
TORSDOF 3
