ROOT
ATOM      1 C11  CHE L   1       0.361  -1.684   0.697  1.00  0.00    +0.0486  A
ATOM      2 C12  CHE L   1       1.289  -0.657   0.437  1.00  0.00    -0.0410  A
ATOM      3 C13  CHE L   1       2.481  -0.911  -0.258  1.00  0.00    -0.0152  A
ATOM      4 C24  CHE L   1       2.728  -2.224  -0.684  1.00  0.00    -0.0300  A
ATOM      5 C25  CHE L   1       1.810  -3.247  -0.421  1.00  0.00    +0.0505  A
ATOM      6 N26  CHE L   1       2.099  -4.545  -0.869  1.00  0.00    -0.3221  N
ATOM      7 C27  CHE L   1       1.273  -5.617  -0.676  1.00  0.00    +0.2492  A
ATOM      8 O28  CHE L   1       1.548  -6.740  -1.081  1.00  0.00    -0.2679 OA
ATOM      9 C29  CHE L   1       0.011  -5.357   0.051  1.00  0.00    +0.0034  A
ATOM     10 C30  CHE L   1      -0.297  -4.131   0.493  1.00  0.00    -0.0468  A
ATOM     11 C31  CHE L   1       0.615  -2.998   0.275  1.00  0.00    +0.0109  A
ATOM     12 H45  CHE L   1       1.080   0.353   0.790  1.00  0.00    +0.0631  H
ATOM     13 H52  CHE L   1       3.651  -2.452  -1.215  1.00  0.00    +0.0644  H
ATOM     14 H53  CHE L   1       2.958  -4.740  -1.365  1.00  0.00    +0.1689 HD
ATOM     15 H54  CHE L   1      -0.640  -6.208   0.205  1.00  0.00    +0.0672  H
ATOM     16 H55  CHE L   1      -1.227  -3.970   1.028  1.00  0.00    +0.0626  H
ENDROOT
BRANCH 1 18
ATOM     17  N8  CHE L   1      -1.591  -0.283   0.922  1.00  0.00    -0.3478  N
ATOM     18  C9  CHE L   1      -0.869  -1.330   1.447  1.00  0.00    +0.2529  C
ATOM     19 O10  CHE L   1      -1.179  -1.943   2.460  1.00  0.00    -0.2676 OA
ATOM     20 H44  CHE L   1      -1.208   0.254   0.153  1.00  0.00    +0.1630 HD
BRANCH 17 21
ATOM     21  C7  CHE L   1      -2.697   0.305   1.644  1.00  0.00    +0.0491  C
ATOM     22 H42  CHE L   1      -3.131  -0.423   2.336  1.00  0.00    +0.0538  H
ATOM     23 H43  CHE L   1      -2.295   1.109   2.271  1.00  0.00    +0.0538  H
BRANCH 21 29
ATOM     24  C1  CHE L   1      -6.423   2.834  -2.032  1.00  0.00    -0.0244  C
ATOM     25  C2  CHE L   1      -5.514   2.096  -1.099  1.00  0.00    +0.0162  A
ATOM     26  C3  CHE L   1      -5.770   0.867  -0.624  1.00  0.00    -0.0393  A
ATOM     27  C4  CHE L   1      -4.848   0.207   0.289  1.00  0.00    -0.0388  A
ATOM     28  C5  CHE L   1      -5.273  -1.164   0.740  1.00  0.00    -0.0392  C
ATOM     29  C6  CHE L   1      -3.704   0.824   0.663  1.00  0.00    +0.0389  A
ATOM     30 C32  CHE L   1      -3.406   2.183   0.105  1.00  0.00    +0.2540  A
ATOM     31 O33  CHE L   1      -2.362   2.776   0.360  1.00  0.00    -0.2675 OA
ATOM     32 N34  CHE L   1      -4.352   2.726  -0.727  1.00  0.00    -0.3262  N
ATOM     33 H35  CHE L   1      -5.900   3.077  -2.963  1.00  0.00    +0.0292  H
ATOM     34 H36  CHE L   1      -6.765   3.767  -1.572  1.00  0.00    +0.0292  H
ATOM     35 H37  CHE L   1      -7.309   2.244  -2.290  1.00  0.00    +0.0292  H
ATOM     36 H38  CHE L   1      -6.681   0.343  -0.904  1.00  0.00    +0.0637  H
ATOM     37 H39  CHE L   1      -4.469  -1.722   1.226  1.00  0.00    +0.0278  H
ATOM     38 H40  CHE L   1      -6.107  -1.088   1.445  1.00  0.00    +0.0278  H
ATOM     39 H41  CHE L   1      -5.596  -1.769  -0.114  1.00  0.00    +0.0278  H
ATOM     40 H56  CHE L   1      -4.134   3.647  -1.089  1.00  0.00    +0.1686 HD
ENDBRANCH 21 29
ENDBRANCH 17 21
ENDBRANCH 1 18
BRANCH 3 41
ATOM     41 C14  CHE L   1       3.444   0.169  -0.529  1.00  0.00    -0.0171  A
ATOM     42 C15  CHE L   1       3.903   0.421  -1.828  1.00  0.00    -0.0520  A
ATOM     43 C16  CHE L   1       4.813   1.455  -2.081  1.00  0.00    -0.0352  A
ATOM     44 C17  CHE L   1       5.296   2.267  -1.067  1.00  0.00    +0.0710  A
ATOM     45 N18  CHE L   1       6.167   3.248  -1.362  1.00  0.00    -0.2550 NA
ATOM     46 C19  CHE L   1       6.617   4.022  -0.349  1.00  0.00    +0.0283  A
ATOM     47 C20  CHE L   1       6.236   3.863   0.969  1.00  0.00    -0.0430  A
ATOM     48 C21  CHE L   1       5.335   2.848   1.270  1.00  0.00    -0.0511  A
ATOM     49 C22  CHE L   1       4.845   2.026   0.246  1.00  0.00    +0.0010  A
ATOM     50 C23  CHE L   1       3.930   0.986   0.503  1.00  0.00    -0.0448  A
ATOM     51 H46  CHE L   1       3.547  -0.175  -2.666  1.00  0.00    +0.0624  H
ATOM     52 H47  CHE L   1       5.149   1.634  -3.100  1.00  0.00    +0.0639  H
ATOM     53 H48  CHE L   1       7.317   4.800  -0.640  1.00  0.00    +0.0830  H
ATOM     54 H49  CHE L   1       6.628   4.513   1.744  1.00  0.00    +0.0633  H
ATOM     55 H50  CHE L   1       5.018   2.704   2.300  1.00  0.00    +0.0625  H
ATOM     56 H51  CHE L   1       3.601   0.809   1.527  1.00  0.00    +0.0630  H
ENDBRANCH 3 41
TORSDOF 4
