ROOT
ATOM      1  C4  CHE L   1      -1.977  -0.482  -0.050  1.00  0.00    +0.0453  A
ATOM      2  C5  CHE L   1      -2.476  -1.685  -0.584  1.00  0.00    +0.0048  A
ATOM      3  C6  CHE L   1      -1.814  -2.251  -1.667  1.00  0.00    +0.1379  A
ATOM      4  O7  CHE L   1      -2.174  -3.403  -2.298  1.00  0.00    -0.4599 OA
ATOM      5  C8  CHE L   1      -1.267  -3.614  -3.294  1.00  0.00    +0.1033  A
ATOM      6  C9  CHE L   1      -1.474  -4.811  -4.132  1.00  0.00    -0.0063  C
ATOM      7 C10  CHE L   1      -0.327  -2.607  -3.299  1.00  0.00    -0.0124  A
ATOM      8 C11  CHE L   1      -0.676  -1.715  -2.245  1.00  0.00    +0.0331  A
ATOM      9 C12  CHE L   1      -0.157  -0.526  -1.697  1.00  0.00    +0.0545  A
ATOM     10 C27  CHE L   1      -0.830   0.122  -0.622  1.00  0.00    -0.0142  A
ATOM     11 C28  CHE L   1      -0.315   1.444  -0.108  1.00  0.00    -0.0370  C
ATOM     12 H40  CHE L   1      -3.346  -2.170  -0.157  1.00  0.00    +0.0675  H
ATOM     13 H41  CHE L   1      -0.539  -5.118  -4.614  1.00  0.00    +0.0308  H
ATOM     14 H42  CHE L   1      -1.837  -5.653  -3.530  1.00  0.00    +0.0308  H
ATOM     15 H43  CHE L   1      -2.209  -4.601  -4.917  1.00  0.00    +0.0308  H
ATOM     16 H44  CHE L   1       0.503  -2.511  -3.985  1.00  0.00    +0.0658  H
ATOM     17 H56  CHE L   1      -1.122   2.070   0.280  1.00  0.00    +0.0278  H
ATOM     18 H57  CHE L   1       0.418   1.281   0.688  1.00  0.00    +0.0278  H
ATOM     19 H58  CHE L   1       0.144   2.032  -0.909  1.00  0.00    +0.0278  H
ENDROOT
BRANCH 1 20
ATOM     20  N3  CHE L   1      -2.667   0.057   1.046  1.00  0.00    -0.3674  N
BRANCH 20 22
ATOM     21  C1  CHE L   1      -2.718  -0.529   3.433  1.00  0.00    -0.0475  C
ATOM     22  C2  CHE L   1      -1.936   0.138   2.312  1.00  0.00    +0.0161  C
ATOM     23 H35  CHE L   1      -2.113  -0.563   4.344  1.00  0.00    +0.0247  H
ATOM     24 H36  CHE L   1      -2.993  -1.554   3.166  1.00  0.00    +0.0247  H
ATOM     25 H37  CHE L   1      -3.635   0.018   3.666  1.00  0.00    +0.0247  H
ATOM     26 H38  CHE L   1      -0.970  -0.382   2.239  1.00  0.00    +0.0485  H
ATOM     27 H39  CHE L   1      -1.704   1.176   2.574  1.00  0.00    +0.0485  H
ENDBRANCH 20 22
BRANCH 20 28
ATOM     28 C29  CHE L   1      -3.825   0.918   0.715  1.00  0.00    +0.0341  C
ATOM     29 C30  CHE L   1      -3.857   2.250   1.475  1.00  0.00    -0.0089  C
ATOM     30 C31  CHE L   1      -5.105   3.032   1.093  1.00  0.00    +0.0495  C
ATOM     31 O32  CHE L   1      -6.276   2.268   1.375  1.00  0.00    -0.3796 OA
ATOM     32 C33  CHE L   1      -6.327   1.061   0.615  1.00  0.00    +0.0495  C
ATOM     33 C34  CHE L   1      -5.142   0.163   0.940  1.00  0.00    -0.0089  C
ATOM     34 H59  CHE L   1      -3.776   1.173  -0.355  1.00  0.00    +0.0525  H
ATOM     35 H60  CHE L   1      -3.884   2.069   2.556  1.00  0.00    +0.0307  H
ATOM     36 H61  CHE L   1      -2.967   2.851   1.267  1.00  0.00    +0.0307  H
ATOM     37 H62  CHE L   1      -5.160   3.955   1.681  1.00  0.00    +0.0560  H
ATOM     38 H63  CHE L   1      -5.097   3.315   0.033  1.00  0.00    +0.0560  H
ATOM     39 H64  CHE L   1      -6.361   1.305  -0.453  1.00  0.00    +0.0560  H
ATOM     40 H65  CHE L   1      -7.262   0.551   0.866  1.00  0.00    +0.0560  H
ATOM     41 H66  CHE L   1      -5.215  -0.156   1.985  1.00  0.00    +0.0307  H
ATOM     42 H67  CHE L   1      -5.190  -0.741   0.323  1.00  0.00    +0.0307  H
ENDBRANCH 20 28
ENDBRANCH 1 20
BRANCH 9 43
ATOM     43 C13  CHE L   1       1.099  -0.002  -2.283  1.00  0.00    +0.2533  C
ATOM     44 O14  CHE L   1       1.190   0.205  -3.485  1.00  0.00    -0.2676 OA
ATOM     45 N15  CHE L   1       2.127   0.169  -1.386  1.00  0.00    -0.3477  N
ATOM     46 H45  CHE L   1       2.009  -0.135  -0.425  1.00  0.00    +0.1630 HD
BRANCH 45 47
ATOM     47 C16  CHE L   1       3.434   0.618  -1.816  1.00  0.00    +0.0524  C
ATOM     48 H46  CHE L   1       3.279   1.569  -2.337  1.00  0.00    +0.0539  H
ATOM     49 H47  CHE L   1       3.828  -0.104  -2.540  1.00  0.00    +0.0539  H
BRANCH 47 50
ATOM     50 C17  CHE L   1       4.389   0.778  -0.670  1.00  0.00    +0.0774  A
ATOM     51 C18  CHE L   1       4.327   0.242   0.567  1.00  0.00    +0.1317  A
ATOM     52 C21  CHE L   1       5.277   0.585   1.603  1.00  0.00    -0.0005  A
ATOM     53 C22  CHE L   1       6.295   1.414   1.339  1.00  0.00    +0.0195  A
ATOM     54 C23  CHE L   1       7.318   1.831   2.349  1.00  0.00    -0.0242  C
ATOM     55 N24  CHE L   1       6.425   1.916   0.067  1.00  0.00    -0.3260  N
ATOM     56 C25  CHE L   1       5.567   1.650  -0.972  1.00  0.00    +0.2573  A
ATOM     57 O26  CHE L   1       5.770   2.103  -2.091  1.00  0.00    -0.2674 OA
ATOM     58 H51  CHE L   1       5.124   0.175   2.595  1.00  0.00    +0.0671  H
ATOM     59 H52  CHE L   1       8.323   1.576   2.002  1.00  0.00    +0.0292  H
ATOM     60 H53  CHE L   1       7.163   1.339   3.315  1.00  0.00    +0.0292  H
ATOM     61 H54  CHE L   1       7.271   2.912   2.514  1.00  0.00    +0.0292  H
ATOM     62 H55  CHE L   1       7.205   2.517  -0.164  1.00  0.00    +0.1686 HD
BRANCH 51 63
ATOM     63 O19  CHE L   1       3.303  -0.588   0.981  1.00  0.00    -0.4945 OA
ATOM     64 C20  CHE L   1       3.675  -1.962   0.827  1.00  0.00    +0.0788  C
ATOM     65 H48  CHE L   1       4.547  -2.213   1.438  1.00  0.00    +0.0660  H
ATOM     66 H49  CHE L   1       2.833  -2.577   1.156  1.00  0.00    +0.0660  H
ATOM     67 H50  CHE L   1       3.876  -2.194  -0.225  1.00  0.00    +0.0660  H
ENDBRANCH 51 63
ENDBRANCH 47 50
ENDBRANCH 45 47
ENDBRANCH 9 43
TORSDOF 7
