ROOT
ATOM      1  C6  EUB L   1       2.059  -0.119   0.187  1.00  0.00    +0.0099  A
ATOM      2  C7  EUB L   1       2.897   0.645   0.911  1.00  0.00    +0.0160  A
ATOM      3  N8  EUB L   1       4.273   0.487   0.905  1.00  0.00    -0.3171  N
ATOM      4  C9  EUB L   1       5.074   1.382   1.727  1.00  0.00    +0.0147  C
ATOM      5 C10  EUB L   1       4.912  -0.486   0.135  1.00  0.00    +0.2603  A
ATOM      6 O11  EUB L   1       6.127  -0.662   0.107  1.00  0.00    -0.2670 OA
ATOM      7 C12  EUB L   1       4.035  -1.345  -0.686  1.00  0.00    +0.0653  A
ATOM      8 C13  EUB L   1       4.576  -2.338  -1.490  1.00  0.00    +0.0405  A
ATOM      9 N14  EUB L   1       3.831  -3.160  -2.268  1.00  0.00    -0.2625 NA
ATOM     10 C15  EUB L   1       2.495  -2.970  -2.242  1.00  0.00    +0.0282  A
ATOM     11 C16  EUB L   1       1.866  -2.004  -1.469  1.00  0.00    -0.0351  A
ATOM     12 C17  EUB L   1       2.650  -1.169  -0.667  1.00  0.00    -0.0006  A
ATOM     13 H31  EUB L   1       2.520   1.443   1.549  1.00  0.00    +0.0816  H
ATOM     14 H32  EUB L   1       6.142   1.159   1.653  1.00  0.00    +0.0457  H
ATOM     15 H33  EUB L   1       4.766   1.278   2.772  1.00  0.00    +0.0457  H
ATOM     16 H34  EUB L   1       4.908   2.412   1.397  1.00  0.00    +0.0457  H
ATOM     17 H35  EUB L   1       5.648  -2.508  -1.534  1.00  0.00    +0.0837  H
ATOM     18 H36  EUB L   1       1.920  -3.636  -2.880  1.00  0.00    +0.0830  H
ATOM     19 H37  EUB L   1       0.786  -1.912  -1.508  1.00  0.00    +0.0639  H
ENDROOT
BRANCH 1 22
ATOM     20  C3  EUB L   1      -1.474  -0.227   1.519  1.00  0.00    +0.1253  A
ATOM     21  C4  EUB L   1      -0.106  -0.458   1.349  1.00  0.00    -0.0084  A
ATOM     22  C5  EUB L   1       0.612   0.175   0.319  1.00  0.00    +0.0292  A
ATOM     23 C18  EUB L   1      -0.042   1.055  -0.559  1.00  0.00    +0.1284  A
ATOM     24 C21  EUB L   1      -1.407   1.289  -0.384  1.00  0.00    -0.0115  A
ATOM     25 C22  EUB L   1      -2.137   0.649   0.641  1.00  0.00    +0.0117  A
ATOM     26 H30  EUB L   1       0.436  -1.131   2.007  1.00  0.00    +0.0661  H
ATOM     27 H41  EUB L   1      -1.951   1.965  -1.038  1.00  0.00    +0.0658  H
BRANCH 20 29
ATOM     28  C1  EUB L   1      -1.606  -1.710   3.388  1.00  0.00    +0.0788  C
ATOM     29  O2  EUB L   1      -2.240  -0.799   2.499  1.00  0.00    -0.4948 OA
ATOM     30 H27  EUB L   1      -0.825  -1.211   3.972  1.00  0.00    +0.0660  H
ATOM     31 H28  EUB L   1      -1.208  -2.576   2.849  1.00  0.00    +0.0660  H
ATOM     32 H29  EUB L   1      -2.363  -2.074   4.089  1.00  0.00    +0.0660  H
ENDBRANCH 20 29
BRANCH 23 33
ATOM     33 O19  EUB L   1       0.729   1.628  -1.536  1.00  0.00    -0.4945 OA
ATOM     34 C20  EUB L   1       0.072   2.449  -2.493  1.00  0.00    +0.0788  C
ATOM     35 H38  EUB L   1      -0.692   1.886  -3.040  1.00  0.00    +0.0660  H
ATOM     36 H39  EUB L   1      -0.354   3.340  -2.020  1.00  0.00    +0.0660  H
ATOM     37 H40  EUB L   1       0.821   2.783  -3.217  1.00  0.00    +0.0660  H
ENDBRANCH 23 33
BRANCH 25 38
ATOM     38 C23  EUB L   1      -3.618   0.960   0.786  1.00  0.00    +0.0270  C
ATOM     39 H42  EUB L   1      -3.673   2.009   1.107  1.00  0.00    +0.0477  H
ATOM     40 H43  EUB L   1      -4.084   0.373   1.587  1.00  0.00    +0.0477  H
BRANCH 38 41
ATOM     41 N24  EUB L   1      -4.377   0.788  -0.472  1.00  0.00    -0.3041 NA
ATOM     42 C25  EUB L   1      -5.711   1.376  -0.331  1.00  0.00    -0.0127  C
ATOM     43 C26  EUB L   1      -4.498  -0.631  -0.819  1.00  0.00    -0.0127  C
ATOM     44 H44  EUB L   1      -6.274   1.282  -1.266  1.00  0.00    +0.0391  H
ATOM     45 H45  EUB L   1      -6.291   0.904   0.471  1.00  0.00    +0.0391  H
ATOM     46 H46  EUB L   1      -5.638   2.449  -0.119  1.00  0.00    +0.0391  H
ATOM     47 H47  EUB L   1      -3.516  -1.083  -0.998  1.00  0.00    +0.0391  H
ATOM     48 H48  EUB L   1      -5.063  -0.749  -1.751  1.00  0.00    +0.0391  H
ATOM     49 H49  EUB L   1      -5.005  -1.208  -0.036  1.00  0.00    +0.0391  H
ENDBRANCH 38 41
ENDBRANCH 25 38
ENDBRANCH 1 22
TORSDOF 5
