ROOT
ATOM      1 N21  MCU L   1      -2.124   2.628   1.412  1.00  0.00    -0.2349  N
ATOM      2 N22  MCU L   1      -2.789   2.957   2.540  1.00  0.00    -0.0641 NA
ATOM      3 N23  MCU L   1      -2.560   4.242   2.777  1.00  0.00    -0.1295 NA
ATOM      4 C24  MCU L   1      -1.771   4.728   1.769  1.00  0.00    +0.1127  A
ATOM      5 C25  MCU L   1      -1.263   6.016   1.545  1.00  0.00    -0.0324  A
ATOM      6 C26  MCU L   1      -0.475   6.236   0.408  1.00  0.00    -0.0596  A
ATOM      7 C27  MCU L   1      -0.203   5.198  -0.487  1.00  0.00    -0.0596  A
ATOM      8 C28  MCU L   1      -0.706   3.908  -0.280  1.00  0.00    -0.0345  A
ATOM      9 C29  MCU L   1      -1.485   3.711   0.864  1.00  0.00    +0.0895  A
ATOM     10 H60  MCU L   1      -1.478   6.817   2.244  1.00  0.00    +0.0640  H
ATOM     11 H61  MCU L   1      -0.068   7.228   0.221  1.00  0.00    +0.0618  H
ATOM     12 H62  MCU L   1       0.422   5.390  -1.357  1.00  0.00    +0.0618  H
ATOM     13 H63  MCU L   1      -0.476   3.105  -0.973  1.00  0.00    +0.0639  H
ENDROOT
BRANCH 1 14
ATOM     14 C20  MCU L   1      -2.276   1.296   0.854  1.00  0.00    +0.1225  C
ATOM     15 H58  MCU L   1      -2.931   0.730   1.523  1.00  0.00    +0.0608  H
ATOM     16 H59  MCU L   1      -2.759   1.431  -0.118  1.00  0.00    +0.0608  H
BRANCH 14 18
ATOM     17 N17  MCU L   1      -0.861  -0.428  -0.259  1.00  0.00    -0.2945  N
ATOM     18 C18  MCU L   1      -0.948   0.571   0.721  1.00  0.00    +0.2503  C
ATOM     19 O19  MCU L   1       0.028   0.899   1.400  1.00  0.00    -0.2706 OA
BRANCH 17 20
ATOM     20  C7  MCU L   1       0.465  -1.013  -0.572  1.00  0.00    +0.1407  C
ATOM     21 H47  MCU L   1       0.344  -1.667  -1.450  1.00  0.00    +0.0678  H
BRANCH 20 25
ATOM     22  C3  MCU L   1       1.812  -3.720   2.566  1.00  0.00    +0.1201  A
ATOM     23  C4  MCU L   1       1.051  -4.179   1.491  1.00  0.00    -0.0196  A
ATOM     24  C5  MCU L   1       0.631  -3.300   0.488  1.00  0.00    -0.0527  A
ATOM     25  C6  MCU L   1       0.978  -1.939   0.530  1.00  0.00    -0.0154  A
ATOM     26 C40  MCU L   1       1.744  -1.492   1.616  1.00  0.00    -0.0527  A
ATOM     27 C41  MCU L   1       2.160  -2.373   2.623  1.00  0.00    -0.0196  A
ATOM     28 H45  MCU L   1       0.766  -5.226   1.443  1.00  0.00    +0.0654  H
ATOM     29 H46  MCU L   1       0.015  -3.692  -0.320  1.00  0.00    +0.0622  H
ATOM     30 H72  MCU L   1       2.011  -0.440   1.712  1.00  0.00    +0.0622  H
ATOM     31 H73  MCU L   1       2.741  -1.965   3.445  1.00  0.00    +0.0654  H
BRANCH 22 33
ATOM     32  C1  MCU L   1       2.803  -4.234   4.664  1.00  0.00    +0.0788  C
ATOM     33  O2  MCU L   1       2.144  -4.678   3.483  1.00  0.00    -0.4951 OA
ATOM     34 H42  MCU L   1       2.940  -5.102   5.317  1.00  0.00    +0.0660  H
ATOM     35 H43  MCU L   1       2.196  -3.502   5.207  1.00  0.00    +0.0660  H
ATOM     36 H44  MCU L   1       3.794  -3.832   4.432  1.00  0.00    +0.0660  H
ENDBRANCH 22 33
ENDBRANCH 20 25
BRANCH 20 37
ATOM     37  C8  MCU L   1       1.419   0.068  -1.141  1.00  0.00    +0.2486  C
ATOM     38  O9  MCU L   1       0.990   1.068  -1.724  1.00  0.00    -0.2706 OA
ATOM     39 N10  MCU L   1       2.771  -0.204  -1.087  1.00  0.00    -0.3515  N
ATOM     40 H48  MCU L   1       3.092  -1.073  -0.679  1.00  0.00    +0.1625 HD
BRANCH 39 41
ATOM     41 C11  MCU L   1       3.760   0.684  -1.670  1.00  0.00    +0.0444  C
ATOM     42 H49  MCU L   1       4.725   0.168  -1.629  1.00  0.00    +0.0511  H
ATOM     43 H50  MCU L   1       3.524   0.806  -2.734  1.00  0.00    +0.0511  H
BRANCH 41 44
ATOM     44 C12  MCU L   1       3.862   2.071  -1.010  1.00  0.00    +0.0760  C
ATOM     45 C13  MCU L   1       4.198   2.027   0.476  1.00  0.00    -0.0229  C
ATOM     46 C14  MCU L   1       5.703   2.131   0.484  1.00  0.00    -0.0271  C
ATOM     47 C15  MCU L   1       5.950   3.077  -0.667  1.00  0.00    +0.0482  C
ATOM     48 O16  MCU L   1       4.946   2.786  -1.649  1.00  0.00    -0.3748 OA
ATOM     49 H51  MCU L   1       2.940   2.637  -1.174  1.00  0.00    +0.0613  H
ATOM     50 H52  MCU L   1       3.774   2.911   0.970  1.00  0.00    +0.0291  H
ATOM     51 H53  MCU L   1       3.821   1.147   1.002  1.00  0.00    +0.0291  H
ATOM     52 H54  MCU L   1       6.113   2.491   1.432  1.00  0.00    +0.0288  H
ATOM     53 H55  MCU L   1       6.145   1.151   0.267  1.00  0.00    +0.0288  H
ATOM     54 H56  MCU L   1       6.944   2.955  -1.106  1.00  0.00    +0.0560  H
ATOM     55 H57  MCU L   1       5.826   4.121  -0.362  1.00  0.00    +0.0560  H
ENDBRANCH 41 44
ENDBRANCH 39 41
ENDBRANCH 20 37
ENDBRANCH 17 20
BRANCH 17 56
ATOM     56 C30  MCU L   1      -1.990  -1.020  -0.883  1.00  0.00    +0.0459  A
ATOM     57 C31  MCU L   1      -3.032  -1.554  -0.121  1.00  0.00    -0.0361  A
ATOM     58 C32  MCU L   1      -4.130  -2.160  -0.745  1.00  0.00    -0.0364  A
ATOM     59 C33  MCU L   1      -4.203  -2.240  -2.137  1.00  0.00    +0.0418  A
ATOM     60 C38  MCU L   1      -3.156  -1.705  -2.897  1.00  0.00    -0.0364  A
ATOM     61 C39  MCU L   1      -2.054  -1.108  -2.277  1.00  0.00    -0.0361  A
ATOM     62 H64  MCU L   1      -2.992  -1.553   0.967  1.00  0.00    +0.0639  H
ATOM     63 H65  MCU L   1      -4.908  -2.570  -0.108  1.00  0.00    +0.0639  H
ATOM     64 H70  MCU L   1      -3.181  -1.739  -3.985  1.00  0.00    +0.0639  H
ATOM     65 H71  MCU L   1      -1.269  -0.679  -2.898  1.00  0.00    +0.0639  H
BRANCH 59 66
ATOM     66 N34  MCU L   1      -5.272  -2.833  -2.839  1.00  0.00    -0.3264  N
ATOM     67 C35  MCU L   1      -6.388  -3.453  -2.306  1.00  0.00    +0.2221  C
ATOM     68 C36  MCU L   1      -7.313  -3.974  -3.376  1.00  0.00    +0.0146  C
ATOM     69 O37  MCU L   1      -6.645  -3.615  -1.119  1.00  0.00    -0.2732 OA
ATOM     70 H66  MCU L   1      -5.204  -2.818  -3.849  1.00  0.00    +0.1686 HD
ATOM     71 H67  MCU L   1      -8.283  -4.221  -2.934  1.00  0.00    +0.0325  H
ATOM     72 H68  MCU L   1      -7.470  -3.214  -4.147  1.00  0.00    +0.0325  H
ATOM     73 H69  MCU L   1      -6.882  -4.874  -3.824  1.00  0.00    +0.0325  H
ENDBRANCH 59 66
ENDBRANCH 17 56
ENDBRANCH 14 18
ENDBRANCH 1 14
TORSDOF 10
