ROOT
ATOM      1  C9  CHE L   1      -1.083  -0.096  -0.189  1.00  0.00    +0.0917  A
ATOM      2 C10  CHE L   1      -0.681   0.847  -1.107  1.00  0.00    +0.0386  A
ATOM      3 N11  CHE L   1       0.686   0.862  -1.027  1.00  0.00    -0.2902  N
ATOM      4 C12  CHE L   1       1.604   1.631  -1.716  1.00  0.00    +0.0161  A
ATOM      5 C13  CHE L   1       2.908   1.459  -1.468  1.00  0.00    -0.0028  A
ATOM      6 C14  CHE L   1       3.287   0.419  -0.435  1.00  0.00    +0.1348  A
ATOM      7 N20  CHE L   1       2.382  -0.296   0.196  1.00  0.00    -0.1947 NA
ATOM      8 C21  CHE L   1       1.067  -0.085  -0.088  1.00  0.00    +0.2372  A
ATOM      9 N22  CHE L   1       0.003  -0.679   0.416  1.00  0.00    -0.2103 NA
ATOM     10 H34  CHE L   1      -1.222   1.487  -1.789  1.00  0.00    +0.0835  H
ATOM     11 H35  CHE L   1       1.225   2.344  -2.435  1.00  0.00    +0.0815  H
ATOM     12 H36  CHE L   1       3.678   2.020  -1.977  1.00  0.00    +0.0669  H
ENDROOT
BRANCH 1 16
ATOM     13  C3  CHE L   1      -5.047  -1.521   0.567  1.00  0.00    +0.1378  A
ATOM     14  C4  CHE L   1      -4.805  -0.143   0.544  1.00  0.00    -0.0127  A
ATOM     15  C5  CHE L   1      -3.509   0.376   0.322  1.00  0.00    -0.0094  A
ATOM     16  C8  CHE L   1      -2.446  -0.515   0.084  1.00  0.00    +0.0087  A
ATOM     17 C23  CHE L   1      -2.691  -1.898   0.126  1.00  0.00    -0.0312  A
ATOM     18 C24  CHE L   1      -3.977  -2.401   0.362  1.00  0.00    +0.0939  A
ATOM     19 H30  CHE L   1      -5.613   0.565   0.708  1.00  0.00    +0.0658  H
ATOM     20 H45  CHE L   1      -1.862  -2.590  -0.030  1.00  0.00    +0.0638  H
BRANCH 13 22
ATOM     21  C1  CHE L   1      -7.371  -1.229   1.057  1.00  0.00    +0.0788  C
ATOM     22  O2  CHE L   1      -6.275  -2.091   0.778  1.00  0.00    -0.4938 OA
ATOM     23 H27  CHE L   1      -7.195  -0.648   1.968  1.00  0.00    +0.0660  H
ATOM     24 H28  CHE L   1      -8.253  -1.855   1.225  1.00  0.00    +0.0660  H
ATOM     25 H29  CHE L   1      -7.585  -0.576   0.204  1.00  0.00    +0.0660  H
ENDBRANCH 13 22
BRANCH 15 26
ATOM     26  C6  CHE L   1      -3.340   1.876   0.347  1.00  0.00    +0.0700  C
ATOM     27  O7  CHE L   1      -3.606   2.438  -0.932  1.00  0.00    -0.3904 OA
ATOM     28 H31  CHE L   1      -2.342   2.179   0.676  1.00  0.00    +0.0607  H
ATOM     29 H32  CHE L   1      -4.041   2.321   1.063  1.00  0.00    +0.0607  H
ATOM     30 H33  CHE L   1      -3.986   1.743  -1.496  1.00  0.00    +0.2098 HD
ENDBRANCH 15 26
BRANCH 18 31
ATOM     31 C25  CHE L   1      -4.170  -3.824   0.380  1.00  0.00    +0.1028  C
ATOM     32 N26  CHE L   1      -4.297  -4.978   0.381  1.00  0.00    -0.1907 NA
ENDBRANCH 18 31
ENDBRANCH 1 16
BRANCH 6 33
ATOM     33 N15  CHE L   1       4.620   0.197  -0.136  1.00  0.00    -0.3557  N
ATOM     34 C16  CHE L   1       5.046  -0.839   0.804  1.00  0.00    +0.0200  C
ATOM     35 C17  CHE L   1       6.556  -0.915   0.614  1.00  0.00    -0.0337  C
ATOM     36 C18  CHE L   1       6.921   0.514   0.255  1.00  0.00    -0.0337  C
ATOM     37 C19  CHE L   1       5.760   0.950  -0.634  1.00  0.00    +0.0200  C
ATOM     38 H37  CHE L   1       4.581  -1.808   0.595  1.00  0.00    +0.0488  H
ATOM     39 H38  CHE L   1       4.799  -0.535   1.828  1.00  0.00    +0.0488  H
ATOM     40 H39  CHE L   1       6.799  -1.584  -0.221  1.00  0.00    +0.0283  H
ATOM     41 H40  CHE L   1       7.074  -1.277   1.506  1.00  0.00    +0.0283  H
ATOM     42 H41  CHE L   1       6.952   1.131   1.162  1.00  0.00    +0.0283  H
ATOM     43 H42  CHE L   1       7.888   0.595  -0.248  1.00  0.00    +0.0283  H
ATOM     44 H43  CHE L   1       5.954   0.685  -1.679  1.00  0.00    +0.0488  H
ATOM     45 H44  CHE L   1       5.610   2.032  -0.560  1.00  0.00    +0.0488  H
ENDBRANCH 6 33
TORSDOF 5
