ROOT
ATOM      1 C10  WH0 L   1       2.069  -0.896  -0.968  1.00  0.00    -0.0071  A
ATOM      2 C11  WH0 L   1       0.949  -1.459  -0.341  1.00  0.00    -0.0136  A
ATOM      3 C12  WH0 L   1       0.006  -0.649   0.324  1.00  0.00    +0.1265  A
ATOM      4 C13  WH0 L   1       0.224   0.747   0.397  1.00  0.00    +0.0189  A
ATOM      5 C14  WH0 L   1       1.346   1.302  -0.244  1.00  0.00    -0.0176  A
ATOM      6 C15  WH0 L   1       2.259   0.493  -0.919  1.00  0.00    +0.1272  A
ATOM      7 F16  WH0 L   1       3.336   1.068  -1.511  1.00  0.00    -0.2052  F
ATOM      8 C17  WH0 L   1      -0.716   1.653   1.175  1.00  0.00    +0.0544  C
ATOM      9 C18  WH0 L   1       0.004   2.298   2.365  1.00  0.00    -0.0404  C
ATOM     10 N19  WH0 L   1      -1.273   2.691   0.299  1.00  0.00    -0.3630  N
ATOM     11 C20  WH0 L   1      -2.568   2.566  -0.309  1.00  0.00    +0.1313  A
ATOM     12 C21  WH0 L   1      -3.187   3.689  -0.907  1.00  0.00    -0.0014  A
ATOM     13 C22  WH0 L   1      -4.485   3.554  -1.427  1.00  0.00    +0.0349  A
ATOM     14 N23  WH0 L   1      -5.078   2.338  -1.345  1.00  0.00    -0.2209  N
ATOM     15 N24  WH0 L   1      -6.305   2.013  -1.718  1.00  0.00    -0.1726 NA
ATOM     16 C25  WH0 L   1      -6.473   0.700  -1.409  1.00  0.00    +0.0643  A
ATOM     17 C26  WH0 L   1      -5.306   0.198  -0.837  1.00  0.00    +0.1027  A
ATOM     18 C27  WH0 L   1      -4.463   1.280  -0.814  1.00  0.00    +0.1699  A
ATOM     19 N28  WH0 L   1      -3.224   1.369  -0.278  1.00  0.00    -0.2104 NA
ATOM     20 C29  WH0 L   1      -5.024  -1.160  -0.351  1.00  0.00    +0.2573  C
ATOM     21 O30  WH0 L   1      -5.966  -1.909   0.023  1.00  0.00    -0.2674 OA
ATOM     22 N31  WH0 L   1      -3.671  -1.623  -0.311  1.00  0.00    -0.3483  N
ATOM     23 C32  WH0 L   1      -3.178  -2.495   0.754  1.00  0.00    +0.0551  C
ATOM     24 C33  WH0 L   1      -1.642  -2.527   0.735  1.00  0.00    +0.1146  C
ATOM     25 C34  WH0 L   1      -1.098  -3.428   1.843  1.00  0.00    -0.0261  C
ATOM     26 O35  WH0 L   1      -1.152  -1.192   0.910  1.00  0.00    -0.4870 OA
ATOM     27 H43  WH0 L   1       0.833  -2.533  -0.366  1.00  0.00    +0.0658  H
ATOM     28 H44  WH0 L   1       1.522   2.370  -0.213  1.00  0.00    +0.0651  H
ATOM     29 H45  WH0 L   1      -1.549   1.067   1.617  1.00  0.00    +0.0571  H
ATOM     30 H46  WH0 L   1      -0.715   2.905   2.954  1.00  0.00    +0.0253  H
ATOM     31 H47  WH0 L   1       0.424   1.511   3.028  1.00  0.00    +0.0253  H
ATOM     32 H48  WH0 L   1       0.828   2.961   2.026  1.00  0.00    +0.0253  H
ATOM     33 H49  WH0 L   1      -0.711   3.554   0.113  1.00  0.00    +0.1616 HD
ATOM     34 H50  WH0 L   1      -2.686   4.648  -0.940  1.00  0.00    +0.0669  H
ATOM     35 H51  WH0 L   1      -5.002   4.398  -1.865  1.00  0.00    +0.0832  H
ATOM     36 H52  WH0 L   1      -7.381   0.145  -1.596  1.00  0.00    +0.0856  H
ATOM     37 H53  WH0 L   1      -2.994  -1.203  -0.989  1.00  0.00    +0.1628 HD
ATOM     38 H54  WH0 L   1      -3.527  -2.109   1.737  1.00  0.00    +0.0522  H
ATOM     39 H55  WH0 L   1      -3.584  -3.518   0.605  1.00  0.00    +0.0522  H
ATOM     40 H56  WH0 L   1      -1.340  -2.934  -0.255  1.00  0.00    +0.0748  H
ATOM     41 H57  WH0 L   1      -1.416  -3.052   2.839  1.00  0.00    +0.0266  H
ATOM     42 H58  WH0 L   1       0.011  -3.445   1.808  1.00  0.00    +0.0266  H
ATOM     43 H59  WH0 L   1      -1.470  -4.466   1.710  1.00  0.00    +0.0266  H
ENDROOT
BRANCH 1 44
ATOM     44  C9  WH0 L   1       3.086  -1.794  -1.632  1.00  0.00    -0.0073  C
ATOM     45 H41  WH0 L   1       2.559  -2.611  -2.172  1.00  0.00    +0.0331  H
ATOM     46 H42  WH0 L   1       3.668  -1.237  -2.396  1.00  0.00    +0.0331  H
BRANCH 44 47
ATOM     47  C8  WH0 L   1       4.037  -2.417  -0.602  1.00  0.00    +0.0225  C
ATOM     48 H39  WH0 L   1       4.756  -3.093  -1.112  1.00  0.00    +0.0489  H
ATOM     49 H40  WH0 L   1       3.450  -3.034   0.113  1.00  0.00    +0.0489  H
BRANCH 47 52
ATOM     50  C5  WH0 L   1       5.820  -0.611  -0.463  1.00  0.00    +0.2618  C
ATOM     51  O6  WH0 L   1       6.286  -0.957  -1.583  1.00  0.00    -0.2669 OA
ATOM     52  N7  WH0 L   1       4.764  -1.383   0.134  1.00  0.00    -0.3511  N
ATOM     53 H38  WH0 L   1       4.504  -1.223   1.133  1.00  0.00    +0.1627 HD
BRANCH 50 55
ATOM     54  C1  WH0 L   1       7.433   1.232  -0.246  1.00  0.00    -0.0760  C
ATOM     55  C2  WH0 L   1       6.359   0.590   0.222  1.00  0.00    +0.1085  C
ATOM     56 H36  WH0 L   1       7.954   0.890  -1.131  1.00  0.00    +0.0549  H
ATOM     57 H37  WH0 L   1       7.815   2.115   0.253  1.00  0.00    +0.0549  H
BRANCH 55 58
ATOM     58  C3  WH0 L   1       5.705   1.103   1.401  1.00  0.00    +0.1040  C
ATOM     59  N4  WH0 L   1       5.179   1.515   2.347  1.00  0.00    -0.1907 NA
ENDBRANCH 55 58
ENDBRANCH 50 55
ENDBRANCH 47 52
ENDBRANCH 44 47
ENDBRANCH 1 44
TORSDOF 5
