ROOT
ATOM      1 C10  CHE L   1       3.461  -0.193  -0.192  1.00  0.00    -0.0322  A
ATOM      2 C11  CHE L   1       4.353   0.785  -0.658  1.00  0.00    -0.0573  A
ATOM      3 C12  CHE L   1       5.698   0.758  -0.283  1.00  0.00    -0.0601  A
ATOM      4 C13  CHE L   1       6.164  -0.244   0.567  1.00  0.00    -0.0434  A
ATOM      5 C14  CHE L   1       5.282  -1.213   1.041  1.00  0.00    +0.0413  A
ATOM      6 CL15 CHE L   1       5.855  -2.446   2.097  1.00  0.00    -0.0835 Cl
ATOM      7 C16  CHE L   1       3.937  -1.192   0.670  1.00  0.00    -0.0390  A
ATOM      8 H32  CHE L   1       3.995   1.579  -1.312  1.00  0.00    +0.0621  H
ATOM      9 H33  CHE L   1       6.379   1.521  -0.650  1.00  0.00    +0.0618  H
ATOM     10 H34  CHE L   1       7.210  -0.262   0.858  1.00  0.00    +0.0632  H
ATOM     11 H35  CHE L   1       3.261  -1.953   1.051  1.00  0.00    +0.0635  H
ENDROOT
BRANCH 1 12
ATOM     12  C9  CHE L   1       2.000  -0.148  -0.588  1.00  0.00    +0.0216  C
ATOM     13 H30  CHE L   1       1.959   0.039  -1.667  1.00  0.00    +0.0474  H
ATOM     14 H31  CHE L   1       1.557  -1.134  -0.410  1.00  0.00    +0.0474  H
BRANCH 12 15
ATOM     15  N8  CHE L   1       1.310   0.909   0.146  1.00  0.00    -0.3069 NA
ATOM     16 H29  CHE L   1       1.630   0.901   1.114  1.00  0.00    +0.1226 HD
BRANCH 15 19
ATOM     17  N5  CHE L   1      -1.684  -0.465  -0.461  1.00  0.00    -0.2981 NA
ATOM     18  C6  CHE L   1      -0.833  -0.247   0.737  1.00  0.00    +0.0156  C
ATOM     19  C7  CHE L   1      -0.157   0.946   0.031  1.00  0.00    +0.0334  C
ATOM     20 C17  CHE L   1      -0.779   0.399  -1.267  1.00  0.00    +0.0156  C
ATOM     21 H26  CHE L   1      -0.197  -1.112   0.957  1.00  0.00    +0.0442  H
ATOM     22 H27  CHE L   1      -1.351   0.011   1.668  1.00  0.00    +0.0442  H
ATOM     23 H28  CHE L   1      -0.578   1.912   0.336  1.00  0.00    +0.0486  H
ATOM     24 H36  CHE L   1      -1.266   1.160  -1.890  1.00  0.00    +0.0442  H
ATOM     25 H37  CHE L   1      -0.153  -0.197  -1.937  1.00  0.00    +0.0442  H
BRANCH 17 26
ATOM     26  C4  CHE L   1      -2.999   0.187  -0.300  1.00  0.00    +0.0115  C
ATOM     27 H24  CHE L   1      -3.420   0.348  -1.300  1.00  0.00    +0.0439  H
ATOM     28 H25  CHE L   1      -2.923   1.173   0.178  1.00  0.00    +0.0439  H
BRANCH 26 29
ATOM     29  C3  CHE L   1      -3.970  -0.710   0.499  1.00  0.00    +0.0084  C
ATOM     30 H22  CHE L   1      -4.104  -1.674  -0.008  1.00  0.00    +0.0436  H
ATOM     31 H23  CHE L   1      -3.524  -0.935   1.475  1.00  0.00    +0.0436  H
BRANCH 29 33
ATOM     32  C1  CHE L   1      -6.090   0.026  -0.442  1.00  0.00    -0.0157  C
ATOM     33  N2  CHE L   1      -5.278  -0.090   0.764  1.00  0.00    -0.3178 NA
ATOM     34 H18  CHE L   1      -7.079   0.413  -0.173  1.00  0.00    +0.0388  H
ATOM     35 H19  CHE L   1      -6.233  -0.944  -0.928  1.00  0.00    +0.0388  H
ATOM     36 H20  CHE L   1      -5.655   0.730  -1.157  1.00  0.00    +0.0388  H
ATOM     37 H21  CHE L   1      -5.778  -0.678   1.432  1.00  0.00    +0.1217 HD
ENDBRANCH 29 33
ENDBRANCH 26 29
ENDBRANCH 17 26
ENDBRANCH 15 19
ENDBRANCH 12 15
ENDBRANCH 1 12
TORSDOF 6
