ROOT
ATOM      1  C6  CHE L   1      -4.755   0.387   0.422  1.00  0.00    -0.0229  A
ATOM      2  C7  CHE L   1      -5.032   1.657   0.931  1.00  0.00    -0.0545  A
ATOM      3  C8  CHE L   1      -3.991   2.537   1.213  1.00  0.00    -0.0593  A
ATOM      4  C9  CHE L   1      -2.665   2.162   0.976  1.00  0.00    -0.0380  A
ATOM      5 C10  CHE L   1      -2.350   0.906   0.447  1.00  0.00    +0.0469  A
ATOM      6 C28  CHE L   1      -3.417   0.030   0.174  1.00  0.00    -0.0309  A
ATOM      7 H32  CHE L   1      -6.054   1.983   1.105  1.00  0.00    +0.0623  H
ATOM      8 H33  CHE L   1      -4.205   3.524   1.616  1.00  0.00    +0.0618  H
ATOM      9 H34  CHE L   1      -1.895   2.885   1.228  1.00  0.00    +0.0638  H
ATOM     10 H46  CHE L   1      -3.228  -0.954  -0.244  1.00  0.00    +0.0644  H
ENDROOT
BRANCH 1 12
ATOM     11  C4  CHE L   1      -6.950  -0.718   0.783  1.00  0.00    +0.0229  C
ATOM     12  C5  CHE L   1      -5.817  -0.569   0.079  1.00  0.00    -0.0478  C
ATOM     13 H30  CHE L   1      -7.176  -0.143   1.672  1.00  0.00    +0.0689  H
ATOM     14 H31  CHE L   1      -5.633  -1.193  -0.795  1.00  0.00    +0.0626  H
BRANCH 11 16
ATOM     15  O1  CHE L   1      -7.868  -2.478  -0.583  1.00  0.00    -0.2458 OA
ATOM     16  C2  CHE L   1      -7.941  -1.714   0.360  1.00  0.00    +0.3296  C
ATOM     17  O3  CHE L   1      -9.004  -1.684   1.179  1.00  0.00    -0.4775 OA
ATOM     18 H29  CHE L   1      -9.600  -2.371   0.814  1.00  0.00    +0.2954 HD
ENDBRANCH 11 16
ENDBRANCH 1 12
BRANCH 5 19
ATOM     19 N11  CHE L   1      -1.006   0.507   0.197  1.00  0.00    -0.2923  N
ATOM     20 C12  CHE L   1      -0.661  -0.805  -0.289  1.00  0.00    +0.0462  C
ATOM     21 C13  CHE L   1       0.850  -0.865  -0.208  1.00  0.00    +0.0462  C
ATOM     22 N14  CHE L   1       1.268   0.509  -0.085  1.00  0.00    -0.2923  N
ATOM     23 C26  CHE L   1       0.153   1.329   0.244  1.00  0.00    +0.3302  C
ATOM     24 O27  CHE L   1       0.188   2.519   0.519  1.00  0.00    -0.2463 OA
ATOM     25 H35  CHE L   1      -1.116  -1.595   0.317  1.00  0.00    +0.0511  H
ATOM     26 H36  CHE L   1      -0.997  -0.892  -1.329  1.00  0.00    +0.0511  H
ATOM     27 H37  CHE L   1       1.168  -1.409   0.689  1.00  0.00    +0.0511  H
ATOM     28 H38  CHE L   1       1.271  -1.338  -1.100  1.00  0.00    +0.0511  H
BRANCH 22 29
ATOM     29 C15  CHE L   1       2.632   0.908  -0.155  1.00  0.00    +0.0469  A
ATOM     30 C16  CHE L   1       3.014   2.254  -0.116  1.00  0.00    -0.0380  A
ATOM     31 C17  CHE L   1       4.358   2.629  -0.203  1.00  0.00    -0.0593  A
ATOM     32 C18  CHE L   1       5.351   1.662  -0.326  1.00  0.00    -0.0545  A
ATOM     33 C19  CHE L   1       5.009   0.309  -0.354  1.00  0.00    -0.0229  A
ATOM     34 C25  CHE L   1       3.652  -0.054  -0.284  1.00  0.00    -0.0309  A
ATOM     35 H39  CHE L   1       2.283   3.052  -0.036  1.00  0.00    +0.0638  H
ATOM     36 H40  CHE L   1       4.624   3.684  -0.176  1.00  0.00    +0.0618  H
ATOM     37 H41  CHE L   1       6.391   1.975  -0.391  1.00  0.00    +0.0623  H
ATOM     38 H45  CHE L   1       3.406  -1.110  -0.333  1.00  0.00    +0.0644  H
BRANCH 33 39
ATOM     39 C20  CHE L   1       6.077  -0.688  -0.505  1.00  0.00    -0.0478  C
ATOM     40 C21  CHE L   1       6.114  -1.840   0.181  1.00  0.00    +0.0229  C
ATOM     41 H42  CHE L   1       6.872  -0.427  -1.201  1.00  0.00    +0.0626  H
ATOM     42 H43  CHE L   1       5.349  -2.109   0.901  1.00  0.00    +0.0689  H
BRANCH 40 43
ATOM     43 C22  CHE L   1       7.185  -2.836   0.043  1.00  0.00    +0.3296  C
ATOM     44 O23  CHE L   1       7.214  -3.897   0.642  1.00  0.00    -0.2458 OA
ATOM     45 O24  CHE L   1       8.154  -2.484  -0.814  1.00  0.00    -0.4775 OA
ATOM     46 H44  CHE L   1       8.779  -3.238  -0.785  1.00  0.00    +0.2954 HD
ENDBRANCH 40 43
ENDBRANCH 33 39
ENDBRANCH 22 29
ENDBRANCH 5 19
TORSDOF 6
