ROOT
ATOM      1  F1  SEL L   1       7.607   0.720   2.445  1.00  0.00    -0.2055  F
ATOM      2  C2  SEL L   1       6.352   0.622   1.986  1.00  0.00    +0.1235  A
ATOM      3  C3  SEL L   1       5.941   1.411   0.925  1.00  0.00    -0.0245  A
ATOM      4  C4  SEL L   1       4.629   1.295   0.443  1.00  0.00    -0.0358  A
ATOM      5  C5  SEL L   1       3.703   0.394   1.002  1.00  0.00    +0.0381  A
ATOM      6 C29  SEL L   1       4.160  -0.376   2.086  1.00  0.00    -0.0358  A
ATOM      7 C30  SEL L   1       5.471  -0.269   2.575  1.00  0.00    -0.0245  A
ATOM      8 H31  SEL L   1       6.635   2.111   0.474  1.00  0.00    +0.0647  H
ATOM      9 H32  SEL L   1       4.337   1.949  -0.377  1.00  0.00    +0.0639  H
ATOM     10 H55  SEL L   1       3.511  -1.102   2.565  1.00  0.00    +0.0639  H
ATOM     11 H56  SEL L   1       5.804  -0.884   3.401  1.00  0.00    +0.0647  H
ENDROOT
BRANCH 5 12
ATOM     12  N6  SEL L   1       2.410   0.276   0.510  1.00  0.00    -0.3681  N
ATOM     13  C7  SEL L   1       2.057   0.718  -0.850  1.00  0.00    +0.0314  C
ATOM     14  C8  SEL L   1       0.945  -0.176  -1.449  1.00  0.00    +0.0175  C
ATOM     15  N9  SEL L   1      -0.303  -0.209  -0.657  1.00  0.00    -0.2857 NA
ATOM     16 C27  SEL L   1      -0.055   0.031   0.777  1.00  0.00    +0.0175  C
ATOM     17 C28  SEL L   1       1.346  -0.388   1.289  1.00  0.00    +0.0314  C
ATOM     18 H33  SEL L   1       1.728   1.765  -0.819  1.00  0.00    +0.0500  H
ATOM     19 H34  SEL L   1       2.918   0.652  -1.528  1.00  0.00    +0.0500  H
ATOM     20 H35  SEL L   1       0.710   0.184  -2.460  1.00  0.00    +0.0444  H
ATOM     21 H36  SEL L   1       1.371  -1.185  -1.562  1.00  0.00    +0.0444  H
ATOM     22 H51  SEL L   1      -0.130   1.117   0.920  1.00  0.00    +0.0444  H
ATOM     23 H52  SEL L   1      -0.841  -0.382   1.417  1.00  0.00    +0.0444  H
ATOM     24 H53  SEL L   1       1.466  -1.476   1.228  1.00  0.00    +0.0500  H
ATOM     25 H54  SEL L   1       1.408  -0.092   2.344  1.00  0.00    +0.0500  H
BRANCH 15 26
ATOM     26 C10  SEL L   1      -1.189  -1.345  -1.009  1.00  0.00    +0.0978  C
ATOM     27 H37  SEL L   1      -1.059  -1.547  -2.088  1.00  0.00    +0.0594  H
BRANCH 26 28
ATOM     28 C11  SEL L   1      -0.828  -2.662  -0.283  1.00  0.00    -0.0200  A
ATOM     29 C12  SEL L   1      -1.416  -3.019   0.946  1.00  0.00    -0.0385  A
ATOM     30 C13  SEL L   1      -1.020  -4.198   1.575  1.00  0.00    +0.0279  A
ATOM     31 N14  SEL L   1      -0.069  -5.028   1.093  1.00  0.00    -0.2632 NA
ATOM     32 C15  SEL L   1       0.482  -4.689  -0.097  1.00  0.00    +0.0279  A
ATOM     33 C16  SEL L   1       0.136  -3.545  -0.814  1.00  0.00    -0.0385  A
ATOM     34 H38  SEL L   1      -2.190  -2.403   1.415  1.00  0.00    +0.0636  H
ATOM     35 H39  SEL L   1      -1.477  -4.502   2.516  1.00  0.00    +0.0829  H
ATOM     36 H40  SEL L   1       1.238  -5.380  -0.466  1.00  0.00    +0.0829  H
ATOM     37 H41  SEL L   1       0.624  -3.354  -1.767  1.00  0.00    +0.0636  H
ENDBRANCH 26 28
BRANCH 26 38
ATOM     38 C17  SEL L   1      -2.670  -0.984  -0.926  1.00  0.00    +0.1732  A
ATOM     39 N18  SEL L   1      -3.661  -1.828  -0.638  1.00  0.00    -0.1114 NA
ATOM     40 N19  SEL L   1      -4.817  -1.113  -0.684  1.00  0.00    -0.0230 NA
ATOM     41 N20  SEL L   1      -4.585   0.145  -1.013  1.00  0.00    -0.0436 NA
ATOM     42 N21  SEL L   1      -3.247   0.248  -1.180  1.00  0.00    -0.2244  N
BRANCH 42 43
ATOM     43 C22  SEL L   1      -2.655   1.545  -1.474  1.00  0.00    +0.0564  C
ATOM     44 C23  SEL L   1      -2.562   2.434  -0.226  1.00  0.00    -0.0304  C
ATOM     45 C24  SEL L   1      -3.898   3.171  -0.160  1.00  0.00    -0.0511  C
ATOM     46 C25  SEL L   1      -4.299   3.388  -1.629  1.00  0.00    -0.0511  C
ATOM     47 C26  SEL L   1      -3.452   2.421  -2.467  1.00  0.00    -0.0304  C
ATOM     48 H42  SEL L   1      -1.674   1.353  -1.911  1.00  0.00    +0.0546  H
ATOM     49 H43  SEL L   1      -2.375   1.874   0.700  1.00  0.00    +0.0286  H
ATOM     50 H44  SEL L   1      -1.757   3.165  -0.353  1.00  0.00    +0.0286  H
ATOM     51 H45  SEL L   1      -4.652   2.541   0.351  1.00  0.00    +0.0266  H
ATOM     52 H46  SEL L   1      -3.830   4.125   0.404  1.00  0.00    +0.0266  H
ATOM     53 H47  SEL L   1      -4.105   4.431  -1.940  1.00  0.00    +0.0266  H
ATOM     54 H48  SEL L   1      -5.364   3.199  -1.772  1.00  0.00    +0.0266  H
ATOM     55 H49  SEL L   1      -4.056   1.832  -3.170  1.00  0.00    +0.0286  H
ATOM     56 H50  SEL L   1      -2.755   3.019  -3.075  1.00  0.00    +0.0286  H
ENDBRANCH 42 43
ENDBRANCH 26 38
ENDBRANCH 15 26
ENDBRANCH 5 12
TORSDOF 5
