ROOT
ATOM      1 C15  SEL L   1       3.395  -0.340  -0.265  1.00  0.00    -0.0440  A
ATOM      2 C16  SEL L   1       4.693  -0.082  -0.740  1.00  0.00    -0.0556  A
ATOM      3 C17  SEL L   1       5.774  -0.859  -0.319  1.00  0.00    -0.0262  A
ATOM      4 C18  SEL L   1       5.563  -1.897   0.578  1.00  0.00    +0.1234  A
ATOM      5 F19  SEL L   1       6.600  -2.643   0.981  1.00  0.00    -0.2055  F
ATOM      6 C20  SEL L   1       4.291  -2.173   1.062  1.00  0.00    -0.0262  A
ATOM      7 C21  SEL L   1       3.209  -1.397   0.642  1.00  0.00    -0.0556  A
ATOM      8 H38  SEL L   1       4.874   0.729  -1.442  1.00  0.00    +0.0621  H
ATOM      9 H39  SEL L   1       6.776  -0.660  -0.685  1.00  0.00    +0.0646  H
ATOM     10 H40  SEL L   1       4.149  -2.990   1.762  1.00  0.00    +0.0646  H
ATOM     11 H41  SEL L   1       2.221  -1.631   1.028  1.00  0.00    +0.0621  H
ENDROOT
BRANCH 1 15
ATOM     12 N11  SEL L   1      -0.755   0.602  -0.297  1.00  0.00    -0.2928 NA
ATOM     13 C12  SEL L   1       0.216   0.738   0.809  1.00  0.00    +0.0001  C
ATOM     14 C13  SEL L   1       1.570   1.319   0.401  1.00  0.00    -0.0333  C
ATOM     15 C14  SEL L   1       2.237   0.525  -0.737  1.00  0.00    -0.0135  C
ATOM     16 C22  SEL L   1       1.209  -0.281  -1.546  1.00  0.00    -0.0333  C
ATOM     17 C23  SEL L   1      -0.114   0.477  -1.615  1.00  0.00    +0.0001  C
ATOM     18 H33  SEL L   1       0.368  -0.263   1.229  1.00  0.00    +0.0427  H
ATOM     19 H34  SEL L   1      -0.180   1.335   1.639  1.00  0.00    +0.0427  H
ATOM     20 H35  SEL L   1       2.225   1.393   1.277  1.00  0.00    +0.0283  H
ATOM     21 H36  SEL L   1       1.407   2.351   0.060  1.00  0.00    +0.0283  H
ATOM     22 H37  SEL L   1       2.655   1.279  -1.420  1.00  0.00    +0.0350  H
ATOM     23 H42  SEL L   1       1.034  -1.275  -1.114  1.00  0.00    +0.0283  H
ATOM     24 H43  SEL L   1       1.595  -0.455  -2.558  1.00  0.00    +0.0283  H
ATOM     25 H44  SEL L   1       0.075   1.466  -2.054  1.00  0.00    +0.0427  H
ATOM     26 H45  SEL L   1      -0.785  -0.064  -2.292  1.00  0.00    +0.0427  H
BRANCH 12 28
ATOM     27  C1  SEL L   1      -2.742   1.651  -1.491  1.00  0.00    -0.0423  C
ATOM     28  C2  SEL L   1      -1.827   1.628  -0.253  1.00  0.00    +0.0692  C
ATOM     29 H24  SEL L   1      -3.581   2.342  -1.346  1.00  0.00    +0.0249  H
ATOM     30 H25  SEL L   1      -3.163   0.664  -1.708  1.00  0.00    +0.0249  H
ATOM     31 H26  SEL L   1      -2.203   1.987  -2.382  1.00  0.00    +0.0249  H
ATOM     32 H27  SEL L   1      -1.342   2.614  -0.219  1.00  0.00    +0.0541  H
BRANCH 28 33
ATOM     33  C3  SEL L   1      -2.679   1.511   0.976  1.00  0.00    +0.1684  A
ATOM     34  N4  SEL L   1      -2.937   2.481   1.837  1.00  0.00    -0.1118 NA
ATOM     35  N5  SEL L   1      -3.736   1.934   2.810  1.00  0.00    -0.0230 NA
ATOM     36  N6  SEL L   1      -3.973   0.654   2.567  1.00  0.00    -0.0436 NA
ATOM     37  N7  SEL L   1      -3.327   0.386   1.422  1.00  0.00    -0.2246  N
BRANCH 37 38
ATOM     38  C8  SEL L   1      -3.329  -0.958   0.803  1.00  0.00    +0.0565  C
ATOM     39  C9  SEL L   1      -4.348  -1.363  -0.237  1.00  0.00    -0.0284  C
ATOM     40 C10  SEL L   1      -4.384  -1.997   1.119  1.00  0.00    -0.0284  C
ATOM     41 H28  SEL L   1      -2.322  -1.348   0.690  1.00  0.00    +0.0546  H
ATOM     42 H29  SEL L   1      -5.143  -0.668  -0.486  1.00  0.00    +0.0286  H
ATOM     43 H30  SEL L   1      -4.006  -1.964  -1.072  1.00  0.00    +0.0286  H
ATOM     44 H31  SEL L   1      -5.198  -1.729   1.784  1.00  0.00    +0.0286  H
ATOM     45 H32  SEL L   1      -4.065  -3.029   1.211  1.00  0.00    +0.0286  H
ENDBRANCH 37 38
ENDBRANCH 28 33
ENDBRANCH 12 28
ENDBRANCH 1 15
TORSDOF 4
