ROOT
ATOM      1  C4  CHE L   1       1.392  -0.306   0.384  1.00  0.00    +0.0453  A
ATOM      2  C5  CHE L   1       1.190  -1.685   0.587  1.00  0.00    +0.0047  A
ATOM      3  C6  CHE L   1      -0.109  -2.176   0.521  1.00  0.00    +0.1375  A
ATOM      4  O7  CHE L   1      -0.466  -3.475   0.722  1.00  0.00    -0.4628 OA
ATOM      5  C8  CHE L   1      -1.816  -3.538   0.602  1.00  0.00    +0.0932  A
ATOM      6  C9  CHE L   1      -2.333  -2.294   0.326  1.00  0.00    -0.0154  A
ATOM      7 C10  CHE L   1      -1.227  -1.399   0.257  1.00  0.00    +0.0328  A
ATOM      8 C11  CHE L   1      -1.025  -0.023   0.022  1.00  0.00    +0.0545  A
ATOM      9 C26  CHE L   1       0.290   0.524   0.064  1.00  0.00    -0.0142  A
ATOM     10 C27  CHE L   1       0.489   1.987  -0.256  1.00  0.00    -0.0370  C
ATOM     11 H42  CHE L   1       2.011  -2.347   0.832  1.00  0.00    +0.0675  H
ATOM     12 H43  CHE L   1      -2.253  -4.517   0.741  1.00  0.00    +0.1030  H
ATOM     13 H44  CHE L   1      -3.380  -2.064   0.191  1.00  0.00    +0.0655  H
ATOM     14 H56  CHE L   1      -0.153   2.299  -1.087  1.00  0.00    +0.0278  H
ATOM     15 H57  CHE L   1       0.268   2.600   0.623  1.00  0.00    +0.0278  H
ATOM     16 H58  CHE L   1       1.510   2.201  -0.586  1.00  0.00    +0.0278  H
ENDROOT
BRANCH 1 17
ATOM     17  N3  CHE L   1       2.686   0.201   0.519  1.00  0.00    -0.3675  N
BRANCH 17 19
ATOM     18  C1  CHE L   1       2.871   0.301   2.997  1.00  0.00    -0.0475  C
ATOM     19  C2  CHE L   1       2.990   1.050   1.676  1.00  0.00    +0.0161  C
ATOM     20 H37  CHE L   1       3.528  -0.573   3.027  1.00  0.00    +0.0247  H
ATOM     21 H38  CHE L   1       3.148   0.959   3.827  1.00  0.00    +0.0247  H
ATOM     22 H39  CHE L   1       1.846  -0.042   3.175  1.00  0.00    +0.0247  H
ATOM     23 H40  CHE L   1       4.004   1.453   1.599  1.00  0.00    +0.0485  H
ATOM     24 H41  CHE L   1       2.328   1.922   1.703  1.00  0.00    +0.0485  H
ENDBRANCH 17 19
BRANCH 17 25
ATOM     25 C28  CHE L   1       3.719  -0.260  -0.425  1.00  0.00    +0.0331  C
ATOM     26 C29  CHE L   1       4.278   0.924  -1.227  1.00  0.00    -0.0147  C
ATOM     27 C30  CHE L   1       5.626   0.571  -1.836  1.00  0.00    +0.0230  C
ATOM     28 N31  CHE L   1       6.612   0.247  -0.806  1.00  0.00    -0.3423  N
ATOM     29 C32  CHE L   1       7.945   0.551  -1.050  1.00  0.00    +0.2204  C
ATOM     30 C33  CHE L   1       8.923   0.296   0.070  1.00  0.00    +0.0145  C
ATOM     31 O34  CHE L   1       8.339   1.006  -2.124  1.00  0.00    -0.2733 OA
ATOM     32 C35  CHE L   1       6.120  -0.348   0.438  1.00  0.00    +0.0230  C
ATOM     33 C36  CHE L   1       4.810  -1.104   0.250  1.00  0.00    -0.0147  C
ATOM     34 H59  CHE L   1       3.243  -0.923  -1.163  1.00  0.00    +0.0525  H
ATOM     35 H60  CHE L   1       4.395   1.814  -0.597  1.00  0.00    +0.0302  H
ATOM     36 H61  CHE L   1       3.569   1.199  -2.017  1.00  0.00    +0.0302  H
ATOM     37 H62  CHE L   1       5.539  -0.305  -2.490  1.00  0.00    +0.0489  H
ATOM     38 H63  CHE L   1       5.983   1.404  -2.451  1.00  0.00    +0.0489  H
ATOM     39 H64  CHE L   1       8.563   0.733   1.005  1.00  0.00    +0.0325  H
ATOM     40 H65  CHE L   1       9.880   0.769  -0.173  1.00  0.00    +0.0325  H
ATOM     41 H66  CHE L   1       9.085  -0.778   0.185  1.00  0.00    +0.0325  H
ATOM     42 H67  CHE L   1       6.873  -1.031   0.842  1.00  0.00    +0.0489  H
ATOM     43 H68  CHE L   1       6.003   0.466   1.160  1.00  0.00    +0.0489  H
ATOM     44 H69  CHE L   1       5.018  -1.966  -0.399  1.00  0.00    +0.0302  H
ATOM     45 H70  CHE L   1       4.474  -1.525   1.202  1.00  0.00    +0.0302  H
ENDBRANCH 17 25
ENDBRANCH 1 17
BRANCH 8 46
ATOM     46 C12  CHE L   1      -2.198   0.845  -0.239  1.00  0.00    +0.2533  C
ATOM     47 O13  CHE L   1      -2.377   1.855   0.430  1.00  0.00    -0.2676 OA
ATOM     48 N14  CHE L   1      -3.016   0.440  -1.265  1.00  0.00    -0.3477  N
ATOM     49 H45  CHE L   1      -2.829  -0.427  -1.758  1.00  0.00    +0.1630 HD
BRANCH 48 50
ATOM     50 C15  CHE L   1      -4.228   1.145  -1.625  1.00  0.00    +0.0524  C
ATOM     51 H46  CHE L   1      -4.307   1.127  -2.717  1.00  0.00    +0.0539  H
ATOM     52 H47  CHE L   1      -4.144   2.194  -1.323  1.00  0.00    +0.0539  H
BRANCH 50 53
ATOM     53 C16  CHE L   1      -5.412   0.471  -1.008  1.00  0.00    +0.0774  A
ATOM     54 C17  CHE L   1      -6.234   1.028  -0.101  1.00  0.00    +0.1317  A
ATOM     55 C20  CHE L   1      -7.415   0.344   0.381  1.00  0.00    -0.0005  A
ATOM     56 C21  CHE L   1      -7.700  -0.894  -0.047  1.00  0.00    +0.0195  A
ATOM     57 C22  CHE L   1      -8.900  -1.673   0.393  1.00  0.00    -0.0242  C
ATOM     58 N23  CHE L   1      -6.856  -1.496  -0.951  1.00  0.00    -0.3260  N
ATOM     59 C24  CHE L   1      -5.727  -0.911  -1.473  1.00  0.00    +0.2573  A
ATOM     60 O25  CHE L   1      -5.012  -1.510  -2.273  1.00  0.00    -0.2674 OA
ATOM     61 H51  CHE L   1      -8.062   0.868   1.076  1.00  0.00    +0.0671  H
ATOM     62 H52  CHE L   1      -9.546  -1.893  -0.463  1.00  0.00    +0.0292  H
ATOM     63 H53  CHE L   1      -9.495  -1.124   1.129  1.00  0.00    +0.0292  H
ATOM     64 H54  CHE L   1      -8.594  -2.620   0.849  1.00  0.00    +0.0292  H
ATOM     65 H55  CHE L   1      -7.057  -2.429  -1.289  1.00  0.00    +0.1686 HD
BRANCH 54 66
ATOM     66 O18  CHE L   1      -6.072   2.325   0.340  1.00  0.00    -0.4945 OA
ATOM     67 C19  CHE L   1      -5.511   2.361   1.653  1.00  0.00    +0.0788  C
ATOM     68 H48  CHE L   1      -6.280   2.133   2.400  1.00  0.00    +0.0660  H
ATOM     69 H49  CHE L   1      -4.670   1.667   1.761  1.00  0.00    +0.0660  H
ATOM     70 H50  CHE L   1      -5.148   3.376   1.837  1.00  0.00    +0.0660  H
ENDBRANCH 54 66
ENDBRANCH 50 53
ENDBRANCH 48 50
ENDBRANCH 8 46
TORSDOF 7
