ROOT
ATOM      1 C13  WH0 L   1      -2.581  -1.501  -0.506  1.00  0.00    -0.0133  A
ATOM      2 C14  WH0 L   1      -3.025  -2.580   0.294  1.00  0.00    -0.0519  A
ATOM      3 C15  WH0 L   1      -3.578  -3.726  -0.301  1.00  0.00    -0.0374  A
ATOM      4 C16  WH0 L   1      -3.684  -3.763  -1.690  1.00  0.00    +0.0454  A
ATOM      5 C17  WH0 L   1      -3.269  -2.707  -2.477  1.00  0.00    -0.0145  A
ATOM      6 C18  WH0 L   1      -2.703  -1.567  -1.908  1.00  0.00    -0.0483  A
ATOM      7 C19  WH0 L   1      -3.534  -2.985  -3.922  1.00  0.00    +0.0535  C
ATOM      8 C20  WH0 L   1      -4.133  -4.356  -3.810  1.00  0.00    +0.2296  C
ATOM      9 O21  WH0 L   1      -4.530  -5.034  -4.792  1.00  0.00    -0.2725 OA
ATOM     10 N22  WH0 L   1      -4.218  -4.820  -2.464  1.00  0.00    -0.3256  N
ATOM     11 H52  WH0 L   1      -2.932  -2.534   1.371  1.00  0.00    +0.0624  H
ATOM     12 H53  WH0 L   1      -3.913  -4.559   0.305  1.00  0.00    +0.0638  H
ATOM     13 H54  WH0 L   1      -2.381  -0.745  -2.536  1.00  0.00    +0.0627  H
ATOM     14 H55  WH0 L   1      -2.590  -3.004  -4.511  1.00  0.00    +0.0410  H
ATOM     15 H56  WH0 L   1      -4.273  -2.264  -4.335  1.00  0.00    +0.0410  H
ATOM     16 H57  WH0 L   1      -4.607  -5.728  -2.124  1.00  0.00    +0.1686 HD
ENDROOT
BRANCH 1 20
ATOM     17  C9  WH0 L   1       1.619   0.198  -0.673  1.00  0.00    +0.0472  A
ATOM     18 C10  WH0 L   1       0.359  -0.413  -0.793  1.00  0.00    -0.0141  A
ATOM     19 C11  WH0 L   1      -0.676   0.119  -0.027  1.00  0.00    +0.0806  A
ATOM     20 C12  WH0 L   1      -1.978  -0.314   0.120  1.00  0.00    +0.0353  A
ATOM     21 C23  WH0 L   1      -2.509   0.536   1.100  1.00  0.00    +0.1015  A
ATOM     22 N31  WH0 L   1      -1.560   1.419   1.493  1.00  0.00    -0.1627 NA
ATOM     23 N32  WH0 L   1      -0.467   1.157   0.795  1.00  0.00    -0.1987  N
ATOM     24 C33  WH0 L   1       0.751   1.755   0.914  1.00  0.00    +0.2286  A
ATOM     25 N40  WH0 L   1       1.787   1.256   0.180  1.00  0.00    -0.2173 NA
ATOM     26 H51  WH0 L   1       0.206  -1.273  -1.434  1.00  0.00    +0.0657  H
BRANCH 17 27
ATOM     27  C8  WH0 L   1       2.799  -0.332  -1.433  1.00  0.00    -0.0086  C
ATOM     28 H49  WH0 L   1       3.563   0.469  -1.522  1.00  0.00    +0.0329  H
ATOM     29 H50  WH0 L   1       2.483  -0.608  -2.463  1.00  0.00    +0.0329  H
BRANCH 27 30
ATOM     30  C7  WH0 L   1       3.395  -1.556  -0.726  1.00  0.00    -0.0301  C
ATOM     31 H47  WH0 L   1       3.661  -1.302   0.323  1.00  0.00    +0.0286  H
ATOM     32 H48  WH0 L   1       2.633  -2.365  -0.697  1.00  0.00    +0.0286  H
BRANCH 30 33
ATOM     33  C6  WH0 L   1       4.636  -2.087  -1.456  1.00  0.00    +0.0187  C
ATOM     34 H45  WH0 L   1       4.912  -3.075  -1.028  1.00  0.00    +0.0486  H
ATOM     35 H46  WH0 L   1       4.400  -2.235  -2.531  1.00  0.00    +0.0486  H
BRANCH 33 38
ATOM     36  C3  WH0 L   1       7.016  -1.436  -1.991  1.00  0.00    +0.2443  C
ATOM     37  O4  WH0 L   1       7.193  -2.541  -2.574  1.00  0.00    -0.2683 OA
ATOM     38  N5  WH0 L   1       5.773  -1.177  -1.320  1.00  0.00    -0.3525  N
ATOM     39 H44  WH0 L   1       5.692  -0.349  -0.686  1.00  0.00    +0.1626 HD
BRANCH 36 41
ATOM     40  C1  WH0 L   1       7.952   0.844  -1.741  1.00  0.00    -0.0936  C
ATOM     41  C2  WH0 L   1       8.117  -0.452  -2.006  1.00  0.00    -0.0047  C
ATOM     42 H41  WH0 L   1       6.985   1.266  -1.507  1.00  0.00    +0.0536  H
ATOM     43 H42  WH0 L   1       8.801   1.514  -1.795  1.00  0.00    +0.0536  H
ATOM     44 H43  WH0 L   1       9.104  -0.793  -2.293  1.00  0.00    +0.0666  H
ENDBRANCH 36 41
ENDBRANCH 33 38
ENDBRANCH 30 33
ENDBRANCH 27 30
ENDBRANCH 17 27
BRANCH 21 45
ATOM     45 C24  WH0 L   1      -3.876   0.523   1.675  1.00  0.00    +0.0029  A
ATOM     46 C25  WH0 L   1      -4.085   1.032   2.971  1.00  0.00    -0.0498  A
ATOM     47 C26  WH0 L   1      -5.364   1.030   3.536  1.00  0.00    -0.0258  A
ATOM     48 C27  WH0 L   1      -6.447   0.525   2.817  1.00  0.00    +0.1234  A
ATOM     49 F28  WH0 L   1      -7.687   0.520   3.368  1.00  0.00    -0.2055  F
ATOM     50 C29  WH0 L   1      -6.257   0.039   1.520  1.00  0.00    -0.0258  A
ATOM     51 C30  WH0 L   1      -4.981   0.044   0.948  1.00  0.00    -0.0498  A
ATOM     52 H58  WH0 L   1      -3.257   1.417   3.553  1.00  0.00    +0.0625  H
ATOM     53 H59  WH0 L   1      -5.511   1.410   4.540  1.00  0.00    +0.0646  H
ATOM     54 H60  WH0 L   1      -7.098  -0.339   0.956  1.00  0.00    +0.0646  H
ATOM     55 H61  WH0 L   1      -4.873  -0.308  -0.069  1.00  0.00    +0.0625  H
ENDBRANCH 21 45
BRANCH 24 56
ATOM     56 N34  WH0 L   1       0.964   2.881   1.784  1.00  0.00    -0.3359  N
ATOM     57 C35  WH0 L   1       2.124   2.914   2.676  1.00  0.00    +0.0449  C
ATOM     58 C36  WH0 L   1       2.634   4.354   2.809  1.00  0.00    +0.0653  C
ATOM     59 O37  WH0 L   1       1.582   5.235   3.156  1.00  0.00    -0.3763 OA
ATOM     60 C38  WH0 L   1       0.625   5.280   2.117  1.00  0.00    +0.0653  C
ATOM     61 C39  WH0 L   1      -0.057   3.921   1.948  1.00  0.00    +0.0449  C
ATOM     62 H62  WH0 L   1       2.948   2.280   2.283  1.00  0.00    +0.0511  H
ATOM     63 H63  WH0 L   1       1.832   2.520   3.674  1.00  0.00    +0.0511  H
ATOM     64 H64  WH0 L   1       3.403   4.388   3.607  1.00  0.00    +0.0577  H
ATOM     65 H65  WH0 L   1       3.130   4.677   1.866  1.00  0.00    +0.0577  H
ATOM     66 H66  WH0 L   1      -0.146   6.035   2.376  1.00  0.00    +0.0577  H
ATOM     67 H67  WH0 L   1       1.089   5.603   1.158  1.00  0.00    +0.0577  H
ATOM     68 H68  WH0 L   1      -0.723   3.963   1.062  1.00  0.00    +0.0511  H
ATOM     69 H69  WH0 L   1      -0.667   3.700   2.849  1.00  0.00    +0.0511  H
ENDBRANCH 24 56
ENDBRANCH 1 20
TORSDOF 8
