ROOT
ATOM      1  C1  CHE L   1      -0.083   1.126  -3.112  1.00  0.00    -0.0438  C
ATOM      2  C2  CHE L   1       0.074   1.874  -1.786  1.00  0.00    +0.0397  C
ATOM      3  C3  CHE L   1      -1.216   1.950  -0.965  1.00  0.00    -0.0115  C
ATOM      4  C4  CHE L   1      -1.422   0.823   0.054  1.00  0.00    +0.0335  C
ATOM      5 C16  CHE L   1      -0.500  -0.358  -0.203  1.00  0.00    -0.0141  C
ATOM      6 C17  CHE L   1       0.947   0.100  -0.179  1.00  0.00    +0.0316  C
ATOM      7 N18  CHE L   1       1.220   1.292  -1.031  1.00  0.00    -0.2941 NA
ATOM      8 H32  CHE L   1      -0.867   1.585  -3.724  1.00  0.00    +0.0250  H
ATOM      9 H33  CHE L   1       0.851   1.167  -3.684  1.00  0.00    +0.0250  H
ATOM     10 H34  CHE L   1      -0.334   0.071  -2.987  1.00  0.00    +0.0250  H
ATOM     11 H35  CHE L   1       0.312   2.903  -2.080  1.00  0.00    +0.0529  H
ATOM     12 H36  CHE L   1      -1.207   2.896  -0.406  1.00  0.00    +0.0305  H
ATOM     13 H37  CHE L   1      -2.075   2.033  -1.643  1.00  0.00    +0.0305  H
ATOM     14 H38  CHE L   1      -1.187   1.227   1.049  1.00  0.00    +0.0524  H
ATOM     15 H46  CHE L   1      -0.745  -0.847  -1.151  1.00  0.00    +0.0302  H
ATOM     16 H47  CHE L   1      -0.648  -1.127   0.565  1.00  0.00    +0.0302  H
ATOM     17 H48  CHE L   1       1.595  -0.719  -0.522  1.00  0.00    +0.0496  H
ATOM     18 H49  CHE L   1       1.217   0.304   0.867  1.00  0.00    +0.0496  H
ENDROOT
BRANCH 4 19
ATOM     19  N5  CHE L   1      -2.813   0.382   0.108  1.00  0.00    -0.3478  N
ATOM     20  C6  CHE L   1      -3.794   1.177   0.689  1.00  0.00    +0.2739  C
ATOM     21  O7  CHE L   1      -3.527   2.257   1.209  1.00  0.00    -0.2658 OA
ATOM     22 H39  CHE L   1      -3.111  -0.352  -0.520  1.00  0.00    +0.1629 HD
BRANCH 20 23
ATOM     23  C8  CHE L   1      -5.154   0.630   0.618  1.00  0.00    +0.1701  A
ATOM     24  C9  CHE L   1      -5.564  -0.720   0.421  1.00  0.00    +0.0132  A
ATOM     25 C10  CHE L   1      -6.934  -0.678   0.482  1.00  0.00    +0.1411  A
ATOM     26 O14  CHE L   1      -7.335   0.606   0.671  1.00  0.00    -0.3586 OA
ATOM     27 N15  CHE L   1      -6.228   1.426   0.769  1.00  0.00    -0.0732 NA
ATOM     28 H40  CHE L   1      -4.950  -1.601   0.295  1.00  0.00    +0.0676  H
BRANCH 25 29
ATOM     29 C11  CHE L   1      -7.889  -1.890   0.361  1.00  0.00    +0.0199  C
ATOM     30 C12  CHE L   1      -9.072  -1.971   1.294  1.00  0.00    -0.0426  C
ATOM     31 C13  CHE L   1      -7.914  -2.914   1.471  1.00  0.00    -0.0426  C
ATOM     32 H41  CHE L   1      -8.037  -2.247  -0.656  1.00  0.00    +0.0380  H
ATOM     33 H42  CHE L   1      -9.209  -1.182   2.028  1.00  0.00    +0.0272  H
ATOM     34 H43  CHE L   1      -9.998  -2.371   0.898  1.00  0.00    +0.0272  H
ATOM     35 H44  CHE L   1      -7.279  -2.767   2.338  1.00  0.00    +0.0272  H
ATOM     36 H45  CHE L   1      -8.063  -3.955   1.202  1.00  0.00    +0.0272  H
ENDBRANCH 25 29
ENDBRANCH 20 23
ENDBRANCH 4 19
BRANCH 7 37
ATOM     37 S19  CHE L   1       2.297   2.452  -0.361  1.00  0.00    +0.2629  S
ATOM     38 O20  CHE L   1       1.758   2.842   0.927  1.00  0.00    -0.2001 OA
ATOM     39 O21  CHE L   1       2.607   3.434  -1.378  1.00  0.00    -0.2001 OA
BRANCH 37 40
ATOM     40 C22  CHE L   1       3.753   1.505  -0.096  1.00  0.00    +0.1049  A
ATOM     41 C23  CHE L   1       4.560   1.121  -1.164  1.00  0.00    -0.0369  A
ATOM     42 C24  CHE L   1       5.698   0.360  -0.900  1.00  0.00    -0.0184  A
ATOM     43 C25  CHE L   1       5.984   0.004   0.414  1.00  0.00    +0.1271  A
ATOM     44 N30  CHE L   1       5.215   0.390   1.455  1.00  0.00    -0.2371 NA
ATOM     45 C31  CHE L   1       4.122   1.148   1.185  1.00  0.00    +0.0498  A
ATOM     46 H50  CHE L   1       4.316   1.414  -2.182  1.00  0.00    +0.0632  H
ATOM     47 H51  CHE L   1       6.356   0.067  -1.709  1.00  0.00    +0.0654  H
ATOM     48 H59  CHE L   1       3.545   1.444   2.057  1.00  0.00    +0.0844  H
BRANCH 43 49
ATOM     49 N26  CHE L   1       7.078  -0.785   0.754  1.00  0.00    -0.3684  N
ATOM     50 H52  CHE L   1       7.039  -0.859   1.770  1.00  0.00    +0.1611 HD
BRANCH 49 51
ATOM     51 C27  CHE L   1       7.145  -2.110   0.128  1.00  0.00    +0.0292  C
ATOM     52 H53  CHE L   1       8.044  -2.603   0.514  1.00  0.00    +0.0498  H
ATOM     53 H54  CHE L   1       7.281  -2.024  -0.958  1.00  0.00    +0.0498  H
BRANCH 51 54
ATOM     54 C28  CHE L   1       5.921  -3.002   0.444  1.00  0.00    +0.0105  C
ATOM     55 N29  CHE L   1       5.502  -2.976   1.852  1.00  0.00    -0.3283 NA
ATOM     56 H55  CHE L   1       5.068  -2.688  -0.169  1.00  0.00    +0.0439  H
ATOM     57 H56  CHE L   1       6.150  -4.036   0.159  1.00  0.00    +0.0439  H
ATOM     58 H57  CHE L   1       5.192  -2.022   2.068  1.00  0.00    +0.1183 HD
ATOM     59 H58  CHE L   1       6.309  -3.143   2.452  1.00  0.00    +0.1183 HD
ENDBRANCH 51 54
ENDBRANCH 49 51
ENDBRANCH 43 49
ENDBRANCH 37 40
ENDBRANCH 7 37
TORSDOF 8
