ROOT
ATOM      1 C19  CHE L   1       4.551  -1.655  -0.250  1.00  0.00    +0.0389  A
ATOM      2 C20  CHE L   1       4.796  -2.090   1.006  1.00  0.00    -0.0388  A
ATOM      3 C21  CHE L   1       4.905  -1.202   2.216  1.00  0.00    -0.0392  C
ATOM      4 C22  CHE L   1       4.960  -3.512   1.273  1.00  0.00    -0.0393  A
ATOM      5 C23  CHE L   1       4.891  -4.414   0.282  1.00  0.00    +0.0162  A
ATOM      6 C24  CHE L   1       5.048  -5.889   0.483  1.00  0.00    -0.0244  C
ATOM      7 N25  CHE L   1       4.645  -3.981  -0.998  1.00  0.00    -0.3262  N
ATOM      8 C26  CHE L   1       4.445  -2.669  -1.351  1.00  0.00    +0.2540  A
ATOM      9 O27  CHE L   1       4.173  -2.360  -2.505  1.00  0.00    -0.2675 OA
ATOM     10 H55  CHE L   1       5.922  -1.230   2.621  1.00  0.00    +0.0278  H
ATOM     11 H56  CHE L   1       4.660  -0.157   2.006  1.00  0.00    +0.0278  H
ATOM     12 H57  CHE L   1       4.211  -1.536   3.000  1.00  0.00    +0.0278  H
ATOM     13 H58  CHE L   1       5.143  -3.824   2.299  1.00  0.00    +0.0637  H
ATOM     14 H59  CHE L   1       5.225  -6.143   1.533  1.00  0.00    +0.0292  H
ATOM     15 H60  CHE L   1       5.889  -6.271  -0.104  1.00  0.00    +0.0292  H
ATOM     16 H61  CHE L   1       4.142  -6.414   0.165  1.00  0.00    +0.0292  H
ATOM     17 H62  CHE L   1       4.559  -4.648  -1.755  1.00  0.00    +0.1686 HD
ENDROOT
BRANCH 1 18
ATOM     18 C18  CHE L   1       4.420  -0.224  -0.675  1.00  0.00    +0.0491  C
ATOM     19 H53  CHE L   1       4.635  -0.078  -1.738  1.00  0.00    +0.0538  H
ATOM     20 H54  CHE L   1       5.128   0.415  -0.133  1.00  0.00    +0.0538  H
BRANCH 18 23
ATOM     21 C15  CHE L   1       2.778   1.569  -0.357  1.00  0.00    +0.2526  C
ATOM     22 O16  CHE L   1       3.608   2.469  -0.406  1.00  0.00    -0.2676 OA
ATOM     23 N17  CHE L   1       3.068   0.226  -0.424  1.00  0.00    -0.3478  N
ATOM     24 H52  CHE L   1       2.309  -0.409  -0.646  1.00  0.00    +0.1630 HD
BRANCH 21 29
ATOM     25  C4  CHE L   1      -0.854   1.734   0.776  1.00  0.00    +0.0425  A
ATOM     26  C5  CHE L   1      -1.349   2.578  -0.234  1.00  0.00    -0.0259  A
ATOM     27  C6  CHE L   1      -0.518   3.086  -1.242  1.00  0.00    +0.0418  A
ATOM     28 C13  CHE L   1       0.823   2.720  -1.274  1.00  0.00    -0.0367  A
ATOM     29 C14  CHE L   1       1.337   1.897  -0.266  1.00  0.00    +0.0445  A
ATOM     30 C28  CHE L   1       0.526   1.430   0.792  1.00  0.00    -0.0149  A
ATOM     31 C29  CHE L   1       1.138   0.658   1.936  1.00  0.00    -0.0370  C
ATOM     32 H44  CHE L   1      -2.402   2.851  -0.245  1.00  0.00    +0.0646  H
ATOM     33 H51  CHE L   1       1.477   3.052  -2.077  1.00  0.00    +0.0633  H
ATOM     34 H63  CHE L   1       1.399  -0.359   1.622  1.00  0.00    +0.0278  H
ATOM     35 H64  CHE L   1       0.469   0.583   2.799  1.00  0.00    +0.0278  H
ATOM     36 H65  CHE L   1       2.035   1.169   2.301  1.00  0.00    +0.0278  H
BRANCH 25 37
ATOM     37  N3  CHE L   1      -1.704   1.224   1.781  1.00  0.00    -0.3676  N
BRANCH 37 39
ATOM     38  C1  CHE L   1      -2.665   1.852   3.975  1.00  0.00    -0.0475  C
ATOM     39  C2  CHE L   1      -2.389   2.288   2.543  1.00  0.00    +0.0161  C
ATOM     40 H39  CHE L   1      -3.430   1.072   4.021  1.00  0.00    +0.0247  H
ATOM     41 H40  CHE L   1      -1.758   1.467   4.452  1.00  0.00    +0.0247  H
ATOM     42 H41  CHE L   1      -3.027   2.700   4.567  1.00  0.00    +0.0247  H
ATOM     43 H42  CHE L   1      -3.322   2.591   2.056  1.00  0.00    +0.0485  H
ATOM     44 H43  CHE L   1      -1.753   3.181   2.601  1.00  0.00    +0.0485  H
ENDBRANCH 37 39
BRANCH 37 45
ATOM     45 C30  CHE L   1      -2.513   0.020   1.433  1.00  0.00    +0.0300  C
ATOM     46 C31  CHE L   1      -3.567   0.255   0.347  1.00  0.00    -0.0311  C
ATOM     47 C32  CHE L   1      -4.413  -1.000   0.114  1.00  0.00    -0.0355  C
ATOM     48 C33  CHE L   1      -3.558  -2.231  -0.270  1.00  0.00    +0.0100  C
ATOM     49 C37  CHE L   1      -2.459  -2.433   0.801  1.00  0.00    -0.0355  C
ATOM     50 C38  CHE L   1      -1.631  -1.175   1.054  1.00  0.00    -0.0311  C
ATOM     51 H66  CHE L   1      -3.049  -0.280   2.341  1.00  0.00    +0.0524  H
ATOM     52 H67  CHE L   1      -3.096   0.529  -0.604  1.00  0.00    +0.0285  H
ATOM     53 H68  CHE L   1      -4.232   1.082   0.626  1.00  0.00    +0.0285  H
ATOM     54 H69  CHE L   1      -5.127  -0.762  -0.683  1.00  0.00    +0.0281  H
ATOM     55 H70  CHE L   1      -4.996  -1.217   1.019  1.00  0.00    +0.0281  H
ATOM     56 H71  CHE L   1      -3.065  -2.007  -1.228  1.00  0.00    +0.0462  H
ATOM     57 H78  CHE L   1      -2.917  -2.757   1.745  1.00  0.00    +0.0281  H
ATOM     58 H79  CHE L   1      -1.760  -3.220   0.496  1.00  0.00    +0.0281  H
ATOM     59 H80  CHE L   1      -0.914  -1.384   1.857  1.00  0.00    +0.0285  H
ATOM     60 H81  CHE L   1      -1.046  -0.957   0.151  1.00  0.00    +0.0285  H
BRANCH 48 61
ATOM     61 N34  CHE L   1      -4.392  -3.456  -0.431  1.00  0.00    -0.3054 NA
ATOM     62 C35  CHE L   1      -3.588  -4.621  -0.818  1.00  0.00    -0.0128  C
ATOM     63 C36  CHE L   1      -5.459  -3.277  -1.424  1.00  0.00    -0.0128  C
ATOM     64 H72  CHE L   1      -2.980  -4.422  -1.706  1.00  0.00    +0.0391  H
ATOM     65 H73  CHE L   1      -4.221  -5.491  -1.024  1.00  0.00    +0.0391  H
ATOM     66 H74  CHE L   1      -2.932  -4.936  -0.003  1.00  0.00    +0.0391  H
ATOM     67 H75  CHE L   1      -5.993  -4.219  -1.601  1.00  0.00    +0.0391  H
ATOM     68 H76  CHE L   1      -5.069  -2.920  -2.384  1.00  0.00    +0.0391  H
ATOM     69 H77  CHE L   1      -6.221  -2.579  -1.068  1.00  0.00    +0.0391  H
ENDBRANCH 48 61
ENDBRANCH 37 45
ENDBRANCH 25 37
BRANCH 27 70
ATOM     70  C7  CHE L   1      -1.128   3.963  -2.276  1.00  0.00    +0.2547  C
ATOM     71  O8  CHE L   1      -2.311   3.813  -2.567  1.00  0.00    -0.2674 OA
ATOM     72  N9  CHE L   1      -0.328   4.933  -2.850  1.00  0.00    -0.3382  N
ATOM     73 C10  CHE L   1       0.623   5.809  -2.156  1.00  0.00    +0.0231  C
ATOM     74 C11  CHE L   1       0.431   6.784  -3.322  1.00  0.00    -0.0175  C
ATOM     75 C12  CHE L   1      -0.860   6.036  -3.657  1.00  0.00    +0.0231  C
ATOM     76 H45  CHE L   1       0.255   6.158  -1.185  1.00  0.00    +0.0489  H
ATOM     77 H46  CHE L   1       1.636   5.410  -2.064  1.00  0.00    +0.0489  H
ATOM     78 H47  CHE L   1       1.200   6.710  -4.099  1.00  0.00    +0.0299  H
ATOM     79 H48  CHE L   1       0.309   7.834  -3.042  1.00  0.00    +0.0299  H
ATOM     80 H49  CHE L   1      -0.999   5.787  -4.710  1.00  0.00    +0.0489  H
ATOM     81 H50  CHE L   1      -1.772   6.474  -3.239  1.00  0.00    +0.0489  H
ENDBRANCH 27 70
ENDBRANCH 21 29
ENDBRANCH 18 23
ENDBRANCH 1 18
TORSDOF 8
