ROOT
ATOM      1 C34  WH0 L   1      -0.293   3.131   0.747  1.00  0.00    -0.0133  A
ATOM      2 C35  WH0 L   1      -0.317   3.866   1.954  1.00  0.00    -0.0519  A
ATOM      3 C36  WH0 L   1       0.269   5.133   2.038  1.00  0.00    -0.0374  A
ATOM      4 C37  WH0 L   1       0.866   5.628   0.899  1.00  0.00    +0.0454  A
ATOM      5 C38  WH0 L   1       0.897   4.920  -0.301  1.00  0.00    -0.0145  A
ATOM      6 C39  WH0 L   1       0.321   3.667  -0.397  1.00  0.00    -0.0483  A
ATOM      7 C40  WH0 L   1       1.613   5.733  -1.339  1.00  0.00    +0.0535  C
ATOM      8 C41  WH0 L   1       1.981   7.000  -0.557  1.00  0.00    +0.2296  C
ATOM      9 O42  WH0 L   1       2.584   7.970  -0.984  1.00  0.00    -0.2725 OA
ATOM     10 N43  WH0 L   1       1.504   6.847   0.740  1.00  0.00    -0.3256  N
ATOM     11 H69  WH0 L   1      -0.810   3.457   2.833  1.00  0.00    +0.0624  H
ATOM     12 H70  WH0 L   1       0.246   5.698   2.963  1.00  0.00    +0.0638  H
ATOM     13 H71  WH0 L   1       0.345   3.115  -1.333  1.00  0.00    +0.0627  H
ATOM     14 H72  WH0 L   1       2.525   5.232  -1.676  1.00  0.00    +0.0410  H
ATOM     15 H73  WH0 L   1       0.952   5.991  -2.170  1.00  0.00    +0.0410  H
ATOM     16 H74  WH0 L   1       1.622   7.552   1.452  1.00  0.00    +0.1686 HD
ENDROOT
BRANCH 1 25
ATOM     17 C18  WH0 L   1      -0.578   0.594   1.333  1.00  0.00    +0.1018  A
ATOM     18 N19  WH0 L   1      -1.431  -0.386   1.004  1.00  0.00    -0.1627 NA
ATOM     19 N20  WH0 L   1      -2.303   0.191   0.136  1.00  0.00    -0.1987  N
ATOM     20 C21  WH0 L   1      -3.396  -0.495  -0.490  1.00  0.00    +0.2282  A
ATOM     21 N29  WH0 L   1      -4.198   0.207  -1.263  1.00  0.00    -0.2207 NA
ATOM     22 C30  WH0 L   1      -3.941   1.547  -1.444  1.00  0.00    +0.0334  A
ATOM     23 C31  WH0 L   1      -2.922   2.229  -0.901  1.00  0.00    -0.0173  A
ATOM     24 C32  WH0 L   1      -2.034   1.531  -0.056  1.00  0.00    +0.0803  A
ATOM     25 C33  WH0 L   1      -0.912   1.822   0.688  1.00  0.00    +0.0353  A
ATOM     26 H67  WH0 L   1      -4.644   2.065  -2.092  1.00  0.00    +0.0831  H
ATOM     27 H68  WH0 L   1      -2.791   3.288  -1.093  1.00  0.00    +0.0654  H
BRANCH 17 34
ATOM     28 C11  WH0 L   1       1.720  -0.288   1.842  1.00  0.00    -0.0354  A
ATOM     29 C12  WH0 L   1       2.733  -0.502   2.796  1.00  0.00    -0.0226  A
ATOM     30 C13  WH0 L   1       2.544  -0.128   4.122  1.00  0.00    +0.1237  A
ATOM     31 F14  WH0 L   1       3.521  -0.345   5.012  1.00  0.00    -0.2055  F
ATOM     32 C15  WH0 L   1       1.358   0.459   4.539  1.00  0.00    -0.0258  A
ATOM     33 C16  WH0 L   1       0.345   0.685   3.607  1.00  0.00    -0.0495  A
ATOM     34 C17  WH0 L   1       0.520   0.329   2.257  1.00  0.00    +0.0061  A
ATOM     35 H53  WH0 L   1       3.674  -0.968   2.517  1.00  0.00    +0.0649  H
ATOM     36 H54  WH0 L   1       1.226   0.732   5.581  1.00  0.00    +0.0646  H
ATOM     37 H55  WH0 L   1      -0.591   1.130   3.938  1.00  0.00    +0.0625  H
BRANCH 28 38
ATOM     38 C10  WH0 L   1       1.977  -0.721   0.415  1.00  0.00    -0.0254  C
ATOM     39 H51  WH0 L   1       1.038  -0.969  -0.092  1.00  0.00    +0.0314  H
ATOM     40 H52  WH0 L   1       2.546  -1.660   0.433  1.00  0.00    +0.0314  H
BRANCH 38 41
ATOM     41  C9  WH0 L   1       2.745   0.343  -0.375  1.00  0.00    -0.0315  C
ATOM     42 H49  WH0 L   1       3.715   0.539   0.101  1.00  0.00    +0.0285  H
ATOM     43 H50  WH0 L   1       2.191   1.288  -0.356  1.00  0.00    +0.0285  H
BRANCH 41 44
ATOM     44  C8  WH0 L   1       2.956  -0.069  -1.828  1.00  0.00    +0.0187  C
ATOM     45 H47  WH0 L   1       3.407   0.760  -2.386  1.00  0.00    +0.0486  H
ATOM     46 H48  WH0 L   1       1.998  -0.306  -2.305  1.00  0.00    +0.0486  H
BRANCH 44 49
ATOM     47  C5  WH0 L   1       3.797  -2.046  -3.031  1.00  0.00    +0.2618  C
ATOM     48  O6  WH0 L   1       2.933  -1.975  -3.895  1.00  0.00    -0.2669 OA
ATOM     49  N7  WH0 L   1       3.864  -1.194  -1.948  1.00  0.00    -0.3514  N
ATOM     50 H46  WH0 L   1       4.726  -1.157  -1.419  1.00  0.00    +0.1626 HD
BRANCH 47 52
ATOM     51  C1  WH0 L   1       5.367  -3.655  -2.003  1.00  0.00    -0.0760  C
ATOM     52  C2  WH0 L   1       4.891  -3.058  -3.111  1.00  0.00    +0.1085  C
ATOM     53 H44  WH0 L   1       6.141  -4.417  -2.067  1.00  0.00    +0.0549  H
ATOM     54 H45  WH0 L   1       4.981  -3.436  -1.012  1.00  0.00    +0.0549  H
BRANCH 52 55
ATOM     55  C3  WH0 L   1       5.360  -3.431  -4.402  1.00  0.00    +0.1040  C
ATOM     56  N4  WH0 L   1       5.801  -3.756  -5.426  1.00  0.00    -0.1907 NA
ENDBRANCH 52 55
ENDBRANCH 47 52
ENDBRANCH 44 49
ENDBRANCH 41 44
ENDBRANCH 38 41
ENDBRANCH 28 38
ENDBRANCH 17 34
BRANCH 20 57
ATOM     57 N22  WH0 L   1      -3.629  -1.869  -0.296  1.00  0.00    -0.3402  N
ATOM     58 C23  WH0 L   1      -4.819  -2.480  -0.905  1.00  0.00    +0.0228  C
ATOM     59 C24  WH0 L   1      -5.332  -3.642  -0.059  1.00  0.00    -0.0199  C
ATOM     60 C25  WH0 L   1      -4.231  -4.636   0.333  1.00  0.00    +0.0080  C
ATOM     61 N26  WH0 L   1      -4.583  -5.999  -0.079  1.00  0.00    -0.3271 NA
ATOM     62 C27  WH0 L   1      -2.875  -4.246  -0.248  1.00  0.00    -0.0199  C
ATOM     63 C28  WH0 L   1      -2.555  -2.793   0.094  1.00  0.00    +0.0228  C
ATOM     64 H56  WH0 L   1      -5.639  -1.757  -0.992  1.00  0.00    +0.0489  H
ATOM     65 H57  WH0 L   1      -4.580  -2.814  -1.923  1.00  0.00    +0.0489  H
ATOM     66 H58  WH0 L   1      -5.787  -3.248   0.861  1.00  0.00    +0.0297  H
ATOM     67 H59  WH0 L   1      -6.150  -4.135  -0.602  1.00  0.00    +0.0297  H
ATOM     68 H60  WH0 L   1      -4.152  -4.641   1.431  1.00  0.00    +0.0459  H
ATOM     69 H61  WH0 L   1      -5.459  -6.274   0.365  1.00  0.00    +0.1185 HD
ATOM     70 H62  WH0 L   1      -3.876  -6.656   0.256  1.00  0.00    +0.1185 HD
ATOM     71 H63  WH0 L   1      -2.868  -4.381  -1.339  1.00  0.00    +0.0297  H
ATOM     72 H64  WH0 L   1      -2.086  -4.896   0.152  1.00  0.00    +0.0297  H
ATOM     73 H65  WH0 L   1      -1.622  -2.532  -0.420  1.00  0.00    +0.0489  H
ATOM     74 H66  WH0 L   1      -2.395  -2.720   1.177  1.00  0.00    +0.0489  H
ENDBRANCH 20 57
ENDBRANCH 1 25
TORSDOF 9
