ROOT
ATOM      1  C1  MCU L   1       3.594  -0.458  -1.463  1.00  0.00    -0.0385  C
ATOM      2  C2  MCU L   1       4.516   0.385  -0.601  1.00  0.00    -0.0293  A
ATOM      3  C3  MCU L   1       4.030   1.494   0.145  1.00  0.00    +0.0495  A
ATOM      4 C25  MCU L   1       4.934   2.190   0.975  1.00  0.00    +0.3412  A
ATOM      5 O26  MCU L   1       4.540   3.150   1.691  1.00  0.00    -0.2449 OA
ATOM      6 O27  MCU L   1       6.214   1.849   1.021  1.00  0.00    -0.4218 OA
ATOM      7 C28  MCU L   1       6.724   0.856   0.308  1.00  0.00    +0.1429  A
ATOM      8 C29  MCU L   1       8.092   0.582   0.408  1.00  0.00    +0.0243  A
ATOM      9 C30  MCU L   1       8.666  -0.452  -0.340  1.00  0.00    +0.1386  A
ATOM     10 O31  MCU L   1      10.030  -0.721  -0.239  1.00  0.00    -0.5052 OA
ATOM     11 C32  MCU L   1       7.864  -1.217  -1.196  1.00  0.00    +0.0831  A
ATOM     12 CL33 MCU L   1       8.567  -2.513  -2.151  1.00  0.00    -0.0797 Cl
ATOM     13 C34  MCU L   1       6.493  -0.953  -1.298  1.00  0.00    -0.0289  A
ATOM     14 C35  MCU L   1       5.901   0.083  -0.542  1.00  0.00    +0.0224  A
ATOM     15 H36  MCU L   1       3.811  -0.269  -2.534  1.00  0.00    +0.0278  H
ATOM     16 H37  MCU L   1       3.746  -1.535  -1.238  1.00  0.00    +0.0278  H
ATOM     17 H38  MCU L   1       2.520  -0.271  -1.288  1.00  0.00    +0.0278  H
ATOM     18 H56  MCU L   1       8.712   1.179   1.066  1.00  0.00    +0.0692  H
ATOM     19 H57  MCU L   1      10.633  -0.182   0.372  1.00  0.00    +0.2922 HD
ATOM     20 H58  MCU L   1       5.912  -1.558  -1.980  1.00  0.00    +0.0640  H
ENDROOT
BRANCH 3 21
ATOM     21  C4  MCU L   1       2.575   1.926   0.098  1.00  0.00    +0.0584  C
ATOM     22 H39  MCU L   1       2.452   2.977   0.437  1.00  0.00    +0.0411  H
ATOM     23 H40  MCU L   1       2.228   1.918  -0.955  1.00  0.00    +0.0411  H
BRANCH 21 24
ATOM     24  C5  MCU L   1       1.717   1.045   0.971  1.00  0.00    +0.2282  C
ATOM     25  O6  MCU L   1       2.128   0.739   2.123  1.00  0.00    -0.2727 OA
ATOM     26  N7  MCU L   1       0.430   0.571   0.529  1.00  0.00    -0.3386  N
ATOM     27  C8  MCU L   1       0.044  -0.817   0.805  1.00  0.00    +0.0389  C
ATOM     28  C9  MCU L   1      -1.448  -0.906   1.129  1.00  0.00    +0.0390  C
ATOM     29 N10  MCU L   1      -2.235  -0.154   0.143  1.00  0.00    -0.3357  N
ATOM     30 C11  MCU L   1      -3.554  -0.587  -0.240  1.00  0.00    +0.2678  C
ATOM     31 O12  MCU L   1      -3.962  -0.351  -1.409  1.00  0.00    -0.2688 OA
ATOM     32 C23  MCU L   1      -1.841   1.231  -0.140  1.00  0.00    +0.0390  C
ATOM     33 C24  MCU L   1      -0.351   1.312  -0.468  1.00  0.00    +0.0389  C
ATOM     34 H41  MCU L   1       0.265  -1.438  -0.091  1.00  0.00    +0.0506  H
ATOM     35 H42  MCU L   1       0.620  -1.235   1.659  1.00  0.00    +0.0506  H
ATOM     36 H43  MCU L   1      -1.636  -0.494   2.143  1.00  0.00    +0.0506  H
ATOM     37 H44  MCU L   1      -1.730  -1.980   1.121  1.00  0.00    +0.0506  H
ATOM     38 H52  MCU L   1      -2.418   1.645  -0.996  1.00  0.00    +0.0506  H
ATOM     39 H53  MCU L   1      -2.058   1.857   0.754  1.00  0.00    +0.0506  H
ATOM     40 H54  MCU L   1      -0.165   0.881  -1.476  1.00  0.00    +0.0506  H
ATOM     41 H55  MCU L   1      -0.061   2.385  -0.481  1.00  0.00    +0.0506  H
BRANCH 30 42
ATOM     42 C13  MCU L   1      -4.489  -1.243   0.754  1.00  0.00    +0.2113  C
ATOM     43 C14  MCU L   1      -4.923  -0.230   1.833  1.00  0.00    +0.1354  C
ATOM     44 O15  MCU L   1      -5.856   0.711   1.293  1.00  0.00    -0.4841 OA
ATOM     45 C16  MCU L   1      -6.851   0.305   0.400  1.00  0.00    +0.1621  A
ATOM     46 C17  MCU L   1      -7.926   1.145   0.094  1.00  0.00    -0.0163  A
ATOM     47 C18  MCU L   1      -8.925   0.704  -0.782  1.00  0.00    -0.0581  A
ATOM     48 C19  MCU L   1      -8.848  -0.573  -1.351  1.00  0.00    -0.0581  A
ATOM     49 C20  MCU L   1      -7.764  -1.408  -1.057  1.00  0.00    -0.0162  A
ATOM     50 C21  MCU L   1      -6.758  -0.962  -0.194  1.00  0.00    +0.1632  A
ATOM     51 O22  MCU L   1      -5.644  -1.765   0.084  1.00  0.00    -0.4723 OA
ATOM     52 H45  MCU L   1      -3.972  -2.092   1.244  1.00  0.00    +0.0869  H
ATOM     53 H46  MCU L   1      -5.415  -0.780   2.663  1.00  0.00    +0.0739  H
ATOM     54 H47  MCU L   1      -4.051   0.312   2.254  1.00  0.00    +0.0739  H
ATOM     55 H48  MCU L   1      -7.993   2.128   0.542  1.00  0.00    +0.0655  H
ATOM     56 H49  MCU L   1      -9.762   1.350  -1.015  1.00  0.00    +0.0619  H
ATOM     57 H50  MCU L   1      -9.624  -0.912  -2.025  1.00  0.00    +0.0619  H
ATOM     58 H51  MCU L   1      -7.698  -2.390  -1.508  1.00  0.00    +0.0655  H
ENDBRANCH 30 42
ENDBRANCH 21 24
ENDBRANCH 3 21
TORSDOF 3
