ROOT
ATOM      1  C9  328 L   1       1.840  -0.195   0.669  1.00  0.00    -0.0149  C
ATOM      2 C10  328 L   1       3.075  -0.167   1.591  1.00  0.00    -0.0301  C
ATOM      3 C11  328 L   1       4.256   0.508   0.895  1.00  0.00    +0.0247  C
ATOM      4 N12  328 L   1       4.443   0.021  -0.455  1.00  0.00    -0.3343  N
ATOM      5 C13  328 L   1       5.552   0.163  -1.235  1.00  0.00    +0.0243  A
ATOM      6 C14  328 L   1       5.216  -0.432  -2.429  1.00  0.00    +0.0457  A
ATOM      7 N15  328 L   1       3.937  -0.928  -2.386  1.00  0.00    -0.2406 NA
ATOM      8 C16  328 L   1       3.486  -0.638  -1.183  1.00  0.00    +0.1099  A
ATOM      9 C17  328 L   1       2.155  -0.989  -0.611  1.00  0.00    +0.0101  C
ATOM     10 H30  328 L   1       1.617   0.842   0.382  1.00  0.00    +0.0322  H
ATOM     11 H31  328 L   1       2.852   0.370   2.521  1.00  0.00    +0.0286  H
ATOM     12 H32  328 L   1       3.349  -1.193   1.870  1.00  0.00    +0.0286  H
ATOM     13 H33  328 L   1       5.182   0.332   1.452  1.00  0.00    +0.0492  H
ATOM     14 H34  328 L   1       4.092   1.589   0.817  1.00  0.00    +0.0492  H
ATOM     15 H35  328 L   1       6.451   0.659  -0.898  1.00  0.00    +0.0825  H
ATOM     16 H36  328 L   1       5.826  -0.529  -3.317  1.00  0.00    +0.0845  H
ATOM     17 H37  328 L   1       1.381  -0.805  -1.366  1.00  0.00    +0.0346  H
ATOM     18 H38  328 L   1       2.153  -2.066  -0.399  1.00  0.00    +0.0346  H
ENDROOT
BRANCH 1 19
ATOM     19  C8  328 L   1       0.630  -0.784   1.416  1.00  0.00    +0.0244  C
ATOM     20 H28  328 L   1       0.519  -0.277   2.383  1.00  0.00    +0.0491  H
ATOM     21 H29  328 L   1       0.782  -1.848   1.637  1.00  0.00    +0.0491  H
BRANCH 19 24
ATOM     22  C4  328 L   1      -1.245   0.621   0.737  1.00  0.00    +0.2535  C
ATOM     23  O5  328 L   1      -0.746   1.610   1.271  1.00  0.00    -0.2676 OA
ATOM     24  N6  328 L   1      -0.627  -0.621   0.688  1.00  0.00    -0.3412  N
ATOM     25  C7  328 L   1      -1.191  -1.809   0.057  1.00  0.00    +0.0100  C
ATOM     26 H25  328 L   1      -0.399  -2.361  -0.456  1.00  0.00    +0.0453  H
ATOM     27 H26  328 L   1      -1.622  -2.441   0.839  1.00  0.00    +0.0453  H
ATOM     28 H27  328 L   1      -1.963  -1.565  -0.675  1.00  0.00    +0.0453  H
BRANCH 22 31
ATOM     29  C1  328 L   1      -3.762  -0.307   2.063  1.00  0.00    -0.0065  C
ATOM     30  C2  328 L   1      -3.699   0.328   0.704  1.00  0.00    +0.1029  C
ATOM     31  C3  328 L   1      -2.574   0.748   0.092  1.00  0.00    +0.0539  C
ATOM     32 C18  328 L   1      -2.568   1.392  -1.260  1.00  0.00    -0.0163  C
ATOM     33 C19  328 L   1      -3.908   1.194  -1.959  1.00  0.00    -0.0144  C
ATOM     34 C20  328 L   1      -5.033   1.392  -0.957  1.00  0.00    +0.0894  C
ATOM     35 O21  328 L   1      -4.952   0.454   0.123  1.00  0.00    -0.4960 OA
ATOM     36 H22  328 L   1      -4.106  -1.343   1.975  1.00  0.00    +0.0308  H
ATOM     37 H23  328 L   1      -4.471   0.237   2.696  1.00  0.00    +0.0308  H
ATOM     38 H24  328 L   1      -2.801  -0.315   2.585  1.00  0.00    +0.0308  H
ATOM     39 H39  328 L   1      -2.367   2.464  -1.144  1.00  0.00    +0.0317  H
ATOM     40 H40  328 L   1      -1.770   0.976  -1.886  1.00  0.00    +0.0317  H
ATOM     41 H41  328 L   1      -4.006   1.890  -2.799  1.00  0.00    +0.0301  H
ATOM     42 H42  328 L   1      -3.955   0.174  -2.362  1.00  0.00    +0.0301  H
ATOM     43 H43  328 L   1      -5.029   2.409  -0.546  1.00  0.00    +0.0696  H
ATOM     44 H44  328 L   1      -6.000   1.242  -1.449  1.00  0.00    +0.0696  H
ENDBRANCH 22 31
ENDBRANCH 19 24
ENDBRANCH 1 19
TORSDOF 3
