ROOT
ATOM      1 C13  WH0 L   1      -1.188   2.093   0.882  1.00  0.00    -0.0133  A
ATOM      2 C14  WH0 L   1      -0.361   2.520   1.947  1.00  0.00    -0.0519  A
ATOM      3 C15  WH0 L   1      -0.161   3.889   2.189  1.00  0.00    -0.0374  A
ATOM      4 C16  WH0 L   1      -0.785   4.804   1.348  1.00  0.00    +0.0454  A
ATOM      5 C17  WH0 L   1      -1.584   4.398   0.299  1.00  0.00    -0.0145  A
ATOM      6 C18  WH0 L   1      -1.808   3.044   0.046  1.00  0.00    -0.0483  A
ATOM      7 C19  WH0 L   1      -2.079   5.578  -0.478  1.00  0.00    +0.0535  C
ATOM      8 C20  WH0 L   1      -1.436   6.685   0.307  1.00  0.00    +0.2296  C
ATOM      9 O21  WH0 L   1      -1.536   7.907   0.014  1.00  0.00    -0.2725 OA
ATOM     10 N22  WH0 L   1      -0.672   6.213   1.414  1.00  0.00    -0.3256  N
ATOM     11 H53  WH0 L   1       0.126   1.791   2.584  1.00  0.00    +0.0624  H
ATOM     12 H54  WH0 L   1       0.469   4.226   2.999  1.00  0.00    +0.0638  H
ATOM     13 H55  WH0 L   1      -2.432   2.735  -0.785  1.00  0.00    +0.0627  H
ATOM     14 H56  WH0 L   1      -1.695   5.556  -1.521  1.00  0.00    +0.0410  H
ATOM     15 H57  WH0 L   1      -3.186   5.649  -0.442  1.00  0.00    +0.0410  H
ATOM     16 H58  WH0 L   1      -0.092   6.774   2.069  1.00  0.00    +0.1686 HD
ENDROOT
BRANCH 1 20
ATOM     17  C9  WH0 L   1       1.752  -1.159  -0.286  1.00  0.00    +0.0472  A
ATOM     18 C10  WH0 L   1       0.992  -0.070   0.191  1.00  0.00    -0.0141  A
ATOM     19 C11  WH0 L   1      -0.382  -0.251   0.290  1.00  0.00    +0.0806  A
ATOM     20 C12  WH0 L   1      -1.371   0.652   0.628  1.00  0.00    +0.0353  A
ATOM     21 C23  WH0 L   1      -2.559  -0.077   0.479  1.00  0.00    +0.1015  A
ATOM     22 N31  WH0 L   1      -2.264  -1.336   0.073  1.00  0.00    -0.1627 NA
ATOM     23 N32  WH0 L   1      -0.951  -1.420  -0.030  1.00  0.00    -0.1987  N
ATOM     24 C33  WH0 L   1      -0.225  -2.485  -0.459  1.00  0.00    +0.2285  A
ATOM     25 N41  WH0 L   1       1.125  -2.340  -0.581  1.00  0.00    -0.2173 NA
ATOM     26 H52  WH0 L   1       1.441   0.877   0.453  1.00  0.00    +0.0657  H
BRANCH 17 27
ATOM     27  C8  WH0 L   1       3.250  -1.091  -0.406  1.00  0.00    -0.0086  C
ATOM     28 H50  WH0 L   1       3.585  -1.902  -1.090  1.00  0.00    +0.0329  H
ATOM     29 H51  WH0 L   1       3.698  -1.284   0.594  1.00  0.00    +0.0329  H
BRANCH 27 30
ATOM     30  C7  WH0 L   1       3.762   0.255  -0.945  1.00  0.00    -0.0301  C
ATOM     31 H48  WH0 L   1       3.161   0.564  -1.828  1.00  0.00    +0.0286  H
ATOM     32 H49  WH0 L   1       3.650   1.026  -0.155  1.00  0.00    +0.0286  H
BRANCH 30 33
ATOM     33  C6  WH0 L   1       5.235   0.168  -1.355  1.00  0.00    +0.0187  C
ATOM     34 H46  WH0 L   1       5.843  -0.284  -0.540  1.00  0.00    +0.0486  H
ATOM     35 H47  WH0 L   1       5.323  -0.491  -2.249  1.00  0.00    +0.0486  H
BRANCH 33 38
ATOM     36  C3  WH0 L   1       6.163   2.434  -0.674  1.00  0.00    +0.2443  C
ATOM     37  O4  WH0 L   1       6.151   2.093   0.545  1.00  0.00    -0.2683 OA
ATOM     38  N5  WH0 L   1       5.748   1.499  -1.682  1.00  0.00    -0.3525  N
ATOM     39 H45  WH0 L   1       5.832   1.764  -2.688  1.00  0.00    +0.1626 HD
BRANCH 36 41
ATOM     40  C1  WH0 L   1       7.101   4.658  -0.196  1.00  0.00    -0.0936  C
ATOM     41  C2  WH0 L   1       6.608   3.786  -1.070  1.00  0.00    -0.0047  C
ATOM     42 H42  WH0 L   1       7.196   4.412   0.858  1.00  0.00    +0.0536  H
ATOM     43 H43  WH0 L   1       7.414   5.642  -0.525  1.00  0.00    +0.0536  H
ATOM     44 H44  WH0 L   1       6.545   4.083  -2.115  1.00  0.00    +0.0666  H
ENDBRANCH 36 41
ENDBRANCH 33 38
ENDBRANCH 30 33
ENDBRANCH 27 30
ENDBRANCH 17 27
BRANCH 21 45
ATOM     45 C24  WH0 L   1      -3.956   0.373   0.718  1.00  0.00    +0.0029  A
ATOM     46 C25  WH0 L   1      -5.018  -0.345   0.136  1.00  0.00    -0.0498  A
ATOM     47 C26  WH0 L   1      -6.346   0.029   0.374  1.00  0.00    -0.0258  A
ATOM     48 C27  WH0 L   1      -6.631   1.123   1.193  1.00  0.00    +0.1234  A
ATOM     49 F28  WH0 L   1      -7.921   1.476   1.427  1.00  0.00    -0.2055  F
ATOM     50 C29  WH0 L   1      -5.586   1.839   1.785  1.00  0.00    -0.0258  A
ATOM     51 C30  WH0 L   1      -4.258   1.460   1.560  1.00  0.00    -0.0498  A
ATOM     52 H59  WH0 L   1      -4.822  -1.198  -0.503  1.00  0.00    +0.0625  H
ATOM     53 H60  WH0 L   1      -7.154  -0.536  -0.076  1.00  0.00    +0.0646  H
ATOM     54 H61  WH0 L   1      -5.802   2.677   2.437  1.00  0.00    +0.0646  H
ATOM     55 H62  WH0 L   1      -3.481   1.994   2.084  1.00  0.00    +0.0625  H
ENDBRANCH 21 45
BRANCH 24 56
ATOM     56 N34  WH0 L   1      -0.848  -3.747  -0.765  1.00  0.00    -0.3402  N
ATOM     57 C35  WH0 L   1      -0.351  -4.568  -1.877  1.00  0.00    +0.0228  C
ATOM     58 C36  WH0 L   1       0.212  -5.906  -1.367  1.00  0.00    -0.0199  C
ATOM     59 C37  WH0 L   1      -0.445  -6.381  -0.048  1.00  0.00    +0.0080  C
ATOM     60 N38  WH0 L   1      -0.450  -7.842   0.023  1.00  0.00    -0.3271 NA
ATOM     61 C39  WH0 L   1      -1.880  -5.843   0.082  1.00  0.00    -0.0199  C
ATOM     62 C40  WH0 L   1      -1.864  -4.306   0.141  1.00  0.00    +0.0228  C
ATOM     63 H63  WH0 L   1       0.421  -4.027  -2.467  1.00  0.00    +0.0489  H
ATOM     64 H64  WH0 L   1      -1.197  -4.778  -2.564  1.00  0.00    +0.0489  H
ATOM     65 H65  WH0 L   1       0.069  -6.668  -2.161  1.00  0.00    +0.0297  H
ATOM     66 H66  WH0 L   1       1.308  -5.803  -1.209  1.00  0.00    +0.0297  H
ATOM     67 H67  WH0 L   1       0.155  -5.979   0.802  1.00  0.00    +0.0459  H
ATOM     68 H68  WH0 L   1      -0.733  -8.124   0.988  1.00  0.00    +0.1185 HD
ATOM     69 H69  WH0 L   1       0.533  -8.174  -0.094  1.00  0.00    +0.1185 HD
ATOM     70 H70  WH0 L   1      -2.366  -6.240   1.001  1.00  0.00    +0.0297  H
ATOM     71 H71  WH0 L   1      -2.484  -6.180  -0.792  1.00  0.00    +0.0297  H
ATOM     72 H72  WH0 L   1      -2.868  -3.913  -0.123  1.00  0.00    +0.0489  H
ATOM     73 H73  WH0 L   1      -1.641  -3.998   1.186  1.00  0.00    +0.0489  H
ENDBRANCH 24 56
ENDBRANCH 1 20
TORSDOF 8
