ROOT
ATOM      1  C1  MCU L   1      -2.962  -1.655  -1.239  1.00  0.00    +0.0145  C
ATOM      2  C2  MCU L   1      -2.148  -2.278  -0.134  1.00  0.00    +0.2209  C
ATOM      3  O3  MCU L   1      -2.262  -3.477   0.122  1.00  0.00    -0.2733 OA
ATOM      4  N4  MCU L   1      -1.295  -1.459   0.576  1.00  0.00    -0.3349  N
ATOM      5  C5  MCU L   1      -0.374  -2.035   1.543  1.00  0.00    +0.0266  C
ATOM      6  C6  MCU L   1       0.791  -1.065   1.600  1.00  0.00    +0.0010  C
ATOM      7  C7  MCU L   1       1.815  -1.252   0.471  1.00  0.00    +0.0263  C
ATOM      8  N8  MCU L   1       2.079   0.099   0.002  1.00  0.00    -0.3372  N
ATOM      9 C15  MCU L   1       1.275   1.100   0.674  1.00  0.00    +0.0268  C
ATOM     10 C16  MCU L   1       0.149   0.293   1.305  1.00  0.00    +0.0074  C
ATOM     11 C17  MCU L   1      -0.998  -0.042   0.327  1.00  0.00    +0.0625  C
ATOM     12 H25  MCU L   1      -3.796  -1.091  -0.816  1.00  0.00    +0.0325  H
ATOM     13 H26  MCU L   1      -2.346  -1.014  -1.873  1.00  0.00    +0.0325  H
ATOM     14 H27  MCU L   1      -3.368  -2.449  -1.873  1.00  0.00    +0.0325  H
ATOM     15 H28  MCU L   1      -0.899  -2.070   2.504  1.00  0.00    +0.0492  H
ATOM     16 H29  MCU L   1      -0.074  -3.052   1.269  1.00  0.00    +0.0492  H
ATOM     17 H30  MCU L   1       1.297  -1.082   2.572  1.00  0.00    +0.0339  H
ATOM     18 H31  MCU L   1       1.426  -1.866  -0.349  1.00  0.00    +0.0492  H
ATOM     19 H32  MCU L   1       2.717  -1.736   0.865  1.00  0.00    +0.0492  H
ATOM     20 H36  MCU L   1       0.896   1.866  -0.012  1.00  0.00    +0.0492  H
ATOM     21 H37  MCU L   1       1.869   1.590   1.455  1.00  0.00    +0.0492  H
ATOM     22 H38  MCU L   1      -0.217   0.766   2.224  1.00  0.00    +0.0345  H
ATOM     23 H39  MCU L   1      -0.671   0.028  -0.718  1.00  0.00    +0.0578  H
ENDROOT
BRANCH 8 24
ATOM     24  C9  MCU L   1       3.145   0.413  -0.758  1.00  0.00    +0.2663  A
ATOM     25 N10  MCU L   1       3.543   1.642  -1.116  1.00  0.00    -0.0376 NA
ATOM     26 O11  MCU L   1       4.671   1.410  -1.899  1.00  0.00    -0.3365 OA
ATOM     27 C12  MCU L   1       4.837   0.060  -1.936  1.00  0.00    +0.2258  A
ATOM     28 C13  MCU L   1       5.979  -0.447  -2.714  1.00  0.00    +0.0148  C
ATOM     29 N14  MCU L   1       3.928  -0.595  -1.254  1.00  0.00    -0.1766 NA
ATOM     30 H33  MCU L   1       6.019  -1.539  -2.677  1.00  0.00    +0.0325  H
ATOM     31 H34  MCU L   1       6.920  -0.056  -2.315  1.00  0.00    +0.0325  H
ATOM     32 H35  MCU L   1       5.894  -0.143  -3.762  1.00  0.00    +0.0325  H
ENDBRANCH 8 24
BRANCH 11 33
ATOM     33 C18  MCU L   1      -2.176   0.885   0.557  1.00  0.00    -0.0219  A
ATOM     34 C19  MCU L   1      -2.382   1.976  -0.305  1.00  0.00    -0.0564  A
ATOM     35 C20  MCU L   1      -3.448   2.857  -0.103  1.00  0.00    -0.0587  A
ATOM     36 C21  MCU L   1      -4.319   2.661   0.968  1.00  0.00    -0.0264  A
ATOM     37 C22  MCU L   1      -4.115   1.589   1.827  1.00  0.00    +0.1237  A
ATOM     38 F23  MCU L   1      -4.948   1.404   2.859  1.00  0.00    -0.2055  F
ATOM     39 C24  MCU L   1      -3.057   0.706   1.635  1.00  0.00    -0.0213  A
ATOM     40 H40  MCU L   1      -1.712   2.148  -1.147  1.00  0.00    +0.0621  H
ATOM     41 H41  MCU L   1      -3.599   3.695  -0.779  1.00  0.00    +0.0619  H
ATOM     42 H42  MCU L   1      -5.151   3.336   1.138  1.00  0.00    +0.0646  H
ATOM     43 H43  MCU L   1      -2.935  -0.120   2.330  1.00  0.00    +0.0650  H
ENDBRANCH 11 33
TORSDOF 2
