ROOT
ATOM      1  N8  528 L   1       0.002  -1.406   0.078  1.00  0.00    -0.2882 NA
ATOM      2  C9  528 L   1      -0.109  -0.170   0.860  1.00  0.00    +0.0055  C
ATOM      3 C10  528 L   1      -1.498   0.523   0.877  1.00  0.00    -0.0123  C
ATOM      4 C11  528 L   1      -1.840   1.140  -0.498  1.00  0.00    -0.0226  C
ATOM      5 C12  528 L   1      -3.106   2.002  -0.478  1.00  0.00    +0.0482  C
ATOM      6 O13  528 L   1      -3.536   2.328   0.841  1.00  0.00    -0.3797 OA
ATOM      7 C14  528 L   1      -2.466   2.793   1.651  1.00  0.00    +0.0482  C
ATOM      8 C15  528 L   1      -1.435   1.692   1.899  1.00  0.00    -0.0226  C
ATOM      9 C16  528 L   1      -2.594  -0.499   1.293  1.00  0.00    -0.0446  C
ATOM     10 C17  528 L   1      -2.105  -1.948   1.296  1.00  0.00    -0.0347  C
ATOM     11 C18  528 L   1      -1.206  -2.248   0.083  1.00  0.00    +0.0340  C
ATOM     12 H30  528 L   1       0.661   0.554   0.568  1.00  0.00    +0.0432  H
ATOM     13 H31  528 L   1       0.153  -0.434   1.895  1.00  0.00    +0.0432  H
ATOM     14 H32  528 L   1      -1.954   0.375  -1.274  1.00  0.00    +0.0293  H
ATOM     15 H33  528 L   1      -1.003   1.772  -0.825  1.00  0.00    +0.0293  H
ATOM     16 H34  528 L   1      -3.930   1.465  -0.960  1.00  0.00    +0.0560  H
ATOM     17 H35  528 L   1      -2.954   2.926  -1.048  1.00  0.00    +0.0560  H
ATOM     18 H36  528 L   1      -2.881   3.137   2.604  1.00  0.00    +0.0560  H
ATOM     19 H37  528 L   1      -2.001   3.662   1.172  1.00  0.00    +0.0560  H
ATOM     20 H38  528 L   1      -0.444   2.164   1.892  1.00  0.00    +0.0293  H
ATOM     21 H39  528 L   1      -1.553   1.304   2.919  1.00  0.00    +0.0293  H
ATOM     22 H40  528 L   1      -3.454  -0.440   0.614  1.00  0.00    +0.0272  H
ATOM     23 H41  528 L   1      -2.995  -0.275   2.290  1.00  0.00    +0.0272  H
ATOM     24 H42  528 L   1      -2.978  -2.612   1.305  1.00  0.00    +0.0281  H
ATOM     25 H43  528 L   1      -1.560  -2.148   2.228  1.00  0.00    +0.0281  H
ATOM     26 H44  528 L   1      -1.810  -2.046  -0.813  1.00  0.00    +0.0485  H
ENDROOT
BRANCH 1 27
ATOM     27  C7  528 L   1       0.579  -1.224  -1.268  1.00  0.00    +0.0760  C
ATOM     28 H28  528 L   1       0.051  -0.446  -1.827  1.00  0.00    +0.0523  H
ATOM     29 H29  528 L   1       0.462  -2.143  -1.856  1.00  0.00    +0.0523  H
BRANCH 27 33
ATOM     30  C3  528 L   1       3.777   0.363  -1.317  1.00  0.00    +0.1250  A
ATOM     31  C4  528 L   1       4.168  -0.952  -1.234  1.00  0.00    +0.0692  A
ATOM     32  N5  528 L   1       3.067  -1.768  -1.207  1.00  0.00    -0.2204 NA
ATOM     33  C6  528 L   1       2.049  -0.928  -1.256  1.00  0.00    +0.2098  A
ATOM     34 O21  528 L   1       2.411   0.392  -1.344  1.00  0.00    -0.4433 OA
ATOM     35 H27  528 L   1       5.171  -1.351  -1.193  1.00  0.00    +0.0865  H
BRANCH 30 37
ATOM     36  C1  528 L   1       4.596   2.299  -0.002  1.00  0.00    -0.0584  C
ATOM     37  C2  528 L   1       4.487   1.659  -1.376  1.00  0.00    +0.0042  C
ATOM     38 H22  528 L   1       5.142   1.653   0.695  1.00  0.00    +0.0234  H
ATOM     39 H23  528 L   1       3.606   2.491   0.426  1.00  0.00    +0.0234  H
ATOM     40 H24  528 L   1       5.128   3.253  -0.069  1.00  0.00    +0.0234  H
ATOM     41 H25  528 L   1       3.960   2.339  -2.056  1.00  0.00    +0.0341  H
ATOM     42 H26  528 L   1       5.491   1.510  -1.790  1.00  0.00    +0.0341  H
ENDBRANCH 30 37
ENDBRANCH 27 33
ENDBRANCH 1 27
BRANCH 11 43
ATOM     43 C19  528 L   1      -0.821  -3.747   0.089  1.00  0.00    +0.0598  C
ATOM     44 O20  528 L   1      -1.970  -4.574  -0.099  1.00  0.00    -0.3935 OA
ATOM     45 H45  528 L   1      -0.358  -4.027   1.042  1.00  0.00    +0.0573  H
ATOM     46 H46  528 L   1      -0.111  -3.992  -0.707  1.00  0.00    +0.0573  H
ATOM     47 H47  528 L   1      -2.288  -4.424  -1.006  1.00  0.00    +0.2095 HD
ENDBRANCH 11 43
TORSDOF 4
