ROOT
ATOM      1  C9  CHE L   1      -3.291   0.379   1.241  1.00  0.00    +0.1079  A
ATOM      2 N10  CHE L   1      -4.073   1.514   1.324  1.00  0.00    -0.3534  N
ATOM      3 C11  CHE L   1      -5.079   1.459   0.407  1.00  0.00    +0.0279  A
ATOM      4 C12  CHE L   1      -5.000   0.251  -0.253  1.00  0.00    +0.0416  A
ATOM      5 C13  CHE L   1      -3.889  -0.462   0.299  1.00  0.00    -0.0097  A
ATOM      6 C14  CHE L   1      -3.478  -1.845  -0.074  1.00  0.00    -0.0369  C
ATOM      7 C15  CHE L   1      -5.968  -0.095  -1.290  1.00  0.00    +0.1656  C
ATOM      8 O16  CHE L   1      -5.949  -1.171  -1.884  1.00  0.00    -0.2920 OA
ATOM      9 C17  CHE L   1      -6.972   0.996  -1.666  1.00  0.00    +0.0160  C
ATOM     10 C18  CHE L   1      -7.354   1.948  -0.497  1.00  0.00    -0.0226  C
ATOM     11 C19  CHE L   1      -8.218   1.194   0.537  1.00  0.00    -0.0591  C
ATOM     12 C20  CHE L   1      -8.194   3.110  -1.060  1.00  0.00    -0.0591  C
ATOM     13 C21  CHE L   1      -6.084   2.535   0.183  1.00  0.00    -0.0062  C
ATOM     14 H47  CHE L   1      -3.878   2.278   1.961  1.00  0.00    +0.1658 HD
ATOM     15 H48  CHE L   1      -3.065  -2.375   0.790  1.00  0.00    +0.0278  H
ATOM     16 H49  CHE L   1      -2.725  -1.816  -0.868  1.00  0.00    +0.0278  H
ATOM     17 H50  CHE L   1      -4.328  -2.438  -0.426  1.00  0.00    +0.0278  H
ATOM     18 H51  CHE L   1      -7.870   0.509  -2.064  1.00  0.00    +0.0350  H
ATOM     19 H52  CHE L   1      -6.517   1.570  -2.484  1.00  0.00    +0.0350  H
ATOM     20 H53  CHE L   1      -8.519   1.857   1.356  1.00  0.00    +0.0235  H
ATOM     21 H54  CHE L   1      -7.687   0.345   0.980  1.00  0.00    +0.0235  H
ATOM     22 H55  CHE L   1      -9.133   0.804   0.075  1.00  0.00    +0.0235  H
ATOM     23 H56  CHE L   1      -8.483   3.810  -0.267  1.00  0.00    +0.0235  H
ATOM     24 H57  CHE L   1      -7.635   3.675  -1.814  1.00  0.00    +0.0235  H
ATOM     25 H58  CHE L   1      -9.111   2.742  -1.533  1.00  0.00    +0.0235  H
ATOM     26 H59  CHE L   1      -6.343   3.027   1.128  1.00  0.00    +0.0333  H
ATOM     27 H60  CHE L   1      -5.629   3.295  -0.465  1.00  0.00    +0.0333  H
ENDROOT
BRANCH 1 29
ATOM     28  N6  CHE L   1      -1.131  -0.586   1.594  1.00  0.00    -0.3394  N
ATOM     29  C7  CHE L   1      -2.114   0.251   2.078  1.00  0.00    +0.2692  C
ATOM     30  O8  CHE L   1      -1.978   0.902   3.111  1.00  0.00    -0.2660 OA
ATOM     31 H46  CHE L   1      -1.178  -0.716   0.592  1.00  0.00    +0.1634 HD
BRANCH 28 32
ATOM     32  C5  CHE L   1       0.213  -0.521   2.158  1.00  0.00    +0.1082  C
ATOM     33 H45  CHE L   1       0.123  -0.199   3.204  1.00  0.00    +0.0621  H
BRANCH 32 34
ATOM     34  C4  CHE L   1       0.923  -1.887   2.160  1.00  0.00    -0.0238  C
ATOM     35 H43  CHE L   1       1.728  -1.833   2.906  1.00  0.00    +0.0290  H
ATOM     36 H44  CHE L   1       0.235  -2.656   2.531  1.00  0.00    +0.0290  H
BRANCH 34 37
ATOM     37  C3  CHE L   1       1.581  -2.357   0.855  1.00  0.00    -0.0510  C
ATOM     38 H41  CHE L   1       2.307  -1.610   0.518  1.00  0.00    +0.0266  H
ATOM     39 H42  CHE L   1       2.171  -3.253   1.085  1.00  0.00    +0.0266  H
BRANCH 37 41
ATOM     40  C1  CHE L   1      -0.298  -3.841  -0.013  1.00  0.00    -0.0653  C
ATOM     41  C2  CHE L   1       0.650  -2.690  -0.309  1.00  0.00    -0.0558  C
ATOM     42 H36  CHE L   1       0.258  -4.744   0.260  1.00  0.00    +0.0230  H
ATOM     43 H37  CHE L   1      -0.900  -4.069  -0.898  1.00  0.00    +0.0230  H
ATOM     44 H38  CHE L   1      -0.983  -3.600   0.804  1.00  0.00    +0.0230  H
ATOM     45 H39  CHE L   1       0.086  -1.807  -0.623  1.00  0.00    +0.0263  H
ATOM     46 H40  CHE L   1       1.269  -2.973  -1.171  1.00  0.00    +0.0263  H
ENDBRANCH 37 41
ENDBRANCH 34 37
ENDBRANCH 32 34
BRANCH 32 47
ATOM     47 C22  CHE L   1       1.019   0.572   1.420  1.00  0.00    +0.2436  C
ATOM     48 O23  CHE L   1       0.645   1.059   0.354  1.00  0.00    -0.2710 OA
ATOM     49 N24  CHE L   1       2.198   0.928   2.040  1.00  0.00    -0.3503  N
ATOM     50 H61  CHE L   1       2.527   0.384   2.824  1.00  0.00    +0.1627 HD
BRANCH 49 51
ATOM     51 C25  CHE L   1       3.141   1.827   1.415  1.00  0.00    +0.0435  C
ATOM     52 H62  CHE L   1       3.635   2.391   2.214  1.00  0.00    +0.0536  H
ATOM     53 H63  CHE L   1       2.617   2.553   0.782  1.00  0.00    +0.0536  H
BRANCH 51 54
ATOM     54 C26  CHE L   1       4.158   1.062   0.609  1.00  0.00    -0.0283  A
ATOM     55 C27  CHE L   1       5.363   0.639   1.185  1.00  0.00    -0.0566  A
ATOM     56 C28  CHE L   1       6.286  -0.098   0.437  1.00  0.00    -0.0570  A
ATOM     57 C29  CHE L   1       6.022  -0.432  -0.899  1.00  0.00    -0.0334  A
ATOM     58 C34  CHE L   1       4.809  -0.020  -1.467  1.00  0.00    -0.0570  A
ATOM     59 C35  CHE L   1       3.888   0.720  -0.722  1.00  0.00    -0.0566  A
ATOM     60 H64  CHE L   1       5.594   0.881   2.220  1.00  0.00    +0.0621  H
ATOM     61 H65  CHE L   1       7.217  -0.413   0.904  1.00  0.00    +0.0621  H
ATOM     62 H74  CHE L   1       4.572  -0.274  -2.498  1.00  0.00    +0.0621  H
ATOM     63 H75  CHE L   1       2.949   1.020  -1.183  1.00  0.00    +0.0621  H
BRANCH 57 64
ATOM     64 C30  CHE L   1       7.019  -1.235  -1.709  1.00  0.00    +0.0235  C
ATOM     65 H66  CHE L   1       6.466  -1.890  -2.397  1.00  0.00    +0.0475  H
ATOM     66 H67  CHE L   1       7.537  -1.935  -1.039  1.00  0.00    +0.0475  H
BRANCH 64 67
ATOM     67 N31  CHE L   1       8.021  -0.480  -2.475  1.00  0.00    -0.3042 NA
ATOM     68 C32  CHE L   1       8.929   0.294  -1.636  1.00  0.00    -0.0127  C
ATOM     69 C33  CHE L   1       7.441   0.349  -3.526  1.00  0.00    -0.0127  C
ATOM     70 H68  CHE L   1       9.388  -0.342  -0.870  1.00  0.00    +0.0391  H
ATOM     71 H69  CHE L   1       9.751   0.697  -2.238  1.00  0.00    +0.0391  H
ATOM     72 H70  CHE L   1       8.435   1.136  -1.140  1.00  0.00    +0.0391  H
ATOM     73 H71  CHE L   1       6.874   1.199  -3.132  1.00  0.00    +0.0391  H
ATOM     74 H72  CHE L   1       8.231   0.745  -4.174  1.00  0.00    +0.0391  H
ATOM     75 H73  CHE L   1       6.782  -0.244  -4.170  1.00  0.00    +0.0391  H
ENDBRANCH 64 67
ENDBRANCH 57 64
ENDBRANCH 51 54
ENDBRANCH 49 51
ENDBRANCH 32 47
ENDBRANCH 28 32
ENDBRANCH 1 29
TORSDOF 10
