ROOT
ATOM      1 C11  LIG L   1      -1.116   0.942 -11.596  1.00  0.00    +0.1414  C
ATOM      2 N12  LIG L   1      -1.547   0.919 -10.288  1.00  0.00    -0.2075 NA
ATOM      3 C13  LIG L   1      -0.722   0.711  -9.256  1.00  0.00    +0.1972  A
ATOM      4 C14  LIG L   1      -0.949   0.648  -7.899  1.00  0.00    +0.2270  A
ATOM      5 N24  LIG L   1       0.217   0.413  -7.273  1.00  0.00    -0.1151 NA
ATOM      6 N25  LIG L   1       1.171   0.329  -8.217  1.00  0.00    -0.0575 NA
ATOM      7 N26  LIG L   1       0.600   0.508  -9.404  1.00  0.00    -0.1927  N
ATOM      8 C27  LIG L   1       1.065   0.522 -10.685  1.00  0.00    +0.0800  A
ATOM      9 C28  LIG L   1       2.416   0.295 -10.832  1.00  0.00    -0.0354  A
ATOM     10 C29  LIG L   1       2.942   0.279 -12.105  1.00  0.00    -0.0597  A
ATOM     11 C30  LIG L   1       2.112   0.487 -13.185  1.00  0.00    -0.0610  A
ATOM     12 C31  LIG L   1       0.769   0.711 -13.009  1.00  0.00    -0.0491  A
ATOM     13 C32  LIG L   1       0.221   0.736 -11.764  1.00  0.00    +0.0427  A
ATOM     14 H55  LIG L   1       3.076   0.127  -9.983  1.00  0.00    +0.0639  H
ATOM     15 H56  LIG L   1       4.004   0.099 -12.256  1.00  0.00    +0.0618  H
ATOM     16 H57  LIG L   1       2.529   0.459 -14.191  1.00  0.00    +0.0618  H
ATOM     17 H58  LIG L   1       0.177   0.809 -13.910  1.00  0.00    +0.0625  H
ENDROOT
BRANCH 1 21
ATOM     18  N7  LIG L   1      -3.851   3.108 -12.647  1.00  0.00    -0.3670  N
ATOM     19  C8  LIG L   1      -4.160   1.966 -11.751  1.00  0.00    +0.0363  C
ATOM     20  C9  LIG L   1      -3.456   0.733 -12.275  1.00  0.00    +0.0376  C
ATOM     21 N10  LIG L   1      -2.079   1.235 -12.558  1.00  0.00    -0.3519  N
ATOM     22 C33  LIG L   1      -1.983   2.005 -13.764  1.00  0.00    +0.0376  C
ATOM     23 C34  LIG L   1      -3.272   2.818 -13.913  1.00  0.00    +0.0363  C
ATOM     24 H46  LIG L   1      -3.837   2.194 -10.728  1.00  0.00    +0.0505  H
ATOM     25 H47  LIG L   1      -5.233   1.746 -11.726  1.00  0.00    +0.0505  H
ATOM     26 H48  LIG L   1      -3.916   0.345 -13.192  1.00  0.00    +0.0506  H
ATOM     27 H49  LIG L   1      -3.472  -0.084 -11.546  1.00  0.00    +0.0506  H
ATOM     28 H59  LIG L   1      -1.845   1.367 -14.643  1.00  0.00    +0.0506  H
ATOM     29 H60  LIG L   1      -1.136   2.697 -13.711  1.00  0.00    +0.0506  H
ATOM     30 H61  LIG L   1      -3.092   3.712 -14.522  1.00  0.00    +0.0505  H
ATOM     31 H62  LIG L   1      -3.994   2.239 -14.504  1.00  0.00    +0.0505  H
BRANCH 18 37
ATOM     32  C1  LIG L   1      -3.292   7.880 -11.218  1.00  0.00    -0.0394  C
ATOM     33  C2  LIG L   1      -4.011   6.598 -11.423  1.00  0.00    -0.0453  A
ATOM     34  C3  LIG L   1      -5.366   6.631 -11.053  1.00  0.00    -0.0585  A
ATOM     35  C4  LIG L   1      -6.173   5.535 -11.214  1.00  0.00    -0.0596  A
ATOM     36  C5  LIG L   1      -5.602   4.410 -11.750  1.00  0.00    -0.0382  A
ATOM     37  C6  LIG L   1      -4.238   4.368 -12.124  1.00  0.00    +0.0414  A
ATOM     38 C35  LIG L   1      -3.425   5.473 -11.961  1.00  0.00    -0.0213  A
ATOM     39 H40  LIG L   1      -2.807   8.205 -12.145  1.00  0.00    +0.0278  H
ATOM     40 H41  LIG L   1      -3.955   8.700 -10.915  1.00  0.00    +0.0278  H
ATOM     41 H42  LIG L   1      -2.535   7.777 -10.434  1.00  0.00    +0.0278  H
ATOM     42 H43  LIG L   1      -5.804   7.534 -10.631  1.00  0.00    +0.0620  H
ATOM     43 H44  LIG L   1      -7.221   5.560 -10.938  1.00  0.00    +0.0618  H
ATOM     44 H45  LIG L   1      -6.255   3.560 -11.921  1.00  0.00    +0.0638  H
BRANCH 38 45
ATOM     45 C36  LIG L   1      -2.011   5.339 -12.316  1.00  0.00    -0.0248  C
ATOM     46 H63  LIG L   1      -1.890   4.904 -13.310  1.00  0.00    +0.0314  H
ATOM     47 H64  LIG L   1      -1.556   6.328 -12.447  1.00  0.00    +0.0314  H
BRANCH 45 48
ATOM     48 C37  LIG L   1      -1.170   4.541 -11.302  1.00  0.00    -0.0402  C
ATOM     49 H65  LIG L   1      -0.240   4.219 -11.786  1.00  0.00    +0.0276  H
ATOM     50 H66  LIG L   1      -1.702   3.627 -11.027  1.00  0.00    +0.0276  H
BRANCH 48 51
ATOM     51 C38  LIG L   1      -0.838   5.268 -10.000  1.00  0.00    -0.0090  C
ATOM     52 S39  LIG L   1       0.405   6.577 -10.242  1.00  0.00    -0.1782 SA
ATOM     53 H67  LIG L   1      -0.415   4.553  -9.286  1.00  0.00    +0.0374  H
ATOM     54 H68  LIG L   1      -1.732   5.696  -9.540  1.00  0.00    +0.0374  H
ATOM     55 H69  LIG L   1       1.411   5.767 -10.598  1.00  0.00    +0.1016 HD
ENDBRANCH 48 51
ENDBRANCH 45 48
ENDBRANCH 38 45
ENDBRANCH 18 37
ENDBRANCH 1 21
BRANCH 4 56
ATOM     56 S15  LIG L   1      -2.473   0.821  -7.042  1.00  0.00    +0.2297  S
ATOM     57 O16  LIG L   1      -3.440   1.698  -7.781  1.00  0.00    -0.2153 OA
ATOM     58 O17  LIG L   1      -2.241   1.432  -5.678  1.00  0.00    -0.2153 OA
BRANCH 56 59
ATOM     59 C18  LIG L   1      -3.240  -0.759  -6.872  1.00  0.00    +0.0730  A
ATOM     60 C19  LIG L   1      -2.950  -1.457  -5.713  1.00  0.00    -0.0432  A
ATOM     61 C20  LIG L   1      -3.492  -2.707  -5.475  1.00  0.00    -0.0606  A
ATOM     62 C21  LIG L   1      -4.324  -3.220  -6.433  1.00  0.00    -0.0617  A
ATOM     63 C22  LIG L   1      -4.630  -2.534  -7.609  1.00  0.00    -0.0606  A
ATOM     64 C23  LIG L   1      -4.071  -1.271  -7.828  1.00  0.00    -0.0432  A
ATOM     65 H50  LIG L   1      -2.292  -1.029  -4.956  1.00  0.00    +0.0630  H
ATOM     66 H51  LIG L   1      -3.269  -3.252  -4.563  1.00  0.00    +0.0618  H
ATOM     67 H52  LIG L   1      -4.771  -4.201  -6.273  1.00  0.00    +0.0618  H
ATOM     68 H53  LIG L   1      -5.302  -2.972  -8.341  1.00  0.00    +0.0618  H
ATOM     69 H54  LIG L   1      -4.306  -0.717  -8.733  1.00  0.00    +0.0630  H
ENDBRANCH 56 59
ENDBRANCH 4 56
TORSDOF 7
