ROOT
ATOM      1 C14  CHE L   1       1.169  -0.132   0.033  1.00  0.00    +0.0834  A
ATOM      2 C15  CHE L   1       0.714   1.175  -0.165  1.00  0.00    -0.0036  A
ATOM      3 C16  CHE L   1       1.642   2.196  -0.290  1.00  0.00    +0.1679  A
ATOM      4 F17  CHE L   1       1.203   3.448  -0.479  1.00  0.00    -0.2015  F
ATOM      5 C18  CHE L   1       3.001   1.925  -0.221  1.00  0.00    +0.1784  A
ATOM      6 O19  CHE L   1       3.901   2.959  -0.349  1.00  0.00    -0.5024 OA
ATOM      7 C20  CHE L   1       3.483   0.637  -0.026  1.00  0.00    +0.1163  A
ATOM      8 N21  CHE L   1       4.822   0.480   0.027  1.00  0.00    -0.2512 NA
ATOM      9 C22  CHE L   1       5.309  -0.764   0.216  1.00  0.00    +0.0284  A
ATOM     10 C23  CHE L   1       4.514  -1.879   0.358  1.00  0.00    -0.0430  A
ATOM     11 C24  CHE L   1       3.134  -1.709   0.302  1.00  0.00    -0.0498  A
ATOM     12 C25  CHE L   1       2.564  -0.428   0.106  1.00  0.00    +0.0226  A
ATOM     13 H30  CHE L   1      -0.335   1.439  -0.226  1.00  0.00    +0.0660  H
ATOM     14 H31  CHE L   1       4.779   2.527  -0.267  1.00  0.00    +0.2923 HD
ATOM     15 H32  CHE L   1       6.393  -0.840   0.251  1.00  0.00    +0.0830  H
ATOM     16 H33  CHE L   1       4.950  -2.861   0.508  1.00  0.00    +0.0633  H
ATOM     17 H34  CHE L   1       2.514  -2.597   0.416  1.00  0.00    +0.0625  H
ENDROOT
BRANCH 1 19
ATOM     18  O1  CHE L   1       0.122  -1.959   1.546  1.00  0.00    -0.2170 OA
ATOM     19  S2  CHE L   1      -0.018  -1.448   0.195  1.00  0.00    +0.2079  S
ATOM     20  O3  CHE L   1       0.177  -2.316  -0.952  1.00  0.00    -0.2170 OA
BRANCH 19 21
ATOM     21  C4  CHE L   1      -1.674  -0.803   0.065  1.00  0.00    +0.0713  A
ATOM     22  C5  CHE L   1      -2.350  -0.401   1.220  1.00  0.00    -0.0427  A
ATOM     23  C6  CHE L   1      -3.653   0.090   1.117  1.00  0.00    -0.0489  A
ATOM     24  C7  CHE L   1      -4.293   0.165  -0.132  1.00  0.00    +0.0549  A
ATOM     25 C12  CHE L   1      -3.600  -0.253  -1.281  1.00  0.00    -0.0489  A
ATOM     26 C13  CHE L   1      -2.296  -0.745  -1.185  1.00  0.00    -0.0427  A
ATOM     27 H26  CHE L   1      -1.878  -0.469   2.199  1.00  0.00    +0.0630  H
ATOM     28 H27  CHE L   1      -4.177   0.408   2.019  1.00  0.00    +0.0623  H
ATOM     29 H28  CHE L   1      -4.081  -0.205  -2.258  1.00  0.00    +0.0623  H
ATOM     30 H29  CHE L   1      -1.782  -1.082  -2.084  1.00  0.00    +0.0630  H
BRANCH 24 31
ATOM     31  C8  CHE L   1      -5.698   0.714  -0.242  1.00  0.00    +0.4174  C
ATOM     32  F9  CHE L   1      -5.707   2.061  -0.435  1.00  0.00    -0.1659  F
ATOM     33 F10  CHE L   1      -6.448   0.488   0.872  1.00  0.00    -0.1659  F
ATOM     34 F11  CHE L   1      -6.400   0.180  -1.280  1.00  0.00    -0.1659  F
ENDBRANCH 24 31
ENDBRANCH 19 21
ENDBRANCH 1 19
TORSDOF 3
