ROOT
ATOM      1  N8  170 L   1       0.928  -0.498   0.578  1.00  0.00    -0.2964 NA
ATOM      2  C9  170 L   1       0.428  -0.658  -0.792  1.00  0.00    +0.0019  C
ATOM      3 C10  170 L   1      -0.904  -1.399  -0.868  1.00  0.00    -0.0108  C
ATOM      4 C11  170 L   1      -2.020  -0.673  -0.080  1.00  0.00    +0.0745  C
ATOM      5 C12  170 L   1      -1.421   0.046   1.150  1.00  0.00    -0.0108  C
ATOM      6 C13  170 L   1      -0.120  -0.619   1.600  1.00  0.00    +0.0019  C
ATOM      7 C14  170 L   1      -2.768   0.316  -1.004  1.00  0.00    +0.0051  C
ATOM      8 C15  170 L   1      -4.033   0.906  -0.358  1.00  0.00    +0.0680  C
ATOM      9 C16  170 L   1      -5.004   1.367  -1.451  1.00  0.00    -0.0359  C
ATOM     10 O17  170 L   1      -3.666   2.071   0.386  1.00  0.00    -0.3887 OA
ATOM     11 C18  170 L   1      -4.701  -0.098   0.591  1.00  0.00    -0.0006  C
ATOM     12 C19  170 L   1      -4.291  -1.516   0.239  1.00  0.00    +0.0510  C
ATOM     13 O20  170 L   1      -2.891  -1.723   0.398  1.00  0.00    -0.3731 OA
ATOM     14 H31  170 L   1       1.148  -1.167  -1.441  1.00  0.00    +0.0428  H
ATOM     15 H32  170 L   1       0.304   0.343  -1.223  1.00  0.00    +0.0428  H
ATOM     16 H33  170 L   1      -1.196  -1.526  -1.918  1.00  0.00    +0.0305  H
ATOM     17 H34  170 L   1      -0.769  -2.421  -0.486  1.00  0.00    +0.0305  H
ATOM     18 H35  170 L   1      -2.123   0.035   1.990  1.00  0.00    +0.0305  H
ATOM     19 H36  170 L   1      -1.204   1.097   0.921  1.00  0.00    +0.0305  H
ATOM     20 H37  170 L   1       0.225  -0.132   2.521  1.00  0.00    +0.0428  H
ATOM     21 H38  170 L   1      -0.317  -1.671   1.846  1.00  0.00    +0.0428  H
ATOM     22 H39  170 L   1      -3.065  -0.229  -1.912  1.00  0.00    +0.0321  H
ATOM     23 H40  170 L   1      -2.092   1.119  -1.324  1.00  0.00    +0.0321  H
ATOM     24 H41  170 L   1      -5.876   1.869  -1.015  1.00  0.00    +0.0257  H
ATOM     25 H42  170 L   1      -4.525   2.100  -2.111  1.00  0.00    +0.0257  H
ATOM     26 H43  170 L   1      -5.357   0.529  -2.060  1.00  0.00    +0.0257  H
ATOM     27 H44  170 L   1      -4.466   2.427   0.810  1.00  0.00    +0.2101 HD
ATOM     28 H45  170 L   1      -5.793  -0.006   0.555  1.00  0.00    +0.0315  H
ATOM     29 H46  170 L   1      -4.412   0.115   1.628  1.00  0.00    +0.0315  H
ATOM     30 H47  170 L   1      -4.801  -2.226   0.897  1.00  0.00    +0.0561  H
ATOM     31 H48  170 L   1      -4.574  -1.773  -0.788  1.00  0.00    +0.0561  H
ENDROOT
BRANCH 1 32
ATOM     32  C7  170 L   1       2.066  -1.378   0.904  1.00  0.00    +0.0429  C
ATOM     33 H29  170 L   1       1.853  -2.417   0.622  1.00  0.00    +0.0492  H
ATOM     34 H30  170 L   1       2.241  -1.379   1.989  1.00  0.00    +0.0492  H
BRANCH 32 38
ATOM     35  N3  170 L   1       5.126   0.201  -0.029  1.00  0.00    -0.2714  N
ATOM     36  C4  170 L   1       5.073  -0.635  -1.105  1.00  0.00    +0.0258  A
ATOM     37  C5  170 L   1       3.923  -1.371  -0.952  1.00  0.00    -0.0197  A
ATOM     38  C6  170 L   1       3.338  -0.904   0.253  1.00  0.00    +0.0769  A
ATOM     39 N21  170 L   1       4.105   0.036   0.829  1.00  0.00    -0.1749 NA
ATOM     40 H27  170 L   1       5.834  -0.633  -1.872  1.00  0.00    +0.0826  H
ATOM     41 H28  170 L   1       3.547  -2.135  -1.616  1.00  0.00    +0.0651  H
BRANCH 35 43
ATOM     42  C1  170 L   1       5.749   2.578  -0.197  1.00  0.00    -0.0455  C
ATOM     43  C2  170 L   1       6.151   1.186   0.256  1.00  0.00    +0.0387  C
ATOM     44 H22  170 L   1       6.545   3.295   0.026  1.00  0.00    +0.0247  H
ATOM     45 H23  170 L   1       5.559   2.602  -1.276  1.00  0.00    +0.0247  H
ATOM     46 H24  170 L   1       4.837   2.911   0.310  1.00  0.00    +0.0247  H
ATOM     47 H25  170 L   1       7.069   0.869  -0.252  1.00  0.00    +0.0506  H
ATOM     48 H26  170 L   1       6.340   1.166   1.334  1.00  0.00    +0.0506  H
ENDBRANCH 35 43
ENDBRANCH 32 38
ENDBRANCH 1 32
TORSDOF 3
