ROOT
ATOM      1 C12  WH0 L   1       0.203   2.296   0.892  1.00  0.00    -0.0133  A
ATOM      2 C13  WH0 L   1       0.794   2.518   2.160  1.00  0.00    -0.0519  A
ATOM      3 C14  WH0 L   1       1.781   3.505   2.326  1.00  0.00    -0.0374  A
ATOM      4 C15  WH0 L   1       2.148   4.266   1.218  1.00  0.00    +0.0454  A
ATOM      5 C16  WH0 L   1       1.561   4.075  -0.015  1.00  0.00    -0.0145  A
ATOM      6 C17  WH0 L   1       0.588   3.093  -0.207  1.00  0.00    -0.0483  A
ATOM      7 C18  WH0 L   1       2.177   4.974  -1.039  1.00  0.00    +0.0535  C
ATOM      8 C19  WH0 L   1       3.203   5.660  -0.189  1.00  0.00    +0.2296  C
ATOM      9 O20  WH0 L   1       4.036   6.495  -0.626  1.00  0.00    -0.2725 OA
ATOM     10 N21  WH0 L   1       3.170   5.241   1.171  1.00  0.00    -0.3256  N
ATOM     11 H50  WH0 L   1       0.524   1.899   3.007  1.00  0.00    +0.0624  H
ATOM     12 H51  WH0 L   1       2.258   3.655   3.285  1.00  0.00    +0.0638  H
ATOM     13 H52  WH0 L   1       0.160   2.938  -1.191  1.00  0.00    +0.0627  H
ATOM     14 H53  WH0 L   1       2.658   4.387  -1.848  1.00  0.00    +0.0410  H
ATOM     15 H54  WH0 L   1       1.434   5.699  -1.436  1.00  0.00    +0.0410  H
ATOM     16 H55  WH0 L   1       3.835   5.502   1.932  1.00  0.00    +0.1686 HD
ENDROOT
BRANCH 1 22
ATOM     17  C6  WH0 L   1      -3.691  -0.631   1.394  1.00  0.00    +0.2282  A
ATOM     18  N7  WH0 L   1      -4.207  -0.038   2.510  1.00  0.00    -0.2207 NA
ATOM     19  C8  WH0 L   1      -3.602   1.040   3.091  1.00  0.00    +0.0334  A
ATOM     20  C9  WH0 L   1      -2.418   1.561   2.555  1.00  0.00    -0.0173  A
ATOM     21 C10  WH0 L   1      -1.901   0.921   1.432  1.00  0.00    +0.0803  A
ATOM     22 C11  WH0 L   1      -0.763   1.196   0.698  1.00  0.00    +0.0353  A
ATOM     23 C22  WH0 L   1      -0.779   0.233  -0.315  1.00  0.00    +0.1015  A
ATOM     24 N37  WH0 L   1      -1.870  -0.555  -0.181  1.00  0.00    -0.1627 NA
ATOM     25 N38  WH0 L   1      -2.536  -0.123   0.876  1.00  0.00    -0.1987  N
ATOM     26 H48  WH0 L   1      -4.043   1.492   3.969  1.00  0.00    +0.0831  H
ATOM     27 H49  WH0 L   1      -1.935   2.421   2.999  1.00  0.00    +0.0654  H
BRANCH 17 32
ATOM     28  N1  WH0 L   1      -6.684  -4.989  -0.579  1.00  0.00    -0.3271 NA
ATOM     29  C2  WH0 L   1      -5.454  -4.230  -0.340  1.00  0.00    +0.0080  C
ATOM     30  C3  WH0 L   1      -5.523  -2.881  -1.081  1.00  0.00    -0.0199  C
ATOM     31  C4  WH0 L   1      -4.374  -1.964  -0.649  1.00  0.00    +0.0228  C
ATOM     32  N5  WH0 L   1      -4.359  -1.773   0.811  1.00  0.00    -0.3402  N
ATOM     33 C39  WH0 L   1      -5.225  -2.606   1.662  1.00  0.00    +0.0228  C
ATOM     34 C40  WH0 L   1      -5.214  -4.065   1.186  1.00  0.00    -0.0199  C
ATOM     35 H41  WH0 L   1      -6.815  -5.097  -1.613  1.00  0.00    +0.1185 HD
ATOM     36 H42  WH0 L   1      -6.544  -5.955  -0.206  1.00  0.00    +0.1185 HD
ATOM     37 H43  WH0 L   1      -4.597  -4.803  -0.764  1.00  0.00    +0.0459  H
ATOM     38 H44  WH0 L   1      -5.464  -3.052  -2.178  1.00  0.00    +0.0297  H
ATOM     39 H45  WH0 L   1      -6.491  -2.379  -0.866  1.00  0.00    +0.0297  H
ATOM     40 H46  WH0 L   1      -3.415  -2.425  -0.969  1.00  0.00    +0.0489  H
ATOM     41 H47  WH0 L   1      -4.495  -0.982  -1.160  1.00  0.00    +0.0489  H
ATOM     42 H66  WH0 L   1      -4.873  -2.581   2.719  1.00  0.00    +0.0489  H
ATOM     43 H67  WH0 L   1      -6.264  -2.207   1.635  1.00  0.00    +0.0489  H
ATOM     44 H68  WH0 L   1      -5.976  -4.626   1.770  1.00  0.00    +0.0297  H
ATOM     45 H69  WH0 L   1      -4.227  -4.509   1.444  1.00  0.00    +0.0297  H
ENDBRANCH 17 32
BRANCH 23 46
ATOM     46 C23  WH0 L   1       0.249   0.019  -1.353  1.00  0.00    +0.0032  A
ATOM     47 C24  WH0 L   1      -0.128  -0.329  -2.659  1.00  0.00    -0.0498  A
ATOM     48 C25  WH0 L   1       0.844  -0.513  -3.648  1.00  0.00    -0.0256  A
ATOM     49 C26  WH0 L   1       2.200  -0.359  -3.339  1.00  0.00    +0.1266  A
ATOM     50 F27  WH0 L   1       3.128  -0.553  -4.310  1.00  0.00    -0.2052  F
ATOM     51 C28  WH0 L   1       2.593  -0.025  -2.030  1.00  0.00    -0.0099  A
ATOM     52 C36  WH0 L   1       1.612   0.142  -1.040  1.00  0.00    -0.0465  A
ATOM     53 H56  WH0 L   1      -1.173  -0.441  -2.917  1.00  0.00    +0.0625  H
ATOM     54 H57  WH0 L   1       0.545  -0.776  -4.656  1.00  0.00    +0.0646  H
ATOM     55 H65  WH0 L   1       1.916   0.358  -0.024  1.00  0.00    +0.0628  H
BRANCH 51 56
ATOM     56 C29  WH0 L   1       4.049   0.075  -1.657  1.00  0.00    -0.0074  C
ATOM     57 H58  WH0 L   1       4.172   0.784  -0.808  1.00  0.00    +0.0331  H
ATOM     58 H59  WH0 L   1       4.639   0.485  -2.506  1.00  0.00    +0.0331  H
BRANCH 56 59
ATOM     59 C30  WH0 L   1       4.597  -1.300  -1.265  1.00  0.00    +0.0222  C
ATOM     60 H60  WH0 L   1       3.923  -1.798  -0.532  1.00  0.00    +0.0489  H
ATOM     61 H61  WH0 L   1       4.645  -1.944  -2.170  1.00  0.00    +0.0489  H
BRANCH 59 62
ATOM     62 N31  WH0 L   1       5.935  -1.172  -0.693  1.00  0.00    -0.3547  N
ATOM     63 C32  WH0 L   1       6.148  -0.803   0.679  1.00  0.00    +0.2356  C
ATOM     64 O33  WH0 L   1       5.174  -0.472   1.407  1.00  0.00    -0.2720 OA
ATOM     65 H62  WH0 L   1       6.755  -1.454  -1.278  1.00  0.00    +0.1623 HD
BRANCH 63 66
ATOM     66 C34  WH0 L   1       7.529  -0.789   1.255  1.00  0.00    +0.1010  C
ATOM     67 CL35 WH0 L   1       8.121   0.888   1.362  1.00  0.00    -0.1154 Cl
ATOM     68 H63  WH0 L   1       8.224  -1.380   0.621  1.00  0.00    +0.0527  H
ATOM     69 H64  WH0 L   1       7.514  -1.240   2.270  1.00  0.00    +0.0527  H
ENDBRANCH 63 66
ENDBRANCH 59 62
ENDBRANCH 56 59
ENDBRANCH 51 56
ENDBRANCH 23 46
ENDBRANCH 1 22
TORSDOF 7
