ROOT
ATOM      1 C28  WH0 L   1      -2.398  -2.030  -0.741  1.00  0.00    -0.0133  A
ATOM      2 C29  WH0 L   1      -1.414  -2.913  -0.234  1.00  0.00    -0.0519  A
ATOM      3 C30  WH0 L   1      -1.174  -4.147  -0.855  1.00  0.00    -0.0374  A
ATOM      4 C31  WH0 L   1      -1.930  -4.479  -1.978  1.00  0.00    +0.0454  A
ATOM      5 C32  WH0 L   1      -2.899  -3.633  -2.473  1.00  0.00    -0.0145  A
ATOM      6 C33  WH0 L   1      -3.152  -2.399  -1.873  1.00  0.00    -0.0483  A
ATOM      7 C34  WH0 L   1      -3.542  -4.219  -3.689  1.00  0.00    +0.0535  C
ATOM      8 C35  WH0 L   1      -2.778  -5.507  -3.784  1.00  0.00    +0.2296  C
ATOM      9 O36  WH0 L   1      -2.962  -6.374  -4.678  1.00  0.00    -0.2725 OA
ATOM     10 N37  WH0 L   1      -1.811  -5.659  -2.750  1.00  0.00    -0.3256  N
ATOM     11 H62  WH0 L   1      -0.831  -2.642   0.638  1.00  0.00    +0.0624  H
ATOM     12 H63  WH0 L   1      -0.412  -4.814  -0.476  1.00  0.00    +0.0638  H
ATOM     13 H64  WH0 L   1      -3.894  -1.728  -2.290  1.00  0.00    +0.0627  H
ATOM     14 H65  WH0 L   1      -3.367  -3.579  -4.579  1.00  0.00    +0.0410  H
ATOM     15 H66  WH0 L   1      -4.624  -4.407  -3.522  1.00  0.00    +0.0410  H
ATOM     16 H67  WH0 L   1      -1.155  -6.457  -2.606  1.00  0.00    +0.1686 HD
ENDROOT
BRANCH 1 25
ATOM     17 C13  WH0 L   1      -1.632   0.217   0.293  1.00  0.00    +0.1015  A
ATOM     18 N14  WH0 L   1      -2.226   1.284   0.876  1.00  0.00    -0.1627 NA
ATOM     19 N15  WH0 L   1      -3.528   1.056   0.851  1.00  0.00    -0.1987  N
ATOM     20 C16  WH0 L   1      -4.503   1.890   1.288  1.00  0.00    +0.2283  A
ATOM     21 N23  WH0 L   1      -5.801   1.501   1.147  1.00  0.00    -0.2207 NA
ATOM     22 C24  WH0 L   1      -6.119   0.294   0.592  1.00  0.00    +0.0334  A
ATOM     23 C25  WH0 L   1      -5.109  -0.569   0.138  1.00  0.00    -0.0173  A
ATOM     24 C26  WH0 L   1      -3.796  -0.122   0.270  1.00  0.00    +0.0803  A
ATOM     25 C27  WH0 L   1      -2.603  -0.711  -0.107  1.00  0.00    +0.0353  A
ATOM     26 H60  WH0 L   1      -7.157   0.008   0.493  1.00  0.00    +0.0831  H
ATOM     27 H61  WH0 L   1      -5.350  -1.529  -0.296  1.00  0.00    +0.0654  H
BRANCH 17 31
ATOM     28  C9  WH0 L   1       2.591   0.183  -0.478  1.00  0.00    -0.0473  A
ATOM     29 C10  WH0 L   1       1.696  -0.329  -1.430  1.00  0.00    -0.0580  A
ATOM     30 C11  WH0 L   1       0.323  -0.333  -1.176  1.00  0.00    -0.0522  A
ATOM     31 C12  WH0 L   1      -0.177   0.157   0.041  1.00  0.00    +0.0027  A
ATOM     32 C38  WH0 L   1       0.719   0.660   0.996  1.00  0.00    -0.0522  A
ATOM     33 C39  WH0 L   1       2.095   0.662   0.744  1.00  0.00    -0.0580  A
ATOM     34 H50  WH0 L   1       2.061  -0.707  -2.376  1.00  0.00    +0.0620  H
ATOM     35 H51  WH0 L   1      -0.349  -0.689  -1.945  1.00  0.00    +0.0624  H
ATOM     36 H68  WH0 L   1       0.351   1.052   1.936  1.00  0.00    +0.0624  H
ATOM     37 H69  WH0 L   1       2.771   1.051   1.494  1.00  0.00    +0.0620  H
BRANCH 28 38
ATOM     38  C8  WH0 L   1       4.071   0.201  -0.761  1.00  0.00    -0.0261  C
ATOM     39 H48  WH0 L   1       4.244   0.352  -1.851  1.00  0.00    +0.0314  H
ATOM     40 H49  WH0 L   1       4.541   1.059  -0.234  1.00  0.00    +0.0314  H
BRANCH 38 41
ATOM     41  C7  WH0 L   1       4.723  -1.115  -0.319  1.00  0.00    -0.0315  C
ATOM     42 H46  WH0 L   1       4.229  -1.962  -0.847  1.00  0.00    +0.0285  H
ATOM     43 H47  WH0 L   1       4.575  -1.262   0.774  1.00  0.00    +0.0285  H
BRANCH 41 44
ATOM     44  C6  WH0 L   1       6.222  -1.149  -0.649  1.00  0.00    +0.0187  C
ATOM     45 H44  WH0 L   1       6.600  -2.180  -0.473  1.00  0.00    +0.0486  H
ATOM     46 H45  WH0 L   1       6.378  -0.902  -1.724  1.00  0.00    +0.0486  H
BRANCH 44 49
ATOM     47  C3  WH0 L   1       8.401  -0.062   0.026  1.00  0.00    +0.2443  C
ATOM     48  O4  WH0 L   1       9.027  -0.781  -0.802  1.00  0.00    -0.2683 OA
ATOM     49  N5  WH0 L   1       6.984  -0.215   0.182  1.00  0.00    -0.3525  N
ATOM     50 H43  WH0 L   1       6.498   0.357   0.909  1.00  0.00    +0.1626 HD
BRANCH 47 52
ATOM     51  C1  WH0 L   1      10.442   1.094   0.769  1.00  0.00    -0.0936  C
ATOM     52  C2  WH0 L   1       9.120   0.935   0.840  1.00  0.00    -0.0047  C
ATOM     53 H40  WH0 L   1      11.048   0.495   0.104  1.00  0.00    +0.0536  H
ATOM     54 H41  WH0 L   1      10.931   1.830   1.390  1.00  0.00    +0.0536  H
ATOM     55 H42  WH0 L   1       8.554   1.560   1.520  1.00  0.00    +0.0666  H
ENDBRANCH 47 52
ENDBRANCH 44 49
ENDBRANCH 41 44
ENDBRANCH 38 41
ENDBRANCH 28 38
ENDBRANCH 17 31
BRANCH 20 56
ATOM     56 N17  WH0 L   1      -4.179   3.155   1.875  1.00  0.00    -0.3359  N
ATOM     57 C18  WH0 L   1      -3.658   3.193   3.244  1.00  0.00    +0.0449  C
ATOM     58 C19  WH0 L   1      -2.835   4.464   3.444  1.00  0.00    +0.0653  C
ATOM     59 O20  WH0 L   1      -3.574   5.612   3.048  1.00  0.00    -0.3763 OA
ATOM     60 C21  WH0 L   1      -3.820   5.568   1.656  1.00  0.00    +0.0653  C
ATOM     61 C22  WH0 L   1      -4.726   4.385   1.297  1.00  0.00    +0.0449  C
ATOM     62 H52  WH0 L   1      -3.019   2.306   3.442  1.00  0.00    +0.0511  H
ATOM     63 H53  WH0 L   1      -4.510   3.186   3.956  1.00  0.00    +0.0511  H
ATOM     64 H54  WH0 L   1      -1.876   4.388   2.888  1.00  0.00    +0.0577  H
ATOM     65 H55  WH0 L   1      -2.580   4.563   4.518  1.00  0.00    +0.0577  H
ATOM     66 H56  WH0 L   1      -4.327   6.513   1.357  1.00  0.00    +0.0577  H
ATOM     67 H57  WH0 L   1      -2.866   5.518   1.083  1.00  0.00    +0.0577  H
ATOM     68 H58  WH0 L   1      -5.755   4.557   1.688  1.00  0.00    +0.0511  H
ATOM     69 H59  WH0 L   1      -4.777   4.298   0.189  1.00  0.00    +0.0511  H
ENDBRANCH 20 56
ENDBRANCH 1 25
TORSDOF 8
