ROOT
ATOM      1  O1  SEL L   1      -8.138  -1.360  -1.597  1.00  0.00    -0.2725 OA
ATOM      2  C2  SEL L   1      -7.016  -1.133  -1.176  1.00  0.00    +0.2296  C
ATOM      3  C3  SEL L   1      -5.706  -1.210  -1.969  1.00  0.00    +0.0535  C
ATOM      4  C4  SEL L   1      -4.688  -0.835  -0.933  1.00  0.00    -0.0145  A
ATOM      5  C5  SEL L   1      -3.313  -0.728  -1.039  1.00  0.00    -0.0483  A
ATOM      6  C6  SEL L   1      -2.589  -0.364   0.108  1.00  0.00    -0.0133  A
ATOM      7 C30  SEL L   1      -3.261  -0.116   1.328  1.00  0.00    -0.0519  A
ATOM      8 C31  SEL L   1      -4.652  -0.224   1.418  1.00  0.00    -0.0374  A
ATOM      9 C32  SEL L   1      -5.331  -0.584   0.276  1.00  0.00    +0.0454  A
ATOM     10 N33  SEL L   1      -6.696  -0.758   0.123  1.00  0.00    -0.3256  N
ATOM     11 H34  SEL L   1      -5.552  -2.231  -2.323  1.00  0.00    +0.0410  H
ATOM     12 H35  SEL L   1      -5.726  -0.488  -2.788  1.00  0.00    +0.0410  H
ATOM     13 H36  SEL L   1      -2.812  -0.918  -1.984  1.00  0.00    +0.0627  H
ATOM     14 H52  SEL L   1      -2.694   0.157   2.219  1.00  0.00    +0.0624  H
ATOM     15 H53  SEL L   1      -5.164  -0.036   2.354  1.00  0.00    +0.0638  H
ATOM     16 H54  SEL L   1      -7.393  -0.645   0.844  1.00  0.00    +0.1686 HD
ENDROOT
BRANCH 6 17
ATOM     17  C7  SEL L   1      -1.145  -0.234   0.051  1.00  0.00    +0.0354  A
ATOM     18  C8  SEL L   1      -0.285   0.878   0.319  1.00  0.00    +0.1030  A
ATOM     19 N16  SEL L   1       1.005   0.515   0.241  1.00  0.00    -0.1626 NA
ATOM     20 N17  SEL L   1       0.989  -0.798  -0.096  1.00  0.00    -0.1987  N
ATOM     21 C18  SEL L   1       2.164  -1.604  -0.269  1.00  0.00    +0.2282  A
ATOM     22 N26  SEL L   1       1.998  -2.880  -0.554  1.00  0.00    -0.2207 NA
ATOM     23 C27  SEL L   1       0.718  -3.372  -0.668  1.00  0.00    +0.0334  A
ATOM     24 C28  SEL L   1      -0.410  -2.662  -0.513  1.00  0.00    -0.0173  A
ATOM     25 C29  SEL L   1      -0.294  -1.288  -0.210  1.00  0.00    +0.0803  A
ATOM     26 H50  SEL L   1       0.654  -4.434  -0.895  1.00  0.00    +0.0831  H
ATOM     27 H51  SEL L   1      -1.382  -3.132  -0.607  1.00  0.00    +0.0654  H
BRANCH 18 28
ATOM     28  C9  SEL L   1      -0.632   2.259   0.652  1.00  0.00    +0.0210  A
ATOM     29 C10  SEL L   1      -1.779   2.887   0.159  1.00  0.00    -0.0468  A
ATOM     30 C11  SEL L   1      -2.055   4.205   0.524  1.00  0.00    -0.0066  A
ATOM     31 C12  SEL L   1      -1.166   4.859   1.359  1.00  0.00    +0.2132  A
ATOM     32 F13  SEL L   1      -1.435   6.123   1.713  1.00  0.00    -0.1839  F
ATOM     33 N14  SEL L   1      -0.042   4.301   1.843  1.00  0.00    -0.2270 NA
ATOM     34 C15  SEL L   1       0.200   3.018   1.475  1.00  0.00    +0.0399  A
ATOM     35 H37  SEL L   1      -2.459   2.375  -0.515  1.00  0.00    +0.0626  H
ATOM     36 H38  SEL L   1      -2.942   4.716   0.174  1.00  0.00    +0.0662  H
ATOM     37 H39  SEL L   1       1.119   2.600   1.881  1.00  0.00    +0.0837  H
ENDBRANCH 18 28
BRANCH 21 38
ATOM     38 N19  SEL L   1       3.461  -1.087  -0.130  1.00  0.00    -0.3401  N
ATOM     39 C20  SEL L   1       4.594  -2.010   0.009  1.00  0.00    +0.0237  C
ATOM     40 C21  SEL L   1       5.621  -1.441   0.978  1.00  0.00    -0.0090  C
ATOM     41 C22  SEL L   1       6.185  -0.114   0.476  1.00  0.00    +0.0585  C
ATOM     42 O23  SEL L   1       6.468   0.710   1.607  1.00  0.00    -0.3917 OA
ATOM     43 C24  SEL L   1       5.239   0.606  -0.480  1.00  0.00    -0.0090  C
ATOM     44 C25  SEL L   1       3.776   0.345  -0.126  1.00  0.00    +0.0237  C
ATOM     45 H40  SEL L   1       5.042  -2.188  -0.976  1.00  0.00    +0.0489  H
ATOM     46 H41  SEL L   1       4.270  -2.982   0.399  1.00  0.00    +0.0489  H
ATOM     47 H42  SEL L   1       5.165  -1.317   1.970  1.00  0.00    +0.0307  H
ATOM     48 H43  SEL L   1       6.442  -2.156   1.112  1.00  0.00    +0.0307  H
ATOM     49 H44  SEL L   1       7.141  -0.292  -0.033  1.00  0.00    +0.0594  H
ATOM     50 H45  SEL L   1       6.926   1.508   1.289  1.00  0.00    +0.2098 HD
ATOM     51 H46  SEL L   1       5.430   1.685  -0.480  1.00  0.00    +0.0307  H
ATOM     52 H47  SEL L   1       5.420   0.242  -1.499  1.00  0.00    +0.0307  H
ATOM     53 H48  SEL L   1       3.177   0.861  -0.884  1.00  0.00    +0.0489  H
ATOM     54 H49  SEL L   1       3.553   0.772   0.859  1.00  0.00    +0.0489  H
ENDBRANCH 21 38
ENDBRANCH 6 17
TORSDOF 3
