ROOT
ATOM      1 C21  CHE L   1       5.432  -0.385  -2.010  1.00  0.00    +0.1351  A
ATOM      2 C22  CHE L   1       6.552  -0.161  -2.704  1.00  0.00    +0.0341  A
ATOM      3 C23  CHE L   1       7.684   0.471  -2.013  1.00  0.00    +0.2590  A
ATOM      4 O24  CHE L   1       8.709   0.711  -2.650  1.00  0.00    -0.2672 OA
ATOM      5 N25  CHE L   1       7.490   0.746  -0.666  1.00  0.00    -0.2682  N
ATOM      6 C26  CHE L   1       8.527   1.317   0.066  1.00  0.00    +0.0146  A
ATOM      7 C27  CHE L   1       8.400   1.598   1.369  1.00  0.00    -0.0450  A
ATOM      8 C28  CHE L   1       7.161   1.322   2.046  1.00  0.00    -0.0569  A
ATOM      9 C29  CHE L   1       6.130   0.785   1.382  1.00  0.00    -0.0187  A
ATOM     10 C30  CHE L   1       6.267   0.458  -0.066  1.00  0.00    +0.1410  A
ATOM     11 N31  CHE L   1       5.254  -0.072  -0.681  1.00  0.00    -0.2242 NA
ATOM     12 H51  CHE L   1       6.681  -0.413  -3.749  1.00  0.00    +0.0695  H
ATOM     13 H52  CHE L   1       9.454   1.520  -0.469  1.00  0.00    +0.0814  H
ATOM     14 H53  CHE L   1       9.219   2.038   1.931  1.00  0.00    +0.0632  H
ATOM     15 H54  CHE L   1       7.082   1.562   3.101  1.00  0.00    +0.0619  H
ATOM     16 H55  CHE L   1       5.181   0.564   1.855  1.00  0.00    +0.0654  H
ENDROOT
BRANCH 1 18
ATOM     17  O1  CHE L   1       4.448  -1.580  -3.860  1.00  0.00    -0.2659 OA
ATOM     18  C2  CHE L   1       4.303  -1.048  -2.760  1.00  0.00    +0.2709  C
ATOM     19  N3  CHE L   1       3.117  -1.001  -2.074  1.00  0.00    -0.3452  N
ATOM     20 H32  CHE L   1       3.113  -0.537  -1.170  1.00  0.00    +0.1631 HD
BRANCH 19 21
ATOM     21  C4  CHE L   1       1.909  -1.575  -2.608  1.00  0.00    +0.0623  C
ATOM     22 H33  CHE L   1       1.813  -1.307  -3.665  1.00  0.00    +0.0552  H
ATOM     23 H34  CHE L   1       1.993  -2.666  -2.539  1.00  0.00    +0.0552  H
BRANCH 21 24
ATOM     24  C5  CHE L   1       0.743  -1.079  -1.825  1.00  0.00    +0.0791  A
ATOM     25  C6  CHE L   1       0.123  -1.648  -0.729  1.00  0.00    +0.0342  A
ATOM     26  N7  CHE L   1      -0.896  -0.794  -0.389  1.00  0.00    -0.3060  N
ATOM     27  C8  CHE L   1      -1.825  -0.891   0.644  1.00  0.00    +0.0156  A
ATOM     28  C9  CHE L   1      -2.752   0.077   0.795  1.00  0.00    -0.0167  A
ATOM     29 C17  CHE L   1      -2.737   1.199  -0.151  1.00  0.00    -0.0525  A
ATOM     30 C18  CHE L   1      -1.827   1.285  -1.142  1.00  0.00    -0.0185  A
ATOM     31 C19  CHE L   1      -0.849   0.264  -1.291  1.00  0.00    +0.1379  A
ATOM     32 N20  CHE L   1       0.134   0.117  -2.152  1.00  0.00    -0.2310 NA
ATOM     33 H35  CHE L   1       0.314  -2.556  -0.181  1.00  0.00    +0.0832  H
ATOM     34 H36  CHE L   1      -1.752  -1.756   1.293  1.00  0.00    +0.0816  H
ATOM     35 H49  CHE L   1      -3.498   1.967  -0.042  1.00  0.00    +0.0622  H
ATOM     36 H50  CHE L   1      -1.824   2.116  -1.841  1.00  0.00    +0.0654  H
BRANCH 28 37
ATOM     37 C10  CHE L   1      -3.775   0.085   1.907  1.00  0.00    +0.0254  C
ATOM     38 H37  CHE L   1      -3.615  -0.766   2.585  1.00  0.00    +0.0476  H
ATOM     39 H38  CHE L   1      -3.581   0.988   2.508  1.00  0.00    +0.0476  H
BRANCH 37 40
ATOM     40 N11  CHE L   1      -5.168   0.104   1.435  1.00  0.00    -0.2981 NA
ATOM     41 C12  CHE L   1      -5.574  -1.165   0.820  1.00  0.00    -0.0008  C
ATOM     42 C13  CHE L   1      -6.938  -1.018   0.134  1.00  0.00    -0.0402  C
ATOM     43 C14  CHE L   1      -7.902  -0.097   0.885  1.00  0.00    -0.0507  C
ATOM     44 C15  CHE L   1      -7.524   0.007   2.353  1.00  0.00    -0.0402  C
ATOM     45 C16  CHE L   1      -6.079   0.493   2.531  1.00  0.00    -0.0008  C
ATOM     46 H39  CHE L   1      -4.856  -1.492   0.054  1.00  0.00    +0.0427  H
ATOM     47 H40  CHE L   1      -5.616  -1.963   1.575  1.00  0.00    +0.0427  H
ATOM     48 H41  CHE L   1      -6.809  -0.637  -0.885  1.00  0.00    +0.0278  H
ATOM     49 H42  CHE L   1      -7.387  -2.013   0.039  1.00  0.00    +0.0278  H
ATOM     50 H43  CHE L   1      -8.931  -0.462   0.776  1.00  0.00    +0.0266  H
ATOM     51 H44  CHE L   1      -7.874   0.903   0.433  1.00  0.00    +0.0266  H
ATOM     52 H45  CHE L   1      -8.208   0.685   2.875  1.00  0.00    +0.0278  H
ATOM     53 H46  CHE L   1      -7.639  -0.978   2.821  1.00  0.00    +0.0278  H
ATOM     54 H47  CHE L   1      -6.076   1.592   2.596  1.00  0.00    +0.0427  H
ATOM     55 H48  CHE L   1      -5.723   0.120   3.503  1.00  0.00    +0.0427  H
ENDBRANCH 37 40
ENDBRANCH 28 37
ENDBRANCH 21 24
ENDBRANCH 19 21
ENDBRANCH 1 18
TORSDOF 5
