ROOT
ATOM      1  C3  CHE L   1      -2.600  -2.665   0.300  1.00  0.00    +0.1620  A
ATOM      2  C4  CHE L   1      -1.966  -1.457   0.569  1.00  0.00    -0.0052  A
ATOM      3  C5  CHE L   1      -2.326  -0.271  -0.116  1.00  0.00    +0.0273  A
ATOM      4  C6  CHE L   1      -1.682   0.974   0.124  1.00  0.00    +0.0498  A
ATOM      5 C17  CHE L   1      -2.146   2.083  -0.564  1.00  0.00    -0.0025  A
ATOM      6 C18  CHE L   1      -3.187   1.929  -1.466  1.00  0.00    +0.0471  A
ATOM      7 N19  CHE L   1      -3.793   0.770  -1.756  1.00  0.00    -0.2511 NA
ATOM      8 C20  CHE L   1      -3.373  -0.314  -1.078  1.00  0.00    +0.0769  A
ATOM      9 C21  CHE L   1      -3.988  -1.529  -1.339  1.00  0.00    +0.0095  A
ATOM     10 C22  CHE L   1      -3.607  -2.682  -0.663  1.00  0.00    +0.1605  A
ATOM     11 O23  CHE L   1      -4.246  -3.854  -0.964  1.00  0.00    -0.5032 OA
ATOM     12 C24  CHE L   1      -3.524   3.232  -2.138  1.00  0.00    -0.0098  C
ATOM     13 C25  CHE L   1      -2.884   4.229  -1.168  1.00  0.00    -0.0435  C
ATOM     14 C26  CHE L   1      -1.683   3.506  -0.542  1.00  0.00    -0.0237  C
ATOM     15 H30  CHE L   1      -1.181  -1.393   1.318  1.00  0.00    +0.0662  H
ATOM     16 H48  CHE L   1      -4.781  -1.578  -2.079  1.00  0.00    +0.0677  H
ATOM     17 H49  CHE L   1      -3.835  -4.520  -0.381  1.00  0.00    +0.2923 HD
ATOM     18 H50  CHE L   1      -4.601   3.387  -2.232  1.00  0.00    +0.0328  H
ATOM     19 H51  CHE L   1      -3.049   3.276  -3.124  1.00  0.00    +0.0328  H
ATOM     20 H52  CHE L   1      -2.600   5.164  -1.659  1.00  0.00    +0.0272  H
ATOM     21 H53  CHE L   1      -3.605   4.481  -0.381  1.00  0.00    +0.0272  H
ATOM     22 H54  CHE L   1      -0.791   3.625  -1.166  1.00  0.00    +0.0314  H
ATOM     23 H55  CHE L   1      -1.488   3.871   0.471  1.00  0.00    +0.0314  H
ENDROOT
BRANCH 1 25
ATOM     24  C1  CHE L   1      -1.289  -3.895   1.857  1.00  0.00    +0.0790  C
ATOM     25  O2  CHE L   1      -2.337  -3.877   0.889  1.00  0.00    -0.4914 OA
ATOM     26 H27  CHE L   1      -1.550  -3.282   2.724  1.00  0.00    +0.0660  H
ATOM     27 H28  CHE L   1      -1.175  -4.924   2.202  1.00  0.00    +0.0660  H
ATOM     28 H29  CHE L   1      -0.335  -3.586   1.419  1.00  0.00    +0.0660  H
ENDBRANCH 1 25
BRANCH 4 29
ATOM     29  N7  CHE L   1      -0.562   1.051   0.994  1.00  0.00    -0.3808  N
ATOM     30 H31  CHE L   1      -0.695   1.883   1.577  1.00  0.00    +0.1599 HD
BRANCH 29 31
ATOM     31  C8  CHE L   1       0.745   1.178   0.297  1.00  0.00    +0.0295  C
ATOM     32  C9  CHE L   1       1.837   1.337   1.363  1.00  0.00    -0.0198  C
ATOM     33 C10  CHE L   1       3.224   1.375   0.720  1.00  0.00    +0.0010  C
ATOM     34 N11  CHE L   1       3.521   0.201  -0.113  1.00  0.00    -0.2998 NA
ATOM     35 C15  CHE L   1       2.483   0.078  -1.155  1.00  0.00    +0.0010  C
ATOM     36 C16  CHE L   1       1.064  -0.030  -0.597  1.00  0.00    -0.0198  C
ATOM     37 H32  CHE L   1       0.746   2.088  -0.319  1.00  0.00    +0.0522  H
ATOM     38 H33  CHE L   1       1.780   0.521   2.094  1.00  0.00    +0.0297  H
ATOM     39 H34  CHE L   1       1.673   2.265   1.926  1.00  0.00    +0.0297  H
ATOM     40 H35  CHE L   1       3.987   1.531   1.488  1.00  0.00    +0.0427  H
ATOM     41 H36  CHE L   1       3.292   2.273   0.090  1.00  0.00    +0.0427  H
ATOM     42 H44  CHE L   1       2.540   0.964  -1.801  1.00  0.00    +0.0427  H
ATOM     43 H45  CHE L   1       2.684  -0.759  -1.828  1.00  0.00    +0.0427  H
ATOM     44 H46  CHE L   1       0.945  -0.967  -0.032  1.00  0.00    +0.0297  H
ATOM     45 H47  CHE L   1       0.360  -0.082  -1.441  1.00  0.00    +0.0297  H
BRANCH 34 46
ATOM     46 C12  CHE L   1       3.763  -1.050   0.649  1.00  0.00    +0.0048  C
ATOM     47 C13  CHE L   1       4.870  -0.882   1.703  1.00  0.00    -0.0497  C
ATOM     48 C14  CHE L   1       4.182  -2.210  -0.274  1.00  0.00    -0.0497  C
ATOM     49 H37  CHE L   1       2.855  -1.363   1.176  1.00  0.00    +0.0457  H
ATOM     50 H38  CHE L   1       4.540  -0.258   2.539  1.00  0.00    +0.0245  H
ATOM     51 H39  CHE L   1       5.156  -1.850   2.130  1.00  0.00    +0.0245  H
ATOM     52 H40  CHE L   1       5.771  -0.438   1.270  1.00  0.00    +0.0245  H
ATOM     53 H41  CHE L   1       4.518  -3.074   0.311  1.00  0.00    +0.0245  H
ATOM     54 H42  CHE L   1       5.000  -1.916  -0.938  1.00  0.00    +0.0245  H
ATOM     55 H43  CHE L   1       3.344  -2.564  -0.886  1.00  0.00    +0.0245  H
ENDBRANCH 34 46
ENDBRANCH 29 31
ENDBRANCH 4 29
TORSDOF 4
