ROOT
ATOM      1 C32  WH0 L   1      -1.580   2.934  -0.239  1.00  0.00    -0.0133  A
ATOM      2 C33  WH0 L   1      -1.900   3.759  -1.341  1.00  0.00    -0.0519  A
ATOM      3 C34  WH0 L   1      -2.001   5.146  -1.199  1.00  0.00    -0.0374  A
ATOM      4 C35  WH0 L   1      -1.775   5.670   0.055  1.00  0.00    +0.0454  A
ATOM      5 C36  WH0 L   1      -1.459   4.875   1.153  1.00  0.00    -0.0145  A
ATOM      6 C37  WH0 L   1      -1.356   3.502   1.026  1.00  0.00    -0.0483  A
ATOM      7 C38  WH0 L   1      -1.271   5.746   2.360  1.00  0.00    +0.0535  C
ATOM      8 C39  WH0 L   1      -1.525   7.146   1.788  1.00  0.00    +0.2296  C
ATOM      9 O40  WH0 L   1      -1.483   8.201   2.399  1.00  0.00    -0.2725 OA
ATOM     10 N41  WH0 L   1      -1.813   7.001   0.436  1.00  0.00    -0.3256  N
ATOM     11 H67  WH0 L   1      -2.078   3.318  -2.320  1.00  0.00    +0.0624  H
ATOM     12 H68  WH0 L   1      -2.245   5.775  -2.047  1.00  0.00    +0.0638  H
ATOM     13 H69  WH0 L   1      -1.096   2.885   1.882  1.00  0.00    +0.0627  H
ATOM     14 H70  WH0 L   1      -0.249   5.684   2.741  1.00  0.00    +0.0410  H
ATOM     15 H71  WH0 L   1      -2.013   5.524   3.131  1.00  0.00    +0.0410  H
ATOM     16 H72  WH0 L   1      -2.015   7.784  -0.166  1.00  0.00    +0.1686 HD
ENDROOT
BRANCH 1 25
ATOM     17 C16  WH0 L   1      -0.634   0.745  -1.314  1.00  0.00    +0.1018  A
ATOM     18 N17  WH0 L   1      -0.833  -0.573  -1.179  1.00  0.00    -0.1627 NA
ATOM     19 N18  WH0 L   1      -1.724  -0.678  -0.159  1.00  0.00    -0.1987  N
ATOM     20 C19  WH0 L   1      -2.208  -1.922   0.357  1.00  0.00    +0.2282  A
ATOM     21 N27  WH0 L   1      -3.181  -1.894   1.243  1.00  0.00    -0.2207 NA
ATOM     22 C28  WH0 L   1      -3.646  -0.667   1.663  1.00  0.00    +0.0334  A
ATOM     23 C29  WH0 L   1      -3.198   0.527   1.245  1.00  0.00    -0.0173  A
ATOM     24 C30  WH0 L   1      -2.175   0.552   0.272  1.00  0.00    +0.0803  A
ATOM     25 C31  WH0 L   1      -1.454   1.500  -0.421  1.00  0.00    +0.0353  A
ATOM     26 H65  WH0 L   1      -4.441  -0.709   2.404  1.00  0.00    +0.0831  H
ATOM     27 H66  WH0 L   1      -3.622   1.448   1.629  1.00  0.00    +0.0654  H
BRANCH 17 34
ATOM     28  C9  WH0 L   1       1.599   1.717  -1.937  1.00  0.00    -0.0354  A
ATOM     29 C10  WH0 L   1       2.449   2.202  -2.947  1.00  0.00    -0.0226  A
ATOM     30 C11  WH0 L   1       2.033   2.212  -4.275  1.00  0.00    +0.1237  A
ATOM     31 F12  WH0 L   1       2.859   2.679  -5.219  1.00  0.00    -0.2055  F
ATOM     32 C13  WH0 L   1       0.780   1.737  -4.637  1.00  0.00    -0.0258  A
ATOM     33 C14  WH0 L   1      -0.075   1.250  -3.650  1.00  0.00    -0.0495  A
ATOM     34 C15  WH0 L   1       0.319   1.246  -2.300  1.00  0.00    +0.0061  A
ATOM     35 H52  WH0 L   1       3.446   2.566  -2.713  1.00  0.00    +0.0649  H
ATOM     36 H53  WH0 L   1       0.481   1.741  -5.679  1.00  0.00    +0.0646  H
ATOM     37 H54  WH0 L   1      -1.053   0.864  -3.932  1.00  0.00    +0.0625  H
BRANCH 28 38
ATOM     38  C8  WH0 L   1       2.121   1.665  -0.517  1.00  0.00    -0.0254  C
ATOM     39 H50  WH0 L   1       1.328   1.923   0.192  1.00  0.00    +0.0314  H
ATOM     40 H51  WH0 L   1       2.885   2.443  -0.386  1.00  0.00    +0.0314  H
BRANCH 38 41
ATOM     41  C7  WH0 L   1       2.718   0.298  -0.181  1.00  0.00    -0.0315  C
ATOM     42 H48  WH0 L   1       3.538   0.064  -0.873  1.00  0.00    +0.0285  H
ATOM     43 H49  WH0 L   1       1.971  -0.492  -0.320  1.00  0.00    +0.0285  H
BRANCH 41 44
ATOM     44  C6  WH0 L   1       3.236   0.265   1.254  1.00  0.00    +0.0187  C
ATOM     45 H46  WH0 L   1       4.029   1.008   1.393  1.00  0.00    +0.0486  H
ATOM     46 H47  WH0 L   1       2.429   0.492   1.958  1.00  0.00    +0.0486  H
BRANCH 44 49
ATOM     47  C3  WH0 L   1       3.028  -2.051   2.068  1.00  0.00    +0.2443  C
ATOM     48  O4  WH0 L   1       1.830  -1.963   2.302  1.00  0.00    -0.2683 OA
ATOM     49  N5  WH0 L   1       3.804  -1.027   1.584  1.00  0.00    -0.3525  N
ATOM     50 H45  WH0 L   1       4.775  -1.193   1.358  1.00  0.00    +0.1626 HD
BRANCH 47 52
ATOM     51  C1  WH0 L   1       3.214  -4.372   2.839  1.00  0.00    -0.0936  C
ATOM     52  C2  WH0 L   1       3.798  -3.303   2.284  1.00  0.00    -0.0047  C
ATOM     53 H42  WH0 L   1       2.171  -4.353   3.145  1.00  0.00    +0.0536  H
ATOM     54 H43  WH0 L   1       3.768  -5.290   2.999  1.00  0.00    +0.0536  H
ATOM     55 H44  WH0 L   1       4.838  -3.335   1.986  1.00  0.00    +0.0666  H
ENDBRANCH 47 52
ENDBRANCH 44 49
ENDBRANCH 41 44
ENDBRANCH 38 41
ENDBRANCH 28 38
ENDBRANCH 17 34
BRANCH 20 56
ATOM     56 N20  WH0 L   1      -1.682  -3.144  -0.077  1.00  0.00    -0.3401  N
ATOM     57 C21  WH0 L   1      -2.434  -4.373   0.183  1.00  0.00    +0.0237  C
ATOM     58 C22  WH0 L   1      -1.890  -5.512  -0.666  1.00  0.00    -0.0090  C
ATOM     59 C23  WH0 L   1      -0.439  -5.814  -0.301  1.00  0.00    +0.0585  C
ATOM     60 O24  WH0 L   1       0.232  -6.367  -1.434  1.00  0.00    -0.3917 OA
ATOM     61 C25  WH0 L   1       0.319  -4.579   0.180  1.00  0.00    -0.0090  C
ATOM     62 C26  WH0 L   1      -0.256  -3.295  -0.413  1.00  0.00    +0.0237  C
ATOM     63 H55  WH0 L   1      -2.382  -4.629   1.248  1.00  0.00    +0.0489  H
ATOM     64 H56  WH0 L   1      -3.489  -4.223  -0.072  1.00  0.00    +0.0489  H
ATOM     65 H57  WH0 L   1      -1.971  -5.258  -1.732  1.00  0.00    +0.0307  H
ATOM     66 H58  WH0 L   1      -2.497  -6.415  -0.526  1.00  0.00    +0.0307  H
ATOM     67 H59  WH0 L   1      -0.400  -6.574   0.489  1.00  0.00    +0.0594  H
ATOM     68 H60  WH0 L   1      -0.269  -7.151  -1.719  1.00  0.00    +0.2098 HD
ATOM     69 H61  WH0 L   1       1.384  -4.654  -0.064  1.00  0.00    +0.0307  H
ATOM     70 H62  WH0 L   1       0.237  -4.519   1.273  1.00  0.00    +0.0307  H
ATOM     71 H63  WH0 L   1      -0.138  -3.293  -1.502  1.00  0.00    +0.0489  H
ATOM     72 H64  WH0 L   1       0.332  -2.467  -0.005  1.00  0.00    +0.0489  H
ENDBRANCH 20 56
ENDBRANCH 1 25
TORSDOF 8
