ROOT
ATOM      1  C1  MCU L   1       4.008  -3.633   2.454  1.00  0.00    -0.0397  C
ATOM      2  C2  MCU L   1       3.292  -2.860   1.385  1.00  0.00    -0.0495  A
ATOM      3  C3  MCU L   1       3.621  -3.057   0.037  1.00  0.00    -0.0539  A
ATOM      4  C4  MCU L   1       2.984  -2.322  -0.978  1.00  0.00    -0.0262  A
ATOM      5  C5  MCU L   1       3.350  -2.596  -2.413  1.00  0.00    -0.0377  C
ATOM      6  C6  MCU L   1       2.001  -1.360  -0.629  1.00  0.00    +0.0521  A
ATOM      7  N7  MCU L   1       1.345  -0.627  -1.580  1.00  0.00    -0.3216  N
ATOM      8  C8  MCU L   1       0.390   0.291  -1.260  1.00  0.00    +0.2543  A
ATOM      9  O9  MCU L   1      -0.204   0.899  -2.191  1.00  0.00    -0.2675 OA
ATOM     10 C10  MCU L   1       0.052   0.533   0.092  1.00  0.00    +0.0421  A
ATOM     11 C30  MCU L   1       0.718  -0.210   1.079  1.00  0.00    -0.0423  A
ATOM     12 C31  MCU L   1       1.687  -1.155   0.733  1.00  0.00    -0.0006  A
ATOM     13 C32  MCU L   1       2.337  -1.897   1.729  1.00  0.00    -0.0497  A
ATOM     14 H33  MCU L   1       4.195  -4.675   2.120  1.00  0.00    +0.0278  H
ATOM     15 H34  MCU L   1       3.407  -3.674   3.386  1.00  0.00    +0.0278  H
ATOM     16 H35  MCU L   1       4.979  -3.142   2.677  1.00  0.00    +0.0278  H
ATOM     17 H36  MCU L   1       4.374  -3.793  -0.219  1.00  0.00    +0.0623  H
ATOM     18 H37  MCU L   1       2.462  -2.979  -2.960  1.00  0.00    +0.0278  H
ATOM     19 H38  MCU L   1       4.156  -3.357  -2.495  1.00  0.00    +0.0278  H
ATOM     20 H39  MCU L   1       3.716  -1.665  -2.895  1.00  0.00    +0.0278  H
ATOM     21 H40  MCU L   1       1.555  -0.765  -2.594  1.00  0.00    +0.1689 HD
ATOM     22 H61  MCU L   1       0.472  -0.057   2.124  1.00  0.00    +0.0629  H
ATOM     23 H62  MCU L   1       2.097  -1.729   2.773  1.00  0.00    +0.0627  H
ENDROOT
BRANCH 10 24
ATOM     24 C11  MCU L   1      -1.020   1.537   0.531  1.00  0.00    +0.1027  C
ATOM     25 H41  MCU L   1      -1.378   1.227   1.538  1.00  0.00    +0.0596  H
BRANCH 24 26
ATOM     26 C12  MCU L   1      -2.274   1.464  -0.314  1.00  0.00    +0.1732  A
ATOM     27 N13  MCU L   1      -2.746   2.472  -1.072  1.00  0.00    -0.1114 NA
ATOM     28 N14  MCU L   1      -3.872   2.015  -1.603  1.00  0.00    -0.0230 NA
ATOM     29 N15  MCU L   1      -4.099   0.778  -1.187  1.00  0.00    -0.0437 NA
ATOM     30 N16  MCU L   1      -3.119   0.412  -0.381  1.00  0.00    -0.2249  N
BRANCH 30 31
ATOM     31 C17  MCU L   1      -3.058  -0.878   0.311  1.00  0.00    +0.0714  C
ATOM     32 H42  MCU L   1      -4.080  -1.179   0.629  1.00  0.00    +0.0536  H
ATOM     33 H43  MCU L   1      -2.451  -0.784   1.236  1.00  0.00    +0.0536  H
BRANCH 31 34
ATOM     34 C18  MCU L   1      -2.447  -1.968  -0.584  1.00  0.00    +0.0783  C
ATOM     35 C19  MCU L   1      -3.389  -2.406  -1.711  1.00  0.00    -0.0228  C
ATOM     36 C20  MCU L   1      -3.715  -3.829  -1.372  1.00  0.00    -0.0271  C
ATOM     37 C21  MCU L   1      -2.571  -4.232  -0.474  1.00  0.00    +0.0482  C
ATOM     38 O22  MCU L   1      -2.127  -3.089   0.214  1.00  0.00    -0.3747 OA
ATOM     39 H44  MCU L   1      -1.506  -1.587  -1.027  1.00  0.00    +0.0614  H
ATOM     40 H45  MCU L   1      -4.318  -1.798  -1.786  1.00  0.00    +0.0291  H
ATOM     41 H46  MCU L   1      -2.853  -2.365  -2.687  1.00  0.00    +0.0291  H
ATOM     42 H47  MCU L   1      -3.773  -4.471  -2.279  1.00  0.00    +0.0288  H
ATOM     43 H48  MCU L   1      -4.672  -3.876  -0.808  1.00  0.00    +0.0288  H
ATOM     44 H49  MCU L   1      -1.734  -4.641  -1.081  1.00  0.00    +0.0560  H
ATOM     45 H50  MCU L   1      -2.899  -5.005   0.252  1.00  0.00    +0.0560  H
ENDBRANCH 31 34
ENDBRANCH 30 31
ENDBRANCH 24 26
BRANCH 24 46
ATOM     46 N23  MCU L   1      -0.520   2.935   0.662  1.00  0.00    -0.2887 NA
ATOM     47 C24  MCU L   1       0.202   3.463  -0.515  1.00  0.00    +0.0022  C
ATOM     48 C25  MCU L   1       0.315   4.997  -0.425  1.00  0.00    -0.0140  C
ATOM     49 C26  MCU L   1       0.262   5.512   1.030  1.00  0.00    +0.0576  C
ATOM     50 O27  MCU L   1       0.893   6.761   1.133  1.00  0.00    -0.3917 OA
ATOM     51 C28  MCU L   1       0.939   4.516   1.976  1.00  0.00    -0.0140  C
ATOM     52 C29  MCU L   1       0.274   3.124   1.901  1.00  0.00    +0.0022  C
ATOM     53 H51  MCU L   1       1.220   3.015  -0.575  1.00  0.00    +0.0428  H
ATOM     54 H52  MCU L   1      -0.331   3.226  -1.455  1.00  0.00    +0.0428  H
ATOM     55 H53  MCU L   1      -0.521   5.464  -0.992  1.00  0.00    +0.0302  H
ATOM     56 H54  MCU L   1       1.265   5.315  -0.910  1.00  0.00    +0.0302  H
ATOM     57 H55  MCU L   1      -0.804   5.612   1.343  1.00  0.00    +0.0594  H
ATOM     58 H56  MCU L   1       0.333   7.405   0.630  1.00  0.00    +0.2098 HD
ATOM     59 H57  MCU L   1       2.013   4.425   1.696  1.00  0.00    +0.0302  H
ATOM     60 H58  MCU L   1       0.898   4.898   3.020  1.00  0.00    +0.0302  H
ATOM     61 H59  MCU L   1      -0.401   3.010   2.778  1.00  0.00    +0.0428  H
ATOM     62 H60  MCU L   1       1.071   2.354   1.983  1.00  0.00    +0.0428  H
ENDBRANCH 24 46
ENDBRANCH 10 24
TORSDOF 5
