ROOT
ATOM      1 C12  408 L   1      -3.265   0.307  -0.788  1.00  0.00    -0.0241  C
ATOM      2 C13  408 L   1      -3.883   1.185   0.317  1.00  0.00    -0.0254  C
ATOM      3 C14  408 L   1      -5.176   1.822  -0.168  1.00  0.00    +0.0480  C
ATOM      4 O15  408 L   1      -6.178   0.861  -0.503  1.00  0.00    -0.3797 OA
ATOM      5 C16  408 L   1      -5.685  -0.407  -0.934  1.00  0.00    +0.0480  C
ATOM      6 C17  408 L   1      -4.364  -0.298  -1.683  1.00  0.00    -0.0254  C
ATOM      7 H35  408 L   1      -2.654   0.949  -1.435  1.00  0.00    +0.0315  H
ATOM      8 H36  408 L   1      -4.103   0.574   1.202  1.00  0.00    +0.0290  H
ATOM      9 H37  408 L   1      -3.172   1.959   0.623  1.00  0.00    +0.0290  H
ATOM     10 H38  408 L   1      -5.592   2.473   0.608  1.00  0.00    +0.0560  H
ATOM     11 H39  408 L   1      -4.994   2.447  -1.049  1.00  0.00    +0.0560  H
ATOM     12 H40  408 L   1      -6.448  -0.853  -1.579  1.00  0.00    +0.0560  H
ATOM     13 H41  408 L   1      -5.586  -1.057  -0.057  1.00  0.00    +0.0560  H
ATOM     14 H42  408 L   1      -4.510   0.366  -2.545  1.00  0.00    +0.0290  H
ATOM     15 H43  408 L   1      -4.065  -1.274  -2.080  1.00  0.00    +0.0290  H
ENDROOT
BRANCH 1 16
ATOM     16 C11  408 L   1      -2.365  -0.800  -0.195  1.00  0.00    +0.0020  C
ATOM     17 H33  408 L   1      -3.009  -1.468   0.394  1.00  0.00    +0.0429  H
ATOM     18 H34  408 L   1      -1.938  -1.413  -1.000  1.00  0.00    +0.0429  H
BRANCH 16 22
ATOM     19  N7  408 L   1       1.668  -0.871   1.132  1.00  0.00    -0.2904 NA
ATOM     20  C8  408 L   1       0.600  -0.970   2.148  1.00  0.00    +0.0124  C
ATOM     21  C9  408 L   1      -0.769  -1.344   1.544  1.00  0.00    +0.0117  C
ATOM     22 N10  408 L   1      -1.297  -0.277   0.667  1.00  0.00    -0.2996 NA
ATOM     23 C18  408 L   1      -0.203   0.377  -0.083  1.00  0.00    +0.0117  C
ATOM     24 C19  408 L   1       1.110  -0.439  -0.170  1.00  0.00    +0.0124  C
ATOM     25 H29  408 L   1       0.877  -1.737   2.881  1.00  0.00    +0.0439  H
ATOM     26 H30  408 L   1       0.483  -0.021   2.690  1.00  0.00    +0.0439  H
ATOM     27 H31  408 L   1      -0.669  -2.293   0.999  1.00  0.00    +0.0439  H
ATOM     28 H32  408 L   1      -1.483  -1.513   2.359  1.00  0.00    +0.0439  H
ATOM     29 H44  408 L   1       0.016   1.326   0.425  1.00  0.00    +0.0439  H
ATOM     30 H45  408 L   1      -0.509   0.650  -1.099  1.00  0.00    +0.0439  H
ATOM     31 H46  408 L   1       0.905  -1.349  -0.749  1.00  0.00    +0.0439  H
ATOM     32 H47  408 L   1       1.828   0.125  -0.774  1.00  0.00    +0.0439  H
BRANCH 19 33
ATOM     33  C5  408 L   1       2.809  -0.026   1.585  1.00  0.00    +0.0694  C
ATOM     34  C6  408 L   1       3.323  -0.406   2.986  1.00  0.00    -0.0423  C
ATOM     35 H25  408 L   1       2.474   1.020   1.635  1.00  0.00    +0.0541  H
ATOM     36 H26  408 L   1       4.222   0.168   3.239  1.00  0.00    +0.0249  H
ATOM     37 H27  408 L   1       3.586  -1.469   3.043  1.00  0.00    +0.0249  H
ATOM     38 H28  408 L   1       2.582  -0.198   3.764  1.00  0.00    +0.0249  H
BRANCH 33 42
ATOM     39  C1  408 L   1       6.151   1.289  -1.863  1.00  0.00    -0.0051  C
ATOM     40  C2  408 L   1       5.347   0.556  -0.865  1.00  0.00    +0.1221  A
ATOM     41  N3  408 L   1       4.338   1.003  -0.150  1.00  0.00    -0.2149 NA
ATOM     42  C4  408 L   1       3.966  -0.091   0.602  1.00  0.00    +0.1677  A
ATOM     43 N20  408 L   1       4.714  -1.186   0.387  1.00  0.00    -0.1558 NA
ATOM     44 N21  408 L   1       5.569  -0.753  -0.548  1.00  0.00    -0.2627  N
ATOM     45 H22  408 L   1       7.205   1.313  -1.568  1.00  0.00    +0.0308  H
ATOM     46 H23  408 L   1       6.075   0.813  -2.845  1.00  0.00    +0.0308  H
ATOM     47 H24  408 L   1       5.801   2.321  -1.957  1.00  0.00    +0.0308  H
ATOM     48 H48  408 L   1       6.265  -1.391  -0.916  1.00  0.00    +0.1902 HD
ENDBRANCH 33 42
ENDBRANCH 19 33
ENDBRANCH 16 22
ENDBRANCH 1 16
TORSDOF 4
