ROOT
ATOM      1 C11  154 L   1      -0.463   1.759   0.483  1.00  0.00    +0.2475  C
ATOM      2 O12  154 L   1      -0.687   2.864   0.972  1.00  0.00    -0.2680 OA
ATOM      3 N13  154 L   1      -1.446   0.819   0.247  1.00  0.00    -0.3358  N
ATOM      4 C14  154 L   1      -2.796   1.104   0.734  1.00  0.00    +0.0366  C
ATOM      5 C15  154 L   1      -3.684  -0.158   0.771  1.00  0.00    +0.0227  C
ATOM      6 C16  154 L   1      -5.074   0.177   1.309  1.00  0.00    -0.0480  C
ATOM      7 N17  154 L   1      -3.813  -0.820  -0.541  1.00  0.00    -0.3077 NA
ATOM      8 C18  154 L   1      -2.567  -0.788  -1.338  1.00  0.00    +0.0227  C
ATOM      9 C19  154 L   1      -2.746   0.127  -2.556  1.00  0.00    -0.0480  C
ATOM     10 C20  154 L   1      -1.289  -0.405  -0.549  1.00  0.00    +0.0366  C
ATOM     11 H29  154 L   1      -3.229   1.862   0.068  1.00  0.00    +0.0504  H
ATOM     12 H30  154 L   1      -2.726   1.554   1.733  1.00  0.00    +0.0504  H
ATOM     13 H31  154 L   1      -3.228  -0.882   1.459  1.00  0.00    +0.0475  H
ATOM     14 H32  154 L   1      -5.592   0.892   0.662  1.00  0.00    +0.0245  H
ATOM     15 H33  154 L   1      -5.693  -0.724   1.384  1.00  0.00    +0.0245  H
ATOM     16 H34  154 L   1      -5.005   0.616   2.311  1.00  0.00    +0.0245  H
ATOM     17 H35  154 L   1      -4.576  -0.405  -1.073  1.00  0.00    +0.1226 HD
ATOM     18 H36  154 L   1      -2.417  -1.802  -1.727  1.00  0.00    +0.0475  H
ATOM     19 H37  154 L   1      -2.920   1.168  -2.263  1.00  0.00    +0.0245  H
ATOM     20 H38  154 L   1      -1.855   0.099  -3.193  1.00  0.00    +0.0245  H
ATOM     21 H39  154 L   1      -3.595  -0.198  -3.168  1.00  0.00    +0.0245  H
ATOM     22 H40  154 L   1      -0.442  -0.309  -1.236  1.00  0.00    +0.0504  H
ATOM     23 H41  154 L   1      -1.052  -1.206   0.161  1.00  0.00    +0.0504  H
ENDROOT
BRANCH 1 25
ATOM     24  C9  154 L   1       1.554   0.374   0.658  1.00  0.00    -0.0448  C
ATOM     25 C10  154 L   1       0.930   1.425   0.108  1.00  0.00    +0.0033  C
ATOM     26 H27  154 L   1       0.986  -0.225   1.367  1.00  0.00    +0.0627  H
ATOM     27 H28  154 L   1       1.416   2.149  -0.528  1.00  0.00    +0.0672  H
BRANCH 24 35
ATOM     28  C1  154 L   1       3.264  -1.528   2.572  1.00  0.00    -0.0200  C
ATOM     29  C2  154 L   1       3.674  -0.884   1.296  1.00  0.00    +0.0685  A
ATOM     30  N3  154 L   1       4.912  -1.084   0.822  1.00  0.00    -0.1748 NA
ATOM     31  N4  154 L   1       4.941  -0.380  -0.328  1.00  0.00    -0.2553  N
ATOM     32  C5  154 L   1       6.152  -0.375  -1.117  1.00  0.00    +0.0318  C
ATOM     33  C6  154 L   1       3.762   0.256  -0.588  1.00  0.00    +0.1342  A
ATOM     34 CL7  154 L   1       3.593   1.166  -2.021  1.00  0.00    -0.0617 Cl
ATOM     35  C8  154 L   1       2.907  -0.032   0.448  1.00  0.00    +0.0342  A
ATOM     36 H21  154 L   1       2.817  -0.792   3.245  1.00  0.00    +0.0293  H
ATOM     37 H22  154 L   1       2.527  -2.315   2.380  1.00  0.00    +0.0293  H
ATOM     38 H23  154 L   1       4.114  -1.979   3.091  1.00  0.00    +0.0293  H
ATOM     39 H24  154 L   1       6.519   0.654  -1.181  1.00  0.00    +0.0473  H
ATOM     40 H25  154 L   1       6.903  -1.006  -0.635  1.00  0.00    +0.0473  H
ATOM     41 H26  154 L   1       5.927  -0.771  -2.107  1.00  0.00    +0.0473  H
ENDBRANCH 24 35
ENDBRANCH 1 25
TORSDOF 2
