ROOT
ATOM      1  C3  SEL L   1      -2.315   4.009   1.753  1.00  0.00    +0.1835  A
ATOM      2  C4  SEL L   1      -3.045   2.970   1.182  1.00  0.00    +0.0131  A
ATOM      3  C5  SEL L   1      -2.476   1.724   0.950  1.00  0.00    +0.1003  A
ATOM      4  N6  SEL L   1      -3.249   0.775   0.405  1.00  0.00    -0.2105 NA
ATOM      5  C7  SEL L   1      -2.725  -0.434   0.173  1.00  0.00    +0.2291  A
ATOM      6 N16  SEL L   1      -1.445  -0.704   0.451  1.00  0.00    -0.1932 NA
ATOM      7 C17  SEL L   1      -0.669   0.265   0.983  1.00  0.00    +0.1589  A
ATOM      8 C32  SEL L   1      -1.138   1.547   1.295  1.00  0.00    +0.1351  A
ATOM      9 N33  SEL L   1      -0.401   2.542   1.871  1.00  0.00    -0.2046 NA
ATOM     10 C34  SEL L   1      -0.995   3.734   2.095  1.00  0.00    +0.2584  A
ATOM     11 H40  SEL L   1      -4.085   3.099   0.901  1.00  0.00    +0.0678  H
ENDROOT
BRANCH 1 13
ATOM     12  C1  SEL L   1      -4.087   5.582   1.516  1.00  0.00    +0.0790  C
ATOM     13  O2  SEL L   1      -2.792   5.264   2.009  1.00  0.00    -0.4899 OA
ATOM     14 H37  SEL L   1      -4.273   6.639   1.727  1.00  0.00    +0.0660  H
ATOM     15 H38  SEL L   1      -4.858   4.999   2.031  1.00  0.00    +0.0660  H
ATOM     16 H39  SEL L   1      -4.145   5.443   0.430  1.00  0.00    +0.0660  H
ENDBRANCH 1 13
BRANCH 5 17
ATOM     17  N8  SEL L   1      -3.530  -1.424  -0.416  1.00  0.00    -0.3390  N
ATOM     18  C9  SEL L   1      -2.940  -2.763  -0.344  1.00  0.00    +0.0226  C
ATOM     19 C10  SEL L   1      -3.665  -3.809  -1.190  1.00  0.00    -0.0224  C
ATOM     20 C11  SEL L   1      -5.020  -4.209  -0.607  1.00  0.00    +0.0003  C
ATOM     21 N12  SEL L   1      -6.154  -3.373  -1.006  1.00  0.00    -0.3036 NA
ATOM     22 C13  SEL L   1      -7.300  -3.599  -0.127  1.00  0.00    -0.0127  C
ATOM     23 C14  SEL L   1      -5.854  -1.943  -1.169  1.00  0.00    +0.0163  C
ATOM     24 C15  SEL L   1      -4.961  -1.274  -0.105  1.00  0.00    +0.0341  C
ATOM     25 H41  SEL L   1      -2.886  -3.100   0.699  1.00  0.00    +0.0489  H
ATOM     26 H42  SEL L   1      -1.913  -2.738  -0.733  1.00  0.00    +0.0489  H
ATOM     27 H43  SEL L   1      -3.035  -4.708  -1.209  1.00  0.00    +0.0295  H
ATOM     28 H44  SEL L   1      -3.756  -3.483  -2.233  1.00  0.00    +0.0295  H
ATOM     29 H45  SEL L   1      -4.936  -4.265   0.486  1.00  0.00    +0.0427  H
ATOM     30 H46  SEL L   1      -5.240  -5.228  -0.949  1.00  0.00    +0.0427  H
ATOM     31 H47  SEL L   1      -8.188  -3.081  -0.506  1.00  0.00    +0.0391  H
ATOM     32 H48  SEL L   1      -7.112  -3.257   0.897  1.00  0.00    +0.0391  H
ATOM     33 H49  SEL L   1      -7.554  -4.663  -0.092  1.00  0.00    +0.0391  H
ATOM     34 H50  SEL L   1      -6.802  -1.390  -1.220  1.00  0.00    +0.0444  H
ATOM     35 H51  SEL L   1      -5.404  -1.796  -2.160  1.00  0.00    +0.0444  H
ATOM     36 H52  SEL L   1      -5.182  -1.652   0.902  1.00  0.00    +0.0501  H
ATOM     37 H53  SEL L   1      -5.261  -0.218  -0.113  1.00  0.00    +0.0501  H
ENDBRANCH 5 17
BRANCH 7 38
ATOM     38 N18  SEL L   1       0.647  -0.169   1.210  1.00  0.00    -0.3650  N
ATOM     39 H54  SEL L   1       0.677  -1.117   0.838  1.00  0.00    +0.1614 HD
BRANCH 38 40
ATOM     40 C19  SEL L   1       1.743   0.669   0.703  1.00  0.00    +0.0308  C
ATOM     41 C20  SEL L   1       3.088   0.077   1.162  1.00  0.00    -0.0198  C
ATOM     42 C21  SEL L   1       3.791  -0.689   0.042  1.00  0.00    +0.0011  C
ATOM     43 N22  SEL L   1       4.040   0.119  -1.161  1.00  0.00    -0.2980 NA
ATOM     44 C30  SEL L   1       3.049   1.182  -1.373  1.00  0.00    +0.0011  C
ATOM     45 C31  SEL L   1       1.677   0.810  -0.825  1.00  0.00    -0.0198  C
ATOM     46 H55  SEL L   1       1.694   1.663   1.156  1.00  0.00    +0.0523  H
ATOM     47 H56  SEL L   1       3.744   0.895   1.490  1.00  0.00    +0.0297  H
ATOM     48 H57  SEL L   1       2.958  -0.576   2.035  1.00  0.00    +0.0297  H
ATOM     49 H58  SEL L   1       3.160  -1.538  -0.249  1.00  0.00    +0.0427  H
ATOM     50 H59  SEL L   1       4.712  -1.137   0.431  1.00  0.00    +0.0427  H
ATOM     51 H67  SEL L   1       2.967   1.377  -2.448  1.00  0.00    +0.0427  H
ATOM     52 H68  SEL L   1       3.368   2.119  -0.898  1.00  0.00    +0.0427  H
ATOM     53 H69  SEL L   1       1.328  -0.120  -1.296  1.00  0.00    +0.0297  H
ATOM     54 H70  SEL L   1       0.948   1.583  -1.097  1.00  0.00    +0.0297  H
BRANCH 43 55
ATOM     55 C23  SEL L   1       5.403   0.672  -1.216  1.00  0.00    +0.0240  C
ATOM     56 H60  SEL L   1       5.479   1.403  -2.033  1.00  0.00    +0.0476  H
ATOM     57 H61  SEL L   1       5.624   1.223  -0.291  1.00  0.00    +0.0476  H
BRANCH 55 58
ATOM     58 C24  SEL L   1       6.473  -0.365  -1.487  1.00  0.00    -0.0334  A
ATOM     59 C25  SEL L   1       7.601  -0.458  -0.660  1.00  0.00    -0.0573  A
ATOM     60 C26  SEL L   1       8.612  -1.380  -0.938  1.00  0.00    -0.0615  A
ATOM     61 C27  SEL L   1       8.509  -2.215  -2.051  1.00  0.00    -0.0617  A
ATOM     62 C28  SEL L   1       7.392  -2.135  -2.879  1.00  0.00    -0.0615  A
ATOM     63 C29  SEL L   1       6.381  -1.213  -2.601  1.00  0.00    -0.0573  A
ATOM     64 H62  SEL L   1       7.701   0.190   0.208  1.00  0.00    +0.0621  H
ATOM     65 H63  SEL L   1       9.483  -1.441  -0.293  1.00  0.00    +0.0618  H
ATOM     66 H64  SEL L   1       9.299  -2.929  -2.271  1.00  0.00    +0.0618  H
ATOM     67 H65  SEL L   1       7.312  -2.781  -3.750  1.00  0.00    +0.0618  H
ATOM     68 H66  SEL L   1       5.513  -1.157  -3.255  1.00  0.00    +0.0621  H
ENDBRANCH 55 58
ENDBRANCH 43 55
ENDBRANCH 38 40
ENDBRANCH 7 38
BRANCH 10 69
ATOM     69 O35  SEL L   1      -0.262   4.748   2.679  1.00  0.00    -0.4772 OA
ATOM     70 C36  SEL L   1       1.054   4.358   3.052  1.00  0.00    +0.0805  C
ATOM     71 H71  SEL L   1       1.657   4.110   2.172  1.00  0.00    +0.0660  H
ATOM     72 H72  SEL L   1       1.042   3.527   3.766  1.00  0.00    +0.0660  H
ATOM     73 H73  SEL L   1       1.527   5.211   3.548  1.00  0.00    +0.0660  H
ENDBRANCH 10 69
TORSDOF 7
