ROOT
ATOM      1 C15  CHE L   1       5.969  -1.623   0.148  1.00  0.00    +0.1351  A
ATOM      2 C16  CHE L   1       7.132  -2.104  -0.298  1.00  0.00    +0.0341  A
ATOM      3 C17  CHE L   1       8.069  -1.171  -0.936  1.00  0.00    +0.2590  A
ATOM      4 O18  CHE L   1       9.119  -1.612  -1.401  1.00  0.00    -0.2672 OA
ATOM      5 N19  CHE L   1       7.673   0.158  -0.965  1.00  0.00    -0.2682  N
ATOM      6 C20  CHE L   1       8.525   1.108  -1.519  1.00  0.00    +0.0146  A
ATOM      7 C21  CHE L   1       8.199   2.403  -1.572  1.00  0.00    -0.0450  A
ATOM      8 C22  CHE L   1       6.935   2.844  -1.051  1.00  0.00    -0.0569  A
ATOM      9 C23  CHE L   1       6.077   1.966  -0.519  1.00  0.00    -0.0187  A
ATOM     10 C24  CHE L   1       6.433   0.522  -0.455  1.00  0.00    +0.1410  A
ATOM     11 N25  CHE L   1       5.582  -0.306   0.070  1.00  0.00    -0.2242 NA
ATOM     12 H44  CHE L   1       7.419  -3.145  -0.237  1.00  0.00    +0.0695  H
ATOM     13 H45  CHE L   1       9.477   0.752  -1.903  1.00  0.00    +0.0814  H
ATOM     14 H46  CHE L   1       8.874   3.136  -2.003  1.00  0.00    +0.0632  H
ATOM     15 H47  CHE L   1       6.697   3.900  -1.099  1.00  0.00    +0.0619  H
ATOM     16 H48  CHE L   1       5.119   2.259  -0.113  1.00  0.00    +0.0654  H
ENDROOT
BRANCH 1 18
ATOM     17 N12  CHE L   1       3.754  -2.146   0.876  1.00  0.00    -0.3452  N
ATOM     18 C13  CHE L   1       5.032  -2.622   0.782  1.00  0.00    +0.2709  C
ATOM     19 O14  CHE L   1       5.395  -3.726   1.177  1.00  0.00    -0.2659 OA
ATOM     20 H43  CHE L   1       3.581  -1.206   0.538  1.00  0.00    +0.1631 HD
BRANCH 17 21
ATOM     21 C11  CHE L   1       2.672  -2.937   1.404  1.00  0.00    +0.0623  C
ATOM     22 H41  CHE L   1       2.730  -3.951   0.998  1.00  0.00    +0.0552  H
ATOM     23 H42  CHE L   1       2.791  -2.997   2.490  1.00  0.00    +0.0552  H
BRANCH 21 29
ATOM     24  C5  CHE L   1      -2.386   0.060   0.198  1.00  0.00    -0.0169  A
ATOM     25  C6  CHE L   1      -2.366  -0.850  -0.951  1.00  0.00    -0.0525  A
ATOM     26  C7  CHE L   1      -1.394  -1.767  -1.120  1.00  0.00    -0.0185  A
ATOM     27  C8  CHE L   1      -0.344  -1.866  -0.168  1.00  0.00    +0.1379  A
ATOM     28  N9  CHE L   1       0.719  -2.640  -0.117  1.00  0.00    -0.2310 NA
ATOM     29 C10  CHE L   1       1.385  -2.286   1.038  1.00  0.00    +0.0791  A
ATOM     30 C26  CHE L   1       0.705  -1.278   1.690  1.00  0.00    +0.0342  A
ATOM     31 N27  CHE L   1      -0.395  -1.004   0.918  1.00  0.00    -0.3060  N
ATOM     32 C28  CHE L   1      -1.394  -0.052   1.105  1.00  0.00    +0.0156  A
ATOM     33 H39  CHE L   1      -3.178  -0.776  -1.669  1.00  0.00    +0.0622  H
ATOM     34 H40  CHE L   1      -1.388  -2.441  -1.969  1.00  0.00    +0.0654  H
ATOM     35 H49  CHE L   1       0.914  -0.739   2.602  1.00  0.00    +0.0832  H
ATOM     36 H50  CHE L   1      -1.315   0.576   1.983  1.00  0.00    +0.0816  H
BRANCH 24 37
ATOM     37  C4  CHE L   1      -3.480   1.093   0.284  1.00  0.00    +0.0231  C
ATOM     38 H37  CHE L   1      -3.385   1.755  -0.585  1.00  0.00    +0.0474  H
ATOM     39 H38  CHE L   1      -3.333   1.709   1.179  1.00  0.00    +0.0474  H
BRANCH 37 40
ATOM     40  N3  CHE L   1      -4.796   0.458   0.330  1.00  0.00    -0.3068 NA
ATOM     41 H36  CHE L   1      -4.875  -0.063   1.205  1.00  0.00    +0.1228 HD
BRANCH 40 43
ATOM     42  C1  CHE L   1      -5.928   2.521   1.191  1.00  0.00    -0.0468  C
ATOM     43  C2  CHE L   1      -5.946   1.369   0.185  1.00  0.00    +0.0167  C
ATOM     44 C29  CHE L   1      -6.113   1.854  -1.265  1.00  0.00    -0.0349  C
ATOM     45 C30  CHE L   1      -6.655   0.645  -2.029  1.00  0.00    -0.0513  C
ATOM     46 C31  CHE L   1      -7.388  -0.205  -0.993  1.00  0.00    -0.0513  C
ATOM     47 C32  CHE L   1      -7.234   0.534   0.336  1.00  0.00    -0.0349  C
ATOM     48 H33  CHE L   1      -5.090   3.201   1.016  1.00  0.00    +0.0247  H
ATOM     49 H34  CHE L   1      -6.843   3.120   1.124  1.00  0.00    +0.0247  H
ATOM     50 H35  CHE L   1      -5.860   2.147   2.216  1.00  0.00    +0.0247  H
ATOM     51 H51  CHE L   1      -6.853   2.665  -1.311  1.00  0.00    +0.0283  H
ATOM     52 H52  CHE L   1      -5.196   2.239  -1.720  1.00  0.00    +0.0283  H
ATOM     53 H53  CHE L   1      -5.835   0.069  -2.474  1.00  0.00    +0.0266  H
ATOM     54 H54  CHE L   1      -7.318   0.957  -2.843  1.00  0.00    +0.0266  H
ATOM     55 H55  CHE L   1      -8.442  -0.337  -1.250  1.00  0.00    +0.0266  H
ATOM     56 H56  CHE L   1      -6.936  -1.200  -0.937  1.00  0.00    +0.0266  H
ATOM     57 H57  CHE L   1      -8.102   1.191   0.484  1.00  0.00    +0.0283  H
ATOM     58 H58  CHE L   1      -7.209  -0.156   1.187  1.00  0.00    +0.0283  H
ENDBRANCH 40 43
ENDBRANCH 37 40
ENDBRANCH 24 37
ENDBRANCH 21 29
ENDBRANCH 17 21
ENDBRANCH 1 18
TORSDOF 6
