ROOT
ATOM      1 C10  954 L   1       3.345   0.209   0.449  1.00  0.00    +0.1802  C
ATOM      2 C11  954 L   1       4.266  -0.593  -0.117  1.00  0.00    -0.0367  C
ATOM      3 C12  954 L   1       5.493  -0.058  -0.785  1.00  0.00    -0.0278  C
ATOM      4 C13  954 L   1       5.417   1.455  -0.953  1.00  0.00    -0.0151  C
ATOM      5 C14  954 L   1       4.798   2.073   0.290  1.00  0.00    +0.0901  C
ATOM      6 O15  954 L   1       3.474   1.585   0.522  1.00  0.00    -0.4869 OA
ATOM      7 H30  954 L   1       4.154  -1.673  -0.090  1.00  0.00    +0.0610  H
ATOM      8 H31  954 L   1       6.366  -0.324  -0.177  1.00  0.00    +0.0310  H
ATOM      9 H32  954 L   1       5.622  -0.531  -1.765  1.00  0.00    +0.0310  H
ATOM     10 H33  954 L   1       6.413   1.868  -1.142  1.00  0.00    +0.0301  H
ATOM     11 H34  954 L   1       4.790   1.687  -1.824  1.00  0.00    +0.0301  H
ATOM     12 H35  954 L   1       4.729   3.159   0.170  1.00  0.00    +0.0696  H
ATOM     13 H36  954 L   1       5.411   1.881   1.180  1.00  0.00    +0.0696  H
ENDROOT
BRANCH 1 15
ATOM     14  N7  954 L   1       1.507  -1.364   0.347  1.00  0.00    -0.3490  N
ATOM     15  C8  954 L   1       2.128  -0.389   1.096  1.00  0.00    +0.2864  C
ATOM     16  O9  954 L   1       1.714   0.010   2.178  1.00  0.00    -0.2643 OA
ATOM     17 H29  954 L   1       1.821  -1.524  -0.601  1.00  0.00    +0.1627 HD
BRANCH 14 18
ATOM     18  C6  954 L   1       0.278  -2.000   0.787  1.00  0.00    +0.0269  C
ATOM     19 H27  954 L   1       0.156  -2.906   0.183  1.00  0.00    +0.0491  H
ATOM     20 H28  954 L   1       0.404  -2.306   1.833  1.00  0.00    +0.0491  H
BRANCH 18 21
ATOM     21  C5  954 L   1      -0.932  -1.080   0.644  1.00  0.00    +0.0440  C
ATOM     22 H25  954 L   1      -0.964  -0.683  -0.377  1.00  0.00    +0.0378  H
ATOM     23 H26  954 L   1      -0.822  -0.255   1.351  1.00  0.00    +0.0378  H
BRANCH 21 26
ATOM     24  C1  954 L   1      -4.603  -2.142   0.536  1.00  0.00    +0.0149  C
ATOM     25  N2  954 L   1      -3.434  -1.267   0.517  1.00  0.00    -0.3152  N
ATOM     26  C3  954 L   1      -2.223  -1.826   0.944  1.00  0.00    +0.2292  C
ATOM     27  O4  954 L   1      -2.182  -2.934   1.488  1.00  0.00    -0.2726 OA
ATOM     28 H22  954 L   1      -4.638  -2.705  -0.402  1.00  0.00    +0.0457  H
ATOM     29 H23  954 L   1      -4.545  -2.855   1.364  1.00  0.00    +0.0457  H
ATOM     30 H24  954 L   1      -5.522  -1.561   0.666  1.00  0.00    +0.0457  H
BRANCH 25 31
ATOM     31 C16  954 L   1      -3.606   0.040  -0.028  1.00  0.00    +0.0443  A
ATOM     32 C17  954 L   1      -3.007   1.161   0.558  1.00  0.00    -0.0381  A
ATOM     33 C18  954 L   1      -3.199   2.440   0.024  1.00  0.00    -0.0598  A
ATOM     34 C19  954 L   1      -4.008   2.616  -1.095  1.00  0.00    -0.0616  A
ATOM     35 C20  954 L   1      -4.635   1.516  -1.672  1.00  0.00    -0.0598  A
ATOM     36 C21  954 L   1      -4.443   0.239  -1.137  1.00  0.00    -0.0381  A
ATOM     37 H37  954 L   1      -2.429   1.077   1.473  1.00  0.00    +0.0638  H
ATOM     38 H38  954 L   1      -2.728   3.298   0.496  1.00  0.00    +0.0618  H
ATOM     39 H39  954 L   1      -4.158   3.610  -1.508  1.00  0.00    +0.0618  H
ATOM     40 H40  954 L   1      -5.274   1.650  -2.542  1.00  0.00    +0.0618  H
ATOM     41 H41  954 L   1      -4.935  -0.599  -1.623  1.00  0.00    +0.0638  H
ENDBRANCH 25 31
ENDBRANCH 21 26
ENDBRANCH 18 21
ENDBRANCH 14 18
ENDBRANCH 1 15
TORSDOF 5
