ROOT
ATOM      1  C9  CHE L   1      -1.150   0.185   0.091  1.00  0.00    +0.0807  A
ATOM      2 C10  CHE L   1      -0.713  -0.528  -1.035  1.00  0.00    -0.0391  A
ATOM      3 C11  CHE L   1      -1.646  -1.025  -1.935  1.00  0.00    -0.0168  A
ATOM      4 C12  CHE L   1      -2.996  -0.803  -1.698  1.00  0.00    +0.1427  A
ATOM      5 O13  CHE L   1      -3.896  -1.307  -2.607  1.00  0.00    -0.5046 OA
ATOM      6 C14  CHE L   1      -3.470  -0.101  -0.593  1.00  0.00    +0.1134  A
ATOM      7 N15  CHE L   1      -4.807   0.047  -0.477  1.00  0.00    -0.2513 NA
ATOM      8 C16  CHE L   1      -5.277   0.725   0.590  1.00  0.00    +0.0284  A
ATOM      9 C17  CHE L   1      -4.468   1.273   1.562  1.00  0.00    -0.0430  A
ATOM     10 C18  CHE L   1      -3.092   1.115   1.432  1.00  0.00    -0.0498  A
ATOM     11 C19  CHE L   1      -2.539   0.412   0.334  1.00  0.00    +0.0224  A
ATOM     12 H27  CHE L   1       0.338  -0.712  -1.237  1.00  0.00    +0.0631  H
ATOM     13 H28  CHE L   1      -1.334  -1.580  -2.815  1.00  0.00    +0.0655  H
ATOM     14 H29  CHE L   1      -4.769  -1.037  -2.247  1.00  0.00    +0.2922 HD
ATOM     15 H30  CHE L   1      -6.358   0.819   0.643  1.00  0.00    +0.0830  H
ATOM     16 H31  CHE L   1      -4.892   1.811   2.403  1.00  0.00    +0.0633  H
ATOM     17 H32  CHE L   1      -2.461   1.550   2.204  1.00  0.00    +0.0625  H
ENDROOT
BRANCH 1 18
ATOM     18  S6  CHE L   1       0.054   0.819   1.242  1.00  0.00    +0.2078  S
ATOM     19  O7  CHE L   1      -0.166   0.117   2.494  1.00  0.00    -0.2170 OA
ATOM     20  O8  CHE L   1      -0.043   2.267   1.180  1.00  0.00    -0.2170 OA
BRANCH 18 25
ATOM     21  C1  CHE L   1       5.680  -0.600  -0.555  1.00  0.00    -0.0397  C
ATOM     22  C2  CHE L   1       4.278  -0.264  -0.136  1.00  0.00    -0.0504  A
ATOM     23  C3  CHE L   1       3.689   0.942  -0.541  1.00  0.00    -0.0576  A
ATOM     24  C4  CHE L   1       2.400   1.276  -0.124  1.00  0.00    -0.0430  A
ATOM     25  C5  CHE L   1       1.696   0.395   0.702  1.00  0.00    +0.0713  A
ATOM     26 C20  CHE L   1       2.282  -0.795   1.141  1.00  0.00    -0.0430  A
ATOM     27 C21  CHE L   1       3.572  -1.120   0.720  1.00  0.00    -0.0576  A
ATOM     28 H22  CHE L   1       5.817  -1.684  -0.624  1.00  0.00    +0.0278  H
ATOM     29 H23  CHE L   1       5.902  -0.182  -1.542  1.00  0.00    +0.0278  H
ATOM     30 H24  CHE L   1       6.394  -0.198   0.170  1.00  0.00    +0.0278  H
ATOM     31 H25  CHE L   1       4.238   1.633  -1.179  1.00  0.00    +0.0621  H
ATOM     32 H26  CHE L   1       1.960   2.219  -0.441  1.00  0.00    +0.0630  H
ATOM     33 H33  CHE L   1       1.750  -1.467   1.811  1.00  0.00    +0.0630  H
ATOM     34 H34  CHE L   1       4.028  -2.045   1.069  1.00  0.00    +0.0621  H
ENDBRANCH 18 25
ENDBRANCH 1 18
TORSDOF 2
