ROOT
ATOM      1  C1  SEL L   1       1.095   0.681   2.526  1.00  0.00    -0.0377  C
ATOM      2  C2  SEL L   1       0.911   1.745   1.491  1.00  0.00    -0.0166  A
ATOM      3  C3  SEL L   1       1.910   2.580   1.011  1.00  0.00    +0.0819  A
ATOM      4 S19  SEL L   1       1.332   3.722  -0.122  1.00  0.00    -0.0634  S
ATOM      5 C20  SEL L   1      -0.244   3.083  -0.056  1.00  0.00    +0.1160  A
ATOM      6 N21  SEL L   1      -1.240   3.584  -0.829  1.00  0.00    -0.2298 NA
ATOM      7 C22  SEL L   1      -2.388   3.013  -0.650  1.00  0.00    +0.1003  A
ATOM      8 N23  SEL L   1      -2.655   2.001   0.253  1.00  0.00    -0.2896  N
ATOM      9 C34  SEL L   1      -1.650   1.432   1.030  1.00  0.00    +0.2629  A
ATOM     10 O35  SEL L   1      -1.844   0.507   1.814  1.00  0.00    -0.2669 OA
ATOM     11 C36  SEL L   1      -0.343   2.048   0.849  1.00  0.00    +0.0758  A
ATOM     12 H37  SEL L   1       0.978  -0.309   2.073  1.00  0.00    +0.0278  H
ATOM     13 H38  SEL L   1       0.356   0.791   3.326  1.00  0.00    +0.0278  H
ATOM     14 H39  SEL L   1       2.085   0.729   2.988  1.00  0.00    +0.0278  H
ATOM     15 H51  SEL L   1      -3.257   3.337  -1.244  1.00  0.00    +0.1030  H
ENDROOT
BRANCH 3 16
ATOM     16  C4  SEL L   1       3.316   2.617   1.366  1.00  0.00    +0.2616  C
ATOM     17  O5  SEL L   1       3.776   3.488   2.103  1.00  0.00    -0.2668 OA
ATOM     18  N6  SEL L   1       4.121   1.597   0.857  1.00  0.00    -0.3345  N
ATOM     19  C7  SEL L   1       5.531   1.550   1.241  1.00  0.00    +0.0392  C
ATOM     20  C8  SEL L   1       6.128   0.131   1.198  1.00  0.00    +0.0378  C
ATOM     21  N9  SEL L   1       5.857  -0.557  -0.076  1.00  0.00    -0.3502  N
ATOM     22 C17  SEL L   1       4.877   0.065  -0.978  1.00  0.00    +0.0378  C
ATOM     23 C18  SEL L   1       3.695   0.641  -0.176  1.00  0.00    +0.0392  C
ATOM     24 H40  SEL L   1       5.663   1.972   2.243  1.00  0.00    +0.0506  H
ATOM     25 H41  SEL L   1       6.070   2.202   0.541  1.00  0.00    +0.0506  H
ATOM     26 H42  SEL L   1       7.202   0.226   1.397  1.00  0.00    +0.0506  H
ATOM     27 H43  SEL L   1       5.689  -0.468   2.004  1.00  0.00    +0.0506  H
ATOM     28 H47  SEL L   1       5.354   0.870  -1.553  1.00  0.00    +0.0506  H
ATOM     29 H48  SEL L   1       4.479  -0.674  -1.683  1.00  0.00    +0.0506  H
ATOM     30 H49  SEL L   1       2.990   1.118  -0.865  1.00  0.00    +0.0506  H
ATOM     31 H50  SEL L   1       3.168  -0.170   0.342  1.00  0.00    +0.0506  H
BRANCH 21 32
ATOM     32 C10  SEL L   1       6.897  -1.260  -0.687  1.00  0.00    +0.1653  A
ATOM     33 N11  SEL L   1       6.971  -1.241  -2.044  1.00  0.00    -0.2354 NA
ATOM     34 C12  SEL L   1       7.963  -1.930  -2.654  1.00  0.00    +0.0301  A
ATOM     35 C13  SEL L   1       8.920  -2.667  -1.980  1.00  0.00    -0.0407  A
ATOM     36 C14  SEL L   1       8.851  -2.703  -0.596  1.00  0.00    -0.0214  A
ATOM     37 C15  SEL L   1       7.832  -2.006   0.049  1.00  0.00    +0.1653  A
ATOM     38 F16  SEL L   1       7.757  -2.093   1.388  1.00  0.00    -0.2017  F
ATOM     39 H44  SEL L   1       7.960  -1.876  -3.739  1.00  0.00    +0.0830  H
ATOM     40 H45  SEL L   1       9.688  -3.206  -2.521  1.00  0.00    +0.0634  H
ATOM     41 H46  SEL L   1       9.563  -3.278  -0.013  1.00  0.00    +0.0648  H
ENDBRANCH 21 32
ENDBRANCH 3 16
BRANCH 8 42
ATOM     42 C24  SEL L   1      -3.994   1.440   0.340  1.00  0.00    +0.1060  C
ATOM     43 H52  SEL L   1      -4.169   1.083   1.360  1.00  0.00    +0.0591  H
ATOM     44 H53  SEL L   1      -4.726   2.213   0.086  1.00  0.00    +0.0591  H
BRANCH 42 45
ATOM     45 C25  SEL L   1      -4.159   0.279  -0.649  1.00  0.00    +0.2434  C
ATOM     46 O26  SEL L   1      -3.303   0.060  -1.509  1.00  0.00    -0.2711 OA
ATOM     47 N27  SEL L   1      -5.335  -0.462  -0.574  1.00  0.00    -0.3407  N
ATOM     48 C28  SEL L   1      -5.485  -1.642  -1.424  1.00  0.00    +0.0214  C
ATOM     49 C29  SEL L   1      -6.841  -1.653  -2.127  1.00  0.00    -0.0326  C
ATOM     50 C30  SEL L   1      -8.018  -1.465  -1.156  1.00  0.00    -0.0407  C
ATOM     51 C31  SEL L   1      -8.280  -2.724  -0.325  1.00  0.00    -0.0623  C
ATOM     52 C32  SEL L   1      -7.774  -0.237  -0.268  1.00  0.00    -0.0326  C
ATOM     53 C33  SEL L   1      -6.402  -0.256   0.408  1.00  0.00    +0.0214  C
ATOM     54 H54  SEL L   1      -5.372  -2.524  -0.782  1.00  0.00    +0.0488  H
ATOM     55 H55  SEL L   1      -4.688  -1.693  -2.174  1.00  0.00    +0.0488  H
ATOM     56 H56  SEL L   1      -6.860  -0.832  -2.857  1.00  0.00    +0.0285  H
ATOM     57 H57  SEL L   1      -6.957  -2.583  -2.695  1.00  0.00    +0.0285  H
ATOM     58 H58  SEL L   1      -8.924  -1.280  -1.748  1.00  0.00    +0.0299  H
ATOM     59 H59  SEL L   1      -7.417  -3.008   0.284  1.00  0.00    +0.0232  H
ATOM     60 H60  SEL L   1      -8.519  -3.570  -0.977  1.00  0.00    +0.0232  H
ATOM     61 H61  SEL L   1      -9.131  -2.573   0.348  1.00  0.00    +0.0232  H
ATOM     62 H62  SEL L   1      -8.563  -0.148   0.490  1.00  0.00    +0.0285  H
ATOM     63 H63  SEL L   1      -7.836   0.664  -0.894  1.00  0.00    +0.0285  H
ATOM     64 H64  SEL L   1      -6.339  -1.067   1.144  1.00  0.00    +0.0488  H
ATOM     65 H65  SEL L   1      -6.272   0.684   0.948  1.00  0.00    +0.0488  H
ENDBRANCH 42 45
ENDBRANCH 8 42
TORSDOF 4
