ROOT
ATOM      1  N8  CHE L   1       2.783   0.454   1.056  1.00  0.00    -0.2953 NA
ATOM      2  C9  CHE L   1       4.123   1.045   0.893  1.00  0.00    +0.0033  C
ATOM      3 C10  CHE L   1       4.614   0.885  -0.553  1.00  0.00    -0.0146  C
ATOM      4 C11  CHE L   1       4.449  -0.519  -1.074  1.00  0.00    -0.0418  A
ATOM      5 C12  CHE L   1       5.117  -0.921  -2.236  1.00  0.00    -0.0582  A
ATOM      6 C13  CHE L   1       4.933  -2.207  -2.744  1.00  0.00    -0.0615  A
ATOM      7 C14  CHE L   1       4.078  -3.095  -2.095  1.00  0.00    -0.0614  A
ATOM      8 C15  CHE L   1       3.409  -2.701  -0.939  1.00  0.00    -0.0571  A
ATOM      9 C16  CHE L   1       3.574  -1.407  -0.428  1.00  0.00    -0.0302  A
ATOM     10 C17  CHE L   1       2.876  -1.009   0.855  1.00  0.00    +0.0244  C
ATOM     11 H36  CHE L   1       4.838   0.578   1.586  1.00  0.00    +0.0430  H
ATOM     12 H37  CHE L   1       4.118   2.117   1.106  1.00  0.00    +0.0430  H
ATOM     13 H38  CHE L   1       4.044   1.558  -1.208  1.00  0.00    +0.0326  H
ATOM     14 H39  CHE L   1       5.669   1.181  -0.603  1.00  0.00    +0.0326  H
ATOM     15 H40  CHE L   1       5.782  -0.233  -2.751  1.00  0.00    +0.0620  H
ATOM     16 H41  CHE L   1       5.457  -2.514  -3.645  1.00  0.00    +0.0618  H
ATOM     17 H42  CHE L   1       3.935  -4.098  -2.491  1.00  0.00    +0.0618  H
ATOM     18 H43  CHE L   1       2.751  -3.409  -0.437  1.00  0.00    +0.0621  H
ATOM     19 H44  CHE L   1       3.411  -1.482   1.689  1.00  0.00    +0.0476  H
ATOM     20 H45  CHE L   1       1.859  -1.415   0.828  1.00  0.00    +0.0476  H
ENDROOT
BRANCH 1 21
ATOM     21  C7  CHE L   1       2.223   0.728   2.399  1.00  0.00    +0.0269  C
ATOM     22 H34  CHE L   1       2.926   0.400   3.176  1.00  0.00    +0.0452  H
ATOM     23 H35  CHE L   1       1.315   0.118   2.512  1.00  0.00    +0.0452  H
BRANCH 21 24
ATOM     24  C5  CHE L   1       1.803   2.191   2.686  1.00  0.00    +0.0852  C
ATOM     25  O6  CHE L   1       2.949   2.974   3.049  1.00  0.00    -0.3888 OA
ATOM     26 H32  CHE L   1       1.160   2.171   3.574  1.00  0.00    +0.0624  H
ATOM     27 H33  CHE L   1       2.613   3.829   3.370  1.00  0.00    +0.2099 HD
BRANCH 24 28
ATOM     28  C4  CHE L   1       1.049   2.865   1.524  1.00  0.00    +0.0456  C
ATOM     29 H30  CHE L   1       0.706   3.857   1.848  1.00  0.00    +0.0512  H
ATOM     30 H31  CHE L   1       1.717   3.039   0.672  1.00  0.00    +0.0512  H
BRANCH 28 33
ATOM     31  O1  CHE L   1      -1.385   2.511   2.897  1.00  0.00    -0.2676 OA
ATOM     32  C2  CHE L   1      -1.240   1.992   1.798  1.00  0.00    +0.2523  C
ATOM     33  N3  CHE L   1      -0.100   2.127   1.038  1.00  0.00    -0.3495  N
ATOM     34 H29  CHE L   1       0.081   1.465   0.290  1.00  0.00    +0.1627 HD
BRANCH 32 35
ATOM     35 C18  CHE L   1      -2.302   1.125   1.236  1.00  0.00    +0.0438  A
ATOM     36 C19  CHE L   1      -3.114   0.411   2.111  1.00  0.00    -0.0311  A
ATOM     37 C20  CHE L   1      -4.086  -0.396   1.560  1.00  0.00    +0.0306  A
ATOM     38 N21  CHE L   1      -4.297  -0.515   0.230  1.00  0.00    -0.2384 NA
ATOM     39 C22  CHE L   1      -3.539   0.212  -0.613  1.00  0.00    +0.1279  A
ATOM     40 C28  CHE L   1      -2.519   1.034  -0.140  1.00  0.00    -0.0073  A
ATOM     41 H46  CHE L   1      -2.986   0.475   3.186  1.00  0.00    +0.0640  H
ATOM     42 H47  CHE L   1      -4.746  -0.988   2.188  1.00  0.00    +0.0830  H
ATOM     43 H56  CHE L   1      -1.917   1.603  -0.840  1.00  0.00    +0.0661  H
BRANCH 39 44
ATOM     44 N23  CHE L   1      -3.724   0.138  -2.014  1.00  0.00    -0.3669  N
ATOM     45 H48  CHE L   1      -3.745   1.089  -2.378  1.00  0.00    +0.1613 HD
BRANCH 44 46
ATOM     46 C24  CHE L   1      -4.638  -0.695  -2.743  1.00  0.00    +0.0284  C
ATOM     47 C25  CHE L   1      -6.113  -0.667  -2.299  1.00  0.00    -0.0326  C
ATOM     48 C26  CHE L   1      -6.145  -2.186  -2.573  1.00  0.00    -0.0494  C
ATOM     49 C27  CHE L   1      -4.609  -2.198  -2.414  1.00  0.00    -0.0326  C
ATOM     50 H49  CHE L   1      -4.525  -0.509  -3.821  1.00  0.00    +0.0522  H
ATOM     51 H50  CHE L   1      -6.778  -0.070  -2.931  1.00  0.00    +0.0285  H
ATOM     52 H51  CHE L   1      -6.313  -0.410  -1.254  1.00  0.00    +0.0285  H
ATOM     53 H52  CHE L   1      -6.698  -2.785  -1.846  1.00  0.00    +0.0267  H
ATOM     54 H53  CHE L   1      -6.488  -2.441  -3.582  1.00  0.00    +0.0267  H
ATOM     55 H54  CHE L   1      -4.276  -2.480  -1.409  1.00  0.00    +0.0285  H
ATOM     56 H55  CHE L   1      -4.075  -2.820  -3.139  1.00  0.00    +0.0285  H
ENDBRANCH 44 46
ENDBRANCH 39 44
ENDBRANCH 32 35
ENDBRANCH 28 33
ENDBRANCH 24 28
ENDBRANCH 21 24
ENDBRANCH 1 21
TORSDOF 7
