ROOT
ATOM      1 C29  WH0 L   1      -1.306   3.071  -0.490  1.00  0.00    -0.0133  A
ATOM      2 C30  WH0 L   1      -0.558   3.415  -1.641  1.00  0.00    -0.0519  A
ATOM      3 C31  WH0 L   1      -0.303   4.760  -1.950  1.00  0.00    -0.0374  A
ATOM      4 C32  WH0 L   1      -0.804   5.741  -1.099  1.00  0.00    +0.0454  A
ATOM      5 C33  WH0 L   1      -1.532   5.417   0.027  1.00  0.00    -0.0145  A
ATOM      6 C34  WH0 L   1      -1.797   4.088   0.355  1.00  0.00    -0.0483  A
ATOM      7 C35  WH0 L   1      -1.946   6.651   0.762  1.00  0.00    +0.0535  C
ATOM      8 C36  WH0 L   1      -1.340   7.694  -0.131  1.00  0.00    +0.2296  C
ATOM      9 O37  WH0 L   1      -1.424   8.933   0.074  1.00  0.00    -0.2725 OA
ATOM     10 N38  WH0 L   1      -0.652   7.140  -1.247  1.00  0.00    -0.3256  N
ATOM     11 H63  WH0 L   1      -0.181   2.641  -2.298  1.00  0.00    +0.0624  H
ATOM     12 H64  WH0 L   1       0.268   5.028  -2.830  1.00  0.00    +0.0638  H
ATOM     13 H65  WH0 L   1      -2.356   3.851   1.252  1.00  0.00    +0.0627  H
ATOM     14 H66  WH0 L   1      -1.493   6.681   1.776  1.00  0.00    +0.0410  H
ATOM     15 H67  WH0 L   1      -3.051   6.746   0.793  1.00  0.00    +0.0410  H
ATOM     16 H68  WH0 L   1      -0.158   7.651  -2.012  1.00  0.00    +0.1686 HD
ENDROOT
BRANCH 1 25
ATOM     17 C13  WH0 L   1      -0.673   0.576  -0.171  1.00  0.00    +0.1015  A
ATOM     18 N14  WH0 L   1      -1.338  -0.572   0.097  1.00  0.00    -0.1627 NA
ATOM     19 N15  WH0 L   1      -2.612  -0.256   0.258  1.00  0.00    -0.1987  N
ATOM     20 C16  WH0 L   1      -3.639  -1.098   0.555  1.00  0.00    +0.2282  A
ATOM     21 N24  WH0 L   1      -4.888  -0.567   0.701  1.00  0.00    -0.2207 NA
ATOM     22 C25  WH0 L   1      -5.114   0.769   0.535  1.00  0.00    +0.0334  A
ATOM     23 C26  WH0 L   1      -4.057   1.634   0.221  1.00  0.00    -0.0173  A
ATOM     24 C27  WH0 L   1      -2.789   1.065   0.110  1.00  0.00    +0.0803  A
ATOM     25 C28  WH0 L   1      -1.569   1.652  -0.172  1.00  0.00    +0.0353  A
ATOM     26 H61  WH0 L   1      -6.117   1.161   0.647  1.00  0.00    +0.0831  H
ATOM     27 H62  WH0 L   1      -4.228   2.692   0.078  1.00  0.00    +0.0654  H
BRANCH 17 30
ATOM     28 C10  WH0 L   1       2.816  -0.427  -1.254  1.00  0.00    -0.0099  A
ATOM     29 C11  WH0 L   1       1.426  -0.441  -1.047  1.00  0.00    -0.0465  A
ATOM     30 C12  WH0 L   1       0.790   0.618  -0.381  1.00  0.00    +0.0032  A
ATOM     31 C39  WH0 L   1       1.564   1.679   0.117  1.00  0.00    -0.0498  A
ATOM     32 C40  WH0 L   1       2.947   1.692  -0.073  1.00  0.00    -0.0256  A
ATOM     33 C41  WH0 L   1       3.575   0.648  -0.755  1.00  0.00    +0.1266  A
ATOM     34 F42  WH0 L   1       4.921   0.684  -0.923  1.00  0.00    -0.2052  F
ATOM     35 H50  WH0 L   1       0.839  -1.274  -1.417  1.00  0.00    +0.0628  H
ATOM     36 H69  WH0 L   1       1.105   2.486   0.674  1.00  0.00    +0.0625  H
ATOM     37 H70  WH0 L   1       3.534   2.513   0.318  1.00  0.00    +0.0646  H
BRANCH 28 38
ATOM     38  C9  WH0 L   1       3.477  -1.581  -1.965  1.00  0.00    -0.0074  C
ATOM     39 H48  WH0 L   1       4.407  -1.248  -2.474  1.00  0.00    +0.0331  H
ATOM     40 H49  WH0 L   1       2.802  -1.961  -2.762  1.00  0.00    +0.0331  H
BRANCH 38 41
ATOM     41  C8  WH0 L   1       3.787  -2.730  -0.999  1.00  0.00    +0.0225  C
ATOM     42 H46  WH0 L   1       4.154  -3.612  -1.568  1.00  0.00    +0.0489  H
ATOM     43 H47  WH0 L   1       2.853  -3.036  -0.477  1.00  0.00    +0.0489  H
BRANCH 41 46
ATOM     44  C5  WH0 L   1       6.182  -2.187  -0.343  1.00  0.00    +0.2618  C
ATOM     45  O6  WH0 L   1       6.582  -2.511  -1.496  1.00  0.00    -0.2669 OA
ATOM     46  N7  WH0 L   1       4.790  -2.333  -0.010  1.00  0.00    -0.3511  N
ATOM     47 H45  WH0 L   1       4.474  -2.207   0.979  1.00  0.00    +0.1627 HD
BRANCH 44 49
ATOM     48  C1  WH0 L   1       8.457  -1.601   0.383  1.00  0.00    -0.0760  C
ATOM     49  C2  WH0 L   1       7.149  -1.658   0.651  1.00  0.00    +0.1085  C
ATOM     50 H43  WH0 L   1       9.158  -1.205   1.109  1.00  0.00    +0.0549  H
ATOM     51 H44  WH0 L   1       8.857  -1.950  -0.561  1.00  0.00    +0.0549  H
BRANCH 49 52
ATOM     52  C3  WH0 L   1       6.685  -1.172   1.927  1.00  0.00    +0.1040  C
ATOM     53  N4  WH0 L   1       6.312  -0.782   2.950  1.00  0.00    -0.1907 NA
ENDBRANCH 49 52
ENDBRANCH 44 49
ENDBRANCH 41 46
ENDBRANCH 38 41
ENDBRANCH 28 38
ENDBRANCH 17 30
BRANCH 20 54
ATOM     54 N17  WH0 L   1      -3.433  -2.510   0.738  1.00  0.00    -0.3401  N
ATOM     55 C18  WH0 L   1      -2.539  -3.262  -0.152  1.00  0.00    +0.0237  C
ATOM     56 C19  WH0 L   1      -3.118  -4.652  -0.439  1.00  0.00    -0.0090  C
ATOM     57 C20  WH0 L   1      -3.486  -5.387   0.858  1.00  0.00    +0.0585  C
ATOM     58 O21  WH0 L   1      -2.320  -5.665   1.592  1.00  0.00    -0.3917 OA
ATOM     59 C22  WH0 L   1      -4.463  -4.538   1.690  1.00  0.00    -0.0090  C
ATOM     60 C23  WH0 L   1      -3.892  -3.146   1.979  1.00  0.00    +0.0237  C
ATOM     61 H51  WH0 L   1      -2.415  -2.729  -1.120  1.00  0.00    +0.0489  H
ATOM     62 H52  WH0 L   1      -1.540  -3.362   0.325  1.00  0.00    +0.0489  H
ATOM     63 H53  WH0 L   1      -2.379  -5.250  -1.014  1.00  0.00    +0.0307  H
ATOM     64 H54  WH0 L   1      -4.029  -4.543  -1.069  1.00  0.00    +0.0307  H
ATOM     65 H55  WH0 L   1      -3.986  -6.344   0.582  1.00  0.00    +0.0594  H
ATOM     66 H56  WH0 L   1      -2.568  -6.335   2.280  1.00  0.00    +0.2098 HD
ATOM     67 H57  WH0 L   1      -5.420  -4.430   1.137  1.00  0.00    +0.0307  H
ATOM     68 H58  WH0 L   1      -4.685  -5.051   2.651  1.00  0.00    +0.0307  H
ATOM     69 H59  WH0 L   1      -3.036  -3.229   2.684  1.00  0.00    +0.0489  H
ATOM     70 H60  WH0 L   1      -4.678  -2.533   2.472  1.00  0.00    +0.0489  H
ENDBRANCH 20 54
ENDBRANCH 1 25
TORSDOF 8
