ROOT
ATOM      1 N10  CHE L   1      -0.440   0.000   1.114  1.00  0.00    -0.3178  N
ATOM      2 C11  CHE L   1      -0.260  -1.312   1.510  1.00  0.00    +0.2561  C
ATOM      3 O12  CHE L   1      -0.537  -1.817   2.580  1.00  0.00    -0.2674 OA
ATOM      4 C13  CHE L   1       0.340  -2.020   0.375  1.00  0.00    +0.0448  A
ATOM      5 C14  CHE L   1       0.712  -3.347   0.280  1.00  0.00    -0.0491  A
ATOM      6 C15  CHE L   1       1.259  -3.775  -0.930  1.00  0.00    -0.0610  A
ATOM      7 C16  CHE L   1       1.416  -2.877  -2.002  1.00  0.00    -0.0614  A
ATOM      8 C17  CHE L   1       1.029  -1.538  -1.883  1.00  0.00    -0.0554  A
ATOM      9 C18  CHE L   1       0.491  -1.117  -0.678  1.00  0.00    -0.0036  A
ATOM     10 C19  CHE L   1       0.010   0.246  -0.264  1.00  0.00    +0.1373  C
ATOM     11 H39  CHE L   1       0.580  -4.026   1.116  1.00  0.00    +0.0625  H
ATOM     12 H40  CHE L   1       1.567  -4.812  -1.048  1.00  0.00    +0.0618  H
ATOM     13 H41  CHE L   1       1.846  -3.231  -2.938  1.00  0.00    +0.0618  H
ATOM     14 H42  CHE L   1       1.159  -0.849  -2.714  1.00  0.00    +0.0621  H
ATOM     15 H43  CHE L   1      -0.841   0.565  -0.872  1.00  0.00    +0.0675  H
ENDROOT
BRANCH 1 16
ATOM     16  C9  CHE L   1      -1.212   0.966   1.875  1.00  0.00    +0.0554  C
ATOM     17 H37  CHE L   1      -0.680   1.923   1.860  1.00  0.00    +0.0544  H
ATOM     18 H38  CHE L   1      -1.274   0.642   2.920  1.00  0.00    +0.0544  H
BRANCH 16 22
ATOM     19  C5  CHE L   1      -4.897   0.851   0.570  1.00  0.00    +0.1734  A
ATOM     20  N6  CHE L   1      -4.406   1.995   0.148  1.00  0.00    -0.2307 NA
ATOM     21  C7  CHE L   1      -3.096   2.146   0.546  1.00  0.00    +0.0419  A
ATOM     22  C8  CHE L   1      -2.577   1.113   1.296  1.00  0.00    +0.0306  A
ATOM     23 S31  CHE L   1      -3.790  -0.075   1.527  1.00  0.00    -0.0528  S
ATOM     24 H36  CHE L   1      -2.563   3.043   0.252  1.00  0.00    +0.0839  H
BRANCH 19 25
ATOM     25  N4  CHE L   1      -6.144   0.364   0.375  1.00  0.00    -0.3057  N
ATOM     26 H35  CHE L   1      -6.319  -0.540   0.787  1.00  0.00    +0.1707 HD
BRANCH 25 28
ATOM     27  N1  CHE L   1      -6.932   1.559  -1.511  1.00  0.00    -0.2685 NA
ATOM     28  C2  CHE L   1      -7.081   0.745  -0.531  1.00  0.00    +0.1936  C
ATOM     29  N3  CHE L   1      -8.271   0.130  -0.309  1.00  0.00    -0.3698  N
ATOM     30 H32  CHE L   1      -7.789   1.644  -2.053  1.00  0.00    +0.1898 HD
ATOM     31 H33  CHE L   1      -9.037   0.514  -0.850  1.00  0.00    +0.1587 HD
ATOM     32 H34  CHE L   1      -8.528   0.101   0.672  1.00  0.00    +0.1587 HD
ENDBRANCH 25 28
ENDBRANCH 19 25
ENDBRANCH 16 22
ENDBRANCH 1 16
BRANCH 10 33
ATOM     33 C20  CHE L   1       1.151   1.283  -0.351  1.00  0.00    +0.2484  C
ATOM     34 O21  CHE L   1       1.431   1.858  -1.402  1.00  0.00    -0.2706 OA
ATOM     35 N22  CHE L   1       1.901   1.420   0.802  1.00  0.00    -0.3500  N
ATOM     36 H44  CHE L   1       1.735   0.743   1.538  1.00  0.00    +0.1627 HD
BRANCH 35 37
ATOM     37 C23  CHE L   1       3.174   2.103   0.803  1.00  0.00    +0.0435  C
ATOM     38 H45  CHE L   1       3.279   2.600   1.773  1.00  0.00    +0.0536  H
ATOM     39 H46  CHE L   1       3.197   2.881   0.032  1.00  0.00    +0.0536  H
BRANCH 37 40
ATOM     40 C24  CHE L   1       4.296   1.117   0.593  1.00  0.00    -0.0281  A
ATOM     41 C25  CHE L   1       4.666   0.734  -0.707  1.00  0.00    -0.0542  A
ATOM     42 C26  CHE L   1       5.677  -0.207  -0.906  1.00  0.00    -0.0261  A
ATOM     43 C27  CHE L   1       6.313  -0.770   0.193  1.00  0.00    +0.1234  A
ATOM     44 F28  CHE L   1       7.282  -1.675   0.002  1.00  0.00    -0.2055  F
ATOM     45 C29  CHE L   1       5.957  -0.412   1.488  1.00  0.00    -0.0261  A
ATOM     46 C30  CHE L   1       4.945   0.528   1.690  1.00  0.00    -0.0542  A
ATOM     47 H47  CHE L   1       4.160   1.166  -1.569  1.00  0.00    +0.0622  H
ATOM     48 H48  CHE L   1       5.967  -0.505  -1.908  1.00  0.00    +0.0646  H
ATOM     49 H49  CHE L   1       6.466  -0.871   2.330  1.00  0.00    +0.0646  H
ATOM     50 H50  CHE L   1       4.667   0.797   2.707  1.00  0.00    +0.0622  H
ENDBRANCH 37 40
ENDBRANCH 35 37
ENDBRANCH 10 33
TORSDOF 7
