ROOT
ATOM      1 C14  CHE L   1       5.675  -1.050   0.418  1.00  0.00    +0.0389  A
ATOM      2 C15  CHE L   1       6.196  -0.969  -0.829  1.00  0.00    -0.0388  A
ATOM      3 C16  CHE L   1       5.606  -1.608  -2.057  1.00  0.00    -0.0392  C
ATOM      4 C17  CHE L   1       7.414  -0.205  -1.064  1.00  0.00    -0.0393  A
ATOM      5 C18  CHE L   1       8.039   0.430  -0.061  1.00  0.00    +0.0162  A
ATOM      6 C19  CHE L   1       9.294   1.228  -0.232  1.00  0.00    -0.0244  C
ATOM      7 N20  CHE L   1       7.510   0.358   1.204  1.00  0.00    -0.3262  N
ATOM      8 C21  CHE L   1       6.365  -0.322   1.532  1.00  0.00    +0.2540  A
ATOM      9 O22  CHE L   1       5.922  -0.310   2.677  1.00  0.00    -0.2675 OA
ATOM     10 H43  CHE L   1       5.445  -0.852  -2.836  1.00  0.00    +0.0278  H
ATOM     11 H44  CHE L   1       6.282  -2.373  -2.454  1.00  0.00    +0.0278  H
ATOM     12 H45  CHE L   1       4.638  -2.082  -1.874  1.00  0.00    +0.0278  H
ATOM     13 H46  CHE L   1       7.808  -0.166  -2.076  1.00  0.00    +0.0637  H
ATOM     14 H47  CHE L   1      10.100   0.807   0.381  1.00  0.00    +0.0292  H
ATOM     15 H48  CHE L   1       9.132   2.268   0.074  1.00  0.00    +0.0292  H
ATOM     16 H49  CHE L   1       9.634   1.233  -1.274  1.00  0.00    +0.0292  H
ATOM     17 H50  CHE L   1       7.958   0.842   1.972  1.00  0.00    +0.1686 HD
ENDROOT
BRANCH 1 18
ATOM     18 C13  CHE L   1       4.465  -1.835   0.826  1.00  0.00    +0.0491  C
ATOM     19 H41  CHE L   1       4.295  -2.698   0.174  1.00  0.00    +0.0538  H
ATOM     20 H42  CHE L   1       4.560  -2.241   1.839  1.00  0.00    +0.0538  H
BRANCH 18 23
ATOM     21 C10  CHE L   1       2.036  -1.481   0.737  1.00  0.00    +0.2527  C
ATOM     22 O11  CHE L   1       1.784  -2.663   0.545  1.00  0.00    -0.2676 OA
ATOM     23 N12  CHE L   1       3.311  -0.965   0.799  1.00  0.00    -0.3478  N
ATOM     24 H40  CHE L   1       3.442  -0.007   1.096  1.00  0.00    +0.1630 HD
BRANCH 21 30
ATOM     25  C4  CHE L   1      -1.133   0.579   0.209  1.00  0.00    +0.0432  A
ATOM     26  C5  CHE L   1      -1.034   1.428   1.326  1.00  0.00    -0.0198  A
ATOM     27  C6  CHE L   1       0.021   1.312   2.227  1.00  0.00    +0.0437  A
ATOM     28 CL7  CHE L   1       0.099   2.360   3.587  1.00  0.00    -0.0835 Cl
ATOM     29  C8  CHE L   1       1.011   0.361   2.033  1.00  0.00    -0.0307  A
ATOM     30  C9  CHE L   1       0.947  -0.483   0.917  1.00  0.00    +0.0452  A
ATOM     31 C23  CHE L   1      -0.126  -0.395  -0.001  1.00  0.00    -0.0149  A
ATOM     32 C24  CHE L   1      -0.206  -1.366  -1.155  1.00  0.00    -0.0370  C
ATOM     33 H38  CHE L   1      -1.789   2.191   1.494  1.00  0.00    +0.0653  H
ATOM     34 H39  CHE L   1       1.817   0.263   2.757  1.00  0.00    +0.0640  H
ATOM     35 H51  CHE L   1       0.741  -1.384  -1.705  1.00  0.00    +0.0278  H
ATOM     36 H52  CHE L   1      -0.438  -2.370  -0.786  1.00  0.00    +0.0278  H
ATOM     37 H53  CHE L   1      -0.980  -1.107  -1.884  1.00  0.00    +0.0278  H
BRANCH 25 38
ATOM     38  N3  CHE L   1      -2.202   0.699  -0.705  1.00  0.00    -0.3676  N
BRANCH 38 40
ATOM     39  C1  CHE L   1      -2.000   3.059  -1.569  1.00  0.00    -0.0475  C
ATOM     40  C2  CHE L   1      -1.842   1.570  -1.849  1.00  0.00    +0.0161  C
ATOM     41 H33  CHE L   1      -1.751   3.632  -2.467  1.00  0.00    +0.0247  H
ATOM     42 H34  CHE L   1      -3.024   3.317  -1.284  1.00  0.00    +0.0247  H
ATOM     43 H35  CHE L   1      -1.333   3.393  -0.769  1.00  0.00    +0.0247  H
ATOM     44 H36  CHE L   1      -2.455   1.296  -2.715  1.00  0.00    +0.0485  H
ATOM     45 H37  CHE L   1      -0.808   1.382  -2.168  1.00  0.00    +0.0485  H
ENDBRANCH 38 40
BRANCH 38 46
ATOM     46 C25  CHE L   1      -3.585   0.777  -0.154  1.00  0.00    +0.0300  C
ATOM     47 C26  CHE L   1      -3.837  -0.352   0.872  1.00  0.00    -0.0320  C
ATOM     48 C27  CHE L   1      -5.270  -0.337   1.407  1.00  0.00    -0.0460  C
ATOM     49 C28  CHE L   1      -6.338  -0.434   0.301  1.00  0.00    -0.0347  C
ATOM     50 C29  CHE L   1      -7.728  -0.188   0.920  1.00  0.00    -0.0598  C
ATOM     51 C30  CHE L   1      -6.343  -1.839  -0.333  1.00  0.00    -0.0598  C
ATOM     52 C31  CHE L   1      -6.067   0.645  -0.767  1.00  0.00    -0.0460  C
ATOM     53 C32  CHE L   1      -4.628   0.650  -1.287  1.00  0.00    -0.0320  C
ATOM     54 H54  CHE L   1      -3.731   1.746   0.343  1.00  0.00    +0.0524  H
ATOM     55 H55  CHE L   1      -3.168  -0.260   1.733  1.00  0.00    +0.0285  H
ATOM     56 H56  CHE L   1      -3.610  -1.324   0.419  1.00  0.00    +0.0285  H
ATOM     57 H57  CHE L   1      -5.412   0.597   1.971  1.00  0.00    +0.0271  H
ATOM     58 H58  CHE L   1      -5.392  -1.154   2.132  1.00  0.00    +0.0271  H
ATOM     59 H59  CHE L   1      -8.518  -0.266   0.164  1.00  0.00    +0.0235  H
ATOM     60 H60  CHE L   1      -7.945  -0.917   1.710  1.00  0.00    +0.0235  H
ATOM     61 H61  CHE L   1      -7.794   0.813   1.366  1.00  0.00    +0.0235  H
ATOM     62 H62  CHE L   1      -6.559  -2.608   0.420  1.00  0.00    +0.0235  H
ATOM     63 H63  CHE L   1      -7.111  -1.913  -1.111  1.00  0.00    +0.0235  H
ATOM     64 H64  CHE L   1      -5.386  -2.095  -0.796  1.00  0.00    +0.0235  H
ATOM     65 H65  CHE L   1      -6.277   1.638  -0.346  1.00  0.00    +0.0271  H
ATOM     66 H66  CHE L   1      -6.755   0.520  -1.614  1.00  0.00    +0.0271  H
ATOM     67 H67  CHE L   1      -4.538   1.487  -1.989  1.00  0.00    +0.0285  H
ATOM     68 H68  CHE L   1      -4.436  -0.261  -1.870  1.00  0.00    +0.0285  H
ENDBRANCH 38 46
ENDBRANCH 25 38
ENDBRANCH 21 30
ENDBRANCH 18 23
ENDBRANCH 1 18
TORSDOF 6
