ROOT
ATOM      1  C4  MCU L   1      -1.762  -1.943   0.182  1.00  0.00    +0.0233  C
ATOM      2  N5  MCU L   1      -2.055  -0.687  -0.519  1.00  0.00    -0.2949 NA
ATOM      3  C6  MCU L   1      -1.989   0.392   0.495  1.00  0.00    +0.1382  C
ATOM      4  C7  MCU L   1      -3.407   0.651   1.119  1.00  0.00    +0.2508  C
ATOM      5  O8  MCU L   1      -4.109  -0.158   1.707  1.00  0.00    -0.2705 OA
ATOM      6  N9  MCU L   1      -3.740   1.974   0.870  1.00  0.00    -0.3240  N
ATOM      7 C10  MCU L   1      -2.762   2.605   0.119  1.00  0.00    +0.0472  A
ATOM      8 C11  MCU L   1      -2.787   3.903  -0.348  1.00  0.00    -0.0380  A
ATOM      9 C12  MCU L   1      -1.716   4.321  -1.140  1.00  0.00    -0.0598  A
ATOM     10 C13  MCU L   1      -0.668   3.438  -1.454  1.00  0.00    -0.0613  A
ATOM     11 C14  MCU L   1      -0.667   2.126  -0.970  1.00  0.00    -0.0544  A
ATOM     12 C15  MCU L   1      -1.716   1.722  -0.158  1.00  0.00    +0.0058  A
ATOM     13 C16  MCU L   1      -1.072  -0.128   1.610  1.00  0.00    +0.0824  C
ATOM     14 C17  MCU L   1       0.231   0.598   1.745  1.00  0.00    +0.2408  C
ATOM     15 O18  MCU L   1       0.314   1.723   2.218  1.00  0.00    -0.2718 OA
ATOM     16 N19  MCU L   1       1.219  -0.162   1.162  1.00  0.00    -0.2490  N
ATOM     17 C31  MCU L   1       0.727  -1.336   0.636  1.00  0.00    +0.2398  C
ATOM     18 O32  MCU L   1       1.331  -2.147  -0.052  1.00  0.00    -0.2719 OA
ATOM     19 C33  MCU L   1      -0.674  -1.533   1.167  1.00  0.00    +0.0680  C
ATOM     20 H41  MCU L   1      -2.652  -2.218   0.766  1.00  0.00    +0.0471  H
ATOM     21 H42  MCU L   1      -2.985  -0.713  -0.941  1.00  0.00    +0.1235 HD
ATOM     22 H43  MCU L   1      -4.611   2.389   1.166  1.00  0.00    +0.1687 HD
ATOM     23 H44  MCU L   1      -3.605   4.577  -0.121  1.00  0.00    +0.0638  H
ATOM     24 H45  MCU L   1      -1.695   5.336  -1.529  1.00  0.00    +0.0618  H
ATOM     25 H46  MCU L   1       0.149   3.779  -2.086  1.00  0.00    +0.0618  H
ATOM     26 H47  MCU L   1       0.134   1.446  -1.239  1.00  0.00    +0.0622  H
ATOM     27 H48  MCU L   1      -1.561  -0.173   2.590  1.00  0.00    +0.0431  H
ATOM     28 H52  MCU L   1      -0.619  -2.217   2.023  1.00  0.00    +0.0420  H
ENDROOT
BRANCH 1 30
ATOM     29  C1  MCU L   1      -1.111  -4.388  -0.002  1.00  0.00    -0.0612  C
ATOM     30  C2  MCU L   1      -1.459  -3.113  -0.777  1.00  0.00    -0.0305  C
ATOM     31  C3  MCU L   1      -2.648  -3.405  -1.703  1.00  0.00    -0.0612  C
ATOM     32 H34  MCU L   1      -0.221  -4.254   0.620  1.00  0.00    +0.0233  H
ATOM     33 H35  MCU L   1      -1.937  -4.691   0.651  1.00  0.00    +0.0233  H
ATOM     34 H36  MCU L   1      -0.905  -5.216  -0.689  1.00  0.00    +0.0233  H
ATOM     35 H37  MCU L   1      -0.610  -2.857  -1.421  1.00  0.00    +0.0311  H
ATOM     36 H38  MCU L   1      -2.862  -2.555  -2.359  1.00  0.00    +0.0233  H
ATOM     37 H39  MCU L   1      -2.435  -4.265  -2.348  1.00  0.00    +0.0233  H
ATOM     38 H40  MCU L   1      -3.553  -3.630  -1.129  1.00  0.00    +0.0233  H
ENDBRANCH 1 30
BRANCH 16 39
ATOM     39 C20  MCU L   1       2.546   0.304   0.961  1.00  0.00    +0.0711  A
ATOM     40 C21  MCU L   1       3.127   0.182  -0.316  1.00  0.00    -0.0246  A
ATOM     41 C22  MCU L   1       4.412   0.682  -0.593  1.00  0.00    +0.0569  A
ATOM     42 C27  MCU L   1       5.139   1.286   0.439  1.00  0.00    -0.0486  A
ATOM     43 C28  MCU L   1       4.595   1.381   1.720  1.00  0.00    -0.0408  A
ATOM     44 C29  MCU L   1       3.312   0.887   1.987  1.00  0.00    +0.0649  A
ATOM     45 CL30 MCU L   1       2.828   0.864   3.650  1.00  0.00    -0.0814 Cl
ATOM     46 H49  MCU L   1       2.567  -0.280  -1.131  1.00  0.00    +0.0644  H
ATOM     47 H50  MCU L   1       6.142   1.671   0.255  1.00  0.00    +0.0623  H
ATOM     48 H51  MCU L   1       5.189   1.820   2.520  1.00  0.00    +0.0633  H
BRANCH 41 49
ATOM     49 C23  MCU L   1       5.003   0.540  -1.976  1.00  0.00    +0.4175  C
ATOM     50 F24  MCU L   1       4.074   0.672  -2.963  1.00  0.00    -0.1659  F
ATOM     51 F25  MCU L   1       5.963   1.468  -2.244  1.00  0.00    -0.1659  F
ATOM     52 F26  MCU L   1       5.589  -0.672  -2.168  1.00  0.00    -0.1659  F
ENDBRANCH 41 49
ENDBRANCH 16 39
TORSDOF 3
