ROOT
ATOM      1  F1  SEL L   1      -2.320  -1.437   4.601  1.00  0.00    -0.2055  F
ATOM      2  C2  SEL L   1      -2.459  -1.060   3.323  1.00  0.00    +0.1234  A
ATOM      3  C3  SEL L   1      -2.237   0.264   2.971  1.00  0.00    -0.0261  A
ATOM      4  C4  SEL L   1      -2.385   0.658   1.639  1.00  0.00    -0.0540  A
ATOM      5  C5  SEL L   1      -2.750  -0.273   0.647  1.00  0.00    -0.0257  A
ATOM      6 C29  SEL L   1      -2.977  -1.607   1.038  1.00  0.00    -0.0540  A
ATOM      7 C30  SEL L   1      -2.829  -1.999   2.370  1.00  0.00    -0.0261  A
ATOM      8 H31  SEL L   1      -1.955   0.983   3.734  1.00  0.00    +0.0646  H
ATOM      9 H32  SEL L   1      -2.224   1.703   1.384  1.00  0.00    +0.0622  H
ATOM     10 H54  SEL L   1      -3.270  -2.353   0.301  1.00  0.00    +0.0622  H
ATOM     11 H55  SEL L   1      -3.002  -3.028   2.669  1.00  0.00    +0.0646  H
ENDROOT
BRANCH 5 12
ATOM     12  C6  SEL L   1      -2.914   0.127  -0.830  1.00  0.00    +0.0610  C
ATOM     13 H33  SEL L   1      -3.546  -0.649  -1.290  1.00  0.00    +0.0562  H
BRANCH 12 14
ATOM     14  C7  SEL L   1      -3.780   1.387  -1.055  1.00  0.00    -0.0257  A
ATOM     15  C8  SEL L   1      -3.497   2.319  -2.072  1.00  0.00    -0.0540  A
ATOM     16  C9  SEL L   1      -4.319   3.430  -2.284  1.00  0.00    -0.0261  A
ATOM     17 C10  SEL L   1      -5.446   3.610  -1.495  1.00  0.00    +0.1234  A
ATOM     18 F11  SEL L   1      -6.234   4.673  -1.700  1.00  0.00    -0.2055  F
ATOM     19 C12  SEL L   1      -5.774   2.695  -0.505  1.00  0.00    -0.0261  A
ATOM     20 C13  SEL L   1      -4.953   1.584  -0.294  1.00  0.00    -0.0540  A
ATOM     21 H34  SEL L   1      -2.635   2.186  -2.721  1.00  0.00    +0.0622  H
ATOM     22 H35  SEL L   1      -4.088   4.147  -3.064  1.00  0.00    +0.0646  H
ATOM     23 H36  SEL L   1      -6.668   2.845   0.091  1.00  0.00    +0.0646  H
ATOM     24 H37  SEL L   1      -5.240   0.869   0.475  1.00  0.00    +0.0622  H
ENDBRANCH 12 14
BRANCH 12 25
ATOM     25 N14  SEL L   1      -1.650   0.122  -1.600  1.00  0.00    -0.2891 NA
ATOM     26 C15  SEL L   1      -0.573   1.010  -1.131  1.00  0.00    +0.0126  C
ATOM     27 C16  SEL L   1       0.629   0.264  -0.509  1.00  0.00    +0.0121  C
ATOM     28 N17  SEL L   1       1.280  -0.681  -1.446  1.00  0.00    -0.2963 NA
ATOM     29 C27  SEL L   1       0.307  -1.217  -2.422  1.00  0.00    +0.0121  C
ATOM     30 C28  SEL L   1      -1.154  -1.227  -1.920  1.00  0.00    +0.0126  C
ATOM     31 H38  SEL L   1      -0.208   1.566  -2.005  1.00  0.00    +0.0439  H
ATOM     32 H39  SEL L   1      -0.931   1.782  -0.445  1.00  0.00    +0.0439  H
ATOM     33 H40  SEL L   1       1.368   1.006  -0.188  1.00  0.00    +0.0439  H
ATOM     34 H41  SEL L   1       0.280  -0.258   0.392  1.00  0.00    +0.0439  H
ATOM     35 H50  SEL L   1       0.585  -2.225  -2.757  1.00  0.00    +0.0439  H
ATOM     36 H51  SEL L   1       0.363  -0.590  -3.322  1.00  0.00    +0.0439  H
ATOM     37 H52  SEL L   1      -1.792  -1.663  -2.698  1.00  0.00    +0.0439  H
ATOM     38 H53  SEL L   1      -1.200  -1.893  -1.052  1.00  0.00    +0.0439  H
BRANCH 28 39
ATOM     39 C18  SEL L   1       1.985  -1.756  -0.739  1.00  0.00    +0.0175  C
ATOM     40 H42  SEL L   1       1.296  -2.333  -0.110  1.00  0.00    +0.0470  H
ATOM     41 H43  SEL L   1       2.393  -2.462  -1.475  1.00  0.00    +0.0470  H
BRANCH 39 42
ATOM     42 C19  SEL L   1       3.117  -1.253   0.109  1.00  0.00    -0.0681  C
ATOM     43 C20  SEL L   1       4.417  -1.465  -0.156  1.00  0.00    -0.0390  C
ATOM     44 H44  SEL L   1       2.840  -0.704   1.007  1.00  0.00    +0.0585  H
ATOM     45 H45  SEL L   1       4.700  -2.009  -1.052  1.00  0.00    +0.0636  H
BRANCH 43 46
ATOM     46 C21  SEL L   1       5.522  -0.990   0.691  1.00  0.00    +0.0636  A
ATOM     47 C22  SEL L   1       6.841  -1.190   0.291  1.00  0.00    -0.0363  A
ATOM     48 C23  SEL L   1       7.870  -0.737   1.113  1.00  0.00    -0.0583  A
ATOM     49 C24  SEL L   1       7.557  -0.101   2.307  1.00  0.00    -0.0436  A
ATOM     50 C25  SEL L   1       6.220   0.056   2.631  1.00  0.00    +0.0282  A
ATOM     51 N26  SEL L   1       5.202  -0.373   1.854  1.00  0.00    -0.2556 NA
ATOM     52 H46  SEL L   1       7.074  -1.686  -0.645  1.00  0.00    +0.0639  H
ATOM     53 H47  SEL L   1       8.907  -0.879   0.822  1.00  0.00    +0.0619  H
ATOM     54 H48  SEL L   1       8.333   0.265   2.970  1.00  0.00    +0.0633  H
ATOM     55 H49  SEL L   1       5.921   0.546   3.553  1.00  0.00    +0.0830  H
ENDBRANCH 43 46
ENDBRANCH 39 42
ENDBRANCH 28 39
ENDBRANCH 12 25
ENDBRANCH 5 12
TORSDOF 6
