ROOT
ATOM      1  C4  CHE L   1       1.209  -0.294   0.185  1.00  0.00    -0.0242  A
ATOM      2  C5  CHE L   1       1.418  -1.579  -0.351  1.00  0.00    -0.0535  A
ATOM      3  C6  CHE L   1       0.348  -2.328  -0.826  1.00  0.00    -0.0177  A
ATOM      4  C7  CHE L   1      -0.929  -1.791  -0.769  1.00  0.00    +0.1427  A
ATOM      5  O8  CHE L   1      -1.970  -2.554  -1.244  1.00  0.00    -0.5046 OA
ATOM      6  C9  CHE L   1      -1.195  -0.524  -0.261  1.00  0.00    +0.1125  A
ATOM      7 N10  CHE L   1      -2.477  -0.101  -0.259  1.00  0.00    -0.2513 NA
ATOM      8 C11  CHE L   1      -2.733   1.131   0.225  1.00  0.00    +0.0284  A
ATOM      9 C12  CHE L   1      -1.760   1.975   0.719  1.00  0.00    -0.0430  A
ATOM     10 C13  CHE L   1      -0.442   1.527   0.719  1.00  0.00    -0.0507  A
ATOM     11 C14  CHE L   1      -0.114   0.247   0.224  1.00  0.00    +0.0081  A
ATOM     12 H17  CHE L   1       2.417  -2.007  -0.404  1.00  0.00    +0.0622  H
ATOM     13 H18  CHE L   1       0.503  -3.321  -1.239  1.00  0.00    +0.0655  H
ATOM     14 H19  CHE L   1      -2.756  -1.981  -1.117  1.00  0.00    +0.2922 HD
ATOM     15 H20  CHE L   1      -3.777   1.433   0.202  1.00  0.00    +0.0830  H
ATOM     16 H21  CHE L   1      -2.018   2.960   1.093  1.00  0.00    +0.0633  H
ATOM     17 H22  CHE L   1       0.319   2.200   1.104  1.00  0.00    +0.0625  H
ENDROOT
BRANCH 1 18
ATOM     18  C3  CHE L   1       2.415   0.474   0.688  1.00  0.00    +0.0604  C
ATOM     19 H15  CHE L   1       3.239  -0.223   0.886  1.00  0.00    +0.0467  H
ATOM     20 H16  CHE L   1       2.183   0.921   1.662  1.00  0.00    +0.0467  H
BRANCH 18 22
ATOM     21  N1  CHE L   1       3.246   2.332  -0.980  1.00  0.00    -0.1962 NA
ATOM     22  C2  CHE L   1       2.874   1.504  -0.256  1.00  0.00    +0.0672  C
ENDBRANCH 18 22
ENDBRANCH 1 18
TORSDOF 2
