ROOT
ATOM      1 C27  WH0 L   1      -0.420  -2.323   0.212  1.00  0.00    -0.0133  A
ATOM      2 C28  WH0 L   1      -0.038  -2.817  -1.058  1.00  0.00    -0.0519  A
ATOM      3 C29  WH0 L   1       0.700  -4.005  -1.170  1.00  0.00    -0.0374  A
ATOM      4 C30  WH0 L   1       1.040  -4.684  -0.002  1.00  0.00    +0.0454  A
ATOM      5 C31  WH0 L   1       0.668  -4.215   1.240  1.00  0.00    -0.0145  A
ATOM      6 C32  WH0 L   1      -0.064  -3.036   1.375  1.00  0.00    -0.0483  A
ATOM      7 C33  WH0 L   1       1.163  -5.124   2.318  1.00  0.00    +0.0535  C
ATOM      8 C34  WH0 L   1       1.856  -6.159   1.481  1.00  0.00    +0.2296  C
ATOM      9 O35  WH0 L   1       2.446  -7.167   1.949  1.00  0.00    -0.2725 OA
ATOM     10 N36  WH0 L   1       1.779  -5.887   0.085  1.00  0.00    -0.3256  N
ATOM     11 H61  WH0 L   1      -0.314  -2.283  -1.959  1.00  0.00    +0.0624  H
ATOM     12 H62  WH0 L   1       0.995  -4.383  -2.140  1.00  0.00    +0.0638  H
ATOM     13 H63  WH0 L   1      -0.332  -2.672   2.359  1.00  0.00    +0.0627  H
ATOM     14 H64  WH0 L   1       0.318  -5.569   2.884  1.00  0.00    +0.0410  H
ATOM     15 H65  WH0 L   1       1.883  -4.601   2.982  1.00  0.00    +0.0410  H
ATOM     16 H66  WH0 L   1       2.175  -6.453  -0.698  1.00  0.00    +0.1686 HD
ENDROOT
BRANCH 1 25
ATOM     17 C11  WH0 L   1      -0.946   0.159  -0.332  1.00  0.00    +0.1015  A
ATOM     18 N12  WH0 L   1      -1.951   1.022  -0.058  1.00  0.00    -0.1627 NA
ATOM     19 N13  WH0 L   1      -2.790   0.397   0.752  1.00  0.00    -0.1987  N
ATOM     20 C14  WH0 L   1      -3.967   0.873   1.239  1.00  0.00    +0.2282  A
ATOM     21 N22  WH0 L   1      -4.753   0.030   1.968  1.00  0.00    -0.2207 NA
ATOM     22 C23  WH0 L   1      -4.366  -1.255   2.225  1.00  0.00    +0.0334  A
ATOM     23 C24  WH0 L   1      -3.146  -1.740   1.734  1.00  0.00    -0.0173  A
ATOM     24 C25  WH0 L   1      -2.369  -0.853   0.991  1.00  0.00    +0.0803  A
ATOM     25 C26  WH0 L   1      -1.177  -1.059   0.322  1.00  0.00    +0.0353  A
ATOM     26 H59  WH0 L   1      -5.010  -1.904   2.802  1.00  0.00    +0.0831  H
ATOM     27 H60  WH0 L   1      -2.842  -2.763   1.909  1.00  0.00    +0.0654  H
BRANCH 17 30
ATOM     28  C8  WH0 L   1       2.566   0.336  -1.777  1.00  0.00    -0.0099  A
ATOM     29  C9  WH0 L   1       1.489   0.017  -0.933  1.00  0.00    -0.0465  A
ATOM     30 C10  WH0 L   1       0.201   0.514  -1.195  1.00  0.00    +0.0032  A
ATOM     31 C37  WH0 L   1       0.013   1.387  -2.278  1.00  0.00    -0.0498  A
ATOM     32 C38  WH0 L   1       1.084   1.724  -3.109  1.00  0.00    -0.0256  A
ATOM     33 C39  WH0 L   1       2.355   1.198  -2.866  1.00  0.00    +0.1266  A
ATOM     34 F40  WH0 L   1       3.382   1.540  -3.686  1.00  0.00    -0.2052  F
ATOM     35 H48  WH0 L   1       1.663  -0.608  -0.066  1.00  0.00    +0.0628  H
ATOM     36 H67  WH0 L   1      -0.968   1.797  -2.488  1.00  0.00    +0.0625  H
ATOM     37 H68  WH0 L   1       0.927   2.393  -3.945  1.00  0.00    +0.0646  H
BRANCH 28 38
ATOM     38  C7  WH0 L   1       3.941  -0.202  -1.475  1.00  0.00    -0.0074  C
ATOM     39 H46  WH0 L   1       3.865  -1.140  -0.883  1.00  0.00    +0.0331  H
ATOM     40 H47  WH0 L   1       4.463  -0.455  -2.424  1.00  0.00    +0.0331  H
BRANCH 38 41
ATOM     41  C6  WH0 L   1       4.766   0.826  -0.695  1.00  0.00    +0.0222  C
ATOM     42 H44  WH0 L   1       4.881   1.747  -1.308  1.00  0.00    +0.0489  H
ATOM     43 H45  WH0 L   1       4.237   1.090   0.248  1.00  0.00    +0.0489  H
BRANCH 41 46
ATOM     44  O1  WH0 L   1       6.839   2.320   0.529  1.00  0.00    -0.2720 OA
ATOM     45  C2  WH0 L   1       7.074   1.103   0.292  1.00  0.00    +0.2356  C
ATOM     46  N5  WH0 L   1       6.090   0.296  -0.369  1.00  0.00    -0.3547  N
ATOM     47 H43  WH0 L   1       6.335  -0.689  -0.623  1.00  0.00    +0.1623 HD
BRANCH 45 48
ATOM     48  C3  WH0 L   1       8.411   0.524   0.639  1.00  0.00    +0.1010  C
ATOM     49 CL4  WH0 L   1       8.981   1.134   2.217  1.00  0.00    -0.1154 Cl
ATOM     50 H41  WH0 L   1       8.347  -0.584   0.700  1.00  0.00    +0.0527  H
ATOM     51 H42  WH0 L   1       9.146   0.798  -0.147  1.00  0.00    +0.0527  H
ENDBRANCH 45 48
ENDBRANCH 41 46
ENDBRANCH 38 41
ENDBRANCH 28 38
ENDBRANCH 17 30
BRANCH 20 52
ATOM     52 N15  WH0 L   1      -4.406   2.214   0.965  1.00  0.00    -0.3401  N
ATOM     53 C16  WH0 L   1      -5.805   2.443   0.580  1.00  0.00    +0.0237  C
ATOM     54 C17  WH0 L   1      -6.040   3.897   0.142  1.00  0.00    -0.0090  C
ATOM     55 C18  WH0 L   1      -4.877   4.426  -0.723  1.00  0.00    +0.0585  C
ATOM     56 O19  WH0 L   1      -4.884   3.810  -1.989  1.00  0.00    -0.3917 OA
ATOM     57 C20  WH0 L   1      -3.492   4.278  -0.033  1.00  0.00    -0.0090  C
ATOM     58 C21  WH0 L   1      -3.518   3.360   1.198  1.00  0.00    +0.0237  C
ATOM     59 H49  WH0 L   1      -6.065   1.767  -0.264  1.00  0.00    +0.0489  H
ATOM     60 H50  WH0 L   1      -6.474   2.200   1.433  1.00  0.00    +0.0489  H
ATOM     61 H51  WH0 L   1      -6.996   3.967  -0.421  1.00  0.00    +0.0307  H
ATOM     62 H52  WH0 L   1      -6.138   4.538   1.046  1.00  0.00    +0.0307  H
ATOM     63 H53  WH0 L   1      -5.060   5.510  -0.891  1.00  0.00    +0.0594  H
ATOM     64 H54  WH0 L   1      -4.611   2.863  -1.868  1.00  0.00    +0.2098 HD
ATOM     65 H55  WH0 L   1      -3.132   5.278   0.290  1.00  0.00    +0.0307  H
ATOM     66 H56  WH0 L   1      -2.745   3.889  -0.757  1.00  0.00    +0.0307  H
ATOM     67 H57  WH0 L   1      -3.895   3.930   2.074  1.00  0.00    +0.0489  H
ATOM     68 H58  WH0 L   1      -2.486   3.035   1.448  1.00  0.00    +0.0489  H
ENDBRANCH 20 52
ENDBRANCH 1 25
TORSDOF 7
