ROOT
ATOM      1 C22  WH0 L   1      -0.152  -0.519  -2.224  1.00  0.00    +0.1689  A
ATOM      2 N23  WH0 L   1      -0.053  -0.271  -3.546  1.00  0.00    -0.1289 NA
ATOM      3 N24  WH0 L   1      -1.249   0.118  -3.965  1.00  0.00    -0.1321 NA
ATOM      4 C25  WH0 L   1      -2.061   0.081  -2.893  1.00  0.00    +0.1540  A
ATOM      5 N26  WH0 L   1      -1.416  -0.325  -1.790  1.00  0.00    -0.2971  N
ATOM      6 C27  WH0 L   1      -1.982  -0.328  -0.436  1.00  0.00    +0.1160  C
ATOM      7 C32  WH0 L   1      -3.487  -0.446  -0.531  1.00  0.00    +0.2469  C
ATOM      8 O33  WH0 L   1      -4.121  -0.968   0.430  1.00  0.00    -0.2707 OA
ATOM      9 N34  WH0 L   1      -4.196   0.007  -1.710  1.00  0.00    -0.3335  N
ATOM     10 C37  WH0 L   1      -3.474   0.562  -2.867  1.00  0.00    +0.0811  C
ATOM     11 H55  WH0 L   1      -1.601  -1.208   0.123  1.00  0.00    +0.0627  H
ATOM     12 H70  WH0 L   1      -3.975   0.252  -3.809  1.00  0.00    +0.0569  H
ATOM     13 H71  WH0 L   1      -3.477   1.671  -2.800  1.00  0.00    +0.0569  H
ENDROOT
BRANCH 1 19
ATOM     14 C10  WH0 L   1       2.144  -0.107  -1.255  1.00  0.00    -0.0278  A
ATOM     15 C11  WH0 L   1       3.145  -0.472  -0.348  1.00  0.00    -0.0122  A
ATOM     16 C12  WH0 L   1       3.039  -1.629   0.440  1.00  0.00    +0.1655  A
ATOM     17 C15  WH0 L   1       1.919  -2.481   0.277  1.00  0.00    +0.2042  A
ATOM     18 C18  WH0 L   1       0.918  -2.140  -0.669  1.00  0.00    +0.1761  A
ATOM     19 C21  WH0 L   1       0.991  -0.919  -1.369  1.00  0.00    +0.0680  A
ATOM     20 H45  WH0 L   1       4.007   0.174  -0.247  1.00  0.00    +0.0658  H
BRANCH 14 21
ATOM     21  C9  WH0 L   1       2.335   1.179  -2.041  1.00  0.00    -0.0093  C
ATOM     22 H43  WH0 L   1       3.419   1.402  -2.149  1.00  0.00    +0.0330  H
ATOM     23 H44  WH0 L   1       1.972   1.068  -3.082  1.00  0.00    +0.0330  H
BRANCH 21 24
ATOM     24  C8  WH0 L   1       1.642   2.377  -1.382  1.00  0.00    +0.0224  C
ATOM     25 H41  WH0 L   1       1.849   3.301  -1.963  1.00  0.00    +0.0489  H
ATOM     26 H42  WH0 L   1       0.544   2.219  -1.399  1.00  0.00    +0.0489  H
BRANCH 24 29
ATOM     27  C5  WH0 L   1       3.408   3.042   0.326  1.00  0.00    +0.2618  C
ATOM     28  O6  WH0 L   1       4.198   3.368  -0.602  1.00  0.00    -0.2669 OA
ATOM     29  N7  WH0 L   1       2.091   2.561  -0.002  1.00  0.00    -0.3511  N
ATOM     30 H40  WH0 L   1       1.422   2.304   0.754  1.00  0.00    +0.1627 HD
BRANCH 27 32
ATOM     31  C1  WH0 L   1       3.052   3.175   2.774  1.00  0.00    -0.0760  C
ATOM     32  C2  WH0 L   1       3.884   3.129   1.729  1.00  0.00    +0.1085  C
ATOM     33 H38  WH0 L   1       1.978   3.180   2.658  1.00  0.00    +0.0549  H
ATOM     34 H39  WH0 L   1       3.440   3.245   3.785  1.00  0.00    +0.0549  H
BRANCH 32 35
ATOM     35  C3  WH0 L   1       5.302   3.206   1.980  1.00  0.00    +0.1040  C
ATOM     36  N4  WH0 L   1       6.440   3.272   2.178  1.00  0.00    -0.1907 NA
ENDBRANCH 32 35
ENDBRANCH 27 32
ENDBRANCH 24 29
ENDBRANCH 21 24
ENDBRANCH 14 21
BRANCH 16 37
ATOM     37 O13  WH0 L   1       4.035  -1.951   1.376  1.00  0.00    -0.4913 OA
ATOM     38 C14  WH0 L   1       5.204  -1.173   1.631  1.00  0.00    +0.0790  C
ATOM     39 H46  WH0 L   1       4.919  -0.148   1.948  1.00  0.00    +0.0660  H
ATOM     40 H47  WH0 L   1       5.834  -1.123   0.717  1.00  0.00    +0.0660  H
ATOM     41 H48  WH0 L   1       5.790  -1.647   2.446  1.00  0.00    +0.0660  H
ENDBRANCH 16 37
BRANCH 17 42
ATOM     42 O16  WH0 L   1       1.742  -3.652   1.038  1.00  0.00    -0.4885 OA
ATOM     43 C17  WH0 L   1       2.458  -4.023   2.212  1.00  0.00    +0.0791  C
ATOM     44 H49  WH0 L   1       2.402  -3.204   2.965  1.00  0.00    +0.0660  H
ATOM     45 H50  WH0 L   1       3.513  -4.273   1.967  1.00  0.00    +0.0660  H
ATOM     46 H51  WH0 L   1       1.986  -4.928   2.650  1.00  0.00    +0.0660  H
ENDBRANCH 17 42
BRANCH 18 47
ATOM     47 O19  WH0 L   1      -0.181  -2.977  -0.948  1.00  0.00    -0.4906 OA
ATOM     48 C20  WH0 L   1      -0.229  -4.390  -0.760  1.00  0.00    +0.0790  C
ATOM     49 H52  WH0 L   1      -1.092  -4.794  -1.329  1.00  0.00    +0.0660  H
ATOM     50 H53  WH0 L   1      -0.379  -4.638   0.314  1.00  0.00    +0.0660  H
ATOM     51 H54  WH0 L   1       0.698  -4.863  -1.153  1.00  0.00    +0.0660  H
ENDBRANCH 18 47
ENDBRANCH 1 19
BRANCH 6 52
ATOM     52 C28  WH0 L   1      -1.545   0.950   0.310  1.00  0.00    -0.0209  C
ATOM     53 H56  WH0 L   1      -1.834   1.847  -0.282  1.00  0.00    +0.0292  H
ATOM     54 H57  WH0 L   1      -0.437   0.932   0.330  1.00  0.00    +0.0292  H
BRANCH 52 55
ATOM     55 C29  WH0 L   1      -2.084   1.050   1.764  1.00  0.00    -0.0444  C
ATOM     56 C30  WH0 L   1      -3.279   2.011   1.846  1.00  0.00    -0.0626  C
ATOM     57 C31  WH0 L   1      -0.985   1.507   2.730  1.00  0.00    -0.0626  C
ATOM     58 H58  WH0 L   1      -2.422   0.053   2.115  1.00  0.00    +0.0296  H
ATOM     59 H59  WH0 L   1      -4.070   1.715   1.127  1.00  0.00    +0.0232  H
ATOM     60 H60  WH0 L   1      -3.720   1.991   2.864  1.00  0.00    +0.0232  H
ATOM     61 H61  WH0 L   1      -2.965   3.049   1.613  1.00  0.00    +0.0232  H
ATOM     62 H62  WH0 L   1      -0.166   0.757   2.747  1.00  0.00    +0.0232  H
ATOM     63 H63  WH0 L   1      -0.567   2.488   2.419  1.00  0.00    +0.0232  H
ATOM     64 H64  WH0 L   1      -1.390   1.598   3.761  1.00  0.00    +0.0232  H
ENDBRANCH 52 55
ENDBRANCH 6 52
BRANCH 9 65
ATOM     65 C35  WH0 L   1      -5.665   0.045  -1.715  1.00  0.00    +0.0188  C
ATOM     66 C36  WH0 L   1      -6.239  -1.355  -1.905  1.00  0.00    -0.0474  C
ATOM     67 H65  WH0 L   1      -6.032   0.690  -2.544  1.00  0.00    +0.0486  H
ATOM     68 H66  WH0 L   1      -6.034   0.487  -0.765  1.00  0.00    +0.0486  H
ATOM     69 H67  WH0 L   1      -7.347  -1.301  -1.981  1.00  0.00    +0.0247  H
ATOM     70 H68  WH0 L   1      -5.837  -1.807  -2.836  1.00  0.00    +0.0247  H
ATOM     71 H69  WH0 L   1      -5.978  -2.005  -1.044  1.00  0.00    +0.0247  H
ENDBRANCH 9 65
TORSDOF 12
