ROOT
ATOM      1 C12  WH0 L   1      -1.901  -1.722   0.306  1.00  0.00    -0.0133  A
ATOM      2 C13  WH0 L   1      -1.789  -2.699   1.321  1.00  0.00    -0.0519  A
ATOM      3 C14  WH0 L   1      -2.426  -3.942   1.184  1.00  0.00    -0.0374  A
ATOM      4 C15  WH0 L   1      -3.142  -4.190   0.012  1.00  0.00    +0.0454  A
ATOM      5 C16  WH0 L   1      -3.240  -3.247  -0.991  1.00  0.00    -0.0145  A
ATOM      6 C17  WH0 L   1      -2.636  -1.996  -0.865  1.00  0.00    -0.0483  A
ATOM      7 C18  WH0 L   1      -4.022  -3.781  -2.147  1.00  0.00    +0.0535  C
ATOM      8 C19  WH0 L   1      -4.341  -5.151  -1.627  1.00  0.00    +0.2296  C
ATOM      9 O20  WH0 L   1      -4.994  -6.015  -2.271  1.00  0.00    -0.2725 OA
ATOM     10 N21  WH0 L   1      -3.818  -5.387  -0.322  1.00  0.00    -0.3256  N
ATOM     11 H53  WH0 L   1      -1.216  -2.488   2.215  1.00  0.00    +0.0624  H
ATOM     12 H54  WH0 L   1      -2.351  -4.693   1.962  1.00  0.00    +0.0638  H
ATOM     13 H55  WH0 L   1      -2.716  -1.264  -1.661  1.00  0.00    +0.0627  H
ATOM     14 H56  WH0 L   1      -4.948  -3.188  -2.309  1.00  0.00    +0.0410  H
ATOM     15 H57  WH0 L   1      -3.390  -3.836  -3.060  1.00  0.00    +0.0410  H
ATOM     16 H58  WH0 L   1      -3.908  -6.255   0.256  1.00  0.00    +0.1686 HD
ENDROOT
BRANCH 1 20
ATOM     17  C8  WH0 L   1       2.363  -0.501  -0.591  1.00  0.00    +0.0488  A
ATOM     18  C9  WH0 L   1       1.104  -1.059  -0.311  1.00  0.00    -0.0140  A
ATOM     19 C10  WH0 L   1       0.113  -0.188   0.131  1.00  0.00    +0.0806  A
ATOM     20 C11  WH0 L   1      -1.203  -0.439   0.448  1.00  0.00    +0.0353  A
ATOM     21 C22  WH0 L   1      -1.724   0.821   0.765  1.00  0.00    +0.1015  A
ATOM     22 N33  WH0 L   1      -0.747   1.754   0.651  1.00  0.00    -0.1627 NA
ATOM     23 N34  WH0 L   1       0.351   1.123   0.267  1.00  0.00    -0.1987  N
ATOM     24 C35  WH0 L   1       1.574   1.666   0.019  1.00  0.00    +0.2285  A
ATOM     25 N43  WH0 L   1       2.574   0.838  -0.401  1.00  0.00    -0.2172 NA
ATOM     26 H52  WH0 L   1       0.907  -2.116  -0.442  1.00  0.00    +0.0657  H
BRANCH 17 27
ATOM     27  C7  WH0 L   1       3.487  -1.367  -1.075  1.00  0.00    +0.0073  C
ATOM     28 H50  WH0 L   1       3.078  -2.197  -1.691  1.00  0.00    +0.0345  H
ATOM     29 H51  WH0 L   1       4.162  -0.769  -1.726  1.00  0.00    +0.0345  H
BRANCH 27 30
ATOM     30  C6  WH0 L   1       4.287  -1.928   0.102  1.00  0.00    +0.0238  C
ATOM     31 H48  WH0 L   1       4.719  -1.083   0.683  1.00  0.00    +0.0490  H
ATOM     32 H49  WH0 L   1       3.624  -2.509   0.780  1.00  0.00    +0.0490  H
BRANCH 30 35
ATOM     33  C3  WH0 L   1       5.136  -4.096  -0.909  1.00  0.00    +0.2443  C
ATOM     34  O4  WH0 L   1       4.001  -4.631  -0.777  1.00  0.00    -0.2683 OA
ATOM     35  N5  WH0 L   1       5.372  -2.779  -0.383  1.00  0.00    -0.3521  N
ATOM     36 H47  WH0 L   1       6.349  -2.432  -0.276  1.00  0.00    +0.1626 HD
BRANCH 33 38
ATOM     37  C1  WH0 L   1       7.288  -4.300  -2.108  1.00  0.00    -0.0936  C
ATOM     38  C2  WH0 L   1       6.201  -4.862  -1.585  1.00  0.00    -0.0047  C
ATOM     39 H44  WH0 L   1       8.025  -4.917  -2.605  1.00  0.00    +0.0536  H
ATOM     40 H45  WH0 L   1       7.453  -3.231  -2.081  1.00  0.00    +0.0536  H
ATOM     41 H46  WH0 L   1       6.064  -5.931  -1.706  1.00  0.00    +0.0666  H
ENDBRANCH 33 38
ENDBRANCH 30 35
ENDBRANCH 27 30
ENDBRANCH 17 27
BRANCH 21 42
ATOM     42 C23  WH0 L   1      -3.125   1.160   1.106  1.00  0.00    +0.0028  A
ATOM     43 C24  WH0 L   1      -3.627   2.431   0.784  1.00  0.00    -0.0520  A
ATOM     44 C25  WH0 L   1      -4.953   2.770   1.071  1.00  0.00    -0.0495  A
ATOM     45 C26  WH0 L   1      -5.800   1.846   1.706  1.00  0.00    +0.0548  A
ATOM     46 C31  WH0 L   1      -5.297   0.577   2.034  1.00  0.00    -0.0495  A
ATOM     47 C32  WH0 L   1      -3.970   0.242   1.750  1.00  0.00    -0.0520  A
ATOM     48 H59  WH0 L   1      -2.997   3.159   0.290  1.00  0.00    +0.0624  H
ATOM     49 H60  WH0 L   1      -5.314   3.752   0.791  1.00  0.00    +0.0623  H
ATOM     50 H61  WH0 L   1      -5.933  -0.157   2.512  1.00  0.00    +0.0623  H
ATOM     51 H62  WH0 L   1      -3.609  -0.729   2.057  1.00  0.00    +0.0624  H
BRANCH 45 52
ATOM     52 C27  WH0 L   1      -7.248   2.170   1.982  1.00  0.00    +0.4174  C
ATOM     53 F28  WH0 L   1      -7.588   1.757   3.256  1.00  0.00    -0.1659  F
ATOM     54 F29  WH0 L   1      -7.490   3.529   1.888  1.00  0.00    -0.1659  F
ATOM     55 F30  WH0 L   1      -8.046   1.513   1.067  1.00  0.00    -0.1659  F
ENDBRANCH 45 52
ENDBRANCH 21 42
BRANCH 24 56
ATOM     56 N36  WH0 L   1       1.832   3.068   0.199  1.00  0.00    -0.3401  N
ATOM     57 C37  WH0 L   1       0.877   4.077  -0.273  1.00  0.00    +0.0237  C
ATOM     58 C38  WH0 L   1       1.613   5.284  -0.870  1.00  0.00    -0.0090  C
ATOM     59 C39  WH0 L   1       2.697   5.797   0.091  1.00  0.00    +0.0585  C
ATOM     60 O40  WH0 L   1       3.378   6.891  -0.469  1.00  0.00    -0.3917 OA
ATOM     61 C41  WH0 L   1       3.681   4.670   0.451  1.00  0.00    -0.0090  C
ATOM     62 C42  WH0 L   1       2.937   3.486   1.071  1.00  0.00    +0.0237  C
ATOM     63 H63  WH0 L   1       0.243   4.410   0.575  1.00  0.00    +0.0489  H
ATOM     64 H64  WH0 L   1       0.215   3.652  -1.059  1.00  0.00    +0.0489  H
ATOM     65 H65  WH0 L   1       2.070   4.991  -1.841  1.00  0.00    +0.0307  H
ATOM     66 H66  WH0 L   1       0.879   6.098  -1.066  1.00  0.00    +0.0307  H
ATOM     67 H67  WH0 L   1       2.206   6.148   1.026  1.00  0.00    +0.0594  H
ATOM     68 H68  WH0 L   1       3.818   6.579  -1.304  1.00  0.00    +0.2098 HD
ATOM     69 H69  WH0 L   1       4.212   4.326  -0.466  1.00  0.00    +0.0307  H
ATOM     70 H70  WH0 L   1       4.439   5.052   1.170  1.00  0.00    +0.0307  H
ATOM     71 H71  WH0 L   1       2.527   3.780   2.064  1.00  0.00    +0.0489  H
ATOM     72 H72  WH0 L   1       3.656   2.653   1.230  1.00  0.00    +0.0489  H
ENDBRANCH 24 56
ENDBRANCH 1 20
TORSDOF 8
