ROOT
ATOM      1  C5  EUB L   1      -2.679  -0.281  -0.175  1.00  0.00    +0.1209  A
ATOM      2  C6  EUB L   1      -1.625  -0.136  -1.081  1.00  0.00    -0.0194  A
ATOM      3  C7  EUB L   1      -0.477   0.581  -0.735  1.00  0.00    -0.0505  A
ATOM      4  C8  EUB L   1      -0.369   1.168   0.527  1.00  0.00    -0.0159  A
ATOM      5 C20  EUB L   1      -1.427   1.031   1.432  1.00  0.00    -0.0505  A
ATOM      6 C21  EUB L   1      -2.577   0.311   1.083  1.00  0.00    -0.0194  A
ATOM      7 H29  EUB L   1      -1.697  -0.586  -2.068  1.00  0.00    +0.0654  H
ATOM      8 H30  EUB L   1       0.327   0.685  -1.460  1.00  0.00    +0.0625  H
ATOM      9 H44  EUB L   1      -1.361   1.480   2.420  1.00  0.00    +0.0625  H
ATOM     10 H45  EUB L   1      -3.371   0.244   1.817  1.00  0.00    +0.0654  H
ENDROOT
BRANCH 1 11
ATOM     11  O4  EUB L   1      -3.736  -1.004  -0.650  1.00  0.00    -0.4894 OA
BRANCH 11 13
ATOM     12  C1  EUB L   1      -5.383  -2.672  -0.277  1.00  0.00    -0.0281  C
ATOM     13  C2  EUB L   1      -4.796  -1.361   0.243  1.00  0.00    +0.0946  C
ATOM     14  C3  EUB L   1      -5.867  -0.274   0.239  1.00  0.00    -0.0281  C
ATOM     15 H22  EUB L   1      -5.744  -2.563  -1.305  1.00  0.00    +0.0265  H
ATOM     16 H23  EUB L   1      -6.211  -3.015   0.352  1.00  0.00    +0.0265  H
ATOM     17 H24  EUB L   1      -4.614  -3.452  -0.295  1.00  0.00    +0.0265  H
ATOM     18 H25  EUB L   1      -4.428  -1.551   1.257  1.00  0.00    +0.0727  H
ATOM     19 H26  EUB L   1      -6.713  -0.551   0.875  1.00  0.00    +0.0265  H
ATOM     20 H27  EUB L   1      -6.236  -0.094  -0.777  1.00  0.00    +0.0265  H
ATOM     21 H28  EUB L   1      -5.466   0.679   0.597  1.00  0.00    +0.0265  H
ENDBRANCH 11 13
ENDBRANCH 1 11
BRANCH 4 22
ATOM     22  C9  EUB L   1       0.825   1.910   0.894  1.00  0.00    +0.0038  A
ATOM     23 C10  EUB L   1       0.778   3.226   1.313  1.00  0.00    +0.0097  A
ATOM     24 N11  EUB L   1       2.056   3.635   1.581  1.00  0.00    -0.3661  N
ATOM     25 C12  EUB L   1       2.922   2.600   1.359  1.00  0.00    +0.0067  A
ATOM     26 C13  EUB L   1       2.200   1.504   0.913  1.00  0.00    -0.0084  A
ATOM     27 H31  EUB L   1      -0.054   3.906   1.433  1.00  0.00    +0.0813  H
ATOM     28 H32  EUB L   1       2.317   4.559   1.901  1.00  0.00    +0.1648 HD
ATOM     29 H33  EUB L   1       3.983   2.725   1.532  1.00  0.00    +0.0810  H
BRANCH 26 30
ATOM     30 C14  EUB L   1       2.758   0.147   0.584  1.00  0.00    +0.0258  C
ATOM     31 H34  EUB L   1       3.692  -0.008   1.136  1.00  0.00    +0.0476  H
ATOM     32 H35  EUB L   1       2.047  -0.601   0.956  1.00  0.00    +0.0476  H
BRANCH 30 33
ATOM     33 N15  EUB L   1       2.953   0.006  -0.865  1.00  0.00    -0.2989 NA
ATOM     34 C16  EUB L   1       4.085   0.770  -1.374  1.00  0.00    -0.0123  C
ATOM     35 H36  EUB L   1       4.205   0.610  -2.452  1.00  0.00    +0.0391  H
ATOM     36 H37  EUB L   1       3.930   1.846  -1.247  1.00  0.00    +0.0391  H
ATOM     37 H38  EUB L   1       5.026   0.500  -0.881  1.00  0.00    +0.0391  H
BRANCH 33 38
ATOM     38 C17  EUB L   1       2.958  -1.400  -1.305  1.00  0.00    +0.0221  C
ATOM     39 H39  EUB L   1       2.742  -1.405  -2.382  1.00  0.00    +0.0449  H
ATOM     40 H40  EUB L   1       2.111  -1.921  -0.841  1.00  0.00    +0.0449  H
BRANCH 38 41
ATOM     41 C18  EUB L   1       4.232  -2.236  -1.088  1.00  0.00    +0.0569  C
ATOM     42 O19  EUB L   1       4.547  -2.398   0.288  1.00  0.00    -0.3937 OA
ATOM     43 H41  EUB L   1       5.097  -1.807  -1.605  1.00  0.00    +0.0570  H
ATOM     44 H42  EUB L   1       4.074  -3.237  -1.504  1.00  0.00    +0.0570  H
ATOM     45 H43  EUB L   1       4.967  -1.571   0.577  1.00  0.00    +0.2095 HD
ENDBRANCH 38 41
ENDBRANCH 33 38
ENDBRANCH 30 33
ENDBRANCH 26 30
ENDBRANCH 4 22
TORSDOF 7
