ROOT
ATOM      1 N15  WH0 L   1      -1.907   1.736  -0.222  1.00  0.00    -0.2837  N
ATOM      2 C16  WH0 L   1      -2.563   2.275  -1.319  1.00  0.00    +0.2395  C
ATOM      3 O17  WH0 L   1      -2.040   2.971  -2.185  1.00  0.00    -0.2717 OA
ATOM      4 C18  WH0 L   1      -4.035   1.930  -1.355  1.00  0.00    +0.0758  C
ATOM      5 S19  WH0 L   1      -4.340   0.725  -0.048  1.00  0.00    -0.1088 SA
ATOM      6 C20  WH0 L   1      -2.748   1.084   0.775  1.00  0.00    +0.2010  C
ATOM      7 C21  WH0 L   1      -3.076   1.911   2.076  1.00  0.00    +0.2665  C
ATOM      8 O22  WH0 L   1      -3.594   3.026   2.152  1.00  0.00    -0.2689 OA
ATOM      9 N23  WH0 L   1      -2.637   1.160   3.181  1.00  0.00    -0.3228  N
ATOM     10 C24  WH0 L   1      -2.110  -0.062   2.773  1.00  0.00    +0.0486  A
ATOM     11 C25  WH0 L   1      -1.647  -1.090   3.577  1.00  0.00    -0.0379  A
ATOM     12 C26  WH0 L   1      -1.245  -2.280   2.942  1.00  0.00    -0.0598  A
ATOM     13 C27  WH0 L   1      -1.321  -2.420   1.539  1.00  0.00    -0.0613  A
ATOM     14 C28  WH0 L   1      -1.783  -1.362   0.748  1.00  0.00    -0.0531  A
ATOM     15 C29  WH0 L   1      -2.168  -0.178   1.377  1.00  0.00    +0.0211  A
ATOM     16 H44  WH0 L   1      -4.630   2.843  -1.194  1.00  0.00    +0.0474  H
ATOM     17 H45  WH0 L   1      -4.282   1.484  -2.338  1.00  0.00    +0.0474  H
ATOM     18 H46  WH0 L   1      -2.768   1.472   4.131  1.00  0.00    +0.1687 HD
ATOM     19 H47  WH0 L   1      -1.601  -1.006   4.663  1.00  0.00    +0.0638  H
ATOM     20 H48  WH0 L   1      -0.882  -3.120   3.543  1.00  0.00    +0.0618  H
ATOM     21 H49  WH0 L   1      -1.031  -3.360   1.069  1.00  0.00    +0.0618  H
ATOM     22 H50  WH0 L   1      -1.874  -1.473  -0.328  1.00  0.00    +0.0622  H
ENDROOT
BRANCH 1 28
ATOM     23  C9  WH0 L   1       0.511   1.750  -0.836  1.00  0.00    -0.0237  A
ATOM     24 C10  WH0 L   1       1.806   2.264  -0.588  1.00  0.00    -0.0566  A
ATOM     25 C11  WH0 L   1       2.066   3.104   0.509  1.00  0.00    -0.0614  A
ATOM     26 C12  WH0 L   1       1.030   3.462   1.365  1.00  0.00    -0.0598  A
ATOM     27 C13  WH0 L   1      -0.263   2.980   1.131  1.00  0.00    -0.0378  A
ATOM     28 C14  WH0 L   1      -0.546   2.119   0.041  1.00  0.00    +0.0500  A
ATOM     29 H40  WH0 L   1       2.628   2.029  -1.273  1.00  0.00    +0.0621  H
ATOM     30 H41  WH0 L   1       3.073   3.489   0.673  1.00  0.00    +0.0618  H
ATOM     31 H42  WH0 L   1       1.206   4.152   2.184  1.00  0.00    +0.0618  H
ATOM     32 H43  WH0 L   1      -1.050   3.374   1.773  1.00  0.00    +0.0638  H
BRANCH 23 33
ATOM     33  C8  WH0 L   1       0.348   0.817  -2.031  1.00  0.00    -0.0241  C
ATOM     34 H38  WH0 L   1       0.860   1.251  -2.902  1.00  0.00    +0.0314  H
ATOM     35 H39  WH0 L   1      -0.704   0.751  -2.328  1.00  0.00    +0.0314  H
BRANCH 33 36
ATOM     36  C7  WH0 L   1       0.844  -0.620  -1.787  1.00  0.00    -0.0314  C
ATOM     37 H36  WH0 L   1       0.385  -1.261  -2.554  1.00  0.00    +0.0285  H
ATOM     38 H37  WH0 L   1       0.498  -0.989  -0.812  1.00  0.00    +0.0285  H
BRANCH 36 39
ATOM     39  C6  WH0 L   1       2.358  -0.798  -1.865  1.00  0.00    +0.0187  C
ATOM     40 H34  WH0 L   1       2.755  -0.343  -2.782  1.00  0.00    +0.0486  H
ATOM     41 H35  WH0 L   1       2.857  -0.333  -0.998  1.00  0.00    +0.0486  H
BRANCH 39 44
ATOM     42  C3  WH0 L   1       4.031  -2.570  -2.129  1.00  0.00    +0.2443  C
ATOM     43  O4  WH0 L   1       4.883  -1.802  -2.561  1.00  0.00    -0.2683 OA
ATOM     44  N5  WH0 L   1       2.733  -2.209  -1.844  1.00  0.00    -0.3525  N
ATOM     45 H33  WH0 L   1       2.210  -2.822  -1.234  1.00  0.00    +0.1626 HD
BRANCH 42 47
ATOM     46  C1  WH0 L   1       3.534  -5.010  -1.784  1.00  0.00    -0.0936  C
ATOM     47  C2  WH0 L   1       4.389  -3.977  -1.804  1.00  0.00    -0.0047  C
ATOM     48 H30  WH0 L   1       3.906  -6.020  -1.588  1.00  0.00    +0.0536  H
ATOM     49 H31  WH0 L   1       2.479  -4.912  -2.021  1.00  0.00    +0.0536  H
ATOM     50 H32  WH0 L   1       5.453  -4.142  -1.647  1.00  0.00    +0.0666  H
ENDBRANCH 42 47
ENDBRANCH 39 44
ENDBRANCH 36 39
ENDBRANCH 33 36
ENDBRANCH 23 33
ENDBRANCH 1 28
TORSDOF 6
