ROOT
ATOM      1 C12  WH0 L   1       3.902   0.123   1.058  1.00  0.00    +0.0852  C
ATOM      2 C13  WH0 L   1       3.086  -1.130   0.698  1.00  0.00    -0.0138  C
ATOM      3 C14  WH0 L   1       2.807  -1.232  -0.821  1.00  0.00    +0.0300  C
ATOM      4 C15  WH0 L   1       1.984  -2.461  -1.083  1.00  0.00    +0.1598  C
ATOM      5 O16  WH0 L   1       2.545  -3.588  -1.133  1.00  0.00    -0.2924 OA
ATOM      6 C17  WH0 L   1       0.530  -2.373  -1.285  1.00  0.00    -0.0167  C
ATOM      7 C18  WH0 L   1      -0.147  -1.204  -1.231  1.00  0.00    -0.0310  C
ATOM      8 C19  WH0 L   1       0.612   0.081  -0.907  1.00  0.00    -0.0107  C
ATOM      9 C20  WH0 L   1      -0.178   1.291  -1.420  1.00  0.00    -0.0453  C
ATOM     10 C21  WH0 L   1      -1.543   1.312  -0.755  1.00  0.00    -0.0439  C
ATOM     11 C22  WH0 L   1      -2.456   0.125  -1.195  1.00  0.00    +0.0038  C
ATOM     12 C23  WH0 L   1      -3.348   0.627  -2.372  1.00  0.00    -0.0564  C
ATOM     13 C24  WH0 L   1      -3.349  -0.365   0.004  1.00  0.00    -0.0277  C
ATOM     14 C35  WH0 L   1      -3.664  -1.810  -0.345  1.00  0.00    -0.0464  C
ATOM     15 C36  WH0 L   1      -2.409  -2.361  -0.983  1.00  0.00    -0.0193  C
ATOM     16 C37  WH0 L   1      -1.644  -1.179  -1.640  1.00  0.00    +0.0933  C
ATOM     17 O38  WH0 L   1      -1.702  -1.322  -3.047  1.00  0.00    -0.3837 OA
ATOM     18 C39  WH0 L   1       2.111   0.042  -1.408  1.00  0.00    -0.0132  C
ATOM     19 C40  WH0 L   1       2.158  -0.020  -2.962  1.00  0.00    -0.0583  C
ATOM     20 C41  WH0 L   1       2.940   1.295  -0.981  1.00  0.00    -0.0178  C
ATOM     21 C42  WH0 L   1       3.182   1.383   0.540  1.00  0.00    +0.0819  C
ATOM     22 O43  WH0 L   1       3.911   2.540   0.866  1.00  0.00    -0.3892 OA
ATOM     23 H53  WH0 L   1       3.944   0.210   2.172  1.00  0.00    +0.0622  H
ATOM     24 H54  WH0 L   1       2.137  -1.127   1.275  1.00  0.00    +0.0298  H
ATOM     25 H55  WH0 L   1       3.648  -2.031   1.027  1.00  0.00    +0.0298  H
ATOM     26 H56  WH0 L   1       3.790  -1.366  -1.328  1.00  0.00    +0.0387  H
ATOM     27 H57  WH0 L   1       0.020  -3.289  -1.555  1.00  0.00    +0.0653  H
ATOM     28 H58  WH0 L   1       0.620   0.148   0.199  1.00  0.00    +0.0352  H
ATOM     29 H59  WH0 L   1       0.327   2.239  -1.150  1.00  0.00    +0.0271  H
ATOM     30 H60  WH0 L   1      -0.301   1.258  -2.524  1.00  0.00    +0.0271  H
ATOM     31 H61  WH0 L   1      -1.999   2.291  -1.009  1.00  0.00    +0.0272  H
ATOM     32 H62  WH0 L   1      -1.393   1.323   0.347  1.00  0.00    +0.0272  H
ATOM     33 H63  WH0 L   1      -3.932   1.529  -2.100  1.00  0.00    +0.0236  H
ATOM     34 H64  WH0 L   1      -2.718   0.923  -3.238  1.00  0.00    +0.0236  H
ATOM     35 H65  WH0 L   1      -4.057  -0.159  -2.707  1.00  0.00    +0.0236  H
ATOM     36 H66  WH0 L   1      -2.703  -0.414   0.912  1.00  0.00    +0.0310  H
ATOM     37 H84  WH0 L   1      -3.901  -2.406   0.561  1.00  0.00    +0.0269  H
ATOM     38 H85  WH0 L   1      -4.503  -1.864  -1.071  1.00  0.00    +0.0269  H
ATOM     39 H86  WH0 L   1      -2.675  -3.152  -1.720  1.00  0.00    +0.0296  H
ATOM     40 H87  WH0 L   1      -1.810  -2.837  -0.172  1.00  0.00    +0.0296  H
ATOM     41 H88  WH0 L   1      -1.236  -2.157  -3.306  1.00  0.00    +0.2106 HD
ATOM     42 H89  WH0 L   1       1.522  -0.836  -3.366  1.00  0.00    +0.0235  H
ATOM     43 H90  WH0 L   1       1.816   0.937  -3.410  1.00  0.00    +0.0235  H
ATOM     44 H91  WH0 L   1       3.198  -0.195  -3.317  1.00  0.00    +0.0235  H
ATOM     45 H92  WH0 L   1       3.933   1.250  -1.481  1.00  0.00    +0.0297  H
ATOM     46 H93  WH0 L   1       2.477   2.237  -1.339  1.00  0.00    +0.0297  H
ATOM     47 H94  WH0 L   1       2.203   1.468   1.057  1.00  0.00    +0.0619  H
ATOM     48 H95  WH0 L   1       4.764   2.520   0.358  1.00  0.00    +0.2099 HD
ENDROOT
BRANCH 1 49
ATOM     49 O11  WH0 L   1       5.189   0.037   0.465  1.00  0.00    -0.3739 OA
BRANCH 49 50
ATOM     50 C10  WH0 L   1       6.154  -0.478   1.361  1.00  0.00    +0.0497  C
ATOM     51 H51  WH0 L   1       6.899  -1.037   0.758  1.00  0.00    +0.0560  H
ATOM     52 H52  WH0 L   1       5.734  -1.207   2.090  1.00  0.00    +0.0560  H
BRANCH 50 53
ATOM     53  C9  WH0 L   1       6.858   0.671   2.090  1.00  0.00    -0.0119  C
ATOM     54 H49  WH0 L   1       6.131   1.185   2.754  1.00  0.00    +0.0304  H
ATOM     55 H50  WH0 L   1       7.213   1.417   1.349  1.00  0.00    +0.0304  H
BRANCH 53 56
ATOM     56  C8  WH0 L   1       8.038   0.183   2.942  1.00  0.00    +0.0205  C
ATOM     57 H47  WH0 L   1       8.488   1.041   3.488  1.00  0.00    +0.0487  H
ATOM     58 H48  WH0 L   1       7.664  -0.537   3.701  1.00  0.00    +0.0487  H
BRANCH 56 61
ATOM     59  C5  WH0 L   1       9.915   0.277   1.226  1.00  0.00    +0.2618  C
ATOM     60  O6  WH0 L   1       9.787   1.530   1.138  1.00  0.00    -0.2669 OA
ATOM     61  N7  WH0 L   1       9.061  -0.463   2.118  1.00  0.00    -0.3514  N
ATOM     62 H46  WH0 L   1       9.136  -1.503   2.176  1.00  0.00    +0.1626 HD
BRANCH 59 64
ATOM     63  C1  WH0 L   1      11.448  -1.585   0.693  1.00  0.00    -0.0760  C
ATOM     64  C2  WH0 L   1      10.920  -0.400   0.375  1.00  0.00    +0.1085  C
ATOM     65 H44  WH0 L   1      11.195  -2.098   1.611  1.00  0.00    +0.0549  H
ATOM     66 H45  WH0 L   1      12.184  -2.054   0.049  1.00  0.00    +0.0549  H
BRANCH 64 67
ATOM     67  C3  WH0 L   1      11.375   0.261  -0.825  1.00  0.00    +0.1040  C
ATOM     68  N4  WH0 L   1      11.740   0.791  -1.788  1.00  0.00    -0.1907 NA
ENDBRANCH 64 67
ENDBRANCH 59 64
ENDBRANCH 56 61
ENDBRANCH 53 56
ENDBRANCH 50 53
ENDBRANCH 49 50
ENDBRANCH 1 49
BRANCH 13 69
ATOM     69 C25  WH0 L   1      -4.632   0.480   0.387  1.00  0.00    -0.0144  C
ATOM     70 C26  WH0 L   1      -4.221   1.885   0.879  1.00  0.00    -0.0598  C
ATOM     71 H67  WH0 L   1      -5.249   0.636  -0.514  1.00  0.00    +0.0326  H
ATOM     72 H68  WH0 L   1      -5.071   2.433   1.331  1.00  0.00    +0.0233  H
ATOM     73 H69  WH0 L   1      -3.421   1.818   1.645  1.00  0.00    +0.0233  H
ATOM     74 H70  WH0 L   1      -3.892   2.523   0.041  1.00  0.00    +0.0233  H
BRANCH 69 75
ATOM     75 C27  WH0 L   1      -5.541  -0.175   1.490  1.00  0.00    +0.0582  C
ATOM     76 O28  WH0 L   1      -4.728  -0.762   2.477  1.00  0.00    -0.3915 OA
ATOM     77 H71  WH0 L   1      -6.140   0.623   1.982  1.00  0.00    +0.0596  H
ATOM     78 H72  WH0 L   1      -5.265  -0.815   3.309  1.00  0.00    +0.2098 HD
BRANCH 75 79
ATOM     79 C29  WH0 L   1      -6.588  -1.214   1.001  1.00  0.00    -0.0240  C
ATOM     80 H73  WH0 L   1      -7.214  -1.509   1.872  1.00  0.00    +0.0291  H
ATOM     81 H74  WH0 L   1      -6.082  -2.154   0.714  1.00  0.00    +0.0291  H
BRANCH 79 82
ATOM     82 C30  WH0 L   1      -7.526  -0.819  -0.170  1.00  0.00    -0.0222  C
ATOM     83 H75  WH0 L   1      -6.938  -0.623  -1.090  1.00  0.00    +0.0293  H
ATOM     84 H76  WH0 L   1      -8.091  -1.746  -0.412  1.00  0.00    +0.0293  H
BRANCH 82 85
ATOM     85 C31  WH0 L   1      -8.576   0.316   0.063  1.00  0.00    +0.0606  C
ATOM     86 C32  WH0 L   1      -9.216   0.255   1.468  1.00  0.00    -0.0363  C
ATOM     87 C33  WH0 L   1      -7.955   1.705  -0.154  1.00  0.00    -0.0363  C
ATOM     88 O34  WH0 L   1      -9.592   0.185  -0.906  1.00  0.00    -0.3891 OA
ATOM     89 H77  WH0 L   1      -9.623  -0.758   1.670  1.00  0.00    +0.0257  H
ATOM     90 H78  WH0 L   1     -10.053   0.983   1.538  1.00  0.00    +0.0257  H
ATOM     91 H79  WH0 L   1      -8.483   0.510   2.260  1.00  0.00    +0.0257  H
ATOM     92 H80  WH0 L   1      -7.269   1.985   0.664  1.00  0.00    +0.0257  H
ATOM     93 H81  WH0 L   1      -8.756   2.475  -0.188  1.00  0.00    +0.0257  H
ATOM     94 H82  WH0 L   1      -7.406   1.744  -1.120  1.00  0.00    +0.0257  H
ATOM     95 H83  WH0 L   1     -10.100  -0.650  -0.718  1.00  0.00    +0.2101 HD
ENDBRANCH 82 85
ENDBRANCH 79 82
ENDBRANCH 75 79
ENDBRANCH 69 75
ENDBRANCH 13 69
TORSDOF 12
