ROOT
ATOM      1 C24  CHE L   1       4.018   0.353  -0.260  1.00  0.00    -0.0234  C
ATOM      2 C25  CHE L   1       4.593   0.708   1.126  1.00  0.00    -0.0364  C
ATOM      3 C26  CHE L   1       5.328   2.047   1.109  1.00  0.00    -0.0011  C
ATOM      4 N27  CHE L   1       6.454   2.087   0.168  1.00  0.00    -0.3053 NA
ATOM      5 C28  CHE L   1       7.741   1.960   0.848  1.00  0.00    -0.0128  C
ATOM      6 C29  CHE L   1       6.348   1.120  -0.930  1.00  0.00    -0.0011  C
ATOM      7 C30  CHE L   1       4.900   0.942  -1.382  1.00  0.00    -0.0364  C
ATOM      8 H53  CHE L   1       3.032   0.823  -0.360  1.00  0.00    +0.0312  H
ATOM      9 H54  CHE L   1       5.281  -0.074   1.473  1.00  0.00    +0.0280  H
ATOM     10 H55  CHE L   1       3.784   0.760   1.862  1.00  0.00    +0.0280  H
ATOM     11 H56  CHE L   1       5.642   2.309   2.128  1.00  0.00    +0.0426  H
ATOM     12 H57  CHE L   1       4.618   2.831   0.814  1.00  0.00    +0.0426  H
ATOM     13 H58  CHE L   1       8.567   2.052   0.134  1.00  0.00    +0.0391  H
ATOM     14 H59  CHE L   1       7.871   2.763   1.582  1.00  0.00    +0.0391  H
ATOM     15 H60  CHE L   1       7.838   0.999   1.367  1.00  0.00    +0.0391  H
ATOM     16 H61  CHE L   1       6.749   0.141  -0.638  1.00  0.00    +0.0426  H
ATOM     17 H62  CHE L   1       6.949   1.476  -1.775  1.00  0.00    +0.0426  H
ATOM     18 H63  CHE L   1       4.497   1.921  -1.678  1.00  0.00    +0.0280  H
ATOM     19 H64  CHE L   1       4.865   0.321  -2.284  1.00  0.00    +0.0280  H
ENDROOT
BRANCH 1 20
ATOM     20 C23  CHE L   1       3.861  -1.162  -0.446  1.00  0.00    +0.0716  C
ATOM     21 H51  CHE L   1       3.611  -1.395  -1.487  1.00  0.00    +0.0446  H
ATOM     22 H52  CHE L   1       4.800  -1.681  -0.220  1.00  0.00    +0.0446  H
BRANCH 20 23
ATOM     23 S20  CHE L   1       2.598  -1.959   0.546  1.00  0.00    +0.2327  S
ATOM     24 O21  CHE L   1       2.863  -1.690   1.943  1.00  0.00    -0.2053 OA
ATOM     25 O22  CHE L   1       2.493  -3.322   0.067  1.00  0.00    -0.2053 OA
BRANCH 23 31
ATOM     26  C3  CHE L   1       0.186  -1.815  -0.771  1.00  0.00    +0.0419  C
ATOM     27  C4  CHE L   1      -1.206  -1.193  -0.574  1.00  0.00    -0.0113  C
ATOM     28  C5  CHE L   1      -1.586  -1.138   0.912  1.00  0.00    +0.0335  C
ATOM     29 C17  CHE L   1      -0.475  -0.541   1.786  1.00  0.00    -0.0141  C
ATOM     30 C18  CHE L   1       0.697  -0.041   0.957  1.00  0.00    +0.0313  C
ATOM     31 N19  CHE L   1       1.192  -1.131   0.096  1.00  0.00    -0.2977 NA
ATOM     32 H36  CHE L   1       0.112  -2.867  -0.471  1.00  0.00    +0.0532  H
ATOM     33 H37  CHE L   1      -1.960  -1.777  -1.115  1.00  0.00    +0.0305  H
ATOM     34 H38  CHE L   1      -1.239  -0.184  -1.007  1.00  0.00    +0.0305  H
ATOM     35 H39  CHE L   1      -1.772  -2.165   1.254  1.00  0.00    +0.0524  H
ATOM     36 H47  CHE L   1      -0.117  -1.320   2.473  1.00  0.00    +0.0302  H
ATOM     37 H48  CHE L   1      -0.850   0.273   2.419  1.00  0.00    +0.0302  H
ATOM     38 H49  CHE L   1       0.404   0.808   0.328  1.00  0.00    +0.0496  H
ATOM     39 H50  CHE L   1       1.480   0.342   1.617  1.00  0.00    +0.0496  H
BRANCH 26 41
ATOM     40  C1  CHE L   1      -0.284  -2.419  -3.220  1.00  0.00    -0.0634  C
ATOM     41  C2  CHE L   1       0.649  -1.728  -2.236  1.00  0.00    -0.0346  C
ATOM     42 H31  CHE L   1      -0.477  -3.454  -2.919  1.00  0.00    +0.0230  H
ATOM     43 H32  CHE L   1       0.168  -2.435  -4.217  1.00  0.00    +0.0230  H
ATOM     44 H33  CHE L   1      -1.241  -1.895  -3.302  1.00  0.00    +0.0230  H
ATOM     45 H34  CHE L   1       1.636  -2.193  -2.335  1.00  0.00    +0.0283  H
ATOM     46 H35  CHE L   1       0.772  -0.678  -2.530  1.00  0.00    +0.0283  H
ENDBRANCH 26 41
BRANCH 28 47
ATOM     47  N6  CHE L   1      -2.834  -0.408   1.090  1.00  0.00    -0.3478  N
ATOM     48  C7  CHE L   1      -4.070  -0.966   0.828  1.00  0.00    +0.2739  C
ATOM     49  O8  CHE L   1      -4.229  -2.142   0.516  1.00  0.00    -0.2658 OA
ATOM     50 H40  CHE L   1      -2.827   0.600   1.221  1.00  0.00    +0.1629 HD
BRANCH 48 51
ATOM     51  C9  CHE L   1      -5.185  -0.023   0.935  1.00  0.00    +0.1701  A
ATOM     52 C10  CHE L   1      -6.563  -0.298   0.751  1.00  0.00    +0.0132  A
ATOM     53 C11  CHE L   1      -7.184   0.908   0.951  1.00  0.00    +0.1411  A
ATOM     54 O15  CHE L   1      -6.251   1.851   1.242  1.00  0.00    -0.3586 OA
ATOM     55 N16  CHE L   1      -4.990   1.278   1.224  1.00  0.00    -0.0732 NA
ATOM     56 H41  CHE L   1      -7.019  -1.245   0.504  1.00  0.00    +0.0676  H
BRANCH 53 57
ATOM     57 C12  CHE L   1      -8.708   1.163   0.875  1.00  0.00    +0.0199  C
ATOM     58 C13  CHE L   1      -9.203   2.480   0.339  1.00  0.00    -0.0426  C
ATOM     59 C14  CHE L   1      -9.367   1.232  -0.478  1.00  0.00    -0.0426  C
ATOM     60 H42  CHE L   1      -9.278   0.721   1.686  1.00  0.00    +0.0380  H
ATOM     61 H43  CHE L   1      -8.478   3.215   0.006  1.00  0.00    +0.0272  H
ATOM     62 H44  CHE L   1     -10.088   2.911   0.795  1.00  0.00    +0.0272  H
ATOM     63 H45  CHE L   1      -8.754   1.127  -1.366  1.00  0.00    +0.0272  H
ATOM     64 H46  CHE L   1     -10.364   0.816  -0.578  1.00  0.00    +0.0272  H
ENDBRANCH 53 57
ENDBRANCH 48 51
ENDBRANCH 28 47
ENDBRANCH 23 31
ENDBRANCH 20 23
ENDBRANCH 1 20
TORSDOF 7
