ROOT
ATOM      1 C27  WH0 L   1      -1.529   2.288  -0.075  1.00  0.00    -0.0133  A
ATOM      2 C28  WH0 L   1      -0.832   2.590  -1.267  1.00  0.00    -0.0519  A
ATOM      3 C29  WH0 L   1      -0.476   3.906  -1.579  1.00  0.00    -0.0374  A
ATOM      4 C30  WH0 L   1      -0.829   4.885  -0.675  1.00  0.00    +0.0454  A
ATOM      5 C31  WH0 L   1      -1.514   4.606   0.506  1.00  0.00    -0.0145  A
ATOM      6 C32  WH0 L   1      -1.875   3.310   0.825  1.00  0.00    -0.0483  A
ATOM      7 C33  WH0 L   1      -1.737   5.880   1.265  1.00  0.00    +0.0535  C
ATOM      8 C34  WH0 L   1      -1.081   6.919   0.347  1.00  0.00    +0.2296  C
ATOM      9 O35  WH0 L   1      -1.004   8.120   0.544  1.00  0.00    -0.2725 OA
ATOM     10 N36  WH0 L   1      -0.583   6.245  -0.762  1.00  0.00    -0.3256  N
ATOM     11 H59  WH0 L   1      -0.564   1.791  -1.957  1.00  0.00    +0.0624  H
ATOM     12 H60  WH0 L   1       0.059   4.137  -2.493  1.00  0.00    +0.0638  H
ATOM     13 H61  WH0 L   1      -2.398   3.091   1.751  1.00  0.00    +0.0627  H
ATOM     14 H62  WH0 L   1      -2.801   6.101   1.370  1.00  0.00    +0.0410  H
ATOM     15 H63  WH0 L   1      -1.221   5.865   2.228  1.00  0.00    +0.0410  H
ATOM     16 H64  WH0 L   1      -0.099   6.713  -1.513  1.00  0.00    +0.1686 HD
ENDROOT
BRANCH 1 25
ATOM     17 C12  WH0 L   1      -1.033  -0.236   0.443  1.00  0.00    +0.1015  A
ATOM     18 N13  WH0 L   1      -1.775  -1.339   0.646  1.00  0.00    -0.1627 NA
ATOM     19 N14  WH0 L   1      -3.058  -0.912   0.575  1.00  0.00    -0.1987  N
ATOM     20 C15  WH0 L   1      -4.193  -1.763   0.758  1.00  0.00    +0.2283  A
ATOM     21 N22  WH0 L   1      -5.393  -1.228   0.695  1.00  0.00    -0.2207 NA
ATOM     22 C23  WH0 L   1      -5.494   0.118   0.419  1.00  0.00    +0.0334  A
ATOM     23 C24  WH0 L   1      -4.465   0.957   0.228  1.00  0.00    -0.0173  A
ATOM     24 C25  WH0 L   1      -3.155   0.438   0.325  1.00  0.00    +0.0803  A
ATOM     25 C26  WH0 L   1      -1.865   0.911   0.229  1.00  0.00    +0.0353  A
ATOM     26 H57  WH0 L   1      -6.511   0.498   0.354  1.00  0.00    +0.0831  H
ATOM     27 H58  WH0 L   1      -4.632   2.006   0.008  1.00  0.00    +0.0654  H
BRANCH 17 31
ATOM     28  C8  WH0 L   1       3.248  -0.484   0.432  1.00  0.00    -0.0457  A
ATOM     29  C9  WH0 L   1       2.471  -1.508  -0.124  1.00  0.00    -0.0579  A
ATOM     30 C10  WH0 L   1       1.076  -1.426  -0.108  1.00  0.00    -0.0522  A
ATOM     31 C11  WH0 L   1       0.431  -0.316   0.454  1.00  0.00    +0.0027  A
ATOM     32 C37  WH0 L   1       1.211   0.700   1.021  1.00  0.00    -0.0522  A
ATOM     33 C38  WH0 L   1       2.607   0.620   1.005  1.00  0.00    -0.0579  A
ATOM     34 H47  WH0 L   1       2.948  -2.378  -0.572  1.00  0.00    +0.0620  H
ATOM     35 H48  WH0 L   1       0.492  -2.236  -0.541  1.00  0.00    +0.0624  H
ATOM     36 H65  WH0 L   1       0.745   1.561   1.494  1.00  0.00    +0.0624  H
ATOM     37 H66  WH0 L   1       3.188   1.425   1.450  1.00  0.00    +0.0620  H
BRANCH 28 38
ATOM     38  C7  WH0 L   1       4.753  -0.562   0.386  1.00  0.00    -0.0102  C
ATOM     39 H45  WH0 L   1       5.068  -1.603   0.535  1.00  0.00    +0.0330  H
ATOM     40 H46  WH0 L   1       5.179  -0.004   1.230  1.00  0.00    +0.0330  H
BRANCH 38 41
ATOM     41  C6  WH0 L   1       5.304  -0.016  -0.933  1.00  0.00    +0.0223  C
ATOM     42 H43  WH0 L   1       4.917  -0.593  -1.781  1.00  0.00    +0.0489  H
ATOM     43 H44  WH0 L   1       5.003   1.029  -1.076  1.00  0.00    +0.0489  H
BRANCH 41 46
ATOM     44  C3  WH0 L   1       7.433  -1.208  -1.254  1.00  0.00    +0.2443  C
ATOM     45  O4  WH0 L   1       6.896  -2.280  -1.499  1.00  0.00    -0.2683 OA
ATOM     46  N5  WH0 L   1       6.754  -0.047  -0.977  1.00  0.00    -0.3522  N
ATOM     47 H42  WH0 L   1       7.261   0.791  -0.729  1.00  0.00    +0.1626 HD
BRANCH 44 49
ATOM     48  C1  WH0 L   1       9.719  -2.080  -1.428  1.00  0.00    -0.0936  C
ATOM     49  C2  WH0 L   1       8.908  -1.036  -1.217  1.00  0.00    -0.0047  C
ATOM     50 H39  WH0 L   1       9.324  -3.074  -1.628  1.00  0.00    +0.0536  H
ATOM     51 H40  WH0 L   1      10.796  -1.963  -1.408  1.00  0.00    +0.0536  H
ATOM     52 H41  WH0 L   1       9.314  -0.052  -1.022  1.00  0.00    +0.0666  H
ENDBRANCH 44 49
ENDBRANCH 41 46
ENDBRANCH 38 41
ENDBRANCH 28 38
ENDBRANCH 17 31
BRANCH 20 53
ATOM     53 N16  WH0 L   1      -4.030  -3.127   1.029  1.00  0.00    -0.3359  N
ATOM     54 C17  WH0 L   1      -5.184  -3.885   1.556  1.00  0.00    +0.0449  C
ATOM     55 C18  WH0 L   1      -6.027  -4.446   0.402  1.00  0.00    +0.0653  C
ATOM     56 O19  WH0 L   1      -5.230  -5.282  -0.458  1.00  0.00    -0.3763 OA
ATOM     57 C20  WH0 L   1      -4.124  -4.538  -0.996  1.00  0.00    +0.0653  C
ATOM     58 C21  WH0 L   1      -3.228  -3.974   0.119  1.00  0.00    +0.0449  C
ATOM     59 H49  WH0 L   1      -4.797  -4.718   2.156  1.00  0.00    +0.0511  H
ATOM     60 H50  WH0 L   1      -5.796  -3.270   2.224  1.00  0.00    +0.0511  H
ATOM     61 H51  WH0 L   1      -6.837  -5.064   0.802  1.00  0.00    +0.0577  H
ATOM     62 H52  WH0 L   1      -6.479  -3.649  -0.199  1.00  0.00    +0.0577  H
ATOM     63 H53  WH0 L   1      -3.546  -5.219  -1.627  1.00  0.00    +0.0577  H
ATOM     64 H54  WH0 L   1      -4.513  -3.737  -1.637  1.00  0.00    +0.0577  H
ATOM     65 H55  WH0 L   1      -2.811  -4.802   0.706  1.00  0.00    +0.0511  H
ATOM     66 H56  WH0 L   1      -2.388  -3.445  -0.334  1.00  0.00    +0.0511  H
ENDBRANCH 20 53
ENDBRANCH 1 25
TORSDOF 7
