ROOT
ATOM      1 C22  SEL L   1      -2.635   0.339  -1.580  1.00  0.00    +0.0446  C
ATOM      2 C23  SEL L   1      -3.413   1.161  -2.600  1.00  0.00    -0.0290  A
ATOM      3 C24  SEL L   1      -3.688   0.855  -3.924  1.00  0.00    -0.0573  A
ATOM      4 C25  SEL L   1      -4.443   1.766  -4.667  1.00  0.00    -0.0614  A
ATOM      5 C26  SEL L   1      -4.913   2.954  -4.084  1.00  0.00    -0.0612  A
ATOM      6 C27  SEL L   1      -4.641   3.251  -2.745  1.00  0.00    -0.0537  A
ATOM      7 C28  SEL L   1      -3.892   2.350  -2.007  1.00  0.00    -0.0137  A
ATOM      8 C29  SEL L   1      -3.469   2.389  -0.623  1.00  0.00    -0.0137  A
ATOM      9 C30  SEL L   1      -3.686   3.342   0.358  1.00  0.00    -0.0537  A
ATOM     10 C31  SEL L   1      -3.145   3.127   1.629  1.00  0.00    -0.0612  A
ATOM     11 C32  SEL L   1      -2.402   1.968   1.907  1.00  0.00    -0.0614  A
ATOM     12 C33  SEL L   1      -2.189   1.002   0.923  1.00  0.00    -0.0573  A
ATOM     13 C34  SEL L   1      -2.724   1.224  -0.338  1.00  0.00    -0.0290  A
ATOM     14 H48  SEL L   1      -3.179  -0.592  -1.378  1.00  0.00    +0.0431  H
ATOM     15 H49  SEL L   1      -3.338  -0.066  -4.377  1.00  0.00    +0.0621  H
ATOM     16 H50  SEL L   1      -4.675   1.552  -5.708  1.00  0.00    +0.0618  H
ATOM     17 H51  SEL L   1      -5.501   3.648  -4.680  1.00  0.00    +0.0618  H
ATOM     18 H52  SEL L   1      -5.015   4.168  -2.302  1.00  0.00    +0.0624  H
ATOM     19 H53  SEL L   1      -4.256   4.242   0.153  1.00  0.00    +0.0624  H
ATOM     20 H54  SEL L   1      -3.297   3.867   2.411  1.00  0.00    +0.0618  H
ATOM     21 H55  SEL L   1      -1.986   1.822   2.901  1.00  0.00    +0.0618  H
ATOM     22 H56  SEL L   1      -1.611   0.112   1.147  1.00  0.00    +0.0621  H
ENDROOT
BRANCH 1 23
ATOM     23 C21  SEL L   1      -1.188   0.067  -2.003  1.00  0.00    +0.1050  C
ATOM     24 H46  SEL L   1      -0.577   0.975  -1.920  1.00  0.00    +0.0707  H
ATOM     25 H47  SEL L   1      -1.148  -0.286  -3.039  1.00  0.00    +0.0707  H
BRANCH 23 26
ATOM     26 O20  SEL L   1      -0.665  -0.993  -1.181  1.00  0.00    -0.4474 OA
BRANCH 26 36
ATOM     27  C9  SEL L   1       2.593  -2.213  -0.047  1.00  0.00    +0.1232  C
ATOM     28 C10  SEL L   1       2.785  -3.535   0.720  1.00  0.00    +0.0055  C
ATOM     29 C11  SEL L   1       1.377  -3.877   1.085  1.00  0.00    -0.0032  A
ATOM     30 C12  SEL L   1       0.922  -4.914   1.866  1.00  0.00    +0.0328  A
ATOM     31 N13  SEL L   1      -0.394  -5.132   2.070  1.00  0.00    -0.2629 NA
ATOM     32 C14  SEL L   1      -1.265  -4.281   1.470  1.00  0.00    +0.0295  A
ATOM     33 C15  SEL L   1      -0.894  -3.214   0.663  1.00  0.00    -0.0196  A
ATOM     34 C16  SEL L   1       0.459  -3.023   0.482  1.00  0.00    +0.0548  A
ATOM     35 N17  SEL L   1       1.148  -2.058  -0.269  1.00  0.00    -0.2653  N
ATOM     36 C18  SEL L   1       0.687  -1.077  -1.118  1.00  0.00    +0.4165  C
ATOM     37 O19  SEL L   1       1.447  -0.361  -1.763  1.00  0.00    -0.2231 OA
ATOM     38 H40  SEL L   1       3.110  -2.231  -1.015  1.00  0.00    +0.0632  H
ATOM     39 H41  SEL L   1       3.421  -3.436   1.605  1.00  0.00    +0.0339  H
ATOM     40 H42  SEL L   1       3.192  -4.307   0.058  1.00  0.00    +0.0339  H
ATOM     41 H43  SEL L   1       1.595  -5.613   2.351  1.00  0.00    +0.0833  H
ATOM     42 H44  SEL L   1      -2.314  -4.489   1.665  1.00  0.00    +0.0830  H
ATOM     43 H45  SEL L   1      -1.654  -2.584   0.226  1.00  0.00    +0.0653  H
BRANCH 27 45
ATOM     44  N6  SEL L   1       4.484  -0.826   0.584  1.00  0.00    -0.2772  N
ATOM     45  C7  SEL L   1       3.141  -1.046   0.803  1.00  0.00    +0.2520  C
ATOM     46  O8  SEL L   1       2.444  -0.457   1.625  1.00  0.00    -0.2705 OA
ATOM     47 H39  SEL L   1       4.988  -1.285  -0.160  1.00  0.00    +0.1732 HD
BRANCH 44 52
ATOM     48  C1  SEL L   1       5.446   2.624   3.710  1.00  0.00    +0.0138  C
ATOM     49  C2  SEL L   1       5.691   1.648   2.636  1.00  0.00    +0.2162  A
ATOM     50  N3  SEL L   1       6.788   1.412   1.948  1.00  0.00    -0.1111 NA
ATOM     51  N4  SEL L   1       6.471   0.411   1.053  1.00  0.00    -0.0902 NA
ATOM     52  C5  SEL L   1       5.205   0.118   1.255  1.00  0.00    +0.3234  A
ATOM     53 O35  SEL L   1       4.645   0.855   2.255  1.00  0.00    -0.4079 OA
ATOM     54 H36  SEL L   1       5.348   3.629   3.288  1.00  0.00    +0.0324  H
ATOM     55 H37  SEL L   1       4.530   2.391   4.261  1.00  0.00    +0.0324  H
ATOM     56 H38  SEL L   1       6.279   2.628   4.420  1.00  0.00    +0.0324  H
ENDBRANCH 44 52
ENDBRANCH 27 45
ENDBRANCH 26 36
ENDBRANCH 23 26
ENDBRANCH 1 23
TORSDOF 5
