ROOT
ATOM      1 C11  187 L   1      -0.407   1.046  -0.018  1.00  0.00    +0.0856  A
ATOM      2 C12  187 L   1      -1.339   2.101   0.156  1.00  0.00    +0.0835  A
ATOM      3 C13  187 L   1      -1.121   3.562   0.010  1.00  0.00    -0.0186  C
ATOM      4 N14  187 L   1      -2.548   1.647   0.477  1.00  0.00    -0.1736 NA
ATOM      5 N15  187 L   1      -2.430   0.300   0.465  1.00  0.00    -0.2610  N
ATOM      6 C20  187 L   1      -1.112  -0.102   0.306  1.00  0.00    +0.0603  A
ATOM      7 C21  187 L   1      -0.641  -1.499   0.501  1.00  0.00    -0.0206  C
ATOM      8 H31  187 L   1      -0.351   3.903   0.709  1.00  0.00    +0.0294  H
ATOM      9 H32  187 L   1      -2.035   4.130   0.212  1.00  0.00    +0.0294  H
ATOM     10 H33  187 L   1      -0.794   3.798  -1.007  1.00  0.00    +0.0294  H
ATOM     11 H43  187 L   1      -1.224  -2.034   1.252  1.00  0.00    +0.0293  H
ATOM     12 H44  187 L   1       0.386  -1.514   0.878  1.00  0.00    +0.0293  H
ATOM     13 H45  187 L   1      -0.684  -2.060  -0.438  1.00  0.00    +0.0293  H
ENDROOT
BRANCH 1 16
ATOM     14  C8  187 L   1       1.788   0.271  -0.890  1.00  0.00    +0.2448  C
ATOM     15  O9  187 L   1       1.498  -0.876  -1.210  1.00  0.00    -0.2709 OA
ATOM     16 N10  187 L   1       0.924   1.225  -0.372  1.00  0.00    -0.3218  N
ATOM     17 H30  187 L   1       1.227   2.190  -0.410  1.00  0.00    +0.1687 HD
BRANCH 14 18
ATOM     18  C7  187 L   1       3.200   0.850  -1.096  1.00  0.00    +0.0999  C
ATOM     19 H28  187 L   1       3.158   1.571  -1.921  1.00  0.00    +0.0587  H
ATOM     20 H29  187 L   1       3.488   1.404  -0.196  1.00  0.00    +0.0587  H
BRANCH 18 23
ATOM     21  C3  187 L   1       5.054  -0.750  -0.482  1.00  0.00    +0.2470  C
ATOM     22  O4  187 L   1       5.990  -1.493  -0.767  1.00  0.00    -0.2681 OA
ATOM     23  N5  187 L   1       4.228  -0.145  -1.412  1.00  0.00    -0.3329  N
ATOM     24  C6  187 L   1       4.320  -0.566  -2.801  1.00  0.00    +0.0105  C
ATOM     25 H25  187 L   1       5.088  -1.329  -2.952  1.00  0.00    +0.0453  H
ATOM     26 H26  187 L   1       3.357  -0.974  -3.120  1.00  0.00    +0.0453  H
ATOM     27 H27  187 L   1       4.565   0.305  -3.416  1.00  0.00    +0.0453  H
BRANCH 21 29
ATOM     28  C1  187 L   1       3.761  -0.931   1.596  1.00  0.00    -0.0936  C
ATOM     29  C2  187 L   1       4.823  -0.438   0.948  1.00  0.00    -0.0045  C
ATOM     30 H22  187 L   1       3.624  -0.751   2.657  1.00  0.00    +0.0536  H
ATOM     31 H23  187 L   1       3.027  -1.554   1.092  1.00  0.00    +0.0536  H
ATOM     32 H24  187 L   1       5.606   0.117   1.449  1.00  0.00    +0.0666  H
ENDBRANCH 21 29
ENDBRANCH 18 23
ENDBRANCH 14 18
ENDBRANCH 1 16
BRANCH 5 33
ATOM     33 C16  187 L   1      -3.659  -0.501   0.673  1.00  0.00    +0.0556  C
ATOM     34 C17  187 L   1      -4.926   0.331   0.327  1.00  0.00    -0.0403  C
ATOM     35 C18  187 L   1      -3.708  -1.742  -0.242  1.00  0.00    -0.0403  C
ATOM     36 C19  187 L   1      -3.769  -0.914   2.151  1.00  0.00    -0.0403  C
ATOM     37 H34  187 L   1      -4.895   0.689  -0.709  1.00  0.00    +0.0253  H
ATOM     38 H35  187 L   1      -5.837  -0.268   0.444  1.00  0.00    +0.0253  H
ATOM     39 H36  187 L   1      -5.034   1.204   0.981  1.00  0.00    +0.0253  H
ATOM     40 H37  187 L   1      -3.007  -2.522   0.065  1.00  0.00    +0.0253  H
ATOM     41 H38  187 L   1      -3.486  -1.477  -1.282  1.00  0.00    +0.0253  H
ATOM     42 H39  187 L   1      -4.701  -2.208  -0.222  1.00  0.00    +0.0253  H
ATOM     43 H40  187 L   1      -4.693  -1.474   2.336  1.00  0.00    +0.0253  H
ATOM     44 H41  187 L   1      -2.936  -1.546   2.470  1.00  0.00    +0.0253  H
ATOM     45 H42  187 L   1      -3.775  -0.035   2.807  1.00  0.00    +0.0253  H
ENDBRANCH 5 33
TORSDOF 5
