ROOT
ATOM      1 C30  WH0 L   1      -0.197   2.094  -0.375  1.00  0.00    -0.0133  A
ATOM      2 C31  WH0 L   1       1.189   2.291  -0.162  1.00  0.00    -0.0519  A
ATOM      3 C32  WH0 L   1       1.762   3.564  -0.302  1.00  0.00    -0.0374  A
ATOM      4 C33  WH0 L   1       0.933   4.625  -0.655  1.00  0.00    +0.0454  A
ATOM      5 C34  WH0 L   1      -0.418   4.447  -0.867  1.00  0.00    -0.0145  A
ATOM      6 C35  WH0 L   1      -1.008   3.190  -0.735  1.00  0.00    -0.0483  A
ATOM      7 C36  WH0 L   1      -1.069   5.740  -1.240  1.00  0.00    +0.0535  C
ATOM      8 C37  WH0 L   1       0.124   6.648  -1.198  1.00  0.00    +0.2296  C
ATOM      9 O38  WH0 L   1       0.082   7.881  -1.447  1.00  0.00    -0.2725 OA
ATOM     10 N39  WH0 L   1       1.325   5.971  -0.845  1.00  0.00    -0.3256  N
ATOM     11 H61  WH0 L   1       1.823   1.461   0.120  1.00  0.00    +0.0624  H
ATOM     12 H62  WH0 L   1       2.821   3.716  -0.138  1.00  0.00    +0.0638  H
ATOM     13 H63  WH0 L   1      -2.066   3.066  -0.927  1.00  0.00    +0.0627  H
ATOM     14 H64  WH0 L   1      -1.497   5.690  -2.264  1.00  0.00    +0.0410  H
ATOM     15 H65  WH0 L   1      -1.825   6.038  -0.484  1.00  0.00    +0.0410  H
ATOM     16 H66  WH0 L   1       2.282   6.377  -0.749  1.00  0.00    +0.1686 HD
ENDROOT
BRANCH 1 25
ATOM     17 C15  WH0 L   1      -0.270  -0.472  -0.682  1.00  0.00    +0.1018  A
ATOM     18 N16  WH0 L   1      -1.069  -1.488  -0.285  1.00  0.00    -0.1627 NA
ATOM     19 N17  WH0 L   1      -2.068  -0.952   0.397  1.00  0.00    -0.1987  N
ATOM     20 C18  WH0 L   1      -3.079  -1.609   1.033  1.00  0.00    +0.2283  A
ATOM     21 N25  WH0 L   1      -3.963  -0.870   1.765  1.00  0.00    -0.2207 NA
ATOM     22 C26  WH0 L   1      -3.850   0.487   1.861  1.00  0.00    +0.0334  A
ATOM     23 C27  WH0 L   1      -2.810   1.160   1.206  1.00  0.00    -0.0173  A
ATOM     24 C28  WH0 L   1      -1.928   0.382   0.459  1.00  0.00    +0.0803  A
ATOM     25 C29  WH0 L   1      -0.787   0.746  -0.234  1.00  0.00    +0.0353  A
ATOM     26 H59  WH0 L   1      -4.562   1.044   2.455  1.00  0.00    +0.0831  H
ATOM     27 H60  WH0 L   1      -2.695   2.231   1.301  1.00  0.00    +0.0654  H
BRANCH 17 34
ATOM     28  C8  WH0 L   1       1.972  -1.568  -1.135  1.00  0.00    -0.0338  A
ATOM     29  C9  WH0 L   1       3.102  -1.689  -1.966  1.00  0.00    -0.0226  A
ATOM     30 C10  WH0 L   1       3.216  -0.933  -3.134  1.00  0.00    +0.1237  A
ATOM     31 F11  WH0 L   1       4.314  -1.059  -3.919  1.00  0.00    -0.2055  F
ATOM     32 C12  WH0 L   1       2.204  -0.043  -3.491  1.00  0.00    -0.0258  A
ATOM     33 C13  WH0 L   1       1.075   0.092  -2.684  1.00  0.00    -0.0495  A
ATOM     34 C14  WH0 L   1       0.942  -0.663  -1.505  1.00  0.00    +0.0061  A
ATOM     35 H48  WH0 L   1       3.909  -2.362  -1.702  1.00  0.00    +0.0649  H
ATOM     36 H49  WH0 L   1       2.294   0.545  -4.395  1.00  0.00    +0.0646  H
ATOM     37 H50  WH0 L   1       0.298   0.785  -2.982  1.00  0.00    +0.0625  H
BRANCH 28 38
ATOM     38  C7  WH0 L   1       1.937  -2.360   0.160  1.00  0.00    -0.0095  C
ATOM     39 H46  WH0 L   1       0.982  -2.919   0.236  1.00  0.00    +0.0330  H
ATOM     40 H47  WH0 L   1       2.739  -3.131   0.168  1.00  0.00    +0.0330  H
BRANCH 38 41
ATOM     41  C6  WH0 L   1       2.111  -1.468   1.400  1.00  0.00    +0.0224  C
ATOM     42 H44  WH0 L   1       2.139  -2.110   2.306  1.00  0.00    +0.0489  H
ATOM     43 H45  WH0 L   1       1.240  -0.788   1.499  1.00  0.00    +0.0489  H
BRANCH 41 46
ATOM     44  C3  WH0 L   1       3.584   0.392   2.257  1.00  0.00    +0.2443  C
ATOM     45  O4  WH0 L   1       2.935   0.446   3.337  1.00  0.00    -0.2683 OA
ATOM     46  N5  WH0 L   1       3.341  -0.679   1.334  1.00  0.00    -0.3522  N
ATOM     47 H43  WH0 L   1       4.054  -0.894   0.603  1.00  0.00    +0.1626 HD
BRANCH 44 49
ATOM     48  C1  WH0 L   1       5.062   1.690   0.764  1.00  0.00    -0.0936  C
ATOM     49  C2  WH0 L   1       4.586   1.439   1.982  1.00  0.00    -0.0047  C
ATOM     50 H40  WH0 L   1       5.780   2.487   0.622  1.00  0.00    +0.0536  H
ATOM     51 H41  WH0 L   1       4.730   1.141  -0.107  1.00  0.00    +0.0536  H
ATOM     52 H42  WH0 L   1       4.911   2.067   2.803  1.00  0.00    +0.0666  H
ENDBRANCH 44 49
ENDBRANCH 41 46
ENDBRANCH 38 41
ENDBRANCH 28 38
ENDBRANCH 17 34
BRANCH 20 53
ATOM     53 N19  WH0 L   1      -3.221  -3.042   0.968  1.00  0.00    -0.3359  N
ATOM     54 C20  WH0 L   1      -2.839  -3.794  -0.232  1.00  0.00    +0.0449  C
ATOM     55 C21  WH0 L   1      -3.728  -5.033  -0.376  1.00  0.00    +0.0653  C
ATOM     56 O22  WH0 L   1      -3.737  -5.787   0.821  1.00  0.00    -0.3763 OA
ATOM     57 C23  WH0 L   1      -4.347  -5.036   1.853  1.00  0.00    +0.0653  C
ATOM     58 C24  WH0 L   1      -3.512  -3.797   2.191  1.00  0.00    +0.0449  C
ATOM     59 H51  WH0 L   1      -1.777  -4.110  -0.146  1.00  0.00    +0.0511  H
ATOM     60 H52  WH0 L   1      -2.961  -3.165  -1.141  1.00  0.00    +0.0511  H
ATOM     61 H53  WH0 L   1      -4.760  -4.739  -0.674  1.00  0.00    +0.0577  H
ATOM     62 H54  WH0 L   1      -3.323  -5.668  -1.191  1.00  0.00    +0.0577  H
ATOM     63 H55  WH0 L   1      -4.419  -5.674   2.759  1.00  0.00    +0.0577  H
ATOM     64 H56  WH0 L   1      -5.386  -4.743   1.578  1.00  0.00    +0.0577  H
ATOM     65 H57  WH0 L   1      -2.555  -4.111   2.660  1.00  0.00    +0.0511  H
ATOM     66 H58  WH0 L   1      -4.074  -3.176   2.922  1.00  0.00    +0.0511  H
ENDBRANCH 20 53
ENDBRANCH 1 25
TORSDOF 7
