ROOT
ATOM      1  C1  T34 L   1       0.174  -3.944  -0.102  1.00  0.00    -0.0375  C
ATOM      2  C2  T34 L   1       0.057  -2.453  -0.198  1.00  0.00    -0.0194  A
ATOM      3  C3  T34 L   1       1.308  -1.724  -0.353  1.00  0.00    -0.0280  A
ATOM      4  C4  T34 L   1       1.373  -0.382  -0.437  1.00  0.00    +0.1065  A
ATOM      5 C13  T34 L   1       0.063   0.387  -0.390  1.00  0.00    +0.2772  A
ATOM      6 O14  T34 L   1       0.089   1.616  -0.473  1.00  0.00    -0.2654 OA
ATOM      7 N15  T34 L   1      -1.078  -0.364  -0.250  1.00  0.00    -0.2783  N
ATOM      8 C16  T34 L   1      -1.079  -1.742  -0.155  1.00  0.00    +0.1143  A
ATOM      9 C17  T34 L   1      -2.486  -2.199  -0.010  1.00  0.00    +0.2706  C
ATOM     10 O18  T34 L   1      -2.912  -3.330   0.103  1.00  0.00    -0.2659 OA
ATOM     11 N19  T34 L   1      -3.241  -1.047  -0.029  1.00  0.00    -0.3278  N
ATOM     12 C20  T34 L   1      -2.448   0.162  -0.173  1.00  0.00    +0.1220  C
ATOM     13 C21  T34 L   1      -2.850   0.895  -1.469  1.00  0.00    -0.0104  C
ATOM     14 C22  T34 L   1      -4.247   1.512  -1.386  1.00  0.00    -0.0492  C
ATOM     15 C23  T34 L   1      -4.394   2.413  -0.164  1.00  0.00    -0.0528  C
ATOM     16 C24  T34 L   1      -4.044   1.678   1.126  1.00  0.00    -0.0492  C
ATOM     17 C25  T34 L   1      -2.645   1.062   1.063  1.00  0.00    -0.0104  C
ATOM     18 H26  T34 L   1       0.638  -4.349  -1.008  1.00  0.00    +0.0278  H
ATOM     19 H27  T34 L   1       0.796  -4.223   0.756  1.00  0.00    +0.0278  H
ATOM     20 H28  T34 L   1      -0.787  -4.448   0.021  1.00  0.00    +0.0278  H
ATOM     21 H29  T34 L   1       2.222  -2.309  -0.409  1.00  0.00    +0.0643  H
ATOM     22 H35  T34 L   1      -4.246  -1.085   0.057  1.00  0.00    +0.1650 HD
ATOM     23 H36  T34 L   1      -2.137   1.699  -1.688  1.00  0.00    +0.0306  H
ATOM     24 H37  T34 L   1      -2.811   0.210  -2.326  1.00  0.00    +0.0306  H
ATOM     25 H38  T34 L   1      -5.004   0.720  -1.351  1.00  0.00    +0.0267  H
ATOM     26 H39  T34 L   1      -4.444   2.093  -2.295  1.00  0.00    +0.0267  H
ATOM     27 H40  T34 L   1      -3.739   3.287  -0.275  1.00  0.00    +0.0265  H
ATOM     28 H41  T34 L   1      -5.421   2.790  -0.106  1.00  0.00    +0.0265  H
ATOM     29 H42  T34 L   1      -4.788   0.896   1.316  1.00  0.00    +0.0267  H
ATOM     30 H43  T34 L   1      -4.098   2.375   1.970  1.00  0.00    +0.0267  H
ATOM     31 H44  T34 L   1      -2.461   0.494   1.985  1.00  0.00    +0.0306  H
ATOM     32 H45  T34 L   1      -1.914   1.880   1.058  1.00  0.00    +0.0306  H
ENDROOT
BRANCH 4 33
ATOM     33  N5  T34 L   1       2.503   0.409  -0.604  1.00  0.00    -0.3357  N
ATOM     34 H30  T34 L   1       2.242   1.397  -0.578  1.00  0.00    +0.1675 HD
BRANCH 33 35
ATOM     35  C6  T34 L   1       3.755   0.193   0.017  1.00  0.00    +0.1366  A
ATOM     36  C7  T34 L   1       4.795   1.041  -0.320  1.00  0.00    +0.0225  A
ATOM     37  C8  T34 L   1       6.016   0.813   0.277  1.00  0.00    +0.1296  A
ATOM     38  N9  T34 L   1       7.116   1.613  -0.028  1.00  0.00    -0.3834  N
ATOM     39 N10  T34 L   1       6.226  -0.189   1.133  1.00  0.00    -0.2189 NA
ATOM     40 C11  T34 L   1       5.166  -0.966   1.387  1.00  0.00    +0.1205  A
ATOM     41 N12  T34 L   1       3.937  -0.826   0.872  1.00  0.00    -0.2184 NA
ATOM     42 H31  T34 L   1       4.666   1.840  -1.037  1.00  0.00    +0.0690  H
ATOM     43 H32  T34 L   1       7.893   1.295   0.546  1.00  0.00    +0.1573 HD
ATOM     44 H33  T34 L   1       6.924   2.598   0.112  1.00  0.00    +0.1573 HD
ATOM     45 H34  T34 L   1       5.316  -1.789   2.077  1.00  0.00    +0.1048  H
ENDBRANCH 33 35
ENDBRANCH 4 33
TORSDOF 2
