ROOT
ATOM      1 C12  WH0 L   1      -0.873   0.860  -2.388  1.00  0.00    +0.1686  A
ATOM      2 N13  WH0 L   1      -0.864   1.696  -3.448  1.00  0.00    -0.1289 NA
ATOM      3 N14  WH0 L   1      -1.828   2.586  -3.252  1.00  0.00    -0.1321 NA
ATOM      4 C15  WH0 L   1      -2.402   2.278  -2.073  1.00  0.00    +0.1540  A
ATOM      5 N16  WH0 L   1      -1.827   1.211  -1.503  1.00  0.00    -0.2971  N
ATOM      6 C17  WH0 L   1      -2.060   0.759  -0.132  1.00  0.00    +0.1160  C
ATOM      7 C22  WH0 L   1      -3.458   1.157   0.285  1.00  0.00    +0.2469  C
ATOM      8 O23  WH0 L   1      -4.034   0.504   1.197  1.00  0.00    -0.2707 OA
ATOM      9 N24  WH0 L   1      -4.137   2.264  -0.360  1.00  0.00    -0.3335  N
ATOM     10 C27  WH0 L   1      -3.461   3.076  -1.388  1.00  0.00    +0.0811  C
ATOM     11 H48  WH0 L   1      -1.987  -0.345  -0.111  1.00  0.00    +0.0627  H
ATOM     12 H63  WH0 L   1      -4.198   3.419  -2.147  1.00  0.00    +0.0569  H
ATOM     13 H64  WH0 L   1      -2.994   3.962  -0.908  1.00  0.00    +0.0569  H
ENDROOT
BRANCH 1 16
ATOM     14  C9  WH0 L   1       2.470  -0.690  -1.684  1.00  0.00    -0.0011  A
ATOM     15 C10  WH0 L   1       1.473   0.210  -2.073  1.00  0.00    -0.0406  A
ATOM     16 C11  WH0 L   1       0.138  -0.189  -2.165  1.00  0.00    +0.0650  A
ATOM     17 C28  WH0 L   1      -0.207  -1.539  -1.925  1.00  0.00    +0.1759  A
ATOM     18 C31  WH0 L   1       0.793  -2.456  -1.535  1.00  0.00    +0.2045  A
ATOM     19 C34  WH0 L   1       2.137  -2.027  -1.390  1.00  0.00    +0.1684  A
ATOM     20 H47  WH0 L   1       1.732   1.248  -2.249  1.00  0.00    +0.0630  H
BRANCH 14 21
ATOM     21  C8  WH0 L   1       3.893  -0.195  -1.546  1.00  0.00    -0.0225  C
ATOM     22 H45  WH0 L   1       4.044   0.743  -2.126  1.00  0.00    +0.0315  H
ATOM     23 H46  WH0 L   1       4.587  -0.943  -1.988  1.00  0.00    +0.0315  H
BRANCH 21 24
ATOM     24  C7  WH0 L   1       4.289   0.046  -0.081  1.00  0.00    -0.0314  C
ATOM     25 H43  WH0 L   1       5.359   0.348  -0.053  1.00  0.00    +0.0285  H
ATOM     26 H44  WH0 L   1       4.191  -0.899   0.493  1.00  0.00    +0.0285  H
BRANCH 24 27
ATOM     27  C6  WH0 L   1       3.450   1.148   0.579  1.00  0.00    +0.0187  C
ATOM     28 H41  WH0 L   1       2.382   0.847   0.631  1.00  0.00    +0.0486  H
ATOM     29 H42  WH0 L   1       3.518   2.076  -0.033  1.00  0.00    +0.0486  H
BRANCH 27 32
ATOM     30  C3  WH0 L   1       3.704   0.549   3.032  1.00  0.00    +0.2443  C
ATOM     31  O4  WH0 L   1       3.048  -0.515   2.864  1.00  0.00    -0.2683 OA
ATOM     32  N5  WH0 L   1       3.942   1.429   1.926  1.00  0.00    -0.3525  N
ATOM     33 H40  WH0 L   1       4.431   2.338   2.094  1.00  0.00    +0.1626 HD
BRANCH 30 35
ATOM     34  C1  WH0 L   1       4.051   0.121   5.431  1.00  0.00    -0.0936  C
ATOM     35  C2  WH0 L   1       4.234   0.896   4.363  1.00  0.00    -0.0047  C
ATOM     36 H37  WH0 L   1       3.495  -0.807   5.370  1.00  0.00    +0.0536  H
ATOM     37 H38  WH0 L   1       4.468   0.411   6.388  1.00  0.00    +0.0536  H
ATOM     38 H39  WH0 L   1       4.802   1.813   4.475  1.00  0.00    +0.0666  H
ENDBRANCH 30 35
ENDBRANCH 27 32
ENDBRANCH 24 27
ENDBRANCH 21 24
ENDBRANCH 14 21
BRANCH 17 39
ATOM     39 O29  WH0 L   1      -1.528  -2.007  -2.027  1.00  0.00    -0.4906 OA
ATOM     40 C30  WH0 L   1      -2.427  -1.669  -3.080  1.00  0.00    +0.0790  C
ATOM     41 H65  WH0 L   1      -2.960  -0.724  -2.857  1.00  0.00    +0.0660  H
ATOM     42 H66  WH0 L   1      -1.882  -1.589  -4.047  1.00  0.00    +0.0660  H
ATOM     43 H67  WH0 L   1      -3.188  -2.470  -3.167  1.00  0.00    +0.0660  H
ENDBRANCH 17 39
BRANCH 18 44
ATOM     44 O32  WH0 L   1       0.447  -3.785  -1.264  1.00  0.00    -0.4885 OA
ATOM     45 C33  WH0 L   1      -0.112  -4.657  -2.244  1.00  0.00    +0.0791  C
ATOM     46 H68  WH0 L   1       0.521  -4.655  -3.158  1.00  0.00    +0.0660  H
ATOM     47 H69  WH0 L   1      -0.146  -5.685  -1.831  1.00  0.00    +0.0660  H
ATOM     48 H70  WH0 L   1      -1.144  -4.358  -2.507  1.00  0.00    +0.0660  H
ENDBRANCH 18 44
BRANCH 19 49
ATOM     49 O35  WH0 L   1       3.181  -2.875  -0.968  1.00  0.00    -0.4910 OA
ATOM     50 C36  WH0 L   1       3.098  -4.273  -0.722  1.00  0.00    +0.0790  C
ATOM     51 H71  WH0 L   1       4.102  -4.647  -0.437  1.00  0.00    +0.0660  H
ATOM     52 H72  WH0 L   1       2.405  -4.477   0.120  1.00  0.00    +0.0660  H
ATOM     53 H73  WH0 L   1       2.783  -4.809  -1.642  1.00  0.00    +0.0660  H
ENDBRANCH 19 49
ENDBRANCH 1 16
BRANCH 6 54
ATOM     54 C18  WH0 L   1      -1.002   1.391   0.800  1.00  0.00    -0.0209  C
ATOM     55 H49  WH0 L   1      -1.218   2.479   0.888  1.00  0.00    +0.0292  H
ATOM     56 H50  WH0 L   1       0.001   1.307   0.327  1.00  0.00    +0.0292  H
BRANCH 54 57
ATOM     57 C19  WH0 L   1      -0.933   0.761   2.212  1.00  0.00    -0.0444  C
ATOM     58 C20  WH0 L   1      -0.041   1.619   3.119  1.00  0.00    -0.0626  C
ATOM     59 C21  WH0 L   1      -0.397  -0.682   2.170  1.00  0.00    -0.0626  C
ATOM     60 H51  WH0 L   1      -1.947   0.747   2.666  1.00  0.00    +0.0296  H
ATOM     61 H52  WH0 L   1      -0.445   2.651   3.187  1.00  0.00    +0.0232  H
ATOM     62 H53  WH0 L   1      -0.014   1.193   4.146  1.00  0.00    +0.0232  H
ATOM     63 H54  WH0 L   1       0.994   1.666   2.723  1.00  0.00    +0.0232  H
ATOM     64 H55  WH0 L   1      -1.130  -1.363   1.693  1.00  0.00    +0.0232  H
ATOM     65 H56  WH0 L   1       0.559  -0.732   1.604  1.00  0.00    +0.0232  H
ATOM     66 H57  WH0 L   1      -0.228  -1.063   3.201  1.00  0.00    +0.0232  H
ENDBRANCH 54 57
ENDBRANCH 6 54
BRANCH 9 67
ATOM     67 C25  WH0 L   1      -5.478   2.666   0.084  1.00  0.00    +0.0188  C
ATOM     68 C26  WH0 L   1      -6.534   1.745  -0.518  1.00  0.00    -0.0474  C
ATOM     69 H58  WH0 L   1      -5.539   2.640   1.194  1.00  0.00    +0.0486  H
ATOM     70 H59  WH0 L   1      -5.695   3.710  -0.231  1.00  0.00    +0.0486  H
ATOM     71 H60  WH0 L   1      -6.364   0.695  -0.199  1.00  0.00    +0.0247  H
ATOM     72 H61  WH0 L   1      -6.495   1.799  -1.626  1.00  0.00    +0.0247  H
ATOM     73 H62  WH0 L   1      -7.541   2.061  -0.178  1.00  0.00    +0.0247  H
ENDBRANCH 9 67
TORSDOF 12
