ROOT
ATOM      1  C3  179 L   1       4.146  -0.287   0.398  1.00  0.00    +0.0105  C
ATOM      2  C4  179 L   1       2.979   0.633   0.804  1.00  0.00    -0.0197  C
ATOM      3  C5  179 L   1       1.678   0.308   0.076  1.00  0.00    +0.0228  C
ATOM      4  N6  179 L   1       1.283  -1.093   0.252  1.00  0.00    -0.3387  N
ATOM      5  C7  179 L   1      -0.023  -1.555   0.316  1.00  0.00    +0.2474  C
ATOM      6  O8  179 L   1      -0.312  -2.701   0.654  1.00  0.00    -0.2680 OA
ATOM      7 C19  179 L   1       2.358  -2.064   0.449  1.00  0.00    +0.0228  C
ATOM      8 C20  179 L   1       3.648  -1.606  -0.216  1.00  0.00    -0.0197  C
ATOM      9 H25  179 L   1       4.704  -0.544   1.308  1.00  0.00    +0.0461  H
ATOM     10 H26  179 L   1       2.810   0.511   1.883  1.00  0.00    +0.0297  H
ATOM     11 H27  179 L   1       3.222   1.691   0.661  1.00  0.00    +0.0297  H
ATOM     12 H28  179 L   1       0.891   0.970   0.450  1.00  0.00    +0.0489  H
ATOM     13 H29  179 L   1       1.784   0.486  -1.001  1.00  0.00    +0.0489  H
ATOM     14 H38  179 L   1       2.055  -3.035   0.042  1.00  0.00    +0.0489  H
ATOM     15 H39  179 L   1       2.499  -2.189   1.530  1.00  0.00    +0.0489  H
ATOM     16 H40  179 L   1       3.464  -1.487  -1.293  1.00  0.00    +0.0297  H
ATOM     17 H41  179 L   1       4.421  -2.377  -0.113  1.00  0.00    +0.0297  H
ENDROOT
BRANCH 1 19
ATOM     18  C1  179 L   1       5.969   1.300   0.056  1.00  0.00    -0.0155  C
ATOM     19  N2  179 L   1       5.076   0.328  -0.560  1.00  0.00    -0.3161 NA
ATOM     20 H21  179 L   1       5.429   2.154   0.473  1.00  0.00    +0.0388  H
ATOM     21 H22  179 L   1       6.572   0.839   0.844  1.00  0.00    +0.0388  H
ATOM     22 H23  179 L   1       6.661   1.683  -0.701  1.00  0.00    +0.0388  H
ATOM     23 H24  179 L   1       4.564   0.765  -1.325  1.00  0.00    +0.1219 HD
ENDBRANCH 1 19
BRANCH 5 24
ATOM     24  C9  179 L   1      -1.091  -0.597  -0.069  1.00  0.00    +0.0033  C
ATOM     25 C10  179 L   1      -2.349  -0.801   0.351  1.00  0.00    -0.0448  C
ATOM     26 H30  179 L   1      -0.830   0.214  -0.732  1.00  0.00    +0.0672  H
ATOM     27 H31  179 L   1      -2.540  -1.680   0.968  1.00  0.00    +0.0627  H
BRANCH 25 28
ATOM     28 C11  179 L   1      -3.489   0.003   0.044  1.00  0.00    +0.0342  A
ATOM     29 C12  179 L   1      -4.849  -0.422   0.028  1.00  0.00    +0.0685  A
ATOM     30 C13  179 L   1      -5.392  -1.779   0.299  1.00  0.00    -0.0200  C
ATOM     31 N14  179 L   1      -5.685   0.579  -0.284  1.00  0.00    -0.1748 NA
ATOM     32 N15  179 L   1      -4.873   1.642  -0.459  1.00  0.00    -0.2553  N
ATOM     33 C16  179 L   1      -5.455   2.918  -0.803  1.00  0.00    +0.0318  C
ATOM     34 C17  179 L   1      -3.556   1.340  -0.264  1.00  0.00    +0.1342  A
ATOM     35 CL18 179 L   1      -2.378   2.567  -0.385  1.00  0.00    -0.0617 Cl
ATOM     36 H32  179 L   1      -5.209  -2.060   1.341  1.00  0.00    +0.0293  H
ATOM     37 H33  179 L   1      -6.471  -1.824   0.121  1.00  0.00    +0.0293  H
ATOM     38 H34  179 L   1      -4.914  -2.519  -0.350  1.00  0.00    +0.0293  H
ATOM     39 H35  179 L   1      -6.536   2.806  -0.921  1.00  0.00    +0.0473  H
ATOM     40 H36  179 L   1      -5.244   3.624   0.004  1.00  0.00    +0.0473  H
ATOM     41 H37  179 L   1      -5.018   3.258  -1.745  1.00  0.00    +0.0473  H
ENDBRANCH 25 28
ENDBRANCH 5 24
TORSDOF 3
