ROOT
ATOM      1  C1  CHE L   1       3.977   0.323   0.327  1.00  0.00    -0.0518  C
ATOM      2  C2  CHE L   1       2.595   0.031  -0.247  1.00  0.00    +0.0586  C
ATOM      3  C3  CHE L   1       2.164  -1.378   0.045  1.00  0.00    +0.0621  C
ATOM      4  O4  CHE L   1       0.985  -1.598  -0.704  1.00  0.00    -0.3461 OA
ATOM      5  C5  CHE L   1      -0.139  -0.800  -0.323  1.00  0.00    +0.1844  C
ATOM      6  C6  CHE L   1      -0.833  -0.506  -1.620  1.00  0.00    -0.0242  C
ATOM      7  C7  CHE L   1      -2.023  -1.017  -1.971  1.00  0.00    -0.0141  C
ATOM      8  C8  CHE L   1      -2.750  -1.933  -1.062  1.00  0.00    +0.1787  C
ATOM      9  O9  CHE L   1      -3.835  -2.407  -1.371  1.00  0.00    -0.2879 OA
ATOM     10 C10  CHE L   1      -2.121  -2.241   0.244  1.00  0.00    -0.0141  C
ATOM     11 C11  CHE L   1      -0.937  -1.701   0.576  1.00  0.00    -0.0242  C
ATOM     12 N12  CHE L   1       0.224   0.458   0.355  1.00  0.00    -0.3046  N
ATOM     13 C16  CHE L   1       1.541   0.937   0.339  1.00  0.00    +0.2313  C
ATOM     14 O17  CHE L   1       1.845   2.059   0.747  1.00  0.00    -0.2726 OA
ATOM     15 H18  CHE L   1       4.293   1.344   0.087  1.00  0.00    +0.0238  H
ATOM     16 H19  CHE L   1       3.985   0.222   1.418  1.00  0.00    +0.0238  H
ATOM     17 H20  CHE L   1       4.723  -0.364  -0.086  1.00  0.00    +0.0238  H
ATOM     18 H21  CHE L   1       2.606   0.216  -1.329  1.00  0.00    +0.0416  H
ATOM     19 H22  CHE L   1       1.988  -1.570   1.111  1.00  0.00    +0.0568  H
ATOM     20 H23  CHE L   1       2.913  -2.096  -0.303  1.00  0.00    +0.0568  H
ATOM     21 H24  CHE L   1      -0.309   0.138  -2.320  1.00  0.00    +0.0624  H
ATOM     22 H25  CHE L   1      -2.495  -0.802  -2.922  1.00  0.00    +0.0654  H
ATOM     23 H26  CHE L   1      -2.668  -2.905   0.901  1.00  0.00    +0.0654  H
ATOM     24 H27  CHE L   1      -0.500  -1.949   1.539  1.00  0.00    +0.0624  H
ENDROOT
BRANCH 12 25
ATOM     25 C13  CHE L   1      -0.790   1.463   0.793  1.00  0.00    +0.0301  C
ATOM     26 C14  CHE L   1      -1.146   2.456  -0.324  1.00  0.00    -0.0447  C
ATOM     27 C15  CHE L   1      -2.064   0.939   1.453  1.00  0.00    -0.0447  C
ATOM     28 H28  CHE L   1      -0.303   2.058   1.577  1.00  0.00    +0.0520  H
ATOM     29 H29  CHE L   1      -0.251   2.859  -0.807  1.00  0.00    +0.0249  H
ATOM     30 H30  CHE L   1      -1.764   1.993  -1.099  1.00  0.00    +0.0249  H
ATOM     31 H31  CHE L   1      -1.714   3.300   0.083  1.00  0.00    +0.0249  H
ATOM     32 H32  CHE L   1      -2.731   0.454   0.737  1.00  0.00    +0.0249  H
ATOM     33 H33  CHE L   1      -1.835   0.246   2.268  1.00  0.00    +0.0249  H
ATOM     34 H34  CHE L   1      -2.630   1.771   1.890  1.00  0.00    +0.0249  H
ENDBRANCH 12 25
TORSDOF 1
