ROOT
ATOM      1 N15  CHE L   1      -1.695  -0.293   0.922  1.00  0.00    -0.2974 NA
ATOM      2 C16  CHE L   1      -2.560  -0.226   2.113  1.00  0.00    +0.0032  C
ATOM      3 C17  CHE L   1      -3.910  -0.905   1.846  1.00  0.00    -0.0146  C
ATOM      4 C18  CHE L   1      -4.549  -0.429   0.568  1.00  0.00    -0.0418  A
ATOM      5 C19  CHE L   1      -5.907  -0.671   0.326  1.00  0.00    -0.0582  A
ATOM      6 C20  CHE L   1      -6.493  -0.260  -0.871  1.00  0.00    -0.0615  A
ATOM      7 C21  CHE L   1      -5.726   0.388  -1.836  1.00  0.00    -0.0614  A
ATOM      8 C22  CHE L   1      -4.370   0.623  -1.606  1.00  0.00    -0.0571  A
ATOM      9 C23  CHE L   1      -3.765   0.206  -0.410  1.00  0.00    -0.0302  A
ATOM     10 C24  CHE L   1      -2.300   0.507  -0.164  1.00  0.00    +0.0243  C
ATOM     11 H33  CHE L   1      -2.090  -0.745   2.958  1.00  0.00    +0.0430  H
ATOM     12 H34  CHE L   1      -2.714   0.817   2.422  1.00  0.00    +0.0430  H
ATOM     13 H35  CHE L   1      -3.767  -1.990   1.775  1.00  0.00    +0.0326  H
ATOM     14 H36  CHE L   1      -4.578  -0.707   2.693  1.00  0.00    +0.0326  H
ATOM     15 H37  CHE L   1      -6.514  -1.183   1.069  1.00  0.00    +0.0620  H
ATOM     16 H38  CHE L   1      -7.548  -0.449  -1.052  1.00  0.00    +0.0618  H
ATOM     17 H39  CHE L   1      -6.183   0.710  -2.768  1.00  0.00    +0.0618  H
ATOM     18 H40  CHE L   1      -3.784   1.133  -2.368  1.00  0.00    +0.0621  H
ATOM     19 H41  CHE L   1      -2.213   1.580   0.051  1.00  0.00    +0.0476  H
ATOM     20 H42  CHE L   1      -1.762   0.300  -1.096  1.00  0.00    +0.0476  H
ENDROOT
BRANCH 1 21
ATOM     21 C14  CHE L   1      -0.337   0.181   1.255  1.00  0.00    +0.0077  C
ATOM     22 H31  CHE L   1       0.004  -0.334   2.164  1.00  0.00    +0.0431  H
ATOM     23 H32  CHE L   1      -0.342   1.253   1.490  1.00  0.00    +0.0431  H
BRANCH 21 24
ATOM     24 C13  CHE L   1       0.680  -0.120   0.151  1.00  0.00    +0.0392  C
ATOM     25 H29  CHE L   1       0.667  -1.191  -0.086  1.00  0.00    +0.0373  H
ATOM     26 H30  CHE L   1       0.446   0.442  -0.760  1.00  0.00    +0.0373  H
BRANCH 24 28
ATOM     27 N10  CHE L   1       3.025  -0.122  -0.379  1.00  0.00    -0.3250  N
ATOM     28 C11  CHE L   1       2.090   0.263   0.573  1.00  0.00    +0.2265  C
ATOM     29 O12  CHE L   1       2.320   0.855   1.620  1.00  0.00    -0.2729 OA
ATOM     30 H28  CHE L   1       2.641  -0.590  -1.195  1.00  0.00    +0.1686 HD
BRANCH 27 37
ATOM     31  C3  CHE L   1       5.228  -0.386  -1.428  1.00  0.00    +0.0890  A
ATOM     32  C4  CHE L   1       6.623  -0.213  -1.402  1.00  0.00    +0.0372  A
ATOM     33 BR5  CHE L   1       7.749  -0.788  -2.824  1.00  0.00    -0.0489 Br
ATOM     34  C6  CHE L   1       7.239   0.399  -0.311  1.00  0.00    -0.0464  A
ATOM     35  C7  CHE L   1       6.468   0.841   0.758  1.00  0.00    -0.0587  A
ATOM     36  C8  CHE L   1       5.080   0.673   0.742  1.00  0.00    -0.0370  A
ATOM     37  C9  CHE L   1       4.437   0.062  -0.342  1.00  0.00    +0.0603  A
ATOM     38 H25  CHE L   1       8.318   0.537  -0.282  1.00  0.00    +0.0629  H
ATOM     39 H26  CHE L   1       6.942   1.319   1.613  1.00  0.00    +0.0619  H
ATOM     40 H27  CHE L   1       4.531   1.035   1.606  1.00  0.00    +0.0638  H
BRANCH 31 42
ATOM     41  N1  CHE L   1       4.018  -1.507  -3.429  1.00  0.00    -0.1908 NA
ATOM     42  C2  CHE L   1       4.601  -1.013  -2.556  1.00  0.00    +0.1023  C
ENDBRANCH 31 42
ENDBRANCH 27 37
ENDBRANCH 24 28
ENDBRANCH 21 24
ENDBRANCH 1 21
TORSDOF 5
