ROOT
ATOM      1  N5  CHE L   1      -3.172  -0.156  -0.051  1.00  0.00    -0.3010 NA
ATOM      2  C6  CHE L   1      -2.082   0.794   0.228  1.00  0.00    +0.0013  C
ATOM      3  C7  CHE L   1      -1.068   0.919  -0.909  1.00  0.00    -0.0137  C
ATOM      4  C8  CHE L   1      -0.424  -0.434  -1.240  1.00  0.00    +0.0614  C
ATOM      5 C22  CHE L   1      -1.307  -1.608  -0.808  1.00  0.00    -0.0137  C
ATOM      6 C23  CHE L   1      -2.779  -1.248  -0.955  1.00  0.00    +0.0013  C
ATOM      7 H32  CHE L   1      -2.462   1.789   0.483  1.00  0.00    +0.0427  H
ATOM      8 H33  CHE L   1      -1.559   0.446   1.129  1.00  0.00    +0.0427  H
ATOM      9 H34  CHE L   1      -0.313   1.663  -0.634  1.00  0.00    +0.0302  H
ATOM     10 H35  CHE L   1      -1.586   1.300  -1.799  1.00  0.00    +0.0302  H
ATOM     11 H36  CHE L   1      -0.266  -0.497  -2.326  1.00  0.00    +0.0597  H
ATOM     12 H43  CHE L   1      -1.068  -2.485  -1.421  1.00  0.00    +0.0302  H
ATOM     13 H44  CHE L   1      -1.087  -1.903   0.227  1.00  0.00    +0.0302  H
ATOM     14 H45  CHE L   1      -3.392  -2.129  -0.732  1.00  0.00    +0.0427  H
ATOM     15 H46  CHE L   1      -2.969  -0.978  -2.003  1.00  0.00    +0.0427  H
ENDROOT
BRANCH 1 16
ATOM     16  C4  CHE L   1      -4.413   0.493  -0.522  1.00  0.00    +0.0114  C
ATOM     17 H30  CHE L   1      -4.212   1.144  -1.382  1.00  0.00    +0.0439  H
ATOM     18 H31  CHE L   1      -5.107  -0.283  -0.872  1.00  0.00    +0.0439  H
BRANCH 16 19
ATOM     19  C3  CHE L   1      -5.154   1.294   0.579  1.00  0.00    +0.0084  C
ATOM     20 H28  CHE L   1      -4.627   2.241   0.743  1.00  0.00    +0.0436  H
ATOM     21 H29  CHE L   1      -6.158   1.569   0.234  1.00  0.00    +0.0436  H
BRANCH 19 23
ATOM     22  C1  CHE L   1      -6.228  -0.445   1.884  1.00  0.00    -0.0157  C
ATOM     23  N2  CHE L   1      -5.211   0.600   1.875  1.00  0.00    -0.3178 NA
ATOM     24 H24  CHE L   1      -6.240  -0.928   2.867  1.00  0.00    +0.0388  H
ATOM     25 H25  CHE L   1      -6.030  -1.219   1.136  1.00  0.00    +0.0388  H
ATOM     26 H26  CHE L   1      -7.225  -0.027   1.712  1.00  0.00    +0.0388  H
ATOM     27 H27  CHE L   1      -4.297   0.149   1.995  1.00  0.00    +0.1217 HD
ENDBRANCH 19 23
ENDBRANCH 16 19
ENDBRANCH 1 16
BRANCH 4 28
ATOM     28  O9  CHE L   1       0.835  -0.578  -0.573  1.00  0.00    -0.3719 OA
BRANCH 28 29
ATOM     29 C10  CHE L   1       1.925  -0.008  -1.300  1.00  0.00    +0.0730  C
ATOM     30 H37  CHE L   1       2.057  -0.557  -2.240  1.00  0.00    +0.0610  H
ATOM     31 H38  CHE L   1       1.706   1.043  -1.524  1.00  0.00    +0.0610  H
BRANCH 29 32
ATOM     32 C11  CHE L   1       3.207  -0.094  -0.507  1.00  0.00    -0.0217  A
ATOM     33 C12  CHE L   1       4.267   0.774  -0.805  1.00  0.00    -0.0529  A
ATOM     34 C13  CHE L   1       5.482   0.694  -0.114  1.00  0.00    -0.0193  A
ATOM     35 C14  CHE L   1       5.661  -0.263   0.885  1.00  0.00    +0.1300  A
ATOM     36 C20  CHE L   1       4.611  -1.137   1.180  1.00  0.00    -0.0193  A
ATOM     37 C21  CHE L   1       3.398  -1.059   0.489  1.00  0.00    -0.0529  A
ATOM     38 H39  CHE L   1       4.155   1.526  -1.584  1.00  0.00    +0.0622  H
ATOM     39 H40  CHE L   1       6.263   1.397  -0.390  1.00  0.00    +0.0654  H
ATOM     40 H41  CHE L   1       4.732  -1.891   1.955  1.00  0.00    +0.0654  H
ATOM     41 H42  CHE L   1       2.601  -1.756   0.738  1.00  0.00    +0.0622  H
BRANCH 35 42
ATOM     42 O15  CHE L   1       6.784  -0.456   1.636  1.00  0.00    -0.4057 OA
BRANCH 42 43
ATOM     43 C16  CHE L   1       7.900   0.377   1.379  1.00  0.00    +0.5752  C
ATOM     44 F17  CHE L   1       8.338   0.231   0.109  1.00  0.00    -0.1328  F
ATOM     45 F18  CHE L   1       7.606   1.675   1.607  1.00  0.00    -0.1328  F
ATOM     46 F19  CHE L   1       8.907   0.023   2.210  1.00  0.00    -0.1328  F
ENDBRANCH 42 43
ENDBRANCH 35 42
ENDBRANCH 29 32
ENDBRANCH 28 29
ENDBRANCH 4 28
TORSDOF 8
