ROOT
ATOM      1  C6  EUB L   1       1.421  -0.409   0.581  1.00  0.00    +0.1705  A
ATOM      2  N7  EUB L   1       1.452  -1.768   0.834  1.00  0.00    -0.2285 NA
ATOM      3  C8  EUB L   1       0.197  -2.151   0.870  1.00  0.00    +0.1016  A
ATOM      4  N9  EUB L   1      -0.676  -1.116   0.628  1.00  0.00    -0.2995  N
ATOM      5 C10  EUB L   1       0.102   0.014   0.493  1.00  0.00    +0.0767  A
ATOM      6 C11  EUB L   1      -0.497   1.352   0.348  1.00  0.00    +0.0641  C
ATOM      7 N12  EUB L   1      -1.168   1.375  -0.928  1.00  0.00    -0.3355  N
ATOM      8 C13  EUB L   1      -0.636   2.278  -1.937  1.00  0.00    +0.0104  C
ATOM      9 C14  EUB L   1      -2.355   0.703  -1.164  1.00  0.00    +0.2568  C
ATOM     10 O15  EUB L   1      -3.020   0.878  -2.184  1.00  0.00    -0.2673 OA
ATOM     11 C16  EUB L   1      -2.874  -0.282  -0.163  1.00  0.00    +0.0657  A
ATOM     12 C17  EUB L   1      -4.276  -0.396  -0.120  1.00  0.00    -0.0121  A
ATOM     13 C18  EUB L   1      -4.881  -1.376   0.655  1.00  0.00    +0.1243  A
ATOM     14 F19  EUB L   1      -6.217  -1.465   0.685  1.00  0.00    -0.2055  F
ATOM     15 C20  EUB L   1      -4.121  -2.274   1.387  1.00  0.00    -0.0245  A
ATOM     16 C21  EUB L   1      -2.729  -2.186   1.355  1.00  0.00    -0.0343  A
ATOM     17 C22  EUB L   1      -2.093  -1.183   0.595  1.00  0.00    +0.0603  A
ATOM     18 H28  EUB L   1      -0.126  -3.172   1.027  1.00  0.00    +0.1032  H
ATOM     19 H29  EUB L   1      -1.229   1.541   1.143  1.00  0.00    +0.0554  H
ATOM     20 H30  EUB L   1       0.237   2.160   0.399  1.00  0.00    +0.0554  H
ATOM     21 H31  EUB L   1      -1.139   2.155  -2.900  1.00  0.00    +0.0453  H
ATOM     22 H32  EUB L   1      -0.774   3.307  -1.593  1.00  0.00    +0.0453  H
ATOM     23 H33  EUB L   1       0.431   2.074  -2.070  1.00  0.00    +0.0453  H
ATOM     24 H34  EUB L   1      -4.907   0.264  -0.711  1.00  0.00    +0.0654  H
ATOM     25 H35  EUB L   1      -4.618  -3.035   1.983  1.00  0.00    +0.0647  H
ATOM     26 H36  EUB L   1      -2.168  -2.890   1.966  1.00  0.00    +0.0639  H
ENDROOT
BRANCH 1 27
ATOM     27  C4  EUB L   1       2.626   0.419   0.459  1.00  0.00    +0.3595  C
ATOM     28  O5  EUB L   1       2.597   1.628   0.255  1.00  0.00    -0.2432 OA
BRANCH 27 29
ATOM     29  O3  EUB L   1       3.773  -0.309   0.597  1.00  0.00    -0.4603 OA
BRANCH 29 31
ATOM     30  C1  EUB L   1       5.421   0.527  -0.965  1.00  0.00    -0.0306  C
ATOM     31  C2  EUB L   1       5.002   0.420   0.489  1.00  0.00    +0.0900  C
ATOM     32 H23  EUB L   1       6.388   1.031  -1.054  1.00  0.00    +0.0262  H
ATOM     33 H24  EUB L   1       4.681   1.086  -1.547  1.00  0.00    +0.0262  H
ATOM     34 H25  EUB L   1       5.497  -0.467  -1.418  1.00  0.00    +0.0262  H
ATOM     35 H26  EUB L   1       4.923   1.407   0.959  1.00  0.00    +0.0695  H
ATOM     36 H27  EUB L   1       5.757  -0.142   1.048  1.00  0.00    +0.0695  H
ENDBRANCH 29 31
ENDBRANCH 27 29
ENDBRANCH 1 27
TORSDOF 3
