ROOT
ATOM      1 N11  LIG L   1      -2.004   3.367  -9.475  1.00  0.00    -0.3347  N
ATOM      2 C12  LIG L   1      -2.915   3.191  -8.447  1.00  0.00    +0.0261  A
ATOM      3 C13  LIG L   1      -4.250   3.797  -8.282  1.00  0.00    -0.0236  C
ATOM      4 C14  LIG L   1      -2.369   2.346  -7.508  1.00  0.00    +0.0279  A
ATOM      5 C15  LIG L   1      -2.831   1.841  -6.318  1.00  0.00    +0.0580  A
ATOM      6 N16  LIG L   1      -2.069   1.014  -5.591  1.00  0.00    -0.1710 NA
ATOM      7 N17  LIG L   1      -0.852   0.643  -5.969  1.00  0.00    -0.1962  N
ATOM      8 C24  LIG L   1      -0.390   1.138  -7.143  1.00  0.00    +0.2813  A
ATOM      9 O25  LIG L   1       0.762   0.772  -7.479  1.00  0.00    -0.2651 OA
ATOM     10 C26  LIG L   1      -1.130   1.991  -7.929  1.00  0.00    +0.0708  A
ATOM     11 C27  LIG L   1      -0.906   2.636  -9.162  1.00  0.00    +0.0328  A
ATOM     12 H46  LIG L   1      -4.579   3.762  -7.237  1.00  0.00    +0.0292  H
ATOM     13 H47  LIG L   1      -4.246   4.863  -8.525  1.00  0.00    +0.0292  H
ATOM     14 H48  LIG L   1      -5.018   3.267  -8.851  1.00  0.00    +0.0292  H
ATOM     15 H49  LIG L   1      -3.828   2.085  -5.921  1.00  0.00    +0.0854  H
ENDROOT
BRANCH 1 16
ATOM     16  C3  LIG L   1      -2.326   4.197 -10.575  1.00  0.00    +0.1121  C
ATOM     17 H37  LIG L   1      -2.219   5.215 -10.167  1.00  0.00    +0.0626  H
BRANCH 16 19
ATOM     18  C1  LIG L   1      -1.608   2.964 -12.681  1.00  0.00    -0.0629  C
ATOM     19  C2  LIG L   1      -1.496   4.174 -11.805  1.00  0.00    -0.0262  C
ATOM     20 H32  LIG L   1      -0.765   2.937 -13.382  1.00  0.00    +0.0231  H
ATOM     21 H33  LIG L   1      -1.588   2.025 -12.121  1.00  0.00    +0.0231  H
ATOM     22 H34  LIG L   1      -2.507   2.990 -13.305  1.00  0.00    +0.0231  H
ATOM     23 H35  LIG L   1      -1.780   5.033 -12.432  1.00  0.00    +0.0287  H
ATOM     24 H36  LIG L   1      -0.447   4.375 -11.567  1.00  0.00    +0.0287  H
ENDBRANCH 16 19
BRANCH 16 25
ATOM     25  C4  LIG L   1      -3.786   4.085 -10.988  1.00  0.00    +0.2439  C
ATOM     26  O5  LIG L   1      -4.532   5.088 -10.912  1.00  0.00    -0.2710 OA
ATOM     27  N6  LIG L   1      -4.333   2.866 -11.462  1.00  0.00    -0.3521  N
ATOM     28 H38  LIG L   1      -3.759   2.093 -11.775  1.00  0.00    +0.1624 HD
BRANCH 27 29
ATOM     29  C7  LIG L   1      -5.756   2.908 -11.832  1.00  0.00    +0.0415  C
ATOM     30 H39  LIG L   1      -5.871   3.641 -12.638  1.00  0.00    +0.0509  H
ATOM     31 H40  LIG L   1      -6.351   3.215 -10.966  1.00  0.00    +0.0509  H
BRANCH 29 32
ATOM     32  C8  LIG L   1      -6.119   1.517 -12.302  1.00  0.00    +0.0647  C
ATOM     33 H41  LIG L   1      -7.179   1.504 -12.583  1.00  0.00    +0.0577  H
ATOM     34 H42  LIG L   1      -5.961   0.798 -11.487  1.00  0.00    +0.0577  H
BRANCH 32 35
ATOM     35  O9  LIG L   1      -5.308   1.217 -13.397  1.00  0.00    -0.3812 OA
ATOM     36 C10  LIG L   1      -5.670  -0.086 -13.810  1.00  0.00    +0.0365  C
ATOM     37 H43  LIG L   1      -5.476  -0.823 -13.023  1.00  0.00    +0.0523  H
ATOM     38 H44  LIG L   1      -6.720  -0.128 -14.122  1.00  0.00    +0.0523  H
ATOM     39 H45  LIG L   1      -5.054  -0.351 -14.673  1.00  0.00    +0.0523  H
ENDBRANCH 32 35
ENDBRANCH 29 32
ENDBRANCH 27 29
ENDBRANCH 16 25
ENDBRANCH 1 16
BRANCH 7 40
ATOM     40 C18  LIG L   1      -0.057  -0.237  -5.183  1.00  0.00    +0.0692  A
ATOM     41 C19  LIG L   1      -0.026  -1.589  -5.542  1.00  0.00    -0.0361  A
ATOM     42 C20  LIG L   1       0.737  -2.445  -4.790  1.00  0.00    -0.0598  A
ATOM     43 C21  LIG L   1       1.451  -1.971  -3.710  1.00  0.00    -0.0616  A
ATOM     44 C22  LIG L   1       1.411  -0.641  -3.369  1.00  0.00    -0.0598  A
ATOM     45 C23  LIG L   1       0.658   0.229  -4.104  1.00  0.00    -0.0361  A
ATOM     46 H50  LIG L   1      -0.590  -1.949  -6.395  1.00  0.00    +0.0639  H
ATOM     47 H51  LIG L   1       0.783  -3.499  -5.048  1.00  0.00    +0.0618  H
ATOM     48 H52  LIG L   1       2.055  -2.659  -3.124  1.00  0.00    +0.0618  H
ATOM     49 H53  LIG L   1       1.981  -0.283  -2.516  1.00  0.00    +0.0618  H
ATOM     50 H54  LIG L   1       0.623   1.281  -3.840  1.00  0.00    +0.0639  H
ENDBRANCH 7 40
BRANCH 11 51
ATOM     51 C28  LIG L   1       0.391   2.478  -9.839  1.00  0.00    -0.0108  C
ATOM     52 H55  LIG L   1       0.750   1.450  -9.732  1.00  0.00    +0.0328  H
ATOM     53 H56  LIG L   1       0.319   2.585 -10.920  1.00  0.00    +0.0328  H
BRANCH 51 54
ATOM     54 C29  LIG L   1       1.426   3.478  -9.304  1.00  0.00    -0.0389  C
ATOM     55 H57  LIG L   1       1.110   4.489  -9.593  1.00  0.00    +0.0277  H
ATOM     56 H58  LIG L   1       1.452   3.478  -8.207  1.00  0.00    +0.0277  H
BRANCH 54 57
ATOM     57 C30  LIG L   1       2.829   3.244  -9.857  1.00  0.00    -0.0090  C
ATOM     58 S31  LIG L   1       3.669   1.799  -9.136  1.00  0.00    -0.1782 SA
ATOM     59 H59  LIG L   1       3.455   4.119  -9.643  1.00  0.00    +0.0374  H
ATOM     60 H60  LIG L   1       2.802   3.127 -10.946  1.00  0.00    +0.0374  H
ATOM     61 H61  LIG L   1       2.617   1.295  -8.455  1.00  0.00    +0.1016 HD
ENDBRANCH 54 57
ENDBRANCH 51 54
ENDBRANCH 11 51
TORSDOF 10
