ROOT
ATOM      1  N4  LIG L   1      -4.007   2.079 -11.562  1.00  0.00    -0.2806  N
ATOM      2  C5  LIG L   1      -2.824   2.634 -11.868  1.00  0.00    +0.3336  A
ATOM      3  O6  LIG L   1      -1.812   1.917 -11.783  1.00  0.00    -0.2462 OA
ATOM      4  N7  LIG L   1      -2.644   3.913 -12.262  1.00  0.00    -0.2503  N
ATOM      5 C18  LIG L   1      -3.759   4.661 -12.342  1.00  0.00    +0.3002  A
ATOM      6 O19  LIG L   1      -3.743   5.865 -12.692  1.00  0.00    -0.2634 OA
ATOM      7 C20  LIG L   1      -5.022   4.149 -12.038  1.00  0.00    +0.2168  A
ATOM      8 O21  LIG L   1      -6.238   4.697 -12.048  1.00  0.00    -0.4478 OA
ATOM      9 C22  LIG L   1      -7.108   3.761 -11.667  1.00  0.00    +0.1380  A
ATOM     10 C23  LIG L   1      -8.475   3.878 -11.531  1.00  0.00    -0.0187  A
ATOM     11 C24  LIG L   1      -9.168   2.758 -11.120  1.00  0.00    -0.0582  A
ATOM     12 C25  LIG L   1      -8.484   1.590 -10.864  1.00  0.00    -0.0609  A
ATOM     13 C26  LIG L   1      -7.104   1.484 -11.004  1.00  0.00    -0.0490  A
ATOM     14 C27  LIG L   1      -6.426   2.590 -11.411  1.00  0.00    +0.0447  A
ATOM     15 C28  LIG L   1      -5.111   2.831 -11.645  1.00  0.00    +0.1051  A
ATOM     16 H51  LIG L   1      -8.980   4.815 -11.739  1.00  0.00    +0.0654  H
ATOM     17 H52  LIG L   1     -10.246   2.801 -10.992  1.00  0.00    +0.0619  H
ATOM     18 H53  LIG L   1      -9.043   0.717 -10.524  1.00  0.00    +0.0618  H
ATOM     19 H54  LIG L   1      -6.663   0.532 -10.738  1.00  0.00    +0.0625  H
ENDROOT
BRANCH 1 20
ATOM     20  C3  LIG L   1      -4.001   0.691 -11.154  1.00  0.00    +0.1068  C
ATOM     21 H43  LIG L   1      -3.155   0.139 -11.581  1.00  0.00    +0.0591  H
ATOM     22 H44  LIG L   1      -4.877   0.150 -11.509  1.00  0.00    +0.0591  H
BRANCH 20 24
ATOM     23  O1  LIG L   1      -4.755   0.382  -8.871  1.00  0.00    -0.2709 OA
ATOM     24  C2  LIG L   1      -3.878   0.682  -9.694  1.00  0.00    +0.2452  C
ATOM     25 N29  LIG L   1      -2.597   1.068  -9.149  1.00  0.00    -0.3241  N
ATOM     26 H55  LIG L   1      -1.809   0.872  -9.769  1.00  0.00    +0.1686 HD
BRANCH 25 27
ATOM     27 C30  LIG L   1      -2.337   1.105  -7.757  1.00  0.00    +0.0534  A
ATOM     28 C31  LIG L   1      -2.601   2.291  -7.058  1.00  0.00    -0.0377  A
ATOM     29 C32  LIG L   1      -2.362   2.386  -5.695  1.00  0.00    -0.0598  A
ATOM     30 C33  LIG L   1      -1.851   1.262  -5.052  1.00  0.00    -0.0611  A
ATOM     31 C34  LIG L   1      -1.595   0.097  -5.758  1.00  0.00    -0.0481  A
ATOM     32 C35  LIG L   1      -1.831  -0.002  -7.113  1.00  0.00    +0.0781  A
ATOM     33 H56  LIG L   1      -3.012   3.148  -7.587  1.00  0.00    +0.0638  H
ATOM     34 H57  LIG L   1      -2.573   3.299  -5.149  1.00  0.00    +0.0618  H
ATOM     35 H58  LIG L   1      -1.656   1.300  -3.982  1.00  0.00    +0.0618  H
ATOM     36 H59  LIG L   1      -1.200  -0.758  -5.209  1.00  0.00    +0.0624  H
BRANCH 32 37
ATOM     37 C36  LIG L   1      -1.571  -1.229  -7.904  1.00  0.00    +0.4193  C
ATOM     38 F37  LIG L   1      -0.655  -1.006  -8.914  1.00  0.00    -0.1658  F
ATOM     39 F38  LIG L   1      -2.730  -1.830  -8.330  1.00  0.00    -0.1658  F
ATOM     40 F39  LIG L   1      -0.940  -2.141  -7.042  1.00  0.00    -0.1658  F
ENDBRANCH 32 37
ENDBRANCH 25 27
ENDBRANCH 20 24
ENDBRANCH 1 20
BRANCH 4 41
ATOM     41  C8  LIG L   1      -1.330   4.400 -12.574  1.00  0.00    +0.0680  C
ATOM     42 H45  LIG L   1      -1.013   4.899 -11.647  1.00  0.00    +0.0580  H
BRANCH 41 43
ATOM     43  C9  LIG L   1      -0.365   3.279 -12.844  1.00  0.00    -0.0208  A
ATOM     44 C10  LIG L   1      -0.476   2.570 -14.047  1.00  0.00    -0.0529  A
ATOM     45 C11  LIG L   1       0.401   1.546 -14.355  1.00  0.00    -0.0158  A
ATOM     46 C12  LIG L   1       1.405   1.220 -13.456  1.00  0.00    +0.1662  A
ATOM     47 C13  LIG L   1       1.494   1.934 -12.277  1.00  0.00    +0.1666  A
ATOM     48 C14  LIG L   1       0.640   2.958 -11.937  1.00  0.00    -0.0110  A
ATOM     49 O15  LIG L   1       2.591   1.366 -11.604  1.00  0.00    -0.4526 OA
ATOM     50 C16  LIG L   1       2.915   0.130 -12.206  1.00  0.00    +0.2332  C
ATOM     51 O17  LIG L   1       2.403   0.251 -13.515  1.00  0.00    -0.4526 OA
ATOM     52 H46  LIG L   1      -1.264   2.802 -14.760  1.00  0.00    +0.0622  H
ATOM     53 H47  LIG L   1       0.313   0.993 -15.285  1.00  0.00    +0.0655  H
ATOM     54 H48  LIG L   1       0.757   3.472 -10.990  1.00  0.00    +0.0659  H
ATOM     55 H49  LIG L   1       4.000  -0.002 -12.235  1.00  0.00    +0.1166  H
ATOM     56 H50  LIG L   1       2.441  -0.702 -11.673  1.00  0.00    +0.1166  H
ENDBRANCH 41 43
BRANCH 41 57
ATOM     57 C40  LIG L   1      -1.218   5.485 -13.693  1.00  0.00    -0.0189  C
ATOM     58 H60  LIG L   1      -1.746   5.136 -14.591  1.00  0.00    +0.0296  H
ATOM     59 H61  LIG L   1      -1.732   6.399 -13.380  1.00  0.00    +0.0296  H
BRANCH 57 60
ATOM     60 C41  LIG L   1       0.192   5.928 -14.112  1.00  0.00    -0.0071  C
ATOM     61 S42  LIG L   1       1.144   6.692 -12.764  1.00  0.00    -0.1782 SA
ATOM     62 H62  LIG L   1       0.774   5.107 -14.539  1.00  0.00    +0.0375  H
ATOM     63 H63  LIG L   1       0.094   6.684 -14.899  1.00  0.00    +0.0375  H
ATOM     64 H64  LIG L   1       1.669   5.558 -12.278  1.00  0.00    +0.1016 HD
ENDBRANCH 57 60
ENDBRANCH 41 57
ENDBRANCH 4 41
TORSDOF 8
