ROOT
ATOM      1  C8  888 L   1       0.148  -0.898  -0.279  1.00  0.00    +0.2259  C
ATOM      2  O9  888 L   1      -0.106  -1.349  -1.395  1.00  0.00    -0.2730 OA
ATOM      3 N10  888 L   1      -0.822  -0.313   0.510  1.00  0.00    -0.3323  N
ATOM      4 C11  888 L   1      -0.675   0.116   1.898  1.00  0.00    +0.0223  C
ATOM      5 C12  888 L   1      -2.077   0.011   2.486  1.00  0.00    -0.0299  C
ATOM      6 C13  888 L   1      -3.012   0.355   1.326  1.00  0.00    -0.0117  C
ATOM      7 C14  888 L   1      -4.109  -0.648   0.921  1.00  0.00    -0.0453  C
ATOM      8 C15  888 L   1      -3.095  -1.350   0.004  1.00  0.00    -0.0247  C
ATOM      9 C16  888 L   1      -2.217  -0.052   0.021  1.00  0.00    +0.0732  C
ATOM     10 H31  888 L   1      -0.323   1.152   1.884  1.00  0.00    +0.0489  H
ATOM     11 H32  888 L   1       0.041  -0.502   2.446  1.00  0.00    +0.0489  H
ATOM     12 H33  888 L   1      -2.254  -1.014   2.833  1.00  0.00    +0.0286  H
ATOM     13 H34  888 L   1      -2.211   0.681   3.341  1.00  0.00    +0.0286  H
ATOM     14 H35  888 L   1      -3.358   1.393   1.376  1.00  0.00    +0.0327  H
ATOM     15 H36  888 L   1      -4.939  -0.184   0.375  1.00  0.00    +0.0270  H
ATOM     16 H37  888 L   1      -4.523  -1.261   1.726  1.00  0.00    +0.0270  H
ATOM     17 H38  888 L   1      -2.623  -2.226   0.467  1.00  0.00    +0.0291  H
ATOM     18 H39  888 L   1      -3.503  -1.664  -0.961  1.00  0.00    +0.0291  H
ENDROOT
BRANCH 1 19
ATOM     19  C7  888 L   1       1.534  -0.996   0.325  1.00  0.00    +0.0437  C
ATOM     20 H29  888 L   1       1.789  -0.043   0.801  1.00  0.00    +0.0378  H
ATOM     21 H30  888 L   1       1.520  -1.774   1.096  1.00  0.00    +0.0378  H
BRANCH 19 22
ATOM     22  C6  888 L   1       2.571  -1.339  -0.739  1.00  0.00    +0.0268  C
ATOM     23 H27  888 L   1       2.300  -2.260  -1.267  1.00  0.00    +0.0491  H
ATOM     24 H28  888 L   1       2.637  -0.535  -1.482  1.00  0.00    +0.0491  H
BRANCH 22 27
ATOM     25  C3  888 L   1       4.653  -0.520   0.309  1.00  0.00    +0.2443  C
ATOM     26  O4  888 L   1       4.260   0.634   0.416  1.00  0.00    -0.2683 OA
ATOM     27  N5  888 L   1       3.896  -1.556  -0.182  1.00  0.00    -0.3520  N
ATOM     28 H26  888 L   1       4.317  -2.464  -0.317  1.00  0.00    +0.1626 HD
BRANCH 25 30
ATOM     29  C1  888 L   1       6.902  -0.049   1.168  1.00  0.00    -0.0936  C
ATOM     30  C2  888 L   1       6.019  -0.945   0.710  1.00  0.00    -0.0047  C
ATOM     31 H23  888 L   1       7.900  -0.350   1.463  1.00  0.00    +0.0536  H
ATOM     32 H24  888 L   1       6.647   1.004   1.256  1.00  0.00    +0.0536  H
ATOM     33 H25  888 L   1       6.285  -1.991   0.627  1.00  0.00    +0.0666  H
ENDBRANCH 25 30
ENDBRANCH 22 27
ENDBRANCH 19 22
ENDBRANCH 1 19
BRANCH 9 34
ATOM     34 C17  888 L   1      -2.305   0.963  -1.212  1.00  0.00    -0.0035  A
ATOM     35 C18  888 L   1      -2.200   2.359  -1.062  1.00  0.00    -0.0535  A
ATOM     36 C19  888 L   1      -2.284   3.220  -2.155  1.00  0.00    -0.0433  A
ATOM     37 C20  888 L   1      -2.470   2.667  -3.407  1.00  0.00    +0.0276  A
ATOM     38 N21  888 L   1      -2.564   1.343  -3.625  1.00  0.00    -0.2629 NA
ATOM     39 C22  888 L   1      -2.462   0.539  -2.537  1.00  0.00    +0.0330  A
ATOM     40 H40  888 L   1      -2.043   2.783  -0.073  1.00  0.00    +0.0622  H
ATOM     41 H41  888 L   1      -2.202   4.293  -2.030  1.00  0.00    +0.0633  H
ATOM     42 H42  888 L   1      -2.543   3.291  -4.292  1.00  0.00    +0.0829  H
ATOM     43 H43  888 L   1      -2.501  -0.524  -2.769  1.00  0.00    +0.0833  H
ENDBRANCH 9 34
TORSDOF 5
