ROOT
ATOM      1 C28  MCU L   1      -4.545   0.638   1.254  1.00  0.00    -0.0223  A
ATOM      2 C29  MCU L   1      -5.721  -0.089   1.007  1.00  0.00    -0.0531  A
ATOM      3 C30  MCU L   1      -6.104  -0.396  -0.301  1.00  0.00    -0.0160  A
ATOM      4 C31  MCU L   1      -5.314   0.017  -1.372  1.00  0.00    +0.1621  A
ATOM      5 C32  MCU L   1      -4.125   0.712  -1.136  1.00  0.00    +0.1624  A
ATOM      6 C33  MCU L   1      -3.749   1.035   0.167  1.00  0.00    -0.0114  A
ATOM      7 O34  MCU L   1      -3.275   1.112  -2.136  1.00  0.00    -0.4849 OA
ATOM      8 C35  MCU L   1      -3.553   0.416  -3.357  1.00  0.00    +0.1237  C
ATOM      9 C36  MCU L   1      -5.047   0.413  -3.640  1.00  0.00    +0.1237  C
ATOM     10 O37  MCU L   1      -5.758  -0.310  -2.628  1.00  0.00    -0.4849 OA
ATOM     11 H54  MCU L   1      -6.342  -0.431   1.834  1.00  0.00    +0.0622  H
ATOM     12 H55  MCU L   1      -7.017  -0.955  -0.483  1.00  0.00    +0.0655  H
ATOM     13 H56  MCU L   1      -2.818   1.574   0.330  1.00  0.00    +0.0659  H
ATOM     14 H57  MCU L   1      -3.157  -0.603  -3.277  1.00  0.00    +0.0731  H
ATOM     15 H58  MCU L   1      -3.017   0.930  -4.160  1.00  0.00    +0.0731  H
ATOM     16 H59  MCU L   1      -5.250  -0.074  -4.599  1.00  0.00    +0.0731  H
ATOM     17 H60  MCU L   1      -5.448   1.434  -3.685  1.00  0.00    +0.0731  H
ENDROOT
BRANCH 1 18
ATOM     18 C27  MCU L   1      -4.114   0.946   2.666  1.00  0.00    +0.0705  C
ATOM     19 H52  MCU L   1      -3.459   1.825   2.697  1.00  0.00    +0.0560  H
ATOM     20 H53  MCU L   1      -4.982   1.170   3.298  1.00  0.00    +0.0560  H
BRANCH 18 30
ATOM     21  O1  MCU L   1      -0.385  -3.310   4.489  1.00  0.00    -0.2653 OA
ATOM     22  C2  MCU L   1      -0.667  -2.296   3.862  1.00  0.00    +0.2810  A
ATOM     23  N3  MCU L   1       0.272  -1.632   3.079  1.00  0.00    -0.3087  N
ATOM     24  C4  MCU L   1       0.025  -0.445   2.396  1.00  0.00    +0.1170  A
ATOM     25 N21  MCU L   1      -1.131   0.160   2.383  1.00  0.00    -0.2126 NA
ATOM     26 C22  MCU L   1      -2.077  -0.491   3.104  1.00  0.00    +0.1859  A
ATOM     27 C23  MCU L   1      -1.948  -1.646   3.837  1.00  0.00    +0.1954  A
ATOM     28 N24  MCU L   1      -3.128  -1.972   4.432  1.00  0.00    -0.1223 NA
ATOM     29 N25  MCU L   1      -4.020  -1.048   4.075  1.00  0.00    -0.0628 NA
ATOM     30 N26  MCU L   1      -3.396  -0.168   3.250  1.00  0.00    -0.2220  N
ATOM     31 H38  MCU L   1       1.186  -2.060   3.084  1.00  0.00    +0.1701 HD
BRANCH 24 32
ATOM     32  C5  MCU L   1       1.184   0.149   1.608  1.00  0.00    +0.0355  C
ATOM     33  C6  MCU L   1       2.437   0.356   2.474  1.00  0.00    -0.0401  C
ATOM     34  C7  MCU L   1       3.580  -0.560   2.050  1.00  0.00    -0.0339  C
ATOM     35  C8  MCU L   1       3.921  -0.389   0.571  1.00  0.00    +0.0295  C
ATOM     36  N9  MCU L   1       2.706  -0.256  -0.286  1.00  0.00    -0.2963 NA
ATOM     37 C20  MCU L   1       1.450  -0.710   0.367  1.00  0.00    +0.0391  C
ATOM     38 H39  MCU L   1       0.861   1.144   1.271  1.00  0.00    +0.0396  H
ATOM     39 H40  MCU L   1       2.224   0.218   3.541  1.00  0.00    +0.0273  H
ATOM     40 H41  MCU L   1       2.771   1.396   2.366  1.00  0.00    +0.0273  H
ATOM     41 H42  MCU L   1       3.305  -1.603   2.245  1.00  0.00    +0.0283  H
ATOM     42 H43  MCU L   1       4.470  -0.357   2.655  1.00  0.00    +0.0283  H
ATOM     43 H44  MCU L   1       4.509   0.526   0.447  1.00  0.00    +0.0495  H
ATOM     44 H45  MCU L   1       4.544  -1.232   0.258  1.00  0.00    +0.0495  H
ATOM     45 H50  MCU L   1       0.600  -0.599  -0.315  1.00  0.00    +0.0502  H
ATOM     46 H51  MCU L   1       1.527  -1.776   0.612  1.00  0.00    +0.0502  H
BRANCH 36 47
ATOM     47 S10  MCU L   1       2.879  -0.826  -1.893  1.00  0.00    +0.2613  S
ATOM     48 O11  MCU L   1       1.690  -0.465  -2.637  1.00  0.00    -0.2001 OA
ATOM     49 O12  MCU L   1       3.323  -2.202  -1.809  1.00  0.00    -0.2001 OA
BRANCH 47 50
ATOM     50 C13  MCU L   1       4.212   0.167  -2.512  1.00  0.00    +0.0881  A
ATOM     51 C14  MCU L   1       3.997   1.535  -2.724  1.00  0.00    -0.0417  A
ATOM     52 C15  MCU L   1       5.039   2.326  -3.208  1.00  0.00    -0.0591  A
ATOM     53 C16  MCU L   1       6.282   1.749  -3.480  1.00  0.00    -0.0433  A
ATOM     54 C17  MCU L   1       6.480   0.382  -3.273  1.00  0.00    +0.0422  A
ATOM     55 CL18 MCU L   1       8.016  -0.317  -3.612  1.00  0.00    -0.0835 Cl
ATOM     56 C19  MCU L   1       5.448  -0.420  -2.792  1.00  0.00    -0.0234  A
ATOM     57 H46  MCU L   1       3.026   1.981  -2.516  1.00  0.00    +0.0631  H
ATOM     58 H47  MCU L   1       4.883   3.389  -3.377  1.00  0.00    +0.0618  H
ATOM     59 H48  MCU L   1       7.092   2.369  -3.858  1.00  0.00    +0.0632  H
ATOM     60 H49  MCU L   1       5.608  -1.486  -2.640  1.00  0.00    +0.0645  H
ENDBRANCH 47 50
ENDBRANCH 36 47
ENDBRANCH 24 32
ENDBRANCH 18 30
ENDBRANCH 1 18
TORSDOF 5
