ROOT
ATOM      1 C30  WH0 L   1      -1.078   2.559  -0.722  1.00  0.00    -0.0133  A
ATOM      2 C31  WH0 L   1      -0.743   3.091  -1.989  1.00  0.00    -0.0519  A
ATOM      3 C32  WH0 L   1      -0.127   4.349  -2.095  1.00  0.00    -0.0374  A
ATOM      4 C33  WH0 L   1       0.142   5.053  -0.923  1.00  0.00    +0.0454  A
ATOM      5 C34  WH0 L   1      -0.180   4.544   0.316  1.00  0.00    -0.0145  A
ATOM      6 C35  WH0 L   1      -0.795   3.300   0.445  1.00  0.00    -0.0483  A
ATOM      7 C36  WH0 L   1       0.240   5.483   1.400  1.00  0.00    +0.0535  C
ATOM      8 C37  WH0 L   1       0.840   6.579   0.569  1.00  0.00    +0.2296  C
ATOM      9 O38  WH0 L   1       1.353   7.626   1.044  1.00  0.00    -0.2725 OA
ATOM     10 N39  WH0 L   1       0.776   6.315  -0.829  1.00  0.00    -0.3256  N
ATOM     11 H66  WH0 L   1      -0.934   2.522  -2.890  1.00  0.00    +0.0624  H
ATOM     12 H67  WH0 L   1       0.142   4.754  -3.062  1.00  0.00    +0.0638  H
ATOM     13 H68  WH0 L   1      -1.042   2.916   1.427  1.00  0.00    +0.0627  H
ATOM     14 H69  WH0 L   1      -0.638   5.850   1.973  1.00  0.00    +0.0410  H
ATOM     15 H70  WH0 L   1       1.004   5.016   2.058  1.00  0.00    +0.0410  H
ATOM     16 H71  WH0 L   1       1.136   6.910  -1.608  1.00  0.00    +0.1686 HD
ENDROOT
BRANCH 1 25
ATOM     17 C14  WH0 L   1      -1.343   0.167   0.241  1.00  0.00    +0.1015  A
ATOM     18 N15  WH0 L   1      -2.214  -0.857   0.085  1.00  0.00    -0.1627 NA
ATOM     19 N16  WH0 L   1      -3.093  -0.484  -0.830  1.00  0.00    -0.1987  N
ATOM     20 C17  WH0 L   1      -4.144  -1.208  -1.308  1.00  0.00    +0.2282  A
ATOM     21 N25  WH0 L   1      -4.918  -0.651  -2.284  1.00  0.00    -0.2207 NA
ATOM     22 C26  WH0 L   1      -4.671   0.607  -2.755  1.00  0.00    +0.0334  A
ATOM     23 C27  WH0 L   1      -3.600   1.356  -2.250  1.00  0.00    -0.0173  A
ATOM     24 C28  WH0 L   1      -2.808   0.747  -1.280  1.00  0.00    +0.0803  A
ATOM     25 C29  WH0 L   1      -1.691   1.219  -0.616  1.00  0.00    +0.0353  A
ATOM     26 H64  WH0 L   1      -5.308   1.025  -3.523  1.00  0.00    +0.0831  H
ATOM     27 H65  WH0 L   1      -3.404   2.358  -2.608  1.00  0.00    +0.0654  H
BRANCH 17 30
ATOM     28 C11  WH0 L   1       2.122   0.644   1.730  1.00  0.00    -0.0115  A
ATOM     29 C12  WH0 L   1       1.038   0.700   0.841  1.00  0.00    -0.0466  A
ATOM     30 C13  WH0 L   1      -0.191   0.101   1.167  1.00  0.00    +0.0032  A
ATOM     31 C40  WH0 L   1      -0.308  -0.605   2.375  1.00  0.00    -0.0498  A
ATOM     32 C41  WH0 L   1       0.775  -0.683   3.254  1.00  0.00    -0.0256  A
ATOM     33 C42  WH0 L   1       1.987  -0.063   2.938  1.00  0.00    +0.1266  A
ATOM     34 F43  WH0 L   1       3.029  -0.164   3.802  1.00  0.00    -0.2052  F
ATOM     35 H53  WH0 L   1       1.165   1.194  -0.114  1.00  0.00    +0.0628  H
ATOM     36 H72  WH0 L   1      -1.240  -1.088   2.641  1.00  0.00    +0.0625  H
ATOM     37 H73  WH0 L   1       0.675  -1.228   4.184  1.00  0.00    +0.0646  H
BRANCH 28 38
ATOM     38 C10  WH0 L   1       3.435   1.276   1.347  1.00  0.00    -0.0234  C
ATOM     39 H51  WH0 L   1       3.247   2.185   0.733  1.00  0.00    +0.0315  H
ATOM     40 H52  WH0 L   1       3.982   1.606   2.257  1.00  0.00    +0.0315  H
BRANCH 38 41
ATOM     41  C9  WH0 L   1       4.294   0.285   0.556  1.00  0.00    -0.0314  C
ATOM     42 H49  WH0 L   1       3.741  -0.042  -0.353  1.00  0.00    +0.0285  H
ATOM     43 H50  WH0 L   1       4.492  -0.611   1.184  1.00  0.00    +0.0285  H
BRANCH 41 44
ATOM     44  C8  WH0 L   1       5.622   0.918   0.131  1.00  0.00    +0.0187  C
ATOM     45 H47  WH0 L   1       6.203   1.244   1.021  1.00  0.00    +0.0486  H
ATOM     46 H48  WH0 L   1       5.414   1.816  -0.491  1.00  0.00    +0.0486  H
BRANCH 44 49
ATOM     47  C5  WH0 L   1       7.080  -1.155  -0.058  1.00  0.00    +0.2618  C
ATOM     48  O6  WH0 L   1       7.106  -1.265   1.200  1.00  0.00    -0.2669 OA
ATOM     49  N7  WH0 L   1       6.408  -0.032  -0.655  1.00  0.00    -0.3514  N
ATOM     50 H46  WH0 L   1       6.509   0.151  -1.678  1.00  0.00    +0.1626 HD
BRANCH 47 52
ATOM     51  C1  WH0 L   1       8.439  -3.182  -0.356  1.00  0.00    -0.0760  C
ATOM     52  C2  WH0 L   1       7.740  -2.182  -0.901  1.00  0.00    +0.1085  C
ATOM     53 H44  WH0 L   1       8.912  -3.933  -0.979  1.00  0.00    +0.0549  H
ATOM     54 H45  WH0 L   1       8.556  -3.272   0.717  1.00  0.00    +0.0549  H
BRANCH 52 55
ATOM     55  C3  WH0 L   1       7.620  -2.127  -2.338  1.00  0.00    +0.1040  C
ATOM     56  N4  WH0 L   1       7.523  -2.083  -3.491  1.00  0.00    -0.1907 NA
ENDBRANCH 52 55
ENDBRANCH 47 52
ENDBRANCH 44 49
ENDBRANCH 41 44
ENDBRANCH 38 41
ENDBRANCH 28 38
ENDBRANCH 17 30
BRANCH 20 57
ATOM     57 N18  WH0 L   1      -4.435  -2.533  -0.828  1.00  0.00    -0.3401  N
ATOM     58 C19  WH0 L   1      -4.780  -3.574  -1.807  1.00  0.00    +0.0237  C
ATOM     59 C20  WH0 L   1      -4.969  -4.936  -1.133  1.00  0.00    -0.0090  C
ATOM     60 C21  WH0 L   1      -5.946  -4.815   0.044  1.00  0.00    +0.0585  C
ATOM     61 O22  WH0 L   1      -6.039  -6.058   0.691  1.00  0.00    -0.3917 OA
ATOM     62 C23  WH0 L   1      -5.532  -3.712   1.055  1.00  0.00    -0.0090  C
ATOM     63 C24  WH0 L   1      -4.335  -2.861   0.601  1.00  0.00    +0.0237  C
ATOM     64 H54  WH0 L   1      -3.971  -3.654  -2.566  1.00  0.00    +0.0489  H
ATOM     65 H55  WH0 L   1      -5.721  -3.292  -2.327  1.00  0.00    +0.0489  H
ATOM     66 H56  WH0 L   1      -5.364  -5.663  -1.876  1.00  0.00    +0.0307  H
ATOM     67 H57  WH0 L   1      -3.987  -5.314  -0.772  1.00  0.00    +0.0307  H
ATOM     68 H58  WH0 L   1      -6.944  -4.551  -0.384  1.00  0.00    +0.0594  H
ATOM     69 H59  WH0 L   1      -6.867  -6.033   1.239  1.00  0.00    +0.2098 HD
ATOM     70 H60  WH0 L   1      -6.401  -3.038   1.219  1.00  0.00    +0.0307  H
ATOM     71 H61  WH0 L   1      -5.284  -4.162   2.041  1.00  0.00    +0.0307  H
ATOM     72 H62  WH0 L   1      -3.391  -3.420   0.781  1.00  0.00    +0.0489  H
ATOM     73 H63  WH0 L   1      -4.313  -1.936   1.218  1.00  0.00    +0.0489  H
ENDBRANCH 20 57
ENDBRANCH 1 25
TORSDOF 9
