ROOT
ATOM      1 N24  CHE L   1      -4.422   1.091  -0.399  1.00  0.00    -0.3261  N
ATOM      2 C25  CHE L   1      -3.838   1.038  -1.644  1.00  0.00    +0.0076  A
ATOM      3 C26  CHE L   1      -4.571   1.836  -2.498  1.00  0.00    -0.0320  A
ATOM      4 C27  CHE L   1      -5.626   2.416  -1.745  1.00  0.00    +0.0557  A
ATOM      5 C28  CHE L   1      -6.685   3.287  -1.953  1.00  0.00    +0.1416  A
ATOM      6 CL29 CHE L   1      -6.929   3.933  -3.504  1.00  0.00    -0.0612 Cl
ATOM      7 N30  CHE L   1      -7.519   3.654  -0.971  1.00  0.00    -0.2232 NA
ATOM      8 C31  CHE L   1      -7.274   3.127   0.240  1.00  0.00    +0.1199  A
ATOM      9 N32  CHE L   1      -6.291   2.280   0.595  1.00  0.00    -0.2176 NA
ATOM     10 C33  CHE L   1      -5.500   1.949  -0.443  1.00  0.00    +0.1457  A
ATOM     11 H61  CHE L   1      -2.962   0.433  -1.839  1.00  0.00    +0.0810  H
ATOM     12 H62  CHE L   1      -4.366   1.987  -3.551  1.00  0.00    +0.0640  H
ATOM     13 H63  CHE L   1      -7.955   3.423   1.034  1.00  0.00    +0.1048  H
ENDROOT
BRANCH 1 16
ATOM     14 C21  CHE L   1      -1.675  -0.086   1.623  1.00  0.00    +0.0072  C
ATOM     15 C22  CHE L   1      -2.689   1.056   1.397  1.00  0.00    -0.0227  C
ATOM     16 C23  CHE L   1      -3.963   0.413   0.805  1.00  0.00    +0.0646  C
ATOM     17 C34  CHE L   1      -3.641  -1.081   0.625  1.00  0.00    +0.1020  C
ATOM     18 O35  CHE L   1      -4.781  -1.903   0.876  1.00  0.00    -0.3872 OA
ATOM     19 C36  CHE L   1      -2.557  -1.336   1.678  1.00  0.00    +0.0875  C
ATOM     20 O37  CHE L   1      -3.195  -1.406   2.966  1.00  0.00    -0.3888 OA
ATOM     21 H57  CHE L   1      -1.172   0.072   2.585  1.00  0.00    +0.0344  H
ATOM     22 H58  CHE L   1      -2.945   1.505   2.365  1.00  0.00    +0.0290  H
ATOM     23 H59  CHE L   1      -2.279   1.862   0.778  1.00  0.00    +0.0290  H
ATOM     24 H60  CHE L   1      -4.773   0.505   1.541  1.00  0.00    +0.0555  H
ATOM     25 H64  CHE L   1      -3.269  -1.315  -0.377  1.00  0.00    +0.0640  H
ATOM     26 H65  CHE L   1      -4.856  -1.949   1.852  1.00  0.00    +0.2100 HD
ATOM     27 H66  CHE L   1      -2.041  -2.286   1.524  1.00  0.00    +0.0623  H
ATOM     28 H67  CHE L   1      -2.523  -1.716   3.599  1.00  0.00    +0.2099 HD
BRANCH 14 29
ATOM     29 C20  CHE L   1      -0.621  -0.097   0.503  1.00  0.00    +0.0274  C
ATOM     30 H55  CHE L   1      -1.101  -0.204  -0.476  1.00  0.00    +0.0492  H
ATOM     31 H56  CHE L   1      -0.112   0.875   0.471  1.00  0.00    +0.0492  H
BRANCH 29 34
ATOM     32  C5  CHE L   1       0.252  -2.313  -0.044  1.00  0.00    +0.2296  C
ATOM     33  O6  CHE L   1      -0.745  -2.432  -0.770  1.00  0.00    -0.2724 OA
ATOM     34  N7  CHE L   1       0.402  -1.138   0.687  1.00  0.00    -0.3305  N
BRANCH 32 36
ATOM     35  C1  CHE L   1       0.796  -4.581  -0.962  1.00  0.00    -0.0515  C
ATOM     36  C2  CHE L   1       1.235  -3.512   0.074  1.00  0.00    +0.0409  C
ATOM     37  C3  CHE L   1       1.120  -4.171   1.458  1.00  0.00    -0.0515  C
ATOM     38  C4  CHE L   1       2.686  -3.149  -0.270  1.00  0.00    -0.0515  C
ATOM     39 H38  CHE L   1       0.831  -4.182  -1.983  1.00  0.00    +0.0240  H
ATOM     40 H39  CHE L   1      -0.229  -4.923  -0.776  1.00  0.00    +0.0240  H
ATOM     41 H40  CHE L   1       1.444  -5.464  -0.928  1.00  0.00    +0.0240  H
ATOM     42 H41  CHE L   1       1.490  -3.542   2.269  1.00  0.00    +0.0240  H
ATOM     43 H42  CHE L   1       1.686  -5.108   1.497  1.00  0.00    +0.0240  H
ATOM     44 H43  CHE L   1       0.074  -4.402   1.692  1.00  0.00    +0.0240  H
ATOM     45 H44  CHE L   1       3.223  -2.708   0.571  1.00  0.00    +0.0240  H
ATOM     46 H45  CHE L   1       2.729  -2.446  -1.109  1.00  0.00    +0.0240  H
ATOM     47 H46  CHE L   1       3.262  -4.037  -0.554  1.00  0.00    +0.0240  H
ENDBRANCH 32 36
BRANCH 34 48
ATOM     48  C8  CHE L   1       1.545  -0.757   1.514  1.00  0.00    +0.0831  C
ATOM     49 H47  CHE L   1       1.172  -0.190   2.374  1.00  0.00    +0.0626  H
ATOM     50 H48  CHE L   1       2.043  -1.629   1.925  1.00  0.00    +0.0626  H
BRANCH 48 51
ATOM     51  C9  CHE L   1       2.501   0.052   0.750  1.00  0.00    -0.0755  C
ATOM     52 C10  CHE L   1       3.282   0.703   0.109  1.00  0.00    -0.0645  C
BRANCH 52 53
ATOM     53 C11  CHE L   1       4.208   1.463  -0.673  1.00  0.00    +0.0257  A
ATOM     54 C12  CHE L   1       3.815   1.975  -1.912  1.00  0.00    -0.0463  A
ATOM     55 C13  CHE L   1       4.722   2.695  -2.691  1.00  0.00    -0.0599  A
ATOM     56 C14  CHE L   1       6.020   2.910  -2.227  1.00  0.00    -0.0494  A
ATOM     57 C15  CHE L   1       6.415   2.412  -0.978  1.00  0.00    +0.0399  A
ATOM     58 C19  CHE L   1       5.507   1.678  -0.204  1.00  0.00    -0.0340  A
ATOM     59 H49  CHE L   1       2.806   1.806  -2.284  1.00  0.00    +0.0630  H
ATOM     60 H50  CHE L   1       4.421   3.085  -3.661  1.00  0.00    +0.0618  H
ATOM     61 H51  CHE L   1       6.727   3.466  -2.842  1.00  0.00    +0.0625  H
ATOM     62 H54  CHE L   1       5.809   1.245   0.746  1.00  0.00    +0.0637  H
BRANCH 57 63
ATOM     63 C16  CHE L   1       7.810   2.661  -0.531  1.00  0.00    +0.2495  C
ATOM     64 N17  CHE L   1       8.062   2.612   0.812  1.00  0.00    -0.3659  N
ATOM     65 O18  CHE L   1       8.702   2.935  -1.325  1.00  0.00    -0.2678 OA
ATOM     66 H52  CHE L   1       7.325   2.698   1.497  1.00  0.00    +0.1589 HD
ATOM     67 H53  CHE L   1       8.986   2.917   1.091  1.00  0.00    +0.1589 HD
ENDBRANCH 57 63
ENDBRANCH 52 53
ENDBRANCH 48 51
ENDBRANCH 34 48
ENDBRANCH 29 34
ENDBRANCH 14 29
ENDBRANCH 1 16
TORSDOF 8
