ROOT
ATOM      1  C5  CHE L   1      -2.374   0.102   0.503  1.00  0.00    +0.0019  A
ATOM      2  C6  CHE L   1      -2.444  -0.472   1.785  1.00  0.00    -0.0360  A
ATOM      3  C7  CHE L   1      -1.374  -1.188   2.319  1.00  0.00    +0.0453  A
ATOM      4 CL8  CHE L   1      -1.571  -1.835   3.910  1.00  0.00    -0.0832 Cl
ATOM      5  C9  CHE L   1      -0.194  -1.361   1.584  1.00  0.00    -0.0137  A
ATOM      6 C10  CHE L   1      -0.072  -0.744   0.314  1.00  0.00    +0.0624  A
ATOM      7 C11  CHE L   1      -1.177  -0.047  -0.238  1.00  0.00    +0.0592  A
ATOM      8 CL12 CHE L   1      -1.150   0.585  -1.857  1.00  0.00    -0.0824 Cl
ATOM      9 C13  CHE L   1       1.257  -0.826  -0.396  1.00  0.00    +0.2566  C
ATOM     10 O14  CHE L   1       1.524  -0.070  -1.321  1.00  0.00    -0.2673 OA
ATOM     11 N15  CHE L   1       2.188  -1.765   0.070  1.00  0.00    -0.3335  N
ATOM     12 C26  CHE L   1       1.750  -2.786   0.999  1.00  0.00    +0.0259  C
ATOM     13 C27  CHE L   1       0.960  -2.160   2.137  1.00  0.00    -0.0078  C
ATOM     14 H40  CHE L   1      -3.351  -0.362   2.379  1.00  0.00    +0.0636  H
ATOM     15 H51  CHE L   1       2.622  -3.304   1.411  1.00  0.00    +0.0492  H
ATOM     16 H52  CHE L   1       1.144  -3.512   0.445  1.00  0.00    +0.0492  H
ATOM     17 H53  CHE L   1       0.618  -2.972   2.786  1.00  0.00    +0.0331  H
ATOM     18 H54  CHE L   1       1.596  -1.491   2.730  1.00  0.00    +0.0331  H
ENDROOT
BRANCH 1 19
ATOM     19  C4  CHE L   1      -3.592   0.840  -0.048  1.00  0.00    +0.0896  C
ATOM     20 H39  CHE L   1      -3.285   1.651  -0.715  1.00  0.00    +0.0650  H
BRANCH 19 21
ATOM     21  O3  CHE L   1      -4.382   1.393   1.013  1.00  0.00    -0.3719 OA
BRANCH 21 23
ATOM     22  C1  CHE L   1      -4.658   3.750   0.502  1.00  0.00    -0.0415  C
ATOM     23  C2  CHE L   1      -3.999   2.716   1.397  1.00  0.00    +0.0456  C
ATOM     24 H34  CHE L   1      -4.318   3.658  -0.535  1.00  0.00    +0.0252  H
ATOM     25 H35  CHE L   1      -5.744   3.615   0.493  1.00  0.00    +0.0252  H
ATOM     26 H36  CHE L   1      -4.430   4.762   0.849  1.00  0.00    +0.0252  H
ATOM     27 H37  CHE L   1      -2.907   2.825   1.400  1.00  0.00    +0.0557  H
ATOM     28 H38  CHE L   1      -4.348   2.862   2.425  1.00  0.00    +0.0557  H
ENDBRANCH 21 23
ENDBRANCH 19 21
BRANCH 19 29
ATOM     29 C28  CHE L   1      -4.471  -0.145  -0.824  1.00  0.00    +0.0167  C
ATOM     30 C29  CHE L   1      -5.766   0.468  -1.429  1.00  0.00    +0.0563  C
ATOM     31 S30  CHE L   1      -6.584  -1.088  -1.232  1.00  0.00    +0.1520  S
ATOM     32 O31  CHE L   1      -6.330  -1.973  -2.349  1.00  0.00    -0.2270 OA
ATOM     33 O32  CHE L   1      -7.889  -0.936  -0.625  1.00  0.00    -0.2270 OA
ATOM     34 C33  CHE L   1      -5.301  -1.188  -0.018  1.00  0.00    +0.0563  C
ATOM     35 H55  CHE L   1      -3.885  -0.637  -1.616  1.00  0.00    +0.0348  H
ATOM     36 H56  CHE L   1      -5.680   0.795  -2.468  1.00  0.00    +0.0429  H
ATOM     37 H57  CHE L   1      -6.247   1.257  -0.841  1.00  0.00    +0.0429  H
ATOM     38 H58  CHE L   1      -4.846  -2.179   0.062  1.00  0.00    +0.0429  H
ATOM     39 H59  CHE L   1      -5.652  -0.872   0.969  1.00  0.00    +0.0429  H
ENDBRANCH 19 29
ENDBRANCH 1 19
BRANCH 11 40
ATOM     40 C16  CHE L   1       3.333  -2.084  -0.794  1.00  0.00    +0.0519  C
ATOM     41 H41  CHE L   1       3.860  -2.958  -0.395  1.00  0.00    +0.0540  H
ATOM     42 H42  CHE L   1       2.911  -2.376  -1.761  1.00  0.00    +0.0540  H
BRANCH 40 43
ATOM     43 C17  CHE L   1       4.321  -0.952  -0.910  1.00  0.00    +0.0391  A
ATOM     44 C18  CHE L   1       4.804  -0.160   0.076  1.00  0.00    -0.0388  A
ATOM     45 C19  CHE L   1       4.503  -0.321   1.538  1.00  0.00    -0.0392  C
ATOM     46 C20  CHE L   1       5.698   0.946  -0.241  1.00  0.00    -0.0393  A
ATOM     47 C21  CHE L   1       6.081   1.188  -1.503  1.00  0.00    +0.0162  A
ATOM     48 C22  CHE L   1       6.984   2.314  -1.900  1.00  0.00    -0.0244  C
ATOM     49 N23  CHE L   1       5.634   0.363  -2.504  1.00  0.00    -0.3262  N
ATOM     50 C24  CHE L   1       4.804  -0.712  -2.313  1.00  0.00    +0.2540  A
ATOM     51 O25  CHE L   1       4.512  -1.452  -3.248  1.00  0.00    -0.2675 OA
ATOM     52 H43  CHE L   1       3.743   0.403   1.855  1.00  0.00    +0.0278  H
ATOM     53 H44  CHE L   1       5.404  -0.162   2.144  1.00  0.00    +0.0278  H
ATOM     54 H45  CHE L   1       4.154  -1.326   1.785  1.00  0.00    +0.0278  H
ATOM     55 H46  CHE L   1       6.035   1.586   0.569  1.00  0.00    +0.0637  H
ATOM     56 H47  CHE L   1       7.874   1.929  -2.409  1.00  0.00    +0.0292  H
ATOM     57 H48  CHE L   1       6.465   2.997  -2.580  1.00  0.00    +0.0292  H
ATOM     58 H49  CHE L   1       7.319   2.894  -1.035  1.00  0.00    +0.0292  H
ATOM     59 H50  CHE L   1       5.924   0.516  -3.461  1.00  0.00    +0.1686 HD
ENDBRANCH 40 43
ENDBRANCH 11 40
TORSDOF 6
