ROOT
ATOM      1  C9  WH0 L   1       1.050   0.048   1.005  1.00  0.00    +0.0908  C
ATOM      2 C10  WH0 L   1       1.280   1.392   1.756  1.00  0.00    -0.0337  C
ATOM      3 C11  WH0 L   1       1.533  -1.113   1.911  1.00  0.00    -0.0036  C
ATOM      4 C12  WH0 L   1       1.175  -2.483   1.316  1.00  0.00    +0.0325  C
ATOM      5 N13  WH0 L   1      -0.276  -2.639   1.100  1.00  0.00    -0.2915 NA
ATOM      6 C18  WH0 L   1      -0.821  -1.550   0.250  1.00  0.00    +0.0880  C
ATOM      7 C25  WH0 L   1      -0.483  -0.126   0.788  1.00  0.00    +0.0837  C
ATOM      8 H44  WH0 L   1       0.958   2.257   1.138  1.00  0.00    +0.0258  H
ATOM      9 H45  WH0 L   1       0.690   1.419   2.697  1.00  0.00    +0.0258  H
ATOM     10 H46  WH0 L   1       2.344   1.522   2.043  1.00  0.00    +0.0258  H
ATOM     11 H47  WH0 L   1       2.630  -1.069   2.054  1.00  0.00    +0.0311  H
ATOM     12 H48  WH0 L   1       1.083  -1.026   2.922  1.00  0.00    +0.0311  H
ATOM     13 H49  WH0 L   1       1.570  -3.289   1.966  1.00  0.00    +0.0496  H
ATOM     14 H50  WH0 L   1       1.702  -2.608   0.345  1.00  0.00    +0.0496  H
ATOM     15 H54  WH0 L   1      -0.292  -1.622  -0.728  1.00  0.00    +0.0602  H
ATOM     16 H60  WH0 L   1      -0.986   0.018   1.763  1.00  0.00    +0.0575  H
ENDROOT
BRANCH 1 17
ATOM     17  O8  WH0 L   1       1.673  -0.065  -0.284  1.00  0.00    -0.3697 OA
BRANCH 17 18
ATOM     18  C7  WH0 L   1       2.806   0.746  -0.552  1.00  0.00    +0.0658  C
ATOM     19 H42  WH0 L   1       2.907   0.776  -1.657  1.00  0.00    +0.0578  H
ATOM     20 H43  WH0 L   1       2.683   1.809  -0.264  1.00  0.00    +0.0578  H
BRANCH 18 21
ATOM     21  C6  WH0 L   1       4.096   0.149   0.022  1.00  0.00    +0.0418  C
ATOM     22 H40  WH0 L   1       4.127  -0.948  -0.157  1.00  0.00    +0.0509  H
ATOM     23 H41  WH0 L   1       4.131   0.322   1.116  1.00  0.00    +0.0509  H
BRANCH 21 26
ATOM     24  C3  WH0 L   1       5.696   0.484  -1.923  1.00  0.00    +0.2444  C
ATOM     25  O4  WH0 L   1       5.178  -0.484  -2.543  1.00  0.00    -0.2683 OA
ATOM     26  N5  WH0 L   1       5.266   0.784  -0.583  1.00  0.00    -0.3503  N
ATOM     27 H39  WH0 L   1       5.849   1.402   0.024  1.00  0.00    +0.1627 HD
BRANCH 24 29
ATOM     28  C1  WH0 L   1       7.175   2.454  -2.177  1.00  0.00    -0.0936  C
ATOM     29  C2  WH0 L   1       6.753   1.262  -2.598  1.00  0.00    -0.0047  C
ATOM     30 H36  WH0 L   1       7.944   2.975  -2.731  1.00  0.00    +0.0536  H
ATOM     31 H37  WH0 L   1       6.756   2.942  -1.308  1.00  0.00    +0.0536  H
ATOM     32 H38  WH0 L   1       7.182   0.859  -3.507  1.00  0.00    +0.0666  H
ENDBRANCH 24 29
ENDBRANCH 21 26
ENDBRANCH 18 21
ENDBRANCH 17 18
ENDBRANCH 1 17
BRANCH 5 33
ATOM     33 S14  WH0 L   1      -1.161  -2.956   2.590  1.00  0.00    +0.2299  S
ATOM     34 C15  WH0 L   1      -0.305  -4.128   3.625  1.00  0.00    +0.0573  C
ATOM     35 O16  WH0 L   1      -2.497  -3.557   2.255  1.00  0.00    -0.2056 OA
ATOM     36 O17  WH0 L   1      -1.377  -1.699   3.383  1.00  0.00    -0.2056 OA
ATOM     37 H51  WH0 L   1       0.022  -4.996   3.017  1.00  0.00    +0.0407  H
ATOM     38 H52  WH0 L   1       0.577  -3.645   4.096  1.00  0.00    +0.0407  H
ATOM     39 H53  WH0 L   1      -0.988  -4.480   4.426  1.00  0.00    +0.0407  H
ENDBRANCH 5 33
BRANCH 6 40
ATOM     40 C19  WH0 L   1      -2.292  -1.772  -0.091  1.00  0.00    -0.0224  A
ATOM     41 C20  WH0 L   1      -3.340  -1.144   0.616  1.00  0.00    -0.0565  A
ATOM     42 C21  WH0 L   1      -4.672  -1.379   0.266  1.00  0.00    -0.0614  A
ATOM     43 C22  WH0 L   1      -4.979  -2.252  -0.779  1.00  0.00    -0.0617  A
ATOM     44 C23  WH0 L   1      -3.955  -2.898  -1.472  1.00  0.00    -0.0614  A
ATOM     45 C24  WH0 L   1      -2.620  -2.665  -1.128  1.00  0.00    -0.0565  A
ATOM     46 H55  WH0 L   1      -3.141  -0.480   1.444  1.00  0.00    +0.0621  H
ATOM     47 H56  WH0 L   1      -5.468  -0.887   0.810  1.00  0.00    +0.0618  H
ATOM     48 H57  WH0 L   1      -6.012  -2.432  -1.049  1.00  0.00    +0.0618  H
ATOM     49 H58  WH0 L   1      -4.195  -3.581  -2.277  1.00  0.00    +0.0618  H
ATOM     50 H59  WH0 L   1      -1.840  -3.180  -1.675  1.00  0.00    +0.0621  H
ENDBRANCH 6 40
BRANCH 7 51
ATOM     51 N26  WH0 L   1      -0.972   0.879  -0.167  1.00  0.00    -0.3442  N
ATOM     52 C27  WH0 L   1      -1.873   1.934   0.205  1.00  0.00    +0.2524  C
ATOM     53 O28  WH0 L   1      -1.974   2.276   1.415  1.00  0.00    -0.2676 OA
ATOM     54 H61  WH0 L   1      -0.650   0.818  -1.159  1.00  0.00    +0.1631 HD
BRANCH 52 55
ATOM     55 C29  WH0 L   1      -2.680   2.634  -0.820  1.00  0.00    +0.0391  A
ATOM     56 C30  WH0 L   1      -3.017   1.998  -2.029  1.00  0.00    -0.0467  A
ATOM     57 C31  WH0 L   1      -3.787   2.664  -2.988  1.00  0.00    -0.0257  A
ATOM     58 C32  WH0 L   1      -4.231   3.967  -2.749  1.00  0.00    +0.1234  A
ATOM     59 F33  WH0 L   1      -4.976   4.612  -3.681  1.00  0.00    -0.2055  F
ATOM     60 C34  WH0 L   1      -3.913   4.604  -1.547  1.00  0.00    -0.0257  A
ATOM     61 C35  WH0 L   1      -3.146   3.940  -0.583  1.00  0.00    -0.0467  A
ATOM     62 H62  WH0 L   1      -2.708   0.979  -2.228  1.00  0.00    +0.0626  H
ATOM     63 H63  WH0 L   1      -4.043   2.166  -3.914  1.00  0.00    +0.0646  H
ATOM     64 H64  WH0 L   1      -4.259   5.612  -1.360  1.00  0.00    +0.0646  H
ATOM     65 H65  WH0 L   1      -2.907   4.453   0.341  1.00  0.00    +0.0626  H
ENDBRANCH 52 55
ENDBRANCH 7 51
TORSDOF 9
