ROOT
ATOM      1 C33  WH0 L   1      -0.154   2.930   0.459  1.00  0.00    -0.0133  A
ATOM      2 C34  WH0 L   1       0.044   3.494   1.742  1.00  0.00    -0.0519  A
ATOM      3 C35  WH0 L   1       0.426   4.838   1.881  1.00  0.00    -0.0374  A
ATOM      4 C36  WH0 L   1       0.611   5.595   0.727  1.00  0.00    +0.0454  A
ATOM      5 C37  WH0 L   1       0.426   5.056  -0.528  1.00  0.00    -0.0145  A
ATOM      6 C38  WH0 L   1       0.042   3.726  -0.690  1.00  0.00    -0.0483  A
ATOM      7 C39  WH0 L   1       0.702   6.073  -1.588  1.00  0.00    +0.0535  C
ATOM      8 C40  WH0 L   1       1.064   7.246  -0.725  1.00  0.00    +0.2296  C
ATOM      9 O41  WH0 L   1       1.387   8.378  -1.171  1.00  0.00    -0.2725 OA
ATOM     10 N42  WH0 L   1       1.007   6.952   0.667  1.00  0.00    -0.3256  N
ATOM     11 H66  WH0 L   1      -0.067   2.887   2.631  1.00  0.00    +0.0624  H
ATOM     12 H67  WH0 L   1       0.586   5.270   2.861  1.00  0.00    +0.0638  H
ATOM     13 H68  WH0 L   1      -0.104   3.324  -1.685  1.00  0.00    +0.0627  H
ATOM     14 H69  WH0 L   1      -0.208   6.283  -2.188  1.00  0.00    +0.0410  H
ATOM     15 H70  WH0 L   1       1.561   5.764  -2.221  1.00  0.00    +0.0410  H
ATOM     16 H71  WH0 L   1       1.214   7.594   1.464  1.00  0.00    +0.1686 HD
ENDROOT
BRANCH 1 25
ATOM     17 C17  WH0 L   1       0.034   0.561  -0.562  1.00  0.00    +0.1018  A
ATOM     18 N18  WH0 L   1      -0.588  -0.630  -0.412  1.00  0.00    -0.1627 NA
ATOM     19 N19  WH0 L   1      -1.491  -0.476   0.541  1.00  0.00    -0.1987  N
ATOM     20 C20  WH0 L   1      -2.339  -1.421   1.032  1.00  0.00    +0.2282  A
ATOM     21 N28  WH0 L   1      -3.190  -1.063   2.037  1.00  0.00    -0.2207 NA
ATOM     22 C29  WH0 L   1      -3.210   0.210   2.531  1.00  0.00    +0.0334  A
ATOM     23 C30  WH0 L   1      -2.347   1.185   2.014  1.00  0.00    -0.0173  A
ATOM     24 C31  WH0 L   1      -1.469   0.782   1.010  1.00  0.00    +0.0803  A
ATOM     25 C32  WH0 L   1      -0.510   1.501   0.319  1.00  0.00    +0.0353  A
ATOM     26 H64  WH0 L   1      -3.903   0.466   3.322  1.00  0.00    +0.0831  H
ATOM     27 H65  WH0 L   1      -2.372   2.200   2.386  1.00  0.00    +0.0654  H
BRANCH 17 34
ATOM     28 C10  WH0 L   1       2.397   1.242  -1.216  1.00  0.00    -0.0338  A
ATOM     29 C11  WH0 L   1       3.317   1.517  -2.245  1.00  0.00    -0.0226  A
ATOM     30 C12  WH0 L   1       2.972   1.322  -3.583  1.00  0.00    +0.1237  A
ATOM     31 F13  WH0 L   1       3.875   1.586  -4.560  1.00  0.00    -0.2055  F
ATOM     32 C14  WH0 L   1       1.706   0.843  -3.916  1.00  0.00    -0.0258  A
ATOM     33 C15  WH0 L   1       0.774   0.578  -2.913  1.00  0.00    -0.0495  A
ATOM     34 C16  WH0 L   1       1.094   0.793  -1.563  1.00  0.00    +0.0061  A
ATOM     35 H50  WH0 L   1       4.313   1.870  -2.006  1.00  0.00    +0.0649  H
ATOM     36 H51  WH0 L   1       1.442   0.686  -4.953  1.00  0.00    +0.0646  H
ATOM     37 H52  WH0 L   1      -0.213   0.227  -3.191  1.00  0.00    +0.0625  H
BRANCH 28 38
ATOM     38  C9  WH0 L   1       2.871   1.377   0.218  1.00  0.00    -0.0095  C
ATOM     39 H48  WH0 L   1       3.371   2.363   0.337  1.00  0.00    +0.0330  H
ATOM     40 H49  WH0 L   1       2.040   1.361   0.947  1.00  0.00    +0.0330  H
BRANCH 38 41
ATOM     41  C8  WH0 L   1       3.862   0.269   0.601  1.00  0.00    +0.0224  C
ATOM     42 H46  WH0 L   1       4.270   0.496   1.611  1.00  0.00    +0.0489  H
ATOM     43 H47  WH0 L   1       4.712   0.251  -0.116  1.00  0.00    +0.0489  H
BRANCH 41 46
ATOM     44  C5  WH0 L   1       3.954  -2.225   0.995  1.00  0.00    +0.2618  C
ATOM     45  O6  WH0 L   1       5.175  -2.124   1.297  1.00  0.00    -0.2669 OA
ATOM     46  N7  WH0 L   1       3.217  -1.045   0.633  1.00  0.00    -0.3511  N
ATOM     47 H45  WH0 L   1       2.199  -1.122   0.415  1.00  0.00    +0.1627 HD
BRANCH 44 49
ATOM     48  C1  WH0 L   1       3.948  -4.642   1.447  1.00  0.00    -0.0760  C
ATOM     49  C2  WH0 L   1       3.298  -3.557   1.018  1.00  0.00    +0.1085  C
ATOM     50 H43  WH0 L   1       4.971  -4.586   1.799  1.00  0.00    +0.0549  H
ATOM     51 H44  WH0 L   1       3.465  -5.611   1.461  1.00  0.00    +0.0549  H
BRANCH 49 52
ATOM     52  C3  WH0 L   1       1.935  -3.705   0.566  1.00  0.00    +0.1040  C
ATOM     53  N4  WH0 L   1       0.843  -3.826   0.202  1.00  0.00    -0.1907 NA
ENDBRANCH 49 52
ENDBRANCH 44 49
ENDBRANCH 41 46
ENDBRANCH 38 41
ENDBRANCH 28 38
ENDBRANCH 17 34
BRANCH 20 54
ATOM     54 N21  WH0 L   1      -2.369  -2.761   0.504  1.00  0.00    -0.3402  N
ATOM     55 C22  WH0 L   1      -2.375  -2.980  -0.951  1.00  0.00    +0.0228  C
ATOM     56 C23  WH0 L   1      -2.951  -4.358  -1.311  1.00  0.00    -0.0199  C
ATOM     57 C24  WH0 L   1      -4.221  -4.665  -0.489  1.00  0.00    +0.0080  C
ATOM     58 N25  WH0 L   1      -5.307  -3.767  -0.893  1.00  0.00    -0.3271 NA
ATOM     59 C26  WH0 L   1      -3.971  -4.553   1.043  1.00  0.00    -0.0199  C
ATOM     60 C27  WH0 L   1      -2.630  -3.894   1.399  1.00  0.00    +0.0228  C
ATOM     61 H53  WH0 L   1      -1.343  -2.905  -1.352  1.00  0.00    +0.0489  H
ATOM     62 H54  WH0 L   1      -2.999  -2.199  -1.440  1.00  0.00    +0.0489  H
ATOM     63 H55  WH0 L   1      -2.186  -5.141  -1.109  1.00  0.00    +0.0297  H
ATOM     64 H56  WH0 L   1      -3.177  -4.395  -2.399  1.00  0.00    +0.0297  H
ATOM     65 H57  WH0 L   1      -4.527  -5.712  -0.718  1.00  0.00    +0.0459  H
ATOM     66 H58  WH0 L   1      -5.496  -3.910  -1.912  1.00  0.00    +0.1185 HD
ATOM     67 H59  WH0 L   1      -6.181  -4.066  -0.399  1.00  0.00    +0.1185 HD
ATOM     68 H60  WH0 L   1      -3.993  -5.567   1.497  1.00  0.00    +0.0297  H
ATOM     69 H61  WH0 L   1      -4.785  -3.970   1.528  1.00  0.00    +0.0297  H
ATOM     70 H62  WH0 L   1      -2.632  -3.581   2.466  1.00  0.00    +0.0489  H
ATOM     71 H63  WH0 L   1      -1.812  -4.639   1.283  1.00  0.00    +0.0489  H
ENDBRANCH 20 54
ENDBRANCH 1 25
TORSDOF 8
