ROOT
ATOM      1 C11  WH0 L   1       2.637  -0.518  -1.696  1.00  0.00    -0.0231  A
ATOM      2 C12  WH0 L   1       1.397  -0.357  -1.045  1.00  0.00    -0.0488  A
ATOM      3 C13  WH0 L   1       0.494   0.655  -1.443  1.00  0.00    -0.0131  A
ATOM      4 C38  WH0 L   1       0.840   1.529  -2.491  1.00  0.00    -0.0483  A
ATOM      5 C39  WH0 L   1       2.073   1.368  -3.119  1.00  0.00    -0.0142  A
ATOM      6 C40  WH0 L   1       2.948   0.372  -2.735  1.00  0.00    +0.0486  A
ATOM      7 N41  WH0 L   1       4.132   0.391  -3.516  1.00  0.00    -0.3254  N
ATOM      8 C42  WH0 L   1       3.949   1.469  -4.426  1.00  0.00    +0.2296  C
ATOM      9 O43  WH0 L   1       4.810   1.790  -5.287  1.00  0.00    -0.2725 OA
ATOM     10 C44  WH0 L   1       2.637   2.169  -4.248  1.00  0.00    +0.0535  C
ATOM     11 H54  WH0 L   1       1.134  -1.016  -0.226  1.00  0.00    +0.0627  H
ATOM     12 H74  WH0 L   1       0.158   2.301  -2.824  1.00  0.00    +0.0627  H
ATOM     13 H75  WH0 L   1       4.958  -0.244  -3.451  1.00  0.00    +0.1686 HD
ATOM     14 H76  WH0 L   1       2.008   2.075  -5.158  1.00  0.00    +0.0410  H
ATOM     15 H77  WH0 L   1       2.788   3.228  -3.948  1.00  0.00    +0.0410  H
ENDROOT
BRANCH 1 16
ATOM     16 C10  WH0 L   1       3.602  -1.589  -1.254  1.00  0.00    -0.0241  C
ATOM     17 H52  WH0 L   1       4.044  -2.075  -2.151  1.00  0.00    +0.0314  H
ATOM     18 H53  WH0 L   1       3.068  -2.389  -0.697  1.00  0.00    +0.0314  H
BRANCH 16 19
ATOM     19  C9  WH0 L   1       4.733  -1.021  -0.383  1.00  0.00    -0.0314  C
ATOM     20 H50  WH0 L   1       5.487  -1.823  -0.231  1.00  0.00    +0.0285  H
ATOM     21 H51  WH0 L   1       5.236  -0.184  -0.913  1.00  0.00    +0.0285  H
BRANCH 19 22
ATOM     22  C8  WH0 L   1       4.229  -0.534   0.982  1.00  0.00    +0.0187  C
ATOM     23 H48  WH0 L   1       3.489   0.281   0.834  1.00  0.00    +0.0486  H
ATOM     24 H49  WH0 L   1       3.722  -1.359   1.530  1.00  0.00    +0.0486  H
BRANCH 22 27
ATOM     25  C5  WH0 L   1       6.263  -0.881   2.466  1.00  0.00    +0.2618  C
ATOM     26  O6  WH0 L   1       6.186  -2.130   2.302  1.00  0.00    -0.2669 OA
ATOM     27  N7  WH0 L   1       5.339  -0.018   1.781  1.00  0.00    -0.3514  N
ATOM     28 H47  WH0 L   1       5.459   1.018   1.823  1.00  0.00    +0.1626 HD
BRANCH 25 30
ATOM     29  C1  WH0 L   1       7.227   0.858   3.928  1.00  0.00    -0.0760  C
ATOM     30  C2  WH0 L   1       7.325  -0.339   3.346  1.00  0.00    +0.1085  C
ATOM     31 H45  WH0 L   1       8.014   1.226   4.576  1.00  0.00    +0.0549  H
ATOM     32 H46  WH0 L   1       6.355   1.485   3.806  1.00  0.00    +0.0549  H
BRANCH 30 33
ATOM     33  C3  WH0 L   1       8.485  -1.151   3.624  1.00  0.00    +0.1040  C
ATOM     34  N4  WH0 L   1       9.415  -1.803   3.848  1.00  0.00    -0.1907 NA
ENDBRANCH 30 33
ENDBRANCH 25 30
ENDBRANCH 22 27
ENDBRANCH 19 22
ENDBRANCH 16 19
ENDBRANCH 1 16
BRANCH 3 35
ATOM     35 C14  WH0 L   1      -0.816   0.782  -0.773  1.00  0.00    +0.0353  A
ATOM     36 C15  WH0 L   1      -1.741  -0.225  -0.465  1.00  0.00    +0.1015  A
ATOM     37 N24  WH0 L   1      -2.773   0.303   0.234  1.00  0.00    -0.1627 NA
ATOM     38 N25  WH0 L   1      -2.526   1.593   0.378  1.00  0.00    -0.1987  N
ATOM     39 C26  WH0 L   1      -3.303   2.511   1.013  1.00  0.00    +0.2282  A
ATOM     40 N34  WH0 L   1      -2.884   3.808   1.038  1.00  0.00    -0.2207 NA
ATOM     41 C35  WH0 L   1      -1.703   4.181   0.459  1.00  0.00    +0.0334  A
ATOM     42 C36  WH0 L   1      -0.896   3.231  -0.184  1.00  0.00    -0.0173  A
ATOM     43 C37  WH0 L   1      -1.370   1.921  -0.216  1.00  0.00    +0.0803  A
ATOM     44 H72  WH0 L   1      -1.389   5.215   0.501  1.00  0.00    +0.0831  H
ATOM     45 H73  WH0 L   1       0.046   3.514  -0.634  1.00  0.00    +0.0654  H
BRANCH 36 46
ATOM     46 C16  WH0 L   1      -1.681  -1.654  -0.839  1.00  0.00    +0.0030  A
ATOM     47 C17  WH0 L   1      -1.131  -2.065  -2.065  1.00  0.00    -0.0490  A
ATOM     48 C18  WH0 L   1      -1.081  -3.421  -2.400  1.00  0.00    -0.0193  A
ATOM     49 C19  WH0 L   1      -1.602  -4.390  -1.521  1.00  0.00    +0.1201  A
ATOM     50 C22  WH0 L   1      -2.175  -3.976  -0.314  1.00  0.00    -0.0193  A
ATOM     51 C23  WH0 L   1      -2.219  -2.621   0.025  1.00  0.00    -0.0490  A
ATOM     52 H55  WH0 L   1      -0.755  -1.340  -2.775  1.00  0.00    +0.0625  H
ATOM     53 H56  WH0 L   1      -0.647  -3.705  -3.349  1.00  0.00    +0.0654  H
ATOM     54 H60  WH0 L   1      -2.585  -4.710   0.369  1.00  0.00    +0.0654  H
ATOM     55 H61  WH0 L   1      -2.662  -2.328   0.969  1.00  0.00    +0.0625  H
BRANCH 49 56
ATOM     56 O20  WH0 L   1      -1.575  -5.762  -1.812  1.00  0.00    -0.4951 OA
ATOM     57 C21  WH0 L   1      -0.978  -6.326  -2.973  1.00  0.00    +0.0788  C
ATOM     58 H57  WH0 L   1      -1.090  -7.430  -2.939  1.00  0.00    +0.0660  H
ATOM     59 H58  WH0 L   1       0.105  -6.080  -3.003  1.00  0.00    +0.0660  H
ATOM     60 H59  WH0 L   1      -1.482  -5.947  -3.887  1.00  0.00    +0.0660  H
ENDBRANCH 49 56
ENDBRANCH 36 46
BRANCH 39 61
ATOM     61 N27  WH0 L   1      -4.542   2.140   1.635  1.00  0.00    -0.3401  N
ATOM     62 C28  WH0 L   1      -4.545   1.175   2.745  1.00  0.00    +0.0237  C
ATOM     63 C29  WH0 L   1      -5.966   0.686   3.042  1.00  0.00    -0.0090  C
ATOM     64 C30  WH0 L   1      -6.932   1.860   3.319  1.00  0.00    +0.0585  C
ATOM     65 O31  WH0 L   1      -8.263   1.444   3.137  1.00  0.00    -0.3917 OA
ATOM     66 C32  WH0 L   1      -6.630   3.128   2.479  1.00  0.00    -0.0090  C
ATOM     67 C33  WH0 L   1      -5.782   2.822   1.241  1.00  0.00    +0.0237  C
ATOM     68 H62  WH0 L   1      -4.118   1.659   3.650  1.00  0.00    +0.0489  H
ATOM     69 H63  WH0 L   1      -3.917   0.294   2.499  1.00  0.00    +0.0489  H
ATOM     70 H64  WH0 L   1      -5.949   0.000   3.917  1.00  0.00    +0.0307  H
ATOM     71 H65  WH0 L   1      -6.321   0.100   2.165  1.00  0.00    +0.0307  H
ATOM     72 H66  WH0 L   1      -6.819   2.139   4.390  1.00  0.00    +0.0594  H
ATOM     73 H67  WH0 L   1      -8.387   1.260   2.169  1.00  0.00    +0.2098 HD
ATOM     74 H68  WH0 L   1      -6.071   3.856   3.107  1.00  0.00    +0.0307  H
ATOM     75 H69  WH0 L   1      -7.574   3.625   2.168  1.00  0.00    +0.0307  H
ATOM     76 H70  WH0 L   1      -5.559   3.776   0.714  1.00  0.00    +0.0489  H
ATOM     77 H71  WH0 L   1      -6.353   2.172   0.543  1.00  0.00    +0.0489  H
ENDBRANCH 39 61
ENDBRANCH 3 35
TORSDOF 10
