ROOT
ATOM      1  C1  961 L   1       4.805   2.046  -1.492  1.00  0.00    -0.0183  C
ATOM      2  C2  961 L   1       4.715   0.737  -0.802  1.00  0.00    +0.0931  A
ATOM      3  N3  961 L   1       5.794  -0.051  -0.716  1.00  0.00    -0.0826 NA
ATOM      4  O4  961 L   1       5.391  -1.162  -0.009  1.00  0.00    -0.3589 OA
ATOM      5  C5  961 L   1       4.079  -1.045   0.326  1.00  0.00    +0.1468  A
ATOM      6  C6  961 L   1       3.542  -2.148   1.148  1.00  0.00    -0.0029  C
ATOM      7  C7  961 L   1       3.579   0.138  -0.185  1.00  0.00    +0.1036  A
ATOM      8 H21  961 L   1       4.018   2.138  -2.247  1.00  0.00    +0.0294  H
ATOM      9 H22  961 L   1       5.768   2.170  -1.997  1.00  0.00    +0.0294  H
ATOM     10 H23  961 L   1       4.694   2.864  -0.773  1.00  0.00    +0.0294  H
ATOM     11 H24  961 L   1       2.842  -1.771   1.900  1.00  0.00    +0.0309  H
ATOM     12 H25  961 L   1       3.019  -2.874   0.517  1.00  0.00    +0.0309  H
ATOM     13 H26  961 L   1       4.344  -2.673   1.676  1.00  0.00    +0.0309  H
ENDROOT
BRANCH 7 14
ATOM     14  C8  961 L   1       2.241   0.696  -0.086  1.00  0.00    +0.2615  C
ATOM     15  O9  961 L   1       2.064   1.909  -0.113  1.00  0.00    -0.2671 OA
ATOM     16 N10  961 L   1       1.231  -0.244  -0.009  1.00  0.00    -0.3195  N
ATOM     17 H27  961 L   1       1.456  -1.222  -0.117  1.00  0.00    +0.1690 HD
BRANCH 16 18
ATOM     18 C11  961 L   1      -0.109   0.068   0.116  1.00  0.00    +0.0798  A
ATOM     19 C12  961 L   1      -0.779   1.303   0.244  1.00  0.00    +0.0728  A
ATOM     20 N13  961 L   1      -2.104   1.154   0.346  1.00  0.00    -0.1772 NA
ATOM     21 N14  961 L   1      -2.286  -0.177   0.275  1.00  0.00    -0.2641  N
ATOM     22 C20  961 L   1      -1.113  -0.872   0.141  1.00  0.00    +0.0493  A
ATOM     23 H28  961 L   1      -0.365   2.303   0.271  1.00  0.00    +0.0869  H
ATOM     24 H36  961 L   1      -1.102  -1.951   0.076  1.00  0.00    +0.0847  H
BRANCH 21 25
ATOM     25 C15  961 L   1      -3.621  -0.750   0.346  1.00  0.00    +0.0781  C
ATOM     26 C16  961 L   1      -4.488  -0.168   1.449  1.00  0.00    -0.0048  C
ATOM     27 C17  961 L   1      -5.322   0.859   0.716  1.00  0.00    +0.0498  C
ATOM     28 O18  961 L   1      -5.581   0.282  -0.569  1.00  0.00    -0.3776 OA
ATOM     29 C19  961 L   1      -4.428  -0.500  -0.925  1.00  0.00    +0.0701  C
ATOM     30 H29  961 L   1      -3.478  -1.826   0.504  1.00  0.00    +0.0568  H
ATOM     31 H30  961 L   1      -5.150  -0.955   1.831  1.00  0.00    +0.0309  H
ATOM     32 H31  961 L   1      -3.941   0.254   2.297  1.00  0.00    +0.0309  H
ATOM     33 H32  961 L   1      -4.788   1.804   0.574  1.00  0.00    +0.0560  H
ATOM     34 H33  961 L   1      -6.269   1.066   1.222  1.00  0.00    +0.0560  H
ATOM     35 H34  961 L   1      -3.870   0.035  -1.702  1.00  0.00    +0.0581  H
ATOM     36 H35  961 L   1      -4.790  -1.439  -1.355  1.00  0.00    +0.0581  H
ENDBRANCH 21 25
ENDBRANCH 16 18
ENDBRANCH 7 14
TORSDOF 3
