ROOT
ATOM      1  C8  EUB L   1       1.526   1.182  -0.354  1.00  0.00    +0.0123  A
ATOM      2  C9  EUB L   1       2.450   2.040  -0.927  1.00  0.00    +0.0120  A
ATOM      3 N10  EUB L   1       1.764   2.981  -1.648  1.00  0.00    -0.3451  N
ATOM      4 C11  EUB L   1       0.422   2.750  -1.550  1.00  0.00    +0.1440  A
ATOM      5 N12  EUB L   1      -0.511   3.515  -2.134  1.00  0.00    -0.2178 NA
ATOM      6 C13  EUB L   1      -1.745   3.067  -1.865  1.00  0.00    +0.1206  A
ATOM      7 N14  EUB L   1      -2.095   1.993  -1.133  1.00  0.00    -0.2179 NA
ATOM      8 C15  EUB L   1      -1.123   1.227  -0.568  1.00  0.00    +0.1428  A
ATOM      9 C22  EUB L   1       0.221   1.624  -0.763  1.00  0.00    +0.0685  A
ATOM     10 H27  EUB L   1       3.530   2.077  -0.867  1.00  0.00    +0.0814  H
ATOM     11 H28  EUB L   1       2.164   3.749  -2.168  1.00  0.00    +0.1668 HD
ATOM     12 H29  EUB L   1      -2.564   3.637  -2.293  1.00  0.00    +0.1048  H
ENDROOT
BRANCH 1 17
ATOM     13  C3  EUB L   1       3.309  -1.854   0.975  1.00  0.00    +0.0523  A
ATOM     14  C4  EUB L   1       2.701  -1.998   2.226  1.00  0.00    -0.0443  A
ATOM     15  C5  EUB L   1       1.713  -1.100   2.628  1.00  0.00    -0.0600  A
ATOM     16  C6  EUB L   1       1.331  -0.058   1.781  1.00  0.00    -0.0539  A
ATOM     17  C7  EUB L   1       1.929   0.095   0.524  1.00  0.00    -0.0145  A
ATOM     18 C23  EUB L   1       2.923  -0.809   0.126  1.00  0.00    -0.0366  A
ATOM     19 H24  EUB L   1       2.993  -2.807   2.894  1.00  0.00    +0.0630  H
ATOM     20 H25  EUB L   1       1.237  -1.208   3.600  1.00  0.00    +0.0618  H
ATOM     21 H26  EUB L   1       0.557   0.635   2.108  1.00  0.00    +0.0624  H
ATOM     22 H38  EUB L   1       3.392  -0.706  -0.851  1.00  0.00    +0.0636  H
BRANCH 13 24
ATOM     23  N1  EUB L   1       5.144  -3.525   0.219  1.00  0.00    -0.1909 NA
ATOM     24  C2  EUB L   1       4.323  -2.777   0.559  1.00  0.00    +0.0992  C
ENDBRANCH 13 24
ENDBRANCH 1 17
BRANCH 8 25
ATOM     25 N16  EUB L   1      -1.482   0.077   0.159  1.00  0.00    -0.3509  N
ATOM     26 C17  EUB L   1      -2.830   0.149   0.769  1.00  0.00    +0.0435  C
ATOM     27 C18  EUB L   1      -3.867  -0.608  -0.074  1.00  0.00    +0.0653  C
ATOM     28 O19  EUB L   1      -3.563  -2.008  -0.215  1.00  0.00    -0.3763 OA
ATOM     29 C20  EUB L   1      -2.153  -2.286  -0.171  1.00  0.00    +0.0653  C
ATOM     30 C21  EUB L   1      -1.291  -1.125  -0.691  1.00  0.00    +0.0435  C
ATOM     31 H30  EUB L   1      -3.154   1.179   0.961  1.00  0.00    +0.0511  H
ATOM     32 H31  EUB L   1      -2.759  -0.334   1.752  1.00  0.00    +0.0511  H
ATOM     33 H32  EUB L   1      -4.854  -0.536   0.392  1.00  0.00    +0.0577  H
ATOM     34 H33  EUB L   1      -3.947  -0.180  -1.080  1.00  0.00    +0.0577  H
ATOM     35 H34  EUB L   1      -1.891  -2.528   0.865  1.00  0.00    +0.0577  H
ATOM     36 H35  EUB L   1      -1.979  -3.184  -0.772  1.00  0.00    +0.0577  H
ATOM     37 H36  EUB L   1      -0.240  -1.427  -0.684  1.00  0.00    +0.0511  H
ATOM     38 H37  EUB L   1      -1.583  -0.918  -1.730  1.00  0.00    +0.0511  H
ENDBRANCH 8 25
TORSDOF 3
