ROOT
ATOM      1  C1  813 L   1       2.328  -2.545  -1.724  1.00  0.00    -0.0346  C
ATOM      2  C2  813 L   1       1.691  -1.265  -1.260  1.00  0.00    +0.0137  C
ATOM      3 C16  813 L   1       2.329  -0.286  -0.583  1.00  0.00    -0.0615  C
ATOM      4 C17  813 L   1       1.761   1.065  -0.200  1.00  0.00    -0.0310  C
ATOM      5 C18  813 L   1       2.910   1.774   0.512  1.00  0.00    -0.0491  C
ATOM      6 C19  813 L   1       4.158   1.159  -0.092  1.00  0.00    -0.0491  C
ATOM      7 C20  813 L   1       3.799  -0.314  -0.227  1.00  0.00    -0.0310  C
ATOM      8 H21  813 L   1       1.672  -3.397  -1.512  1.00  0.00    +0.0279  H
ATOM      9 H22  813 L   1       3.278  -2.750  -1.222  1.00  0.00    +0.0279  H
ATOM     10 H23  813 L   1       2.512  -2.511  -2.802  1.00  0.00    +0.0279  H
ATOM     11 H32  813 L   1       0.904   0.999   0.475  1.00  0.00    +0.0310  H
ATOM     12 H33  813 L   1       1.475   1.620  -1.100  1.00  0.00    +0.0310  H
ATOM     13 H34  813 L   1       2.871   1.567   1.588  1.00  0.00    +0.0268  H
ATOM     14 H35  813 L   1       2.872   2.859   0.377  1.00  0.00    +0.0268  H
ATOM     15 H36  813 L   1       5.042   1.313   0.534  1.00  0.00    +0.0268  H
ATOM     16 H37  813 L   1       4.359   1.596  -1.078  1.00  0.00    +0.0268  H
ATOM     17 H38  813 L   1       4.425  -0.791  -0.987  1.00  0.00    +0.0310  H
ATOM     18 H39  813 L   1       3.936  -0.829   0.731  1.00  0.00    +0.0310  H
ENDROOT
BRANCH 2 19
ATOM     19  C3  813 L   1       0.255  -1.159  -1.672  1.00  0.00    +0.2611  C
ATOM     20  O4  813 L   1      -0.105  -1.432  -2.804  1.00  0.00    -0.2670 OA
ATOM     21  N5  813 L   1      -0.603  -0.796  -0.628  1.00  0.00    -0.2449  N
ATOM     22 H24  813 L   1      -0.261  -0.937   0.317  1.00  0.00    +0.1819 HD
BRANCH 21 23
ATOM     23  S6  813 L   1      -2.255  -0.909  -0.754  1.00  0.00    +0.2824  S
ATOM     24  O7  813 L   1      -2.736  -0.245  -1.940  1.00  0.00    -0.1984 OA
ATOM     25  O8  813 L   1      -2.635  -2.252  -0.383  1.00  0.00    -0.1984 OA
BRANCH 23 26
ATOM     26  C9  813 L   1      -2.845   0.100   0.581  1.00  0.00    +0.1760  A
ATOM     27 C10  813 L   1      -3.361  -0.202   1.839  1.00  0.00    +0.0073  A
ATOM     28 C11  813 L   1      -3.612  -1.539   2.427  1.00  0.00    -0.0355  C
ATOM     29 C12  813 L   1      -3.597   1.050   2.441  1.00  0.00    +0.0536  A
ATOM     30 N13  813 L   1      -3.256   2.067   1.654  1.00  0.00    -0.1784 NA
ATOM     31 N14  813 L   1      -2.840   1.473   0.516  1.00  0.00    -0.2547  N
ATOM     32 C15  813 L   1      -2.434   2.319  -0.585  1.00  0.00    +0.0316  C
ATOM     33 H25  813 L   1      -2.691  -2.131   2.448  1.00  0.00    +0.0279  H
ATOM     34 H26  813 L   1      -4.365  -2.080   1.846  1.00  0.00    +0.0279  H
ATOM     35 H27  813 L   1      -3.979  -1.455   3.455  1.00  0.00    +0.0279  H
ATOM     36 H28  813 L   1      -3.998   1.261   3.425  1.00  0.00    +0.0851  H
ATOM     37 H29  813 L   1      -3.215   2.288  -1.348  1.00  0.00    +0.0473  H
ATOM     38 H30  813 L   1      -2.314   3.345  -0.226  1.00  0.00    +0.0473  H
ATOM     39 H31  813 L   1      -1.478   1.967  -0.976  1.00  0.00    +0.0473  H
ENDBRANCH 23 26
ENDBRANCH 21 23
ENDBRANCH 2 19
TORSDOF 3
