ROOT
ATOM      1  N6  917 L   1       1.524   0.319  -0.756  1.00  0.00    -0.3483  N
ATOM      2  C7  917 L   1       1.838   1.747  -0.944  1.00  0.00    +0.0254  C
ATOM      3  C8  917 L   1       0.575   2.512  -1.359  1.00  0.00    +0.0002  C
ATOM      4 C11  917 L   1      -0.522   2.315  -0.305  1.00  0.00    -0.0409  C
ATOM      5 C12  917 L   1      -0.816   0.819  -0.106  1.00  0.00    -0.0102  C
ATOM      6 C19  917 L   1       0.473   0.054   0.243  1.00  0.00    +0.0245  C
ATOM      7 H24  917 L   1       2.263   2.154  -0.017  1.00  0.00    +0.0492  H
ATOM      8 H25  917 L   1       2.584   1.881  -1.737  1.00  0.00    +0.0492  H
ATOM      9 H26  917 L   1       0.216   2.097  -2.311  1.00  0.00    +0.0340  H
ATOM     10 H30  917 L   1      -1.436   2.832  -0.623  1.00  0.00    +0.0273  H
ATOM     11 H31  917 L   1      -0.218   2.762   0.650  1.00  0.00    +0.0273  H
ATOM     12 H32  917 L   1      -1.201   0.431  -1.059  1.00  0.00    +0.0330  H
ATOM     13 H43  917 L   1       0.835   0.347   1.238  1.00  0.00    +0.0491  H
ATOM     14 H44  917 L   1       0.229  -1.012   0.283  1.00  0.00    +0.0491  H
ENDROOT
BRANCH 1 19
ATOM     15  C1  917 L   1       4.921  -3.627  -0.759  1.00  0.00    -0.0140  C
ATOM     16  C2  917 L   1       4.201  -2.332  -0.841  1.00  0.00    +0.1008  A
ATOM     17  N3  917 L   1       4.750  -1.187  -1.169  1.00  0.00    -0.1448 NA
ATOM     18  N4  917 L   1       3.831  -0.160  -1.165  1.00  0.00    -0.1234 NA
ATOM     19  C5  917 L   1       2.610  -0.529  -0.815  1.00  0.00    +0.1922  A
ATOM     20 S20  917 L   1       2.528  -2.236  -0.501  1.00  0.00    -0.0334  S
ATOM     21 H21  917 L   1       4.498  -4.353  -1.460  1.00  0.00    +0.0298  H
ATOM     22 H22  917 L   1       4.866  -4.041   0.252  1.00  0.00    +0.0298  H
ATOM     23 H23  917 L   1       5.979  -3.493  -1.010  1.00  0.00    +0.0298  H
ENDBRANCH 1 19
BRANCH 3 24
ATOM     24  C9  917 L   1       0.881   3.994  -1.587  1.00  0.00    +0.0486  C
ATOM     25 O10  917 L   1       1.324   4.612  -0.387  1.00  0.00    -0.3947 OA
ATOM     26 H27  917 L   1       1.661   4.113  -2.347  1.00  0.00    +0.0560  H
ATOM     27 H28  917 L   1      -0.016   4.520  -1.932  1.00  0.00    +0.0560  H
ATOM     28 H29  917 L   1       1.531   5.539  -0.601  1.00  0.00    +0.2094 HD
ENDBRANCH 3 24
BRANCH 5 29
ATOM     29 C13  917 L   1      -1.894   0.643   0.985  1.00  0.00    +0.0033  C
ATOM     30 H33  917 L   1      -1.506   1.071   1.919  1.00  0.00    +0.0430  H
ATOM     31 H34  917 L   1      -2.782   1.231   0.717  1.00  0.00    +0.0430  H
BRANCH 29 32
ATOM     32 N14  917 L   1      -2.262  -0.754   1.232  1.00  0.00    -0.3020 NA
ATOM     33 C15  917 L   1      -2.956  -1.387   0.107  1.00  0.00    -0.0011  C
ATOM     34 C16  917 L   1      -3.594  -2.620   0.732  1.00  0.00    -0.0390  C
ATOM     35 C17  917 L   1      -3.691  -2.312   2.222  1.00  0.00    -0.0390  C
ATOM     36 C18  917 L   1      -3.186  -0.885   2.361  1.00  0.00    -0.0011  C
ATOM     37 H35  917 L   1      -3.738  -0.735  -0.304  1.00  0.00    +0.0426  H
ATOM     38 H36  917 L   1      -2.274  -1.665  -0.702  1.00  0.00    +0.0426  H
ATOM     39 H37  917 L   1      -4.578  -2.821   0.297  1.00  0.00    +0.0278  H
ATOM     40 H38  917 L   1      -2.969  -3.507   0.575  1.00  0.00    +0.0278  H
ATOM     41 H39  917 L   1      -3.053  -3.004   2.784  1.00  0.00    +0.0278  H
ATOM     42 H40  917 L   1      -4.714  -2.419   2.595  1.00  0.00    +0.0278  H
ATOM     43 H41  917 L   1      -2.688  -0.727   3.323  1.00  0.00    +0.0426  H
ATOM     44 H42  917 L   1      -4.026  -0.183   2.281  1.00  0.00    +0.0426  H
ENDBRANCH 29 32
ENDBRANCH 5 29
TORSDOF 4
