ROOT
ATOM      1  C7  LIG L   1      -1.988   3.310 -11.729  1.00  0.00    +0.0641  C
ATOM      2  C8  LIG L   1      -2.453   3.062 -10.325  1.00  0.00    +0.0073  C
ATOM      3  C9  LIG L   1      -2.258   1.646  -9.916  1.00  0.00    +0.0241  C
ATOM      4 N10  LIG L   1      -3.609   1.067  -9.889  1.00  0.00    -0.3676  N
ATOM      5 C18  LIG L   1      -4.483   1.896 -10.687  1.00  0.00    +0.0235  C
ATOM      6 C19  LIG L   1      -3.943   3.296 -10.365  1.00  0.00    +0.0009  C
ATOM      7 C20  LIG L   1      -4.156   4.274 -11.473  1.00  0.00    +0.0283  C
ATOM      8 N21  LIG L   1      -3.021   3.987 -12.420  1.00  0.00    -0.3168  N
ATOM      9 C22  LIG L   1      -3.197   4.433 -13.757  1.00  0.00    +0.3216  C
ATOM     10 O23  LIG L   1      -4.325   5.031 -13.941  1.00  0.00    -0.2471 OA
ATOM     11 N24  LIG L   1      -2.357   4.322 -14.855  1.00  0.00    -0.3274  N
ATOM     12 C25  LIG L   1      -1.062   3.605 -14.839  1.00  0.00    +0.0114  C
ATOM     13 H37  LIG L   1      -1.891   2.359 -12.268  1.00  0.00    +0.0579  H
ATOM     14 H38  LIG L   1      -1.985   3.751  -9.610  1.00  0.00    +0.0345  H
ATOM     15 H39  LIG L   1      -1.591   1.063 -10.560  1.00  0.00    +0.0491  H
ATOM     16 H40  LIG L   1      -1.824   1.658  -8.909  1.00  0.00    +0.0491  H
ATOM     17 H44  LIG L   1      -5.534   1.842 -10.388  1.00  0.00    +0.0491  H
ATOM     18 H45  LIG L   1      -4.408   1.627 -11.747  1.00  0.00    +0.0491  H
ATOM     19 H46  LIG L   1      -4.343   3.645  -9.406  1.00  0.00    +0.0339  H
ATOM     20 H47  LIG L   1      -5.131   4.164 -11.956  1.00  0.00    +0.0493  H
ATOM     21 H48  LIG L   1      -4.031   5.308 -11.134  1.00  0.00    +0.0493  H
ATOM     22 H49  LIG L   1      -0.281   4.298 -14.524  1.00  0.00    +0.0453  H
ATOM     23 H50  LIG L   1      -1.121   2.735 -14.190  1.00  0.00    +0.0453  H
ATOM     24 H51  LIG L   1      -0.827   3.235 -15.842  1.00  0.00    +0.0453  H
ENDROOT
BRANCH 1 28
ATOM     25  C3  LIG L   1       1.773   5.368 -11.764  1.00  0.00    +0.1201  A
ATOM     26  C4  LIG L   1       0.561   6.037 -11.613  1.00  0.00    -0.0196  A
ATOM     27  C5  LIG L   1      -0.642   5.349 -11.610  1.00  0.00    -0.0531  A
ATOM     28  C6  LIG L   1      -0.658   3.978 -11.758  1.00  0.00    -0.0244  A
ATOM     29 C27  LIG L   1       0.530   3.289 -11.909  1.00  0.00    -0.0531  A
ATOM     30 C28  LIG L   1       1.750   3.982 -11.913  1.00  0.00    -0.0196  A
ATOM     31 H35  LIG L   1       0.564   7.118 -11.496  1.00  0.00    +0.0654  H
ATOM     32 H36  LIG L   1      -1.559   5.924 -11.489  1.00  0.00    +0.0622  H
ATOM     33 H54  LIG L   1       0.540   2.208 -12.024  1.00  0.00    +0.0622  H
ATOM     34 H55  LIG L   1       2.667   3.414 -12.031  1.00  0.00    +0.0654  H
BRANCH 25 36
ATOM     35  C1  LIG L   1       4.242   5.522 -11.905  1.00  0.00    +0.0788  C
ATOM     36  O2  LIG L   1       2.955   6.095 -11.761  1.00  0.00    -0.4951 OA
ATOM     37 H32  LIG L   1       4.450   4.832 -11.082  1.00  0.00    +0.0660  H
ATOM     38 H33  LIG L   1       4.329   5.008 -12.867  1.00  0.00    +0.0660  H
ATOM     39 H34  LIG L   1       4.983   6.326 -11.877  1.00  0.00    +0.0660  H
ENDBRANCH 25 36
ENDBRANCH 1 28
BRANCH 4 40
ATOM     40 C11  LIG L   1      -3.884  -0.121  -9.157  1.00  0.00    +0.0765  A
ATOM     41 C12  LIG L   1      -2.891  -0.742  -8.387  1.00  0.00    -0.0175  A
ATOM     42 C13  LIG L   1      -3.147  -1.892  -7.668  1.00  0.00    +0.0297  A
ATOM     43 N14  LIG L   1      -4.360  -2.468  -7.674  1.00  0.00    -0.2603 NA
ATOM     44 C15  LIG L   1      -5.348  -1.906  -8.401  1.00  0.00    +0.0648  A
ATOM     45 C16  LIG L   1      -5.113  -0.741  -9.137  1.00  0.00    +0.1644  A
ATOM     46 F17  LIG L   1      -6.139  -0.249  -9.832  1.00  0.00    -0.2017  F
ATOM     47 H41  LIG L   1      -1.881  -0.354  -8.333  1.00  0.00    +0.0654  H
ATOM     48 H42  LIG L   1      -2.387  -2.383  -7.070  1.00  0.00    +0.0830  H
ATOM     49 H43  LIG L   1      -6.315  -2.391  -8.388  1.00  0.00    +0.0859  H
ENDBRANCH 4 40
BRANCH 11 50
ATOM     50 C26  LIG L   1      -2.622   4.951 -16.166  1.00  0.00    +0.0232  C
ATOM     51 H52  LIG L   1      -3.667   5.273 -16.210  1.00  0.00    +0.0489  H
ATOM     52 H53  LIG L   1      -2.507   4.180 -16.937  1.00  0.00    +0.0489  H
BRANCH 50 53
ATOM     53 C29  LIG L   1      -1.696   6.135 -16.469  1.00  0.00    -0.0264  C
ATOM     54 H56  LIG L   1      -1.847   6.451 -17.509  1.00  0.00    +0.0290  H
ATOM     55 H57  LIG L   1      -0.653   5.800 -16.408  1.00  0.00    +0.0290  H
BRANCH 53 56
ATOM     56 C30  LIG L   1      -1.862   7.330 -15.531  1.00  0.00    -0.0077  C
ATOM     57 S31  LIG L   1      -3.371   8.284 -15.871  1.00  0.00    -0.1782 SA
ATOM     58 H58  LIG L   1      -1.016   8.012 -15.668  1.00  0.00    +0.0374  H
ATOM     59 H59  LIG L   1      -1.863   7.021 -14.482  1.00  0.00    +0.0374  H
ATOM     60 H60  LIG L   1      -3.066   8.620 -17.132  1.00  0.00    +0.1016 HD
ENDBRANCH 53 56
ENDBRANCH 50 53
ENDBRANCH 11 50
TORSDOF 6
