ROOT
ATOM      1  C9  CHE L   1      -2.047   0.840  -0.345  1.00  0.00    +0.0506  A
ATOM      2 C10  CHE L   1      -2.833   1.305   0.712  1.00  0.00    -0.0167  A
ATOM      3 C11  CHE L   1      -3.911   0.543   1.133  1.00  0.00    +0.0409  A
ATOM      4 C12  CHE L   1      -4.769   1.014   2.269  1.00  0.00    -0.0223  C
ATOM      5 N13  CHE L   1      -4.231  -0.642   0.567  1.00  0.00    -0.2517 NA
ATOM      6 C14  CHE L   1      -3.479  -1.101  -0.445  1.00  0.00    +0.0733  A
ATOM      7 C15  CHE L   1      -3.819  -2.320  -1.017  1.00  0.00    -0.0343  A
ATOM      8 C16  CHE L   1      -3.091  -2.867  -2.077  1.00  0.00    -0.0413  A
ATOM      9 C17  CHE L   1      -1.999  -2.177  -2.582  1.00  0.00    +0.0417  A
ATOM     10 CL18 CHE L   1      -1.097  -2.834  -3.889  1.00  0.00    -0.0835 Cl
ATOM     11 C19  CHE L   1      -1.635  -0.953  -2.030  1.00  0.00    -0.0322  A
ATOM     12 C20  CHE L   1      -2.362  -0.401  -0.949  1.00  0.00    +0.0251  A
ATOM     13 H31  CHE L   1      -2.596   2.239   1.211  1.00  0.00    +0.0656  H
ATOM     14 H32  CHE L   1      -5.581   0.307   2.464  1.00  0.00    +0.0292  H
ATOM     15 H33  CHE L   1      -4.171   1.108   3.181  1.00  0.00    +0.0292  H
ATOM     16 H34  CHE L   1      -5.214   1.985   2.029  1.00  0.00    +0.0292  H
ATOM     17 H35  CHE L   1      -4.678  -2.861  -0.625  1.00  0.00    +0.0639  H
ATOM     18 H36  CHE L   1      -3.387  -3.824  -2.499  1.00  0.00    +0.0633  H
ATOM     19 H37  CHE L   1      -0.781  -0.416  -2.439  1.00  0.00    +0.0639  H
ENDROOT
BRANCH 1 20
ATOM     20  N8  CHE L   1      -0.904   1.592  -0.725  1.00  0.00    -0.3545  N
ATOM     21 H30  CHE L   1      -1.076   2.593  -0.648  1.00  0.00    +0.1659 HD
BRANCH 20 25
ATOM     22  C4  CHE L   1       3.160   0.792   0.201  1.00  0.00    +0.1206  A
ATOM     23  C5  CHE L   1       2.784   1.953  -0.474  1.00  0.00    -0.0180  A
ATOM     24  C6  CHE L   1       1.439   2.208  -0.761  1.00  0.00    -0.0349  A
ATOM     25  C7  CHE L   1       0.438   1.315  -0.359  1.00  0.00    +0.0398  A
ATOM     26 C21  CHE L   1       0.827   0.141   0.297  1.00  0.00    -0.0349  A
ATOM     27 C22  CHE L   1       2.175  -0.116   0.584  1.00  0.00    -0.0180  A
ATOM     28 H28  CHE L   1       3.545   2.662  -0.791  1.00  0.00    +0.0655  H
ATOM     29 H29  CHE L   1       1.184   3.110  -1.311  1.00  0.00    +0.0639  H
ATOM     30 H38  CHE L   1       0.088  -0.592   0.607  1.00  0.00    +0.0639  H
ATOM     31 H39  CHE L   1       2.415  -1.037   1.104  1.00  0.00    +0.0655  H
BRANCH 22 32
ATOM     32  O3  CHE L   1       4.503   0.665   0.418  1.00  0.00    -0.4922 OA
BRANCH 32 34
ATOM     33  C1  CHE L   1       6.456  -0.452   1.202  1.00  0.00    -0.0307  C
ATOM     34  C2  CHE L   1       4.944  -0.518   1.081  1.00  0.00    +0.0868  C
ATOM     35 H23  CHE L   1       6.847  -1.340   1.707  1.00  0.00    +0.0262  H
ATOM     36 H24  CHE L   1       6.759   0.437   1.765  1.00  0.00    +0.0262  H
ATOM     37 H25  CHE L   1       6.919  -0.375   0.212  1.00  0.00    +0.0262  H
ATOM     38 H26  CHE L   1       4.508  -0.577   2.085  1.00  0.00    +0.0694  H
ATOM     39 H27  CHE L   1       4.671  -1.406   0.499  1.00  0.00    +0.0694  H
ENDBRANCH 32 34
ENDBRANCH 22 32
ENDBRANCH 20 25
ENDBRANCH 1 20
TORSDOF 4
