ROOT
ATOM      1  C8  490 L   1       0.987  -0.406  -0.004  1.00  0.00    +0.2296  C
ATOM      2  O9  490 L   1       1.622  -0.946   0.910  1.00  0.00    -0.2726 OA
ATOM      3 N10  490 L   1      -0.397  -0.494  -0.076  1.00  0.00    -0.3082  N
ATOM      4 C11  490 L   1      -1.126  -0.928   1.123  1.00  0.00    +0.0468  C
ATOM      5 C12  490 L   1      -2.223   0.075   1.465  1.00  0.00    +0.0480  C
ATOM      6 C13  490 L   1      -3.195  -0.440   2.530  1.00  0.00    -0.0292  C
ATOM      7 C14  490 L   1      -4.484   0.298   2.195  1.00  0.00    -0.0334  C
ATOM      8 C15  490 L   1      -4.500   0.281   0.667  1.00  0.00    +0.0191  C
ATOM      9 N16  490 L   1      -3.087   0.363   0.312  1.00  0.00    -0.3643  N
ATOM     10 C17  490 L   1      -2.600   0.157  -0.972  1.00  0.00    +0.0621  A
ATOM     11 C18  490 L   1      -3.423   0.374  -2.090  1.00  0.00    -0.0365  A
ATOM     12 C19  490 L   1      -2.954   0.195  -3.392  1.00  0.00    -0.0597  A
ATOM     13 C20  490 L   1      -1.647  -0.219  -3.605  1.00  0.00    -0.0597  A
ATOM     14 C21  490 L   1      -0.801  -0.438  -2.517  1.00  0.00    -0.0361  A
ATOM     15 C22  490 L   1      -1.246  -0.228  -1.203  1.00  0.00    +0.0679  A
ATOM     16 H31  490 L   1      -1.539  -1.922   0.905  1.00  0.00    +0.0513  H
ATOM     17 H32  490 L   1      -0.455  -1.039   1.982  1.00  0.00    +0.0513  H
ATOM     18 H33  490 L   1      -1.775   1.022   1.793  1.00  0.00    +0.0541  H
ATOM     19 H34  490 L   1      -3.354  -1.521   2.434  1.00  0.00    +0.0286  H
ATOM     20 H35  490 L   1      -2.845  -0.236   3.546  1.00  0.00    +0.0286  H
ATOM     21 H36  490 L   1      -4.429   1.331   2.561  1.00  0.00    +0.0283  H
ATOM     22 H37  490 L   1      -5.369  -0.174   2.628  1.00  0.00    +0.0283  H
ATOM     23 H38  490 L   1      -4.934  -0.659   0.306  1.00  0.00    +0.0488  H
ATOM     24 H39  490 L   1      -5.077   1.124   0.275  1.00  0.00    +0.0488  H
ATOM     25 H40  490 L   1      -4.449   0.704  -1.961  1.00  0.00    +0.0639  H
ATOM     26 H41  490 L   1      -3.616   0.372  -4.236  1.00  0.00    +0.0618  H
ATOM     27 H42  490 L   1      -1.287  -0.388  -4.617  1.00  0.00    +0.0618  H
ATOM     28 H43  490 L   1       0.185  -0.834  -2.727  1.00  0.00    +0.0639  H
ENDROOT
BRANCH 1 29
ATOM     29  C7  490 L   1       1.727   0.426  -1.043  1.00  0.00    +0.0440  C
ATOM     30 H29  490 L   1       1.073   1.215  -1.425  1.00  0.00    +0.0378  H
ATOM     31 H30  490 L   1       2.033  -0.231  -1.863  1.00  0.00    +0.0378  H
BRANCH 29 32
ATOM     32  C6  490 L   1       2.965   1.099  -0.454  1.00  0.00    +0.0268  C
ATOM     33 H27  490 L   1       3.383   1.798  -1.187  1.00  0.00    +0.0491  H
ATOM     34 H28  490 L   1       2.707   1.672   0.444  1.00  0.00    +0.0491  H
BRANCH 32 37
ATOM     35  C3  490 L   1       5.316   0.487  -0.043  1.00  0.00    +0.2443  C
ATOM     36  O4  490 L   1       5.773   1.533  -0.486  1.00  0.00    -0.2683 OA
ATOM     37  N5  490 L   1       3.988   0.145  -0.071  1.00  0.00    -0.3520  N
ATOM     38 H26  490 L   1       3.667  -0.630   0.503  1.00  0.00    +0.1626 HD
BRANCH 35 40
ATOM     39  C1  490 L   1       7.477  -0.361   0.752  1.00  0.00    -0.0936  C
ATOM     40  C2  490 L   1       6.160  -0.551   0.602  1.00  0.00    -0.0047  C
ATOM     41 H23  490 L   1       7.960   0.551   0.412  1.00  0.00    +0.0536  H
ATOM     42 H24  490 L   1       8.099  -1.116   1.219  1.00  0.00    +0.0536  H
ATOM     43 H25  490 L   1       5.689  -1.465   0.942  1.00  0.00    +0.0666  H
ENDBRANCH 35 40
ENDBRANCH 32 37
ENDBRANCH 29 32
ENDBRANCH 1 29
TORSDOF 4
