ROOT
ATOM      1 C11  161 L   1      -0.679  -0.591   0.747  1.00  0.00    +0.0796  A
ATOM      2 C12  161 L   1      -1.471  -1.743   0.585  1.00  0.00    +0.0728  A
ATOM      3 N13  161 L   1      -2.376  -1.606  -0.388  1.00  0.00    -0.1771 NA
ATOM      4 N14  161 L   1      -2.189  -0.344  -0.837  1.00  0.00    -0.2641  N
ATOM      5 C19  161 L   1      -1.159   0.290  -0.193  1.00  0.00    +0.0495  A
ATOM      6 H28  161 L   1      -1.426  -2.679   1.126  1.00  0.00    +0.0869  H
ATOM      7 H38  161 L   1      -0.853   1.295  -0.443  1.00  0.00    +0.0847  H
ENDROOT
BRANCH 1 10
ATOM      8  C8  161 L   1       0.890  -1.194   2.510  1.00  0.00    +0.2263  C
ATOM      9  O9  161 L   1       0.521  -2.355   2.665  1.00  0.00    -0.2729 OA
ATOM     10 N10  161 L   1       0.363  -0.299   1.605  1.00  0.00    -0.3236  N
ATOM     11 H27  161 L   1       0.790   0.621   1.490  1.00  0.00    +0.1687 HD
BRANCH 8 12
ATOM     12  C7  161 L   1       2.037  -0.646   3.336  1.00  0.00    +0.0403  C
ATOM     13 H25  161 L   1       1.732   0.296   3.804  1.00  0.00    +0.0370  H
ATOM     14 H26  161 L   1       2.210  -1.363   4.148  1.00  0.00    +0.0370  H
BRANCH 12 15
ATOM     15  C6  161 L   1       3.307  -0.520   2.509  1.00  0.00    +0.0622  C
ATOM     16 H23  161 L   1       3.293  -1.191   1.644  1.00  0.00    +0.0433  H
ATOM     17 H24  161 L   1       4.185  -0.747   3.122  1.00  0.00    +0.0433  H
BRANCH 15 18
ATOM     18  S3  161 L   1       3.527   1.147   1.916  1.00  0.00    +0.1724  S
ATOM     19  O4  161 L   1       3.939   1.952   3.050  1.00  0.00    -0.2226 OA
ATOM     20  O5  161 L   1       2.333   1.504   1.169  1.00  0.00    -0.2226 OA
BRANCH 18 22
ATOM     21  C1  161 L   1       4.702   0.556  -0.417  1.00  0.00    -0.0878  C
ATOM     22  C2  161 L   1       4.879   0.988   0.838  1.00  0.00    +0.0232  C
ATOM     23 H20  161 L   1       3.721   0.301  -0.812  1.00  0.00    +0.0541  H
ATOM     24 H21  161 L   1       5.546   0.467  -1.094  1.00  0.00    +0.0541  H
ATOM     25 H22  161 L   1       5.853   1.261   1.222  1.00  0.00    +0.0733  H
ENDBRANCH 18 22
ENDBRANCH 15 18
ENDBRANCH 12 15
ENDBRANCH 8 12
ENDBRANCH 1 10
BRANCH 4 26
ATOM     26 C15  161 L   1      -3.022   0.159  -1.946  1.00  0.00    +0.0553  C
ATOM     27 C16  161 L   1      -2.943   1.694  -2.085  1.00  0.00    -0.0403  C
ATOM     28 C17  161 L   1      -2.538  -0.479  -3.261  1.00  0.00    -0.0403  C
ATOM     29 C18  161 L   1      -4.502  -0.209  -1.711  1.00  0.00    -0.0403  C
ATOM     30 H29  161 L   1      -1.932   2.027  -2.347  1.00  0.00    +0.0253  H
ATOM     31 H30  161 L   1      -3.231   2.194  -1.153  1.00  0.00    +0.0253  H
ATOM     32 H31  161 L   1      -3.613   2.054  -2.875  1.00  0.00    +0.0253  H
ATOM     33 H32  161 L   1      -3.131  -0.127  -4.113  1.00  0.00    +0.0253  H
ATOM     34 H33  161 L   1      -2.617  -1.572  -3.231  1.00  0.00    +0.0253  H
ATOM     35 H34  161 L   1      -1.488  -0.232  -3.458  1.00  0.00    +0.0253  H
ATOM     36 H35  161 L   1      -5.142   0.197  -2.503  1.00  0.00    +0.0253  H
ATOM     37 H36  161 L   1      -4.860   0.187  -0.753  1.00  0.00    +0.0253  H
ATOM     38 H37  161 L   1      -4.656  -1.295  -1.698  1.00  0.00    +0.0253  H
ENDBRANCH 4 26
TORSDOF 6
