ROOT
ATOM      1  O1  864 L   1      -0.158  -1.291   0.480  1.00  0.00    -0.2473 OA
ATOM      2  C2  864 L   1      -0.716  -0.306   0.962  1.00  0.00    +0.3188  C
ATOM      3  N3  864 L   1      -0.026   0.666   1.650  1.00  0.00    -0.3376  N
ATOM      4 N14  864 L   1      -2.093  -0.070   0.875  1.00  0.00    -0.3246  N
ATOM      5 C15  864 L   1      -2.879  -1.130   0.244  1.00  0.00    +0.0228  C
ATOM      6 C16  864 L   1      -3.010  -0.936  -1.266  1.00  0.00    -0.0352  C
ATOM      7 C17  864 L   1      -4.448  -0.781  -1.756  1.00  0.00    -0.0515  C
ATOM      8 C18  864 L   1      -5.374   0.123  -0.940  1.00  0.00    -0.0529  C
ATOM      9 C19  864 L   1      -4.794   1.478  -0.540  1.00  0.00    -0.0515  C
ATOM     10 C20  864 L   1      -4.121   1.512   0.843  1.00  0.00    -0.0352  C
ATOM     11 C21  864 L   1      -2.602   1.309   0.836  1.00  0.00    +0.0228  C
ATOM     12 H22  864 L   1      -0.537   0.980   2.464  1.00  0.00    +0.1641 HD
ATOM     13 H33  864 L   1      -3.839  -1.196   0.763  1.00  0.00    +0.0489  H
ATOM     14 H34  864 L   1      -2.394  -2.096   0.438  1.00  0.00    +0.0489  H
ATOM     15 H35  864 L   1      -2.577  -1.808  -1.773  1.00  0.00    +0.0282  H
ATOM     16 H36  864 L   1      -2.420  -0.079  -1.613  1.00  0.00    +0.0282  H
ATOM     17 H37  864 L   1      -4.910  -1.773  -1.816  1.00  0.00    +0.0266  H
ATOM     18 H38  864 L   1      -4.413  -0.409  -2.784  1.00  0.00    +0.0266  H
ATOM     19 H39  864 L   1      -6.264   0.304  -1.558  1.00  0.00    +0.0265  H
ATOM     20 H40  864 L   1      -5.746  -0.411  -0.055  1.00  0.00    +0.0265  H
ATOM     21 H41  864 L   1      -5.642   2.173  -0.485  1.00  0.00    +0.0266  H
ATOM     22 H42  864 L   1      -4.134   1.876  -1.320  1.00  0.00    +0.0266  H
ATOM     23 H43  864 L   1      -4.288   2.529   1.233  1.00  0.00    +0.0282  H
ATOM     24 H44  864 L   1      -4.613   0.840   1.554  1.00  0.00    +0.0282  H
ATOM     25 H45  864 L   1      -2.212   1.831   1.716  1.00  0.00    +0.0489  H
ATOM     26 H46  864 L   1      -2.150   1.808  -0.035  1.00  0.00    +0.0489  H
ENDROOT
BRANCH 3 27
ATOM     27  C4  864 L   1       1.407   0.526   1.862  1.00  0.00    +0.0266  C
ATOM     28 H23  864 L   1       1.678   1.239   2.649  1.00  0.00    +0.0491  H
ATOM     29 H24  864 L   1       1.604  -0.486   2.247  1.00  0.00    +0.0491  H
BRANCH 27 30
ATOM     30  C5  864 L   1       2.218   0.796   0.592  1.00  0.00    +0.0249  C
ATOM     31 H25  864 L   1       2.029   1.818   0.243  1.00  0.00    +0.0361  H
ATOM     32 H26  864 L   1       1.893   0.132  -0.220  1.00  0.00    +0.0361  H
BRANCH 30 33
ATOM     33  C6  864 L   1       3.670   0.630   0.842  1.00  0.00    +0.1351  A
ATOM     34  N7  864 L   1       4.400   1.201   1.790  1.00  0.00    -0.1343 NA
ATOM     35  N8  864 L   1       5.723   0.783   1.652  1.00  0.00    -0.1344 NA
ATOM     36  C9  864 L   1       5.747  -0.016   0.618  1.00  0.00    +0.1335  A
ATOM     37 N10  864 L   1       4.498  -0.135   0.103  1.00  0.00    -0.3147  N
ATOM     38 C11  864 L   1       4.435  -0.986  -1.058  1.00  0.00    +0.0264  C
ATOM     39 C12  864 L   1       5.798  -1.709  -0.998  1.00  0.00    -0.0280  C
ATOM     40 C13  864 L   1       6.729  -0.796  -0.150  1.00  0.00    +0.0091  C
ATOM     41 H27  864 L   1       3.586  -1.670  -0.977  1.00  0.00    +0.0493  H
ATOM     42 H28  864 L   1       4.349  -0.347  -1.938  1.00  0.00    +0.0493  H
ATOM     43 H29  864 L   1       5.670  -2.671  -0.478  1.00  0.00    +0.0286  H
ATOM     44 H30  864 L   1       6.208  -1.925  -1.990  1.00  0.00    +0.0286  H
ATOM     45 H31  864 L   1       7.398  -1.385   0.477  1.00  0.00    +0.0344  H
ATOM     46 H32  864 L   1       7.322  -0.140  -0.796  1.00  0.00    +0.0344  H
ENDBRANCH 30 33
ENDBRANCH 27 30
ENDBRANCH 3 27
TORSDOF 3
