ROOT
ATOM      1  C3  CHE L   1       0.922   2.333  -0.067  1.00  0.00    +0.1619  A
ATOM      2  C4  CHE L   1       2.206   1.838  -0.342  1.00  0.00    -0.0102  A
ATOM      3  C5  CHE L   1       2.469   0.478  -0.196  1.00  0.00    -0.0049  A
ATOM      4  C6  CHE L   1       1.437  -0.373   0.226  1.00  0.00    +0.0737  A
ATOM      5  C7  CHE L   1       0.162   0.090   0.505  1.00  0.00    +0.0095  A
ATOM      6  C8  CHE L   1      -0.104   1.454   0.365  1.00  0.00    +0.1639  A
ATOM      7 N18  CHE L   1       1.847  -1.718   0.328  1.00  0.00    -0.2337 NA
ATOM      8 C19  CHE L   1       3.102  -1.765  -0.016  1.00  0.00    +0.1119  C
ATOM      9 N20  CHE L   1       3.862  -2.892  -0.041  1.00  0.00    -0.3863  N
ATOM     10 C21  CHE L   1       3.764  -0.362  -0.423  1.00  0.00    +0.0550  C
ATOM     11 C22  CHE L   1       4.507  -0.263  -1.779  1.00  0.00    -0.0364  C
ATOM     12 C23  CHE L   1       5.837  -0.346  -1.009  1.00  0.00    -0.0507  C
ATOM     13 C24  CHE L   1       5.082   0.068   0.268  1.00  0.00    -0.0364  C
ATOM     14 H28  CHE L   1       3.013   2.484  -0.669  1.00  0.00    +0.0659  H
ATOM     15 H29  CHE L   1      -0.583  -0.632   0.812  1.00  0.00    +0.0677  H
ATOM     16 H41  CHE L   1       3.428  -3.667   0.450  1.00  0.00    +0.1570 HD
ATOM     17 H42  CHE L   1       4.849  -2.792   0.158  1.00  0.00    +0.1570 HD
ATOM     18 H43  CHE L   1       4.330  -1.078  -2.486  1.00  0.00    +0.0278  H
ATOM     19 H44  CHE L   1       4.365   0.690  -2.304  1.00  0.00    +0.0278  H
ATOM     20 H45  CHE L   1       6.260  -1.355  -0.967  1.00  0.00    +0.0266  H
ATOM     21 H46  CHE L   1       6.615   0.347  -1.340  1.00  0.00    +0.0266  H
ATOM     22 H47  CHE L   1       5.150   1.140   0.486  1.00  0.00    +0.0278  H
ATOM     23 H48  CHE L   1       5.358  -0.488   1.169  1.00  0.00    +0.0278  H
ENDROOT
BRANCH 1 25
ATOM     24  C1  CHE L   1       1.535   4.558  -0.695  1.00  0.00    +0.0790  C
ATOM     25  O2  CHE L   1       0.567   3.656  -0.179  1.00  0.00    -0.4914 OA
ATOM     26 H25  CHE L   1       1.845   4.272  -1.706  1.00  0.00    +0.0660  H
ATOM     27 H26  CHE L   1       2.397   4.638  -0.024  1.00  0.00    +0.0660  H
ATOM     28 H27  CHE L   1       1.071   5.547  -0.758  1.00  0.00    +0.0660  H
ENDBRANCH 1 25
BRANCH 6 29
ATOM     29  O9  CHE L   1      -1.326   2.037   0.600  1.00  0.00    -0.4882 OA
BRANCH 29 30
ATOM     30 C10  CHE L   1      -2.366   1.262   1.193  1.00  0.00    +0.0909  C
ATOM     31 H30  CHE L   1      -1.985   0.567   1.950  1.00  0.00    +0.0697  H
ATOM     32 H31  CHE L   1      -3.002   1.970   1.738  1.00  0.00    +0.0697  H
BRANCH 30 33
ATOM     33 C11  CHE L   1      -3.208   0.574   0.120  1.00  0.00    -0.0058  C
ATOM     34 H32  CHE L   1      -3.640   1.339  -0.539  1.00  0.00    +0.0310  H
ATOM     35 H33  CHE L   1      -2.567  -0.041  -0.522  1.00  0.00    +0.0310  H
BRANCH 33 36
ATOM     36 C12  CHE L   1      -4.314  -0.273   0.753  1.00  0.00    +0.0022  C
ATOM     37 H34  CHE L   1      -3.875  -1.014   1.434  1.00  0.00    +0.0428  H
ATOM     38 H35  CHE L   1      -4.942   0.388   1.364  1.00  0.00    +0.0428  H
BRANCH 36 39
ATOM     39 N13  CHE L   1      -5.154  -0.888  -0.286  1.00  0.00    -0.2967 NA
ATOM     40 C14  CHE L   1      -6.234  -1.697   0.327  1.00  0.00    +0.0314  C
ATOM     41 C15  CHE L   1      -5.382  -2.970   0.170  1.00  0.00    +0.1262  C
ATOM     42 F16  CHE L   1      -6.006  -4.059  -0.338  1.00  0.00    -0.2428  F
ATOM     43 C17  CHE L   1      -4.543  -2.132  -0.814  1.00  0.00    +0.0314  C
ATOM     44 H36  CHE L   1      -7.149  -1.711  -0.278  1.00  0.00    +0.0455  H
ATOM     45 H37  CHE L   1      -6.516  -1.444   1.354  1.00  0.00    +0.0455  H
ATOM     46 H38  CHE L   1      -4.829  -3.219   1.085  1.00  0.00    +0.0677  H
ATOM     47 H39  CHE L   1      -3.458  -2.238  -0.708  1.00  0.00    +0.0455  H
ATOM     48 H40  CHE L   1      -4.796  -2.316  -1.865  1.00  0.00    +0.0455  H
ENDBRANCH 36 39
ENDBRANCH 33 36
ENDBRANCH 30 33
ENDBRANCH 29 30
ENDBRANCH 6 29
TORSDOF 6
