ROOT
ATOM      1 C16  CHE L   1      -3.356  -0.015   0.072  1.00  0.00    -0.0414  C
ATOM      2 C17  CHE L   1      -3.785  -0.815   1.067  1.00  0.00    -0.0665  C
ATOM      3 C18  CHE L   1      -5.055  -1.614   1.156  1.00  0.00    +0.0148  C
ATOM      4 N19  CHE L   1      -6.036  -1.447   0.091  1.00  0.00    -0.3125 NA
ATOM      5 C20  CHE L   1      -6.390  -0.045  -0.106  1.00  0.00    -0.0035  C
ATOM      6 C21  CHE L   1      -5.524   0.662  -1.150  1.00  0.00    -0.0364  C
ATOM      7 C22  CHE L   1      -4.062   0.213  -1.238  1.00  0.00    -0.0262  C
ATOM      8 H36  CHE L   1      -3.165  -0.907   1.960  1.00  0.00    +0.0588  H
ATOM      9 H37  CHE L   1      -4.786  -2.675   1.210  1.00  0.00    +0.0468  H
ATOM     10 H38  CHE L   1      -5.538  -1.380   2.114  1.00  0.00    +0.0468  H
ATOM     11 H39  CHE L   1      -5.686  -1.858  -0.770  1.00  0.00    +0.1222 HD
ATOM     12 H40  CHE L   1      -7.431  -0.001  -0.447  1.00  0.00    +0.0424  H
ATOM     13 H41  CHE L   1      -6.375   0.509   0.842  1.00  0.00    +0.0424  H
ATOM     14 H42  CHE L   1      -5.974   0.518  -2.141  1.00  0.00    +0.0281  H
ATOM     15 H43  CHE L   1      -5.562   1.741  -0.957  1.00  0.00    +0.0281  H
ATOM     16 H44  CHE L   1      -4.004  -0.719  -1.818  1.00  0.00    +0.0314  H
ATOM     17 H45  CHE L   1      -3.524   0.953  -1.844  1.00  0.00    +0.0314  H
ENDROOT
BRANCH 1 23
ATOM     18 C10  CHE L   1       0.386   0.575   0.071  1.00  0.00    +0.0426  A
ATOM     19 C11  CHE L   1       0.444   1.894   0.530  1.00  0.00    -0.0369  A
ATOM     20 C12  CHE L   1      -0.720   2.606   0.842  1.00  0.00    -0.0409  A
ATOM     21 C13  CHE L   1      -1.972   2.007   0.701  1.00  0.00    +0.0485  A
ATOM     22 CL14 CHE L   1      -3.367   2.941   1.112  1.00  0.00    -0.0829 Cl
ATOM     23 C15  CHE L   1      -2.067   0.687   0.243  1.00  0.00    -0.0018  A
ATOM     24 C23  CHE L   1      -0.884  -0.013  -0.063  1.00  0.00    -0.0295  A
ATOM     25 H34  CHE L   1       1.396   2.400   0.657  1.00  0.00    +0.0638  H
ATOM     26 H35  CHE L   1      -0.636   3.630   1.198  1.00  0.00    +0.0633  H
ATOM     27 H46  CHE L   1      -0.962  -1.040  -0.414  1.00  0.00    +0.0644  H
BRANCH 18 28
ATOM     28  N9  CHE L   1       1.512  -0.190  -0.248  1.00  0.00    -0.3241  N
ATOM     29 H33  CHE L   1       1.353  -1.123  -0.598  1.00  0.00    +0.1688 HD
BRANCH 28 35
ATOM     30  C3  CHE L   1       4.967  -0.822  -0.672  1.00  0.00    +0.1323  A
ATOM     31  C4  CHE L   1       5.569   0.360  -0.306  1.00  0.00    +0.0016  A
ATOM     32  C5  CHE L   1       4.732   1.373   0.105  1.00  0.00    +0.0455  A
ATOM     33  C6  CHE L   1       5.293   2.699   0.519  1.00  0.00    -0.0221  C
ATOM     34  N7  CHE L   1       3.395   1.226   0.147  1.00  0.00    -0.2174 NA
ATOM     35  C8  CHE L   1       2.884   0.052  -0.244  1.00  0.00    +0.2304  A
ATOM     36 N24  CHE L   1       3.636  -0.982  -0.657  1.00  0.00    -0.1953 NA
ATOM     37 H29  CHE L   1       6.640   0.496  -0.358  1.00  0.00    +0.0672  H
ATOM     38 H30  CHE L   1       4.494   3.383   0.824  1.00  0.00    +0.0293  H
ATOM     39 H31  CHE L   1       5.975   2.574   1.366  1.00  0.00    +0.0293  H
ATOM     40 H32  CHE L   1       5.834   3.158  -0.314  1.00  0.00    +0.0293  H
BRANCH 30 42
ATOM     41  C1  CHE L   1       6.707  -2.401  -0.188  1.00  0.00    +0.0054  C
ATOM     42  N2  CHE L   1       5.703  -1.921  -1.123  1.00  0.00    -0.3726  N
ATOM     43 H25  CHE L   1       7.133  -3.334  -0.570  1.00  0.00    +0.0450  H
ATOM     44 H26  CHE L   1       6.273  -2.609   0.796  1.00  0.00    +0.0450  H
ATOM     45 H27  CHE L   1       7.531  -1.688  -0.078  1.00  0.00    +0.0450  H
ATOM     46 H28  CHE L   1       5.003  -2.637  -1.318  1.00  0.00    +0.1607 HD
ENDBRANCH 30 42
ENDBRANCH 28 35
ENDBRANCH 18 28
ENDBRANCH 1 23
TORSDOF 4
