ROOT
ATOM      1  C3  CHE L   1       5.592   2.016   2.262  1.00  0.00    +0.1228  A
ATOM      2  C4  CHE L   1       4.937   0.790   2.141  1.00  0.00    -0.0099  A
ATOM      3  C5  CHE L   1       5.032   0.021   0.962  1.00  0.00    +0.0177  A
ATOM      4 C30  CHE L   1       5.830   0.501  -0.099  1.00  0.00    +0.0290  A
ATOM      5 C31  CHE L   1       6.236   0.065  -1.384  1.00  0.00    +0.0575  A
ATOM      6 N32  CHE L   1       7.031   0.938  -2.009  1.00  0.00    -0.1812 NA
ATOM      7 N33  CHE L   1       7.158   1.934  -1.117  1.00  0.00    -0.2768  N
ATOM      8 C34  CHE L   1       6.470   1.729   0.050  1.00  0.00    +0.0698  A
ATOM      9 C35  CHE L   1       6.368   2.508   1.207  1.00  0.00    +0.0055  A
ATOM     10 H39  CHE L   1       4.329   0.399   2.952  1.00  0.00    +0.0661  H
ATOM     11 H61  CHE L   1       5.987  -0.857  -1.892  1.00  0.00    +0.0854  H
ATOM     12 H62  CHE L   1       7.737   2.729  -1.362  1.00  0.00    +0.1889 HD
ATOM     13 H63  CHE L   1       6.880   3.462   1.297  1.00  0.00    +0.0675  H
ENDROOT
BRANCH 1 15
ATOM     14  C1  CHE L   1       4.828   2.372   4.489  1.00  0.00    +0.0788  C
ATOM     15  O2  CHE L   1       5.556   2.837   3.358  1.00  0.00    -0.4950 OA
ATOM     16 H36  CHE L   1       3.764   2.267   4.256  1.00  0.00    +0.0660  H
ATOM     17 H37  CHE L   1       5.246   1.435   4.871  1.00  0.00    +0.0660  H
ATOM     18 H38  CHE L   1       4.923   3.124   5.279  1.00  0.00    +0.0660  H
ENDBRANCH 1 15
BRANCH 3 19
ATOM     19  C6  CHE L   1       4.334  -1.242   0.868  1.00  0.00    +0.1134  A
ATOM     20  C7  CHE L   1       3.740  -1.793  -0.245  1.00  0.00    +0.0538  A
ATOM     21  N8  CHE L   1       3.183  -2.951   0.219  1.00  0.00    -0.2452  N
ATOM     22 N28  CHE L   1       3.415  -3.113   1.536  1.00  0.00    -0.0648 NA
ATOM     23 N29  CHE L   1       4.109  -2.060   1.947  1.00  0.00    -0.1295 NA
ATOM     24 H40  CHE L   1       3.633  -1.474  -1.271  1.00  0.00    +0.0849  H
BRANCH 21 25
ATOM     25  C9  CHE L   1       2.448  -3.951  -0.530  1.00  0.00    +0.0867  C
ATOM     26 H41  CHE L   1       2.982  -4.112  -1.473  1.00  0.00    +0.0575  H
ATOM     27 H42  CHE L   1       2.465  -4.889   0.036  1.00  0.00    +0.0575  H
BRANCH 25 28
ATOM     28 C10  CHE L   1       1.053  -3.496  -0.772  1.00  0.00    +0.0814  A
ATOM     29 C11  CHE L   1      -0.015  -3.456   0.104  1.00  0.00    +0.0343  A
ATOM     30 N12  CHE L   1      -1.068  -2.944  -0.609  1.00  0.00    -0.3060  N
ATOM     31 C13  CHE L   1      -2.371  -2.679  -0.199  1.00  0.00    +0.0156  A
ATOM     32 C14  CHE L   1      -3.252  -2.154  -1.075  1.00  0.00    -0.0170  A
ATOM     33 C24  CHE L   1      -2.795  -1.921  -2.449  1.00  0.00    -0.0525  A
ATOM     34 C25  CHE L   1      -1.531  -2.183  -2.834  1.00  0.00    -0.0185  A
ATOM     35 C26  CHE L   1      -0.601  -2.711  -1.897  1.00  0.00    +0.1379  A
ATOM     36 N27  CHE L   1       0.669  -3.038  -2.016  1.00  0.00    -0.2309 NA
ATOM     37 H43  CHE L   1      -0.104  -3.724   1.148  1.00  0.00    +0.0832  H
ATOM     38 H44  CHE L   1      -2.618  -2.905   0.831  1.00  0.00    +0.0816  H
ATOM     39 H59  CHE L   1      -3.509  -1.527  -3.167  1.00  0.00    +0.0622  H
ATOM     40 H60  CHE L   1      -1.198  -2.008  -3.851  1.00  0.00    +0.0654  H
BRANCH 32 41
ATOM     41 C15  CHE L   1      -4.687  -1.857  -0.721  1.00  0.00    +0.0227  C
ATOM     42 H45  CHE L   1      -5.353  -2.071  -1.566  1.00  0.00    +0.0474  H
ATOM     43 H46  CHE L   1      -5.005  -2.551   0.067  1.00  0.00    +0.0474  H
BRANCH 41 44
ATOM     44 N16  CHE L   1      -4.907  -0.504  -0.212  1.00  0.00    -0.3092 NA
ATOM     45 H47  CHE L   1      -4.229  -0.308   0.523  1.00  0.00    +0.1223 HD
BRANCH 44 46
ATOM     46 C17  CHE L   1      -4.830   0.534  -1.249  1.00  0.00    +0.0253  C
ATOM     47 H48  CHE L   1      -3.792   0.622  -1.583  1.00  0.00    +0.0452  H
ATOM     48 H49  CHE L   1      -5.435   0.232  -2.114  1.00  0.00    +0.0452  H
BRANCH 46 49
ATOM     49 C18  CHE L   1      -5.324   1.930  -0.788  1.00  0.00    +0.0816  C
ATOM     50 C21  CHE L   1      -6.728   1.935  -0.100  1.00  0.00    -0.0225  C
ATOM     51 C22  CHE L   1      -6.040   2.044   1.269  1.00  0.00    -0.0478  C
ATOM     52 C23  CHE L   1      -4.757   2.494   0.554  1.00  0.00    -0.0225  C
ATOM     53 H53  CHE L   1      -7.337   2.813  -0.350  1.00  0.00    +0.0293  H
ATOM     54 H54  CHE L   1      -7.345   1.043  -0.240  1.00  0.00    +0.0293  H
ATOM     55 H55  CHE L   1      -5.945   1.090   1.799  1.00  0.00    +0.0267  H
ATOM     56 H56  CHE L   1      -6.475   2.777   1.953  1.00  0.00    +0.0267  H
ATOM     57 H57  CHE L   1      -4.626   3.583   0.559  1.00  0.00    +0.0293  H
ATOM     58 H58  CHE L   1      -3.833   2.036   0.920  1.00  0.00    +0.0293  H
BRANCH 49 59
ATOM     59 O19  CHE L   1      -5.266   2.861  -1.910  1.00  0.00    -0.3753 OA
ATOM     60 C20  CHE L   1      -3.984   3.256  -2.381  1.00  0.00    +0.0372  C
ATOM     61 H50  CHE L   1      -3.317   3.508  -1.553  1.00  0.00    +0.0524  H
ATOM     62 H51  CHE L   1      -3.546   2.459  -2.986  1.00  0.00    +0.0524  H
ATOM     63 H52  CHE L   1      -4.109   4.140  -3.012  1.00  0.00    +0.0524  H
ENDBRANCH 49 59
ENDBRANCH 46 49
ENDBRANCH 44 46
ENDBRANCH 41 44
ENDBRANCH 32 41
ENDBRANCH 25 28
ENDBRANCH 21 25
ENDBRANCH 3 19
TORSDOF 9
