ROOT
ATOM      1 C15  698 L   1       3.606  -0.277  -1.016  1.00  0.00    -0.0243  A
ATOM      2 C16  698 L   1       3.523   1.120  -0.945  1.00  0.00    -0.0546  A
ATOM      3 C17  698 L   1       4.543   1.920  -1.465  1.00  0.00    -0.0612  A
ATOM      4 C18  698 L   1       5.651   1.333  -2.072  1.00  0.00    -0.0617  A
ATOM      5 C19  698 L   1       5.738  -0.054  -2.163  1.00  0.00    -0.0612  A
ATOM      6 C20  698 L   1       4.718  -0.855  -1.643  1.00  0.00    -0.0546  A
ATOM      7 H36  698 L   1       2.662   1.606  -0.494  1.00  0.00    +0.0623  H
ATOM      8 H37  698 L   1       4.471   3.003  -1.401  1.00  0.00    +0.0618  H
ATOM      9 H38  698 L   1       6.445   1.955  -2.477  1.00  0.00    +0.0618  H
ATOM     10 H39  698 L   1       6.599  -0.516  -2.640  1.00  0.00    +0.0618  H
ATOM     11 H40  698 L   1       4.806  -1.936  -1.725  1.00  0.00    +0.0623  H
ENDROOT
BRANCH 1 13
ATOM     12 C13  698 L   1       1.812  -0.893   0.583  1.00  0.00    +0.0508  C
ATOM     13 C14  698 L   1       2.544  -1.158  -0.510  1.00  0.00    -0.0419  C
ATOM     14 H34  698 L   1       1.951  -0.017   1.199  1.00  0.00    +0.0758  H
ATOM     15 H35  698 L   1       2.386  -2.078  -1.071  1.00  0.00    +0.0631  H
BRANCH 12 16
ATOM     16 S10  698 L   1       0.594  -2.010   1.103  1.00  0.00    +0.2529  S
ATOM     17 O11  698 L   1       1.022  -2.555   2.373  1.00  0.00    -0.2009 OA
ATOM     18 O12  698 L   1       0.220  -2.889   0.017  1.00  0.00    -0.2009 OA
BRANCH 16 19
ATOM     19  N9  698 L   1      -0.717  -1.058   1.470  1.00  0.00    -0.2966 NA
ATOM     20 H33  698 L   1      -0.990  -1.051   2.460  1.00  0.00    +0.1735 HD
BRANCH 19 21
ATOM     21  C6  698 L   1      -1.802  -0.640   0.525  1.00  0.00    +0.1210  C
ATOM     22  C7  698 L   1      -1.171   0.127  -0.636  1.00  0.00    -0.0327  C
ATOM     23  C8  698 L   1      -2.601  -1.875   0.101  1.00  0.00    -0.0327  C
ATOM     24 H27  698 L   1      -0.437  -0.482  -1.173  1.00  0.00    +0.0257  H
ATOM     25 H28  698 L   1      -1.890   0.446  -1.390  1.00  0.00    +0.0257  H
ATOM     26 H29  698 L   1      -0.657   1.027  -0.277  1.00  0.00    +0.0257  H
ATOM     27 H30  698 L   1      -2.111  -2.415  -0.715  1.00  0.00    +0.0257  H
ATOM     28 H31  698 L   1      -2.720  -2.574   0.938  1.00  0.00    +0.0257  H
ATOM     29 H32  698 L   1      -3.611  -1.637  -0.241  1.00  0.00    +0.0257  H
BRANCH 21 33
ATOM     30  C1  698 L   1      -4.502   1.878   1.851  1.00  0.00    +0.0095  C
ATOM     31  N2  698 L   1      -3.805   0.975   0.942  1.00  0.00    -0.3464  N
ATOM     32  C3  698 L   1      -4.189   1.112  -0.454  1.00  0.00    +0.0095  C
ATOM     33  C4  698 L   1      -2.704   0.283   1.439  1.00  0.00    +0.2486  C
ATOM     34  O5  698 L   1      -2.428   0.353   2.649  1.00  0.00    -0.2705 OA
ATOM     35 H21  698 L   1      -5.581   1.778   1.699  1.00  0.00    +0.0452  H
ATOM     36 H22  698 L   1      -4.194   2.904   1.626  1.00  0.00    +0.0452  H
ATOM     37 H23  698 L   1      -4.286   1.669   2.902  1.00  0.00    +0.0452  H
ATOM     38 H24  698 L   1      -3.920   0.244  -1.049  1.00  0.00    +0.0452  H
ATOM     39 H25  698 L   1      -5.275   1.234  -0.522  1.00  0.00    +0.0452  H
ATOM     40 H26  698 L   1      -3.701   2.002  -0.862  1.00  0.00    +0.0452  H
ENDBRANCH 21 33
ENDBRANCH 19 21
ENDBRANCH 16 19
ENDBRANCH 12 16
ENDBRANCH 1 13
TORSDOF 5
