ROOT
ATOM      1 N12  953 L   1      -3.024   0.250   0.411  1.00  0.00    -0.2968 NA
ATOM      2 C13  953 L   1      -3.937  -0.755  -0.152  1.00  0.00    -0.0007  C
ATOM      3 C14  953 L   1      -5.339  -0.618   0.460  1.00  0.00    -0.0378  C
ATOM      4 C15  953 L   1      -5.791   0.830   0.639  1.00  0.00    -0.0245  C
ATOM      5 C16  953 L   1      -4.981   1.764  -0.247  1.00  0.00    +0.0680  C
ATOM      6 O17  953 L   1      -5.414   3.104  -0.026  1.00  0.00    -0.3905 OA
ATOM      7 C18  953 L   1      -3.471   1.614   0.051  1.00  0.00    +0.0252  C
ATOM      8 H34  953 L   1      -3.985  -0.661  -1.246  1.00  0.00    +0.0427  H
ATOM      9 H35  953 L   1      -3.604  -1.778   0.057  1.00  0.00    +0.0427  H
ATOM     10 H36  953 L   1      -6.052  -1.146  -0.186  1.00  0.00    +0.0278  H
ATOM     11 H37  953 L   1      -5.372  -1.122   1.433  1.00  0.00    +0.0278  H
ATOM     12 H38  953 L   1      -6.863   0.927   0.430  1.00  0.00    +0.0291  H
ATOM     13 H39  953 L   1      -5.672   1.129   1.689  1.00  0.00    +0.0291  H
ATOM     14 H40  953 L   1      -5.180   1.522  -1.298  1.00  0.00    +0.0606  H
ATOM     15 H41  953 L   1      -4.922   3.675  -0.641  1.00  0.00    +0.2098 HD
ATOM     16 H42  953 L   1      -2.941   1.979  -0.839  1.00  0.00    +0.0452  H
ATOM     17 H43  953 L   1      -3.203   2.293   0.870  1.00  0.00    +0.0452  H
ENDROOT
BRANCH 1 21
ATOM     18  N8  953 L   1       1.120  -0.563   0.073  1.00  0.00    -0.3244  N
ATOM     19  C9  953 L   1       0.354  -1.487   0.892  1.00  0.00    +0.0242  C
ATOM     20 C10  953 L   1      -1.134  -1.394   0.546  1.00  0.00    -0.0195  C
ATOM     21 C11  953 L   1      -1.595   0.009   0.082  1.00  0.00    +0.0137  C
ATOM     22 C19  953 L   1      -0.647   1.063   0.685  1.00  0.00    -0.0195  C
ATOM     23 C20  953 L   1       0.785   0.852   0.183  1.00  0.00    +0.0242  C
ATOM     24 H29  953 L   1       0.670  -2.529   0.757  1.00  0.00    +0.0489  H
ATOM     25 H30  953 L   1       0.508  -1.248   1.952  1.00  0.00    +0.0489  H
ATOM     26 H31  953 L   1      -1.357  -2.115  -0.251  1.00  0.00    +0.0297  H
ATOM     27 H32  953 L   1      -1.697  -1.724   1.429  1.00  0.00    +0.0297  H
ATOM     28 H33  953 L   1      -1.488   0.053  -1.012  1.00  0.00    +0.0464  H
ATOM     29 H44  953 L   1      -0.940   2.086   0.429  1.00  0.00    +0.0297  H
ATOM     30 H45  953 L   1      -0.671   0.997   1.781  1.00  0.00    +0.0297  H
ATOM     31 H46  953 L   1       1.477   1.368   0.861  1.00  0.00    +0.0489  H
ATOM     32 H47  953 L   1       0.881   1.320  -0.806  1.00  0.00    +0.0489  H
BRANCH 18 36
ATOM     33  C4  953 L   1       4.373  -0.629  -0.970  1.00  0.00    +0.2192  A
ATOM     34  N5  953 L   1       4.296  -1.888  -0.597  1.00  0.00    -0.1108 NA
ATOM     35  N6  953 L   1       3.014  -2.066  -0.122  1.00  0.00    -0.0904 NA
ATOM     36  C7  953 L   1       2.394  -0.909  -0.238  1.00  0.00    +0.3195  A
ATOM     37 O21  953 L   1       3.206   0.056  -0.778  1.00  0.00    -0.4077 OA
BRANCH 33 38
ATOM     38  C3  953 L   1       5.505   0.119  -1.564  1.00  0.00    +0.0254  C
ATOM     39 H27  953 L   1       5.356   1.198  -1.430  1.00  0.00    +0.0360  H
ATOM     40 H28  953 L   1       5.507  -0.069  -2.645  1.00  0.00    +0.0360  H
BRANCH 38 42
ATOM     41  C1  953 L   1       7.039   0.122   0.468  1.00  0.00    -0.0648  C
ATOM     42  C2  953 L   1       6.861  -0.291  -0.988  1.00  0.00    -0.0475  C
ATOM     43 H22  953 L   1       8.038  -0.160   0.818  1.00  0.00    +0.0230  H
ATOM     44 H23  953 L   1       6.931   1.205   0.584  1.00  0.00    +0.0230  H
ATOM     45 H24  953 L   1       6.307  -0.369   1.115  1.00  0.00    +0.0230  H
ATOM     46 H25  953 L   1       7.652   0.184  -1.581  1.00  0.00    +0.0267  H
ATOM     47 H26  953 L   1       7.004  -1.375  -1.079  1.00  0.00    +0.0267  H
ENDBRANCH 38 42
ENDBRANCH 33 38
ENDBRANCH 18 36
ENDBRANCH 1 21
TORSDOF 4
