ROOT
ATOM      1  C6  CHE L   1      -1.341   0.837   1.629  1.00  0.00    -0.0137  A
ATOM      2  C7  CHE L   1      -1.089   2.207   1.765  1.00  0.00    -0.0532  A
ATOM      3  C8  CHE L   1      -1.365   3.077   0.709  1.00  0.00    -0.0482  A
ATOM      4  C9  CHE L   1      -1.898   2.576  -0.483  1.00  0.00    +0.0497  A
ATOM      5 C10  CHE L   1      -2.160   3.479  -1.616  1.00  0.00    +0.2725  A
ATOM      6 O11  CHE L   1      -1.941   4.682  -1.540  1.00  0.00    -0.2658 OA
ATOM      7 N12  CHE L   1      -2.654   2.892  -2.755  1.00  0.00    -0.2424  N
ATOM      8 N13  CHE L   1      -2.939   1.571  -2.921  1.00  0.00    -0.1740 NA
ATOM      9 C14  CHE L   1      -2.729   0.765  -1.921  1.00  0.00    +0.0828  A
ATOM     10 C17  CHE L   1      -2.172   1.218  -0.622  1.00  0.00    +0.0121  A
ATOM     11 C18  CHE L   1      -1.895   0.347   0.438  1.00  0.00    -0.0442  A
ATOM     12 H37  CHE L   1      -0.646   2.603   2.678  1.00  0.00    +0.0624  H
ATOM     13 H38  CHE L   1      -1.148   4.139   0.812  1.00  0.00    +0.0625  H
ATOM     14 H39  CHE L   1      -2.843   3.500  -3.546  1.00  0.00    +0.1921 HD
ATOM     15 H44  CHE L   1      -2.086  -0.718   0.349  1.00  0.00    +0.0630  H
ENDROOT
BRANCH 1 20
ATOM     16  C1  CHE L   1       0.864  -2.728   4.301  1.00  0.00    +0.0309  C
ATOM     17  N2  CHE L   1      -0.006  -1.666   3.849  1.00  0.00    -0.2661  N
ATOM     18  N3  CHE L   1      -0.804  -1.057   4.749  1.00  0.00    -0.1787 NA
ATOM     19  C4  CHE L   1      -1.386  -0.081   4.053  1.00  0.00    +0.0577  A
ATOM     20  C5  CHE L   1      -0.988  -0.072   2.701  1.00  0.00    +0.0275  A
ATOM     21 C19  CHE L   1      -0.081  -1.119   2.586  1.00  0.00    +0.0790  A
ATOM     22 H33  CHE L   1       0.836  -3.549   3.583  1.00  0.00    +0.0473  H
ATOM     23 H34  CHE L   1       1.876  -2.324   4.386  1.00  0.00    +0.0473  H
ATOM     24 H35  CHE L   1       0.520  -3.088   5.274  1.00  0.00    +0.0473  H
ATOM     25 H36  CHE L   1      -2.076   0.584   4.558  1.00  0.00    +0.0854  H
BRANCH 21 26
ATOM     26 C20  CHE L   1       0.717  -1.559   1.430  1.00  0.00    +0.0398  A
ATOM     27 C21  CHE L   1       0.351  -2.702   0.689  1.00  0.00    +0.0516  A
ATOM     28 CL22 CHE L   1      -1.017  -3.676   1.115  1.00  0.00    -0.0828 Cl
ATOM     29 C23  CHE L   1       1.077  -3.087  -0.443  1.00  0.00    -0.0392  A
ATOM     30 C24  CHE L   1       2.160  -2.324  -0.871  1.00  0.00    -0.0172  A
ATOM     31 C25  CHE L   1       2.513  -1.172  -0.168  1.00  0.00    +0.1389  A
ATOM     32 C30  CHE L   1       1.824  -0.797   0.995  1.00  0.00    +0.1038  A
ATOM     33 H45  CHE L   1       0.790  -3.974  -1.005  1.00  0.00    +0.0633  H
ATOM     34 H46  CHE L   1       2.721  -2.629  -1.751  1.00  0.00    +0.0655  H
BRANCH 31 35
ATOM     35 O26  CHE L   1       3.577  -0.415  -0.596  1.00  0.00    -0.4875 OA
BRANCH 35 36
ATOM     36 C27  CHE L   1       3.326   0.218  -1.871  1.00  0.00    +0.1005  C
ATOM     37 C28  CHE L   1       2.551   1.509  -1.860  1.00  0.00    -0.0124  C
ATOM     38 C29  CHE L   1       4.036   1.529  -2.071  1.00  0.00    -0.0124  C
ATOM     39 H47  CHE L   1       3.246  -0.415  -2.752  1.00  0.00    +0.0733  H
ATOM     40 H48  CHE L   1       1.912   1.723  -2.708  1.00  0.00    +0.0302  H
ATOM     41 H49  CHE L   1       2.177   1.897  -0.919  1.00  0.00    +0.0302  H
ATOM     42 H50  CHE L   1       4.407   1.758  -3.062  1.00  0.00    +0.0302  H
ATOM     43 H51  CHE L   1       4.657   1.903  -1.266  1.00  0.00    +0.0302  H
ENDBRANCH 35 36
ENDBRANCH 31 35
BRANCH 32 44
ATOM     44 C31  CHE L   1       2.253   0.369   1.718  1.00  0.00    +0.1035  C
ATOM     45 N32  CHE L   1       2.593   1.310   2.308  1.00  0.00    -0.1907 NA
ENDBRANCH 32 44
ENDBRANCH 21 26
ENDBRANCH 1 20
BRANCH 9 46
ATOM     46 C15  CHE L   1      -3.065  -0.710  -2.132  1.00  0.00    +0.0383  C
ATOM     47 N16  CHE L   1      -1.830  -1.445  -2.423  1.00  0.00    -0.3248 NA
ATOM     48 H40  CHE L   1      -3.566  -1.123  -1.253  1.00  0.00    +0.0487  H
ATOM     49 H41  CHE L   1      -3.756  -0.805  -2.976  1.00  0.00    +0.0487  H
ATOM     50 H42  CHE L   1      -1.426  -1.052  -3.276  1.00  0.00    +0.1186 HD
ATOM     51 H43  CHE L   1      -2.078  -2.407  -2.658  1.00  0.00    +0.1186 HD
ENDBRANCH 9 46
TORSDOF 6
