ROOT
ATOM      1  C5  299 L   1       3.760  -0.213  -0.530  1.00  0.00    +0.0400  C
ATOM      2  C6  299 L   1       3.065  -1.172   0.444  1.00  0.00    -0.0288  C
ATOM      3  C7  299 L   1       1.818  -0.543   1.061  1.00  0.00    +0.0003  C
ATOM      4  N8  299 L   1       0.866  -0.048   0.073  1.00  0.00    -0.2915 NA
ATOM      5 C20  299 L   1       1.466   0.858  -0.903  1.00  0.00    +0.0003  C
ATOM      6 C21  299 L   1       2.754   0.333  -1.551  1.00  0.00    -0.0288  C
ATOM      7 H26  299 L   1       4.531  -0.767  -1.083  1.00  0.00    +0.0397  H
ATOM      8 H27  299 L   1       2.790  -2.091  -0.088  1.00  0.00    +0.0285  H
ATOM      9 H28  299 L   1       3.742  -1.480   1.248  1.00  0.00    +0.0285  H
ATOM     10 H29  299 L   1       2.121   0.299   1.697  1.00  0.00    +0.0427  H
ATOM     11 H30  299 L   1       1.345  -1.256   1.748  1.00  0.00    +0.0427  H
ATOM     12 H44  299 L   1       1.690   1.799  -0.386  1.00  0.00    +0.0427  H
ATOM     13 H45  299 L   1       0.752   1.136  -1.686  1.00  0.00    +0.0427  H
ATOM     14 H46  299 L   1       3.208   1.135  -2.145  1.00  0.00    +0.0285  H
ATOM     15 H47  299 L   1       2.511  -0.465  -2.261  1.00  0.00    +0.0285  H
ENDROOT
BRANCH 1 18
ATOM     16  C1  299 L   1       6.353   1.404   1.726  1.00  0.00    +0.0066  C
ATOM     17  N2  299 L   1       5.500   0.467   1.038  1.00  0.00    -0.3588  N
ATOM     18  C3  299 L   1       4.497   0.911   0.201  1.00  0.00    +0.2239  C
ATOM     19  O4  299 L   1       4.241   2.101   0.046  1.00  0.00    -0.2730 OA
ATOM     20 H22  299 L   1       7.077   1.807   1.014  1.00  0.00    +0.0450  H
ATOM     21 H23  299 L   1       6.875   0.875   2.527  1.00  0.00    +0.0450  H
ATOM     22 H24  299 L   1       5.759   2.221   2.144  1.00  0.00    +0.0450  H
ATOM     23 H25  299 L   1       5.830  -0.484   0.933  1.00  0.00    +0.1620 HD
ENDBRANCH 1 18
BRANCH 4 24
ATOM     24  C9  299 L   1      -0.137  -1.021  -0.399  1.00  0.00    +0.0870  C
ATOM     25 C10  299 L   1       0.186  -1.767  -1.698  1.00  0.00    -0.0407  C
ATOM     26 H31  299 L   1      -0.247  -1.796   0.372  1.00  0.00    +0.0558  H
ATOM     27 H32  299 L   1       0.240  -1.096  -2.562  1.00  0.00    +0.0249  H
ATOM     28 H33  299 L   1       1.129  -2.314  -1.623  1.00  0.00    +0.0249  H
ATOM     29 H34  299 L   1      -0.596  -2.504  -1.920  1.00  0.00    +0.0249  H
BRANCH 24 30
ATOM     30 C11  299 L   1      -1.507  -0.396  -0.487  1.00  0.00    +0.2444  A
ATOM     31 N12  299 L   1      -2.553  -0.564   0.294  1.00  0.00    -0.1942 NA
ATOM     32 C13  299 L   1      -3.494   0.243  -0.297  1.00  0.00    +0.1771  A
ATOM     33 N18  299 L   1      -3.076   0.862  -1.412  1.00  0.00    -0.0607 NA
ATOM     34 O19  299 L   1      -1.752   0.444  -1.537  1.00  0.00    -0.3364 OA
BRANCH 32 35
ATOM     35 C14  299 L   1      -4.891   0.411   0.247  1.00  0.00    +0.0253  C
ATOM     36 C15  299 L   1      -5.924  -0.100  -0.777  1.00  0.00    -0.0530  C
ATOM     37 C16  299 L   1      -5.172   1.896   0.547  1.00  0.00    -0.0530  C
ATOM     38 C17  299 L   1      -5.078  -0.385   1.555  1.00  0.00    -0.0530  C
ATOM     39 H35  299 L   1      -5.874   0.465  -1.715  1.00  0.00    +0.0239  H
ATOM     40 H36  299 L   1      -5.752  -1.155  -1.020  1.00  0.00    +0.0239  H
ATOM     41 H37  299 L   1      -6.945  -0.007  -0.391  1.00  0.00    +0.0239  H
ATOM     42 H38  299 L   1      -5.107   2.510  -0.359  1.00  0.00    +0.0239  H
ATOM     43 H39  299 L   1      -6.174   2.034   0.967  1.00  0.00    +0.0239  H
ATOM     44 H40  299 L   1      -4.448   2.298   1.266  1.00  0.00    +0.0239  H
ATOM     45 H41  299 L   1      -4.374  -0.053   2.328  1.00  0.00    +0.0239  H
ATOM     46 H42  299 L   1      -6.091  -0.262   1.954  1.00  0.00    +0.0239  H
ATOM     47 H43  299 L   1      -4.912  -1.457   1.397  1.00  0.00    +0.0239  H
ENDBRANCH 32 35
ENDBRANCH 24 30
ENDBRANCH 4 24
TORSDOF 4
