ROOT
ATOM      1 C29  WH0 L   1      -2.000  -0.596  -0.544  1.00  0.00    -0.0133  A
ATOM      2 C30  WH0 L   1      -2.480  -1.018  -1.804  1.00  0.00    -0.0519  A
ATOM      3 C31  WH0 L   1      -3.840  -0.934  -2.119  1.00  0.00    -0.0374  A
ATOM      4 C32  WH0 L   1      -4.682  -0.436  -1.149  1.00  0.00    +0.0454  A
ATOM      5 C33  WH0 L   1      -4.227  -0.029   0.103  1.00  0.00    -0.0145  A
ATOM      6 C34  WH0 L   1      -2.885  -0.105   0.428  1.00  0.00    -0.0483  A
ATOM      7 C35  WH0 L   1      -5.388   0.450   0.923  1.00  0.00    +0.0535  C
ATOM      8 C36  WH0 L   1      -6.563   0.260  -0.043  1.00  0.00    +0.2296  C
ATOM      9 O37  WH0 L   1      -7.735   0.517   0.174  1.00  0.00    -0.2725 OA
ATOM     10 N38  WH0 L   1      -6.053  -0.263  -1.226  1.00  0.00    -0.3256  N
ATOM     11 H60  WH0 L   1      -1.788  -1.414  -2.545  1.00  0.00    +0.0624  H
ATOM     12 H61  WH0 L   1      -4.208  -1.254  -3.087  1.00  0.00    +0.0638  H
ATOM     13 H62  WH0 L   1      -2.531   0.206   1.406  1.00  0.00    +0.0627  H
ATOM     14 H63  WH0 L   1      -5.287   1.508   1.176  1.00  0.00    +0.0410  H
ATOM     15 H64  WH0 L   1      -5.535  -0.173   1.808  1.00  0.00    +0.0410  H
ATOM     16 H65  WH0 L   1      -6.635  -0.479  -2.021  1.00  0.00    +0.1686 HD
ENDROOT
BRANCH 1 24
ATOM     17  C8  WH0 L   1       0.550   1.203  -1.618  1.00  0.00    -0.0014  A
ATOM     18  C9  WH0 L   1       1.813   1.629  -1.848  1.00  0.00    +0.0366  A
ATOM     19 N10  WH0 L   1       2.970   1.128  -1.306  1.00  0.00    -0.2204 NA
ATOM     20 C11  WH0 L   1       2.886   0.118  -0.472  1.00  0.00    +0.2284  A
ATOM     21 N18  WH0 L   1       1.588  -0.398  -0.176  1.00  0.00    -0.1984  N
ATOM     22 N19  WH0 L   1       1.373  -1.380   0.731  1.00  0.00    -0.1627 NA
ATOM     23 C20  WH0 L   1       0.054  -1.611   0.689  1.00  0.00    +0.1015  A
ATOM     24 C28  WH0 L   1      -0.591  -0.723  -0.230  1.00  0.00    +0.0356  A
ATOM     25 C39  WH0 L   1       0.417   0.082  -0.735  1.00  0.00    +0.0835  A
ATOM     26 H47  WH0 L   1       1.982   2.475  -2.514  1.00  0.00    +0.0834  H
BRANCH 17 27
ATOM     27  C7  WH0 L   1      -0.580   1.956  -2.301  1.00  0.00    -0.0067  C
ATOM     28 H45  WH0 L   1      -1.295   1.246  -2.727  1.00  0.00    +0.0331  H
ATOM     29 H46  WH0 L   1      -0.193   2.515  -3.164  1.00  0.00    +0.0331  H
BRANCH 27 30
ATOM     30  C6  WH0 L   1      -1.311   2.927  -1.365  1.00  0.00    +0.0222  C
ATOM     31 H43  WH0 L   1      -2.125   3.413  -1.915  1.00  0.00    +0.0489  H
ATOM     32 H44  WH0 L   1      -1.750   2.405  -0.511  1.00  0.00    +0.0489  H
BRANCH 30 35
ATOM     33  O1  WH0 L   1      -0.402   5.221  -2.728  1.00  0.00    -0.2720 OA
ATOM     34  C2  WH0 L   1      -0.005   5.021  -1.580  1.00  0.00    +0.2356  C
ATOM     35  N5  WH0 L   1      -0.449   3.961  -0.822  1.00  0.00    -0.3547  N
ATOM     36 H42  WH0 L   1       0.077   3.748   0.022  1.00  0.00    +0.1623 HD
BRANCH 34 37
ATOM     37  C3  WH0 L   1       0.957   5.980  -0.900  1.00  0.00    +0.1010  C
ATOM     38 CL4  WH0 L   1       1.862   5.200   0.423  1.00  0.00    -0.1154 Cl
ATOM     39 H40  WH0 L   1       0.395   6.823  -0.488  1.00  0.00    +0.0527  H
ATOM     40 H41  WH0 L   1       1.687   6.336  -1.632  1.00  0.00    +0.0527  H
ENDBRANCH 34 37
ENDBRANCH 30 35
ENDBRANCH 27 30
ENDBRANCH 17 27
BRANCH 20 41
ATOM     41 N12  WH0 L   1       4.046  -0.402   0.105  1.00  0.00    -0.3359  N
ATOM     42 C13  WH0 L   1       5.308   0.347   0.018  1.00  0.00    +0.0449  C
ATOM     43 C14  WH0 L   1       6.250  -0.075   1.154  1.00  0.00    +0.0653  C
ATOM     44 O15  WH0 L   1       6.591  -1.468   1.140  1.00  0.00    -0.3763 OA
ATOM     45 C16  WH0 L   1       5.611  -2.284   0.485  1.00  0.00    +0.0653  C
ATOM     46 C17  WH0 L   1       4.170  -1.768   0.634  1.00  0.00    +0.0449  C
ATOM     47 H48  WH0 L   1       5.774   0.150  -0.955  1.00  0.00    +0.0511  H
ATOM     48 H49  WH0 L   1       5.126   1.424   0.103  1.00  0.00    +0.0511  H
ATOM     49 H50  WH0 L   1       5.791   0.139   2.127  1.00  0.00    +0.0577  H
ATOM     50 H51  WH0 L   1       7.185   0.492   1.102  1.00  0.00    +0.0577  H
ATOM     51 H52  WH0 L   1       5.692  -3.294   0.900  1.00  0.00    +0.0577  H
ATOM     52 H53  WH0 L   1       5.885  -2.346  -0.575  1.00  0.00    +0.0577  H
ATOM     53 H54  WH0 L   1       3.892  -1.763   1.694  1.00  0.00    +0.0511  H
ATOM     54 H55  WH0 L   1       3.522  -2.461   0.088  1.00  0.00    +0.0511  H
ENDBRANCH 20 41
BRANCH 23 55
ATOM     55 C21  WH0 L   1      -0.532  -2.655   1.537  1.00  0.00    +0.0029  A
ATOM     56 C22  WH0 L   1      -0.041  -2.851   2.839  1.00  0.00    -0.0498  A
ATOM     57 C23  WH0 L   1      -0.587  -3.837   3.664  1.00  0.00    -0.0258  A
ATOM     58 C24  WH0 L   1      -1.620  -4.632   3.187  1.00  0.00    +0.1234  A
ATOM     59 F25  WH0 L   1      -2.145  -5.578   3.977  1.00  0.00    -0.2055  F
ATOM     60 C26  WH0 L   1      -2.114  -4.465   1.899  1.00  0.00    -0.0258  A
ATOM     61 C27  WH0 L   1      -1.568  -3.480   1.072  1.00  0.00    -0.0498  A
ATOM     62 H56  WH0 L   1       0.771  -2.233   3.215  1.00  0.00    +0.0625  H
ATOM     63 H57  WH0 L   1      -0.211  -3.989   4.670  1.00  0.00    +0.0646  H
ATOM     64 H58  WH0 L   1      -2.916  -5.105   1.545  1.00  0.00    +0.0646  H
ATOM     65 H59  WH0 L   1      -1.952  -3.379   0.060  1.00  0.00    +0.0625  H
ENDBRANCH 23 55
ENDBRANCH 1 24
TORSDOF 7
