ROOT
ATOM      1 C19  CHE L   1       5.627  -0.897   1.315  1.00  0.00    -0.0442  A
ATOM      2 C20  CHE L   1       6.216  -1.627   2.356  1.00  0.00    -0.0585  A
ATOM      3 C21  CHE L   1       7.409  -2.321   2.146  1.00  0.00    -0.0615  A
ATOM      4 C22  CHE L   1       8.021  -2.294   0.894  1.00  0.00    -0.0617  A
ATOM      5 C23  CHE L   1       7.440  -1.575  -0.150  1.00  0.00    -0.0615  A
ATOM      6 C24  CHE L   1       6.247  -0.881   0.058  1.00  0.00    -0.0585  A
ATOM      7 H52  CHE L   1       5.751  -1.659   3.339  1.00  0.00    +0.0620  H
ATOM      8 H53  CHE L   1       7.862  -2.882   2.959  1.00  0.00    +0.0618  H
ATOM      9 H54  CHE L   1       8.951  -2.833   0.731  1.00  0.00    +0.0618  H
ATOM     10 H55  CHE L   1       7.918  -1.553  -1.126  1.00  0.00    +0.0618  H
ATOM     11 H56  CHE L   1       5.809  -0.325  -0.767  1.00  0.00    +0.0620  H
ENDROOT
BRANCH 1 12
ATOM     12 C18  CHE L   1       4.329  -0.165   1.536  1.00  0.00    +0.0066  C
ATOM     13 H50  CHE L   1       4.296   0.239   2.556  1.00  0.00    +0.0346  H
ATOM     14 H51  CHE L   1       4.288   0.720   0.889  1.00  0.00    +0.0346  H
BRANCH 12 15
ATOM     15 C17  CHE L   1       3.116  -1.066   1.300  1.00  0.00    +0.0935  C
ATOM     16 H48  CHE L   1       3.119  -1.871   2.045  1.00  0.00    +0.0700  H
ATOM     17 H49  CHE L   1       3.138  -1.574   0.328  1.00  0.00    +0.0700  H
BRANCH 15 18
ATOM     18 O16  CHE L   1       1.901  -0.341   1.503  1.00  0.00    -0.4916 OA
BRANCH 18 21
ATOM     19 C13  CHE L   1      -0.598   1.621  -0.256  1.00  0.00    +0.0041  A
ATOM     20 C14  CHE L   1       0.101   0.903   0.723  1.00  0.00    -0.0108  A
ATOM     21 C15  CHE L   1       1.344   0.325   0.448  1.00  0.00    +0.1217  A
ATOM     22 C25  CHE L   1       1.899   0.474  -0.822  1.00  0.00    -0.0083  A
ATOM     23 C26  CHE L   1       1.223   1.201  -1.818  1.00  0.00    +0.0589  A
ATOM     24 C31  CHE L   1      -0.029   1.765  -1.524  1.00  0.00    -0.0407  A
ATOM     25 H47  CHE L   1      -0.331   0.763   1.713  1.00  0.00    +0.0661  H
ATOM     26 H57  CHE L   1       2.865   0.043  -1.072  1.00  0.00    +0.0660  H
ATOM     27 H58  CHE L   1      -0.556   2.330  -2.293  1.00  0.00    +0.0630  H
BRANCH 19 32
ATOM     28  C8  CHE L   1      -3.142   2.105  -0.562  1.00  0.00    +0.0116  A
ATOM     29  C9  CHE L   1      -3.968   2.970   0.199  1.00  0.00    +0.0542  A
ATOM     30 N10  CHE L   1      -3.326   3.547   1.214  1.00  0.00    -0.1814 NA
ATOM     31 N11  CHE L   1      -2.080   3.062   1.108  1.00  0.00    -0.2767  N
ATOM     32 C12  CHE L   1      -1.896   2.210   0.047  1.00  0.00    +0.0702  A
ATOM     33 H45  CHE L   1      -5.017   3.194   0.050  1.00  0.00    +0.0851  H
ATOM     34 H46  CHE L   1      -1.386   3.368   1.780  1.00  0.00    +0.1889 HD
BRANCH 28 35
ATOM     35  C7  CHE L   1      -3.565   1.317  -1.761  1.00  0.00    +0.0273  C
ATOM     36 H43  CHE L   1      -4.368   1.858  -2.279  1.00  0.00    +0.0477  H
ATOM     37 H44  CHE L   1      -2.750   1.272  -2.492  1.00  0.00    +0.0477  H
BRANCH 35 38
ATOM     38  N5  CHE L   1      -4.029  -0.048  -1.467  1.00  0.00    -0.2999 NA
ATOM     39  C6  CHE L   1      -2.963  -0.918  -0.978  1.00  0.00    -0.0124  C
ATOM     40 H40  CHE L   1      -3.241  -1.971  -1.078  1.00  0.00    +0.0391  H
ATOM     41 H41  CHE L   1      -2.056  -0.804  -1.582  1.00  0.00    +0.0391  H
ATOM     42 H42  CHE L   1      -2.708  -0.724   0.070  1.00  0.00    +0.0391  H
BRANCH 38 43
ATOM     43  C4  CHE L   1      -5.232  -0.085  -0.617  1.00  0.00    +0.0115  C
ATOM     44 H38  CHE L   1      -5.960   0.621  -1.040  1.00  0.00    +0.0439  H
ATOM     45 H39  CHE L   1      -5.018   0.270   0.397  1.00  0.00    +0.0439  H
BRANCH 43 46
ATOM     46  C3  CHE L   1      -5.961  -1.454  -0.564  1.00  0.00    +0.0084  C
ATOM     47 H36  CHE L   1      -5.979  -1.877  -1.576  1.00  0.00    +0.0436  H
ATOM     48 H37  CHE L   1      -7.012  -1.283  -0.296  1.00  0.00    +0.0436  H
BRANCH 46 50
ATOM     49  C1  CHE L   1      -5.556  -2.115   1.748  1.00  0.00    -0.0157  C
ATOM     50  N2  CHE L   1      -5.398  -2.466   0.343  1.00  0.00    -0.3178 NA
ATOM     51 H32  CHE L   1      -6.604  -1.926   2.003  1.00  0.00    +0.0388  H
ATOM     52 H33  CHE L   1      -4.955  -1.242   2.020  1.00  0.00    +0.0388  H
ATOM     53 H34  CHE L   1      -5.207  -2.947   2.368  1.00  0.00    +0.0388  H
ATOM     54 H35  CHE L   1      -5.874  -3.351   0.170  1.00  0.00    +0.1217 HD
ENDBRANCH 46 50
ENDBRANCH 43 46
ENDBRANCH 38 43
ENDBRANCH 35 38
ENDBRANCH 28 35
ENDBRANCH 19 32
BRANCH 23 55
ATOM     55 C27  CHE L   1       1.817   1.341  -3.197  1.00  0.00    +0.4176  C
ATOM     56 F28  CHE L   1       1.438   0.332  -4.028  1.00  0.00    -0.1659  F
ATOM     57 F29  CHE L   1       1.460   2.497  -3.820  1.00  0.00    -0.1659  F
ATOM     58 F30  CHE L   1       3.180   1.328  -3.191  1.00  0.00    -0.1659  F
ENDBRANCH 23 55
ENDBRANCH 18 21
ENDBRANCH 15 18
ENDBRANCH 12 15
ENDBRANCH 1 12
TORSDOF 11
