ROOT
ATOM      1 C15  CHE L   1      -2.105   1.092  -0.207  1.00  0.00    -0.0398  A
ATOM      2 C16  CHE L   1      -3.039   2.141  -0.237  1.00  0.00    -0.0580  A
ATOM      3 C17  CHE L   1      -4.404   1.901  -0.053  1.00  0.00    -0.0612  A
ATOM      4 C18  CHE L   1      -4.869   0.608   0.173  1.00  0.00    -0.0573  A
ATOM      5 C19  CHE L   1      -3.973  -0.462   0.220  1.00  0.00    -0.0335  A
ATOM      6 C22  CHE L   1      -2.603  -0.207   0.035  1.00  0.00    -0.0536  A
ATOM      7 H37  CHE L   1      -2.733   3.170  -0.403  1.00  0.00    +0.0620  H
ATOM      8 H38  CHE L   1      -5.106   2.731  -0.086  1.00  0.00    +0.0618  H
ATOM      9 H39  CHE L   1      -5.935   0.445   0.313  1.00  0.00    +0.0621  H
ATOM     10 H44  CHE L   1      -1.922  -1.056   0.078  1.00  0.00    +0.0624  H
ENDROOT
BRANCH 1 12
ATOM     11  C1  CHE L   1      -0.256   2.748  -0.892  1.00  0.00    -0.0542  C
ATOM     12  C2  CHE L   1      -0.583   1.319  -0.394  1.00  0.00    +0.0075  C
ATOM     13  C3  CHE L   1      -0.059   0.344  -1.474  1.00  0.00    -0.0542  C
ATOM     14 H23  CHE L   1       0.807   2.862  -1.133  1.00  0.00    +0.0239  H
ATOM     15 H24  CHE L   1      -0.498   3.505  -0.136  1.00  0.00    +0.0239  H
ATOM     16 H25  CHE L   1      -0.811   2.990  -1.806  1.00  0.00    +0.0239  H
ATOM     17 H26  CHE L   1       0.969   0.578  -1.770  1.00  0.00    +0.0239  H
ATOM     18 H27  CHE L   1      -0.671   0.400  -2.383  1.00  0.00    +0.0239  H
ATOM     19 H28  CHE L   1      -0.069  -0.697  -1.135  1.00  0.00    +0.0239  H
BRANCH 12 20
ATOM     20  C4  CHE L   1       0.090   1.071   0.996  1.00  0.00    +0.0260  C
ATOM     21 H29  CHE L   1      -0.386   1.736   1.730  1.00  0.00    +0.0494  H
ATOM     22 H30  CHE L   1      -0.123   0.058   1.360  1.00  0.00    +0.0494  H
BRANCH 20 23
ATOM     23  N5  CHE L   1       1.524   1.354   1.067  1.00  0.00    -0.3688  N
ATOM     24 H31  CHE L   1       1.793   2.257   0.685  1.00  0.00    +0.1611 HD
BRANCH 23 25
ATOM     25  C6  CHE L   1       2.443   0.434   0.602  1.00  0.00    +0.1270  A
ATOM     26  C7  CHE L   1       2.391  -0.921   0.908  1.00  0.00    -0.0189  A
ATOM     27  C8  CHE L   1       3.375  -1.776   0.410  1.00  0.00    -0.0445  A
ATOM     28  C9  CHE L   1       4.402  -1.255  -0.372  1.00  0.00    +0.0570  A
ATOM     29 C13  CHE L   1       4.377   0.105  -0.632  1.00  0.00    +0.0422  A
ATOM     30 N14  CHE L   1       3.432   0.953  -0.153  1.00  0.00    -0.2377 NA
ATOM     31 H32  CHE L   1       1.609  -1.322   1.543  1.00  0.00    +0.0654  H
ATOM     32 H33  CHE L   1       3.340  -2.838   0.641  1.00  0.00    +0.0627  H
ATOM     33 H36  CHE L   1       5.119   0.583  -1.263  1.00  0.00    +0.0838  H
BRANCH 28 34
ATOM     34 C10  CHE L   1       5.450  -2.154  -0.902  1.00  0.00    +0.2510  C
ATOM     35 N11  CHE L   1       6.650  -1.601  -1.257  1.00  0.00    -0.3658  N
ATOM     36 O12  CHE L   1       5.268  -3.361  -0.991  1.00  0.00    -0.2678 OA
ATOM     37 H34  CHE L   1       7.379  -2.263  -1.495  1.00  0.00    +0.1589 HD
ATOM     38 H35  CHE L   1       6.951  -0.693  -0.930  1.00  0.00    +0.1589 HD
ENDBRANCH 28 34
ENDBRANCH 23 25
ENDBRANCH 20 23
ENDBRANCH 12 20
ENDBRANCH 1 12
BRANCH 5 39
ATOM     39 C20  CHE L   1      -4.461  -1.865   0.481  1.00  0.00    +0.0186  C
ATOM     40 N21  CHE L   1      -4.120  -2.763  -0.617  1.00  0.00    -0.3261 NA
ATOM     41 H40  CHE L   1      -5.548  -1.871   0.621  1.00  0.00    +0.0471  H
ATOM     42 H41  CHE L   1      -4.014  -2.232   1.412  1.00  0.00    +0.0471  H
ATOM     43 H42  CHE L   1      -4.510  -2.386  -1.480  1.00  0.00    +0.1185 HD
ATOM     44 H43  CHE L   1      -4.573  -3.662  -0.465  1.00  0.00    +0.1185 HD
ENDBRANCH 5 39
TORSDOF 6
