ROOT
ATOM      1 C18  CHE L   1      -8.366   0.699  -0.591  1.00  0.00    -0.0334  A
ATOM      2 C19  CHE L   1      -8.518   1.346  -1.830  1.00  0.00    -0.0546  A
ATOM      3 C20  CHE L   1      -9.438   2.383  -1.980  1.00  0.00    -0.0262  A
ATOM      4 C21  CHE L   1     -10.212   2.773  -0.893  1.00  0.00    +0.1234  A
ATOM      5 F22  CHE L   1     -11.097   3.768  -1.036  1.00  0.00    -0.2055  F
ATOM      6 C23  CHE L   1     -10.081   2.146   0.340  1.00  0.00    -0.0262  A
ATOM      7 C24  CHE L   1      -9.158   1.109   0.493  1.00  0.00    -0.0546  A
ATOM      8 H54  CHE L   1      -7.906   1.043  -2.678  1.00  0.00    +0.0622  H
ATOM      9 H55  CHE L   1      -9.554   2.888  -2.932  1.00  0.00    +0.0646  H
ATOM     10 H56  CHE L   1     -10.697   2.467   1.173  1.00  0.00    +0.0646  H
ATOM     11 H57  CHE L   1      -9.063   0.623   1.461  1.00  0.00    +0.0622  H
ENDROOT
BRANCH 1 12
ATOM     12 C17  CHE L   1      -7.366  -0.425  -0.437  1.00  0.00    +0.0215  C
ATOM     13 H52  CHE L   1      -7.455  -0.859   0.565  1.00  0.00    +0.0474  H
ATOM     14 H53  CHE L   1      -7.627  -1.213  -1.155  1.00  0.00    +0.0474  H
BRANCH 12 15
ATOM     15 N16  CHE L   1      -6.007   0.056  -0.677  1.00  0.00    -0.3093 NA
ATOM     16 H51  CHE L   1      -5.812   0.836  -0.050  1.00  0.00    +0.1225 HD
BRANCH 15 20
ATOM     17 C12  CHE L   1      -2.126  -0.912   0.559  1.00  0.00    -0.0256  C
ATOM     18 C13  CHE L   1      -2.503  -1.278  -0.892  1.00  0.00    -0.0478  C
ATOM     19 C14  CHE L   1      -3.767  -0.559  -1.351  1.00  0.00    -0.0373  C
ATOM     20 C15  CHE L   1      -4.992  -0.991  -0.522  1.00  0.00    +0.0079  C
ATOM     21 C25  CHE L   1      -4.620  -1.253   0.952  1.00  0.00    -0.0373  C
ATOM     22 C26  CHE L   1      -3.368  -0.492   1.378  1.00  0.00    -0.0478  C
ATOM     23 H45  CHE L   1      -1.470  -0.036   0.531  1.00  0.00    +0.0311  H
ATOM     24 H46  CHE L   1      -2.656  -2.360  -0.993  1.00  0.00    +0.0269  H
ATOM     25 H47  CHE L   1      -1.679  -1.009  -1.562  1.00  0.00    +0.0269  H
ATOM     26 H48  CHE L   1      -3.600   0.525  -1.276  1.00  0.00    +0.0280  H
ATOM     27 H49  CHE L   1      -3.952  -0.769  -2.411  1.00  0.00    +0.0280  H
ATOM     28 H50  CHE L   1      -5.370  -1.928  -0.953  1.00  0.00    +0.0460  H
ATOM     29 H58  CHE L   1      -4.448  -2.329   1.087  1.00  0.00    +0.0280  H
ATOM     30 H59  CHE L   1      -5.447  -1.001   1.626  1.00  0.00    +0.0280  H
ATOM     31 H60  CHE L   1      -3.544   0.583   1.238  1.00  0.00    +0.0269  H
ATOM     32 H61  CHE L   1      -3.193  -0.630   2.451  1.00  0.00    +0.0269  H
BRANCH 17 33
ATOM     33 C11  CHE L   1      -1.384  -2.054   1.268  1.00  0.00    +0.0715  C
ATOM     34 H43  CHE L   1      -1.236  -1.821   2.330  1.00  0.00    +0.0446  H
ATOM     35 H44  CHE L   1      -1.968  -2.981   1.220  1.00  0.00    +0.0446  H
BRANCH 33 36
ATOM     36  S8  CHE L   1       0.242  -2.465   0.638  1.00  0.00    +0.2325  S
ATOM     37  O9  CHE L   1       0.164  -2.677  -0.789  1.00  0.00    -0.2053 OA
ATOM     38 O10  CHE L   1       0.763  -3.500   1.508  1.00  0.00    -0.2053 OA
BRANCH 36 42
ATOM     39  C4  CHE L   1       3.688  -0.652  -0.174  1.00  0.00    +0.0332  C
ATOM     40  C5  CHE L   1       2.678   0.494  -0.260  1.00  0.00    -0.0142  C
ATOM     41  C6  CHE L   1       1.249  -0.035  -0.147  1.00  0.00    +0.0310  C
ATOM     42  N7  CHE L   1       1.117  -1.040   0.936  1.00  0.00    -0.3007 NA
ATOM     43 C27  CHE L   1       2.252  -1.112   1.877  1.00  0.00    +0.0310  C
ATOM     44 C28  CHE L   1       3.529  -1.464   1.125  1.00  0.00    -0.0142  C
ATOM     45 H38  CHE L   1       3.506  -1.327  -1.020  1.00  0.00    +0.0524  H
ATOM     46 H39  CHE L   1       2.793   1.039  -1.204  1.00  0.00    +0.0302  H
ATOM     47 H40  CHE L   1       2.871   1.225   0.535  1.00  0.00    +0.0302  H
ATOM     48 H41  CHE L   1       0.958  -0.451  -1.115  1.00  0.00    +0.0496  H
ATOM     49 H42  CHE L   1       0.572   0.800   0.059  1.00  0.00    +0.0496  H
ATOM     50 H62  CHE L   1       2.355  -0.138   2.372  1.00  0.00    +0.0496  H
ATOM     51 H63  CHE L   1       2.066  -1.821   2.690  1.00  0.00    +0.0496  H
ATOM     52 H64  CHE L   1       4.386  -1.323   1.794  1.00  0.00    +0.0302  H
ATOM     53 H65  CHE L   1       3.520  -2.530   0.867  1.00  0.00    +0.0302  H
BRANCH 39 56
ATOM     54  O1  CHE L   1       5.871  -2.104  -1.146  1.00  0.00    -0.2658 OA
ATOM     55  C2  CHE L   1       6.078  -0.951  -0.775  1.00  0.00    +0.2739  C
ATOM     56  N3  CHE L   1       5.048  -0.139  -0.315  1.00  0.00    -0.3478  N
ATOM     57 H37  CHE L   1       5.284   0.721   0.158  1.00  0.00    +0.1629 HD
BRANCH 55 58
ATOM     58 C29  CHE L   1       7.414  -0.334  -0.774  1.00  0.00    +0.1701  A
ATOM     59 C30  CHE L   1       7.795   1.002  -0.459  1.00  0.00    +0.0132  A
ATOM     60 C31  CHE L   1       9.156   1.031  -0.629  1.00  0.00    +0.1411  A
ATOM     61 O35  CHE L   1       9.579  -0.197  -1.026  1.00  0.00    -0.3586 OA
ATOM     62 N36  CHE L   1       8.500  -1.051  -1.119  1.00  0.00    -0.0732 NA
ATOM     63 H66  CHE L   1       7.173   1.831  -0.156  1.00  0.00    +0.0676  H
BRANCH 60 64
ATOM     64 C32  CHE L   1      10.075   2.262  -0.412  1.00  0.00    +0.0199  C
ATOM     65 C33  CHE L   1      11.443   2.051   0.180  1.00  0.00    -0.0426  C
ATOM     66 C34  CHE L   1      11.302   2.417  -1.270  1.00  0.00    -0.0426  C
ATOM     67 H67  CHE L   1       9.557   3.175  -0.135  1.00  0.00    +0.0380  H
ATOM     68 H68  CHE L   1      11.823   2.804   0.861  1.00  0.00    +0.0272  H
ATOM     69 H69  CHE L   1      11.760   1.041   0.417  1.00  0.00    +0.0272  H
ATOM     70 H70  CHE L   1      11.524   1.654  -2.008  1.00  0.00    +0.0272  H
ATOM     71 H71  CHE L   1      11.589   3.418  -1.572  1.00  0.00    +0.0272  H
ENDBRANCH 60 64
ENDBRANCH 55 58
ENDBRANCH 39 56
ENDBRANCH 36 42
ENDBRANCH 33 36
ENDBRANCH 17 33
ENDBRANCH 15 20
ENDBRANCH 12 15
ENDBRANCH 1 12
TORSDOF 9
