ROOT
ATOM      1  N5  MCU L   1      -0.255   0.001  -0.036  1.00  0.00    -0.3067  N
ATOM      2  C6  MCU L   1       1.008  -0.225   0.573  1.00  0.00    +0.1566  A
ATOM      3  N7  MCU L   1       2.041  -0.302  -0.231  1.00  0.00    -0.1898 NA
ATOM      4  C8  MCU L   1       3.265  -0.722   0.212  1.00  0.00    +0.2794  C
ATOM      5  O9  MCU L   1       3.447  -1.826   0.709  1.00  0.00    -0.2652 OA
ATOM      6 C19  MCU L   1       1.051  -0.351   2.090  1.00  0.00    +0.0951  A
ATOM      7 C22  MCU L   1      -0.136  -0.410   2.716  1.00  0.00    -0.0249  A
ATOM      8 C23  MCU L   1      -1.407  -0.324   2.022  1.00  0.00    +0.0837  A
ATOM      9 C24  MCU L   1      -2.672  -0.476   2.791  1.00  0.00    +0.2676  A
ATOM     10 O25  MCU L   1      -2.626  -0.667   4.009  1.00  0.00    -0.2665 OA
ATOM     11 N26  MCU L   1      -3.844  -0.393   2.060  1.00  0.00    -0.2674  N
ATOM     12 C27  MCU L   1      -5.059  -0.580   2.707  1.00  0.00    +0.0146  A
ATOM     13 C28  MCU L   1      -6.223  -0.484   2.059  1.00  0.00    -0.0447  A
ATOM     14 C29  MCU L   1      -6.237  -0.173   0.657  1.00  0.00    -0.0536  A
ATOM     15 C30  MCU L   1      -5.097   0.039  -0.023  1.00  0.00    -0.0022  A
ATOM     16 C34  MCU L   1      -3.787  -0.089   0.711  1.00  0.00    +0.1458  A
ATOM     17 N35  MCU L   1      -2.679   0.101   0.065  1.00  0.00    -0.2110 NA
ATOM     18 C36  MCU L   1      -1.468  -0.074   0.697  1.00  0.00    +0.1499  A
ATOM     19 H49  MCU L   1      -0.178  -0.466   3.803  1.00  0.00    +0.0640  H
ATOM     20 H50  MCU L   1      -5.026  -0.811   3.770  1.00  0.00    +0.0814  H
ATOM     21 H51  MCU L   1      -7.167  -0.634   2.573  1.00  0.00    +0.0632  H
ATOM     22 H52  MCU L   1      -7.206  -0.110   0.170  1.00  0.00    +0.0622  H
ENDROOT
BRANCH 1 23
ATOM     23  C4  MCU L   1      -0.317   0.033  -1.522  1.00  0.00    +0.0500  C
ATOM     24 H42  MCU L   1       0.512   0.639  -1.908  1.00  0.00    +0.0515  H
ATOM     25 H43  MCU L   1      -1.226   0.533  -1.868  1.00  0.00    +0.0515  H
BRANCH 23 26
ATOM     26  C3  MCU L   1      -0.247  -1.378  -2.127  1.00  0.00    +0.0653  C
ATOM     27 H40  MCU L   1      -0.073  -1.289  -3.206  1.00  0.00    +0.0577  H
ATOM     28 H41  MCU L   1       0.572  -1.960  -1.690  1.00  0.00    +0.0577  H
BRANCH 26 30
ATOM     29  C1  MCU L   1      -1.418  -3.405  -2.429  1.00  0.00    +0.0365  C
ATOM     30  O2  MCU L   1      -1.483  -2.076  -1.930  1.00  0.00    -0.3812 OA
ATOM     31 H37  MCU L   1      -1.205  -3.402  -3.502  1.00  0.00    +0.0523  H
ATOM     32 H38  MCU L   1      -2.388  -3.881  -2.265  1.00  0.00    +0.0523  H
ATOM     33 H39  MCU L   1      -0.654  -3.977  -1.894  1.00  0.00    +0.0523  H
ENDBRANCH 26 30
ENDBRANCH 23 26
ENDBRANCH 1 23
BRANCH 4 34
ATOM     34 C10  MCU L   1       4.409   0.214   0.003  1.00  0.00    +0.0450  A
ATOM     35 C11  MCU L   1       4.231   1.444  -0.673  1.00  0.00    -0.0457  A
ATOM     36 C12  MCU L   1       5.309   2.317  -0.860  1.00  0.00    -0.0154  A
ATOM     37 C13  MCU L   1       6.536   1.934  -0.363  1.00  0.00    +0.1663  A
ATOM     38 C14  MCU L   1       6.713   0.739   0.295  1.00  0.00    +0.1670  A
ATOM     39 C15  MCU L   1       5.673  -0.143   0.496  1.00  0.00    -0.0038  A
ATOM     40 O16  MCU L   1       7.998   0.558   0.701  1.00  0.00    -0.4526 OA
ATOM     41 C17  MCU L   1       8.607   1.780   0.237  1.00  0.00    +0.2332  C
ATOM     42 O18  MCU L   1       7.687   2.653  -0.451  1.00  0.00    -0.4526 OA
ATOM     43 H44  MCU L   1       3.255   1.725  -1.060  1.00  0.00    +0.0626  H
ATOM     44 H45  MCU L   1       5.186   3.262  -1.376  1.00  0.00    +0.0655  H
ATOM     45 H46  MCU L   1       5.834  -1.077   1.025  1.00  0.00    +0.0663  H
ATOM     46 H47  MCU L   1       9.021   2.316   1.099  1.00  0.00    +0.1166  H
ATOM     47 H48  MCU L   1       9.426   1.526  -0.446  1.00  0.00    +0.1166  H
ENDBRANCH 4 34
BRANCH 6 48
ATOM     48 C20  MCU L   1       2.240  -0.265   2.864  1.00  0.00    +0.1028  C
ATOM     49 N21  MCU L   1       3.184  -0.139   3.528  1.00  0.00    -0.1908 NA
ENDBRANCH 6 48
BRANCH 15 50
ATOM     50 C31  MCU L   1      -5.076   0.355  -1.500  1.00  0.00    -0.0009  C
ATOM     51 H53  MCU L   1      -6.055   0.106  -1.929  1.00  0.00    +0.0336  H
ATOM     52 H54  MCU L   1      -4.342  -0.282  -2.007  1.00  0.00    +0.0336  H
BRANCH 50 53
ATOM     53 C32  MCU L   1      -4.796   1.834  -1.782  1.00  0.00    +0.0483  C
ATOM     54 O33  MCU L   1      -3.406   2.135  -1.767  1.00  0.00    -0.3947 OA
ATOM     55 H55  MCU L   1      -5.163   2.091  -2.781  1.00  0.00    +0.0560  H
ATOM     56 H56  MCU L   1      -5.301   2.488  -1.064  1.00  0.00    +0.0560  H
ATOM     57 H57  MCU L   1      -2.990   1.569  -1.084  1.00  0.00    +0.2094 HD
ENDBRANCH 50 53
ENDBRANCH 15 50
TORSDOF 7
