ROOT
ATOM      1  C4  583 L   1       0.798   0.121  -0.604  1.00  0.00    +0.2541  C
ATOM      2  O5  583 L   1       0.331   0.619  -1.624  1.00  0.00    -0.2676 OA
ATOM      3  N6  583 L   1       0.071  -0.624   0.322  1.00  0.00    -0.3308  N
ATOM      4  C7  583 L   1       0.740  -1.687   1.097  1.00  0.00    +0.0453  C
ATOM      5  C8  583 L   1      -0.099  -2.975   1.164  1.00  0.00    +0.0654  C
ATOM      6  O9  583 L   1      -0.676  -3.272  -0.111  1.00  0.00    -0.3760 OA
ATOM      7 C10  583 L   1      -1.549  -2.225  -0.597  1.00  0.00    +0.0685  C
ATOM      8 C11  583 L   1      -1.377  -0.874   0.139  1.00  0.00    +0.0613  C
ATOM      9 H25  583 L   1       0.933  -1.310   2.106  1.00  0.00    +0.0511  H
ATOM     10 H26  583 L   1       1.698  -1.937   0.630  1.00  0.00    +0.0511  H
ATOM     11 H27  583 L   1       0.536  -3.817   1.459  1.00  0.00    +0.0577  H
ATOM     12 H28  583 L   1      -0.898  -2.902   1.911  1.00  0.00    +0.0577  H
ATOM     13 H29  583 L   1      -2.573  -2.597  -0.495  1.00  0.00    +0.0580  H
ATOM     14 H30  583 L   1      -1.338  -2.113  -1.666  1.00  0.00    +0.0580  H
ATOM     15 H31  583 L   1      -1.751  -1.006   1.165  1.00  0.00    +0.0551  H
ENDROOT
BRANCH 1 18
ATOM     16  C1  583 L   1       1.856   1.628   1.800  1.00  0.00    -0.0065  C
ATOM     17  C2  583 L   1       2.711   0.958   0.763  1.00  0.00    +0.1029  C
ATOM     18  C3  583 L   1       2.254   0.308  -0.328  1.00  0.00    +0.0539  C
ATOM     19 C18  583 L   1       3.167  -0.203  -1.405  1.00  0.00    -0.0163  C
ATOM     20 C19  583 L   1       4.584   0.329  -1.225  1.00  0.00    -0.0144  C
ATOM     21 C20  583 L   1       4.946   0.299   0.250  1.00  0.00    +0.0894  C
ATOM     22 O21  583 L   1       4.063   1.117   1.025  1.00  0.00    -0.4960 OA
ATOM     23 H22  583 L   1       2.216   2.647   1.978  1.00  0.00    +0.0308  H
ATOM     24 H23  583 L   1       0.806   1.709   1.512  1.00  0.00    +0.0308  H
ATOM     25 H24  583 L   1       1.912   1.077   2.744  1.00  0.00    +0.0308  H
ATOM     26 H41  583 L   1       2.805   0.082  -2.400  1.00  0.00    +0.0317  H
ATOM     27 H42  583 L   1       3.179  -1.299  -1.366  1.00  0.00    +0.0317  H
ATOM     28 H43  583 L   1       4.629   1.362  -1.591  1.00  0.00    +0.0301  H
ATOM     29 H44  583 L   1       5.291  -0.265  -1.813  1.00  0.00    +0.0301  H
ATOM     30 H45  583 L   1       5.960   0.685   0.393  1.00  0.00    +0.0696  H
ATOM     31 H46  583 L   1       4.924  -0.723   0.647  1.00  0.00    +0.0696  H
ENDBRANCH 1 18
BRANCH 8 32
ATOM     32 C12  583 L   1      -2.231   0.266  -0.459  1.00  0.00    +0.0077  C
ATOM     33 C13  583 L   1      -2.118   1.586   0.307  1.00  0.00    -0.0458  C
ATOM     34 C14  583 L   1      -3.313   2.382  -0.196  1.00  0.00    -0.0503  C
ATOM     35 C15  583 L   1      -4.427   1.355  -0.373  1.00  0.00    -0.0265  C
ATOM     36 C16  583 L   1      -3.741  -0.014  -0.391  1.00  0.00    +0.0600  C
ATOM     37 O17  583 L   1      -4.174  -0.788  -1.497  1.00  0.00    -0.3914 OA
ATOM     38 H32  583 L   1      -1.965   0.419  -1.512  1.00  0.00    +0.0346  H
ATOM     39 H33  583 L   1      -2.201   1.422   1.388  1.00  0.00    +0.0269  H
ATOM     40 H34  583 L   1      -1.181   2.114   0.113  1.00  0.00    +0.0269  H
ATOM     41 H35  583 L   1      -3.075   2.836  -1.166  1.00  0.00    +0.0266  H
ATOM     42 H36  583 L   1      -3.594   3.186   0.489  1.00  0.00    +0.0266  H
ATOM     43 H37  583 L   1      -5.013   1.556  -1.276  1.00  0.00    +0.0290  H
ATOM     44 H38  583 L   1      -5.117   1.407   0.478  1.00  0.00    +0.0290  H
ATOM     45 H39  583 L   1      -4.001  -0.563   0.522  1.00  0.00    +0.0597  H
ATOM     46 H40  583 L   1      -4.000  -0.277  -2.308  1.00  0.00    +0.2098 HD
ENDBRANCH 8 32
TORSDOF 2
