ROOT
ATOM      1  C3  CHE L   1      -1.548   0.406  -0.343  1.00  0.00    -0.0114  A
ATOM      2  C4  CHE L   1      -2.696  -0.269   0.155  1.00  0.00    +0.0456  A
ATOM      3 C14  CHE L   1      -2.836  -1.661  -0.018  1.00  0.00    +0.0048  A
ATOM      4 C15  CHE L   1      -1.805  -2.344  -0.651  1.00  0.00    +0.1375  A
ATOM      5 O16  CHE L   1      -1.780  -3.686  -0.878  1.00  0.00    -0.4628 OA
ATOM      6 C17  CHE L   1      -0.615  -3.957  -1.519  1.00  0.00    +0.0932  A
ATOM      7 C18  CHE L   1       0.111  -2.804  -1.708  1.00  0.00    -0.0154  A
ATOM      8 C19  CHE L   1      -0.653  -1.745  -1.136  1.00  0.00    +0.0328  A
ATOM      9 C20  CHE L   1      -0.522  -0.347  -0.983  1.00  0.00    +0.0548  A
ATOM     10 H50  CHE L   1      -3.702  -2.201   0.344  1.00  0.00    +0.0675  H
ATOM     11 H51  CHE L   1      -0.450  -4.995  -1.773  1.00  0.00    +0.1030  H
ATOM     12 H52  CHE L   1       1.074  -2.737  -2.196  1.00  0.00    +0.0655  H
ENDROOT
BRANCH 1 14
ATOM     13  C1  CHE L   1      -2.127   2.633  -1.402  1.00  0.00    -0.0612  C
ATOM     14  C2  CHE L   1      -1.430   1.920  -0.252  1.00  0.00    -0.0278  C
ATOM     15 H35  CHE L   1      -3.210   2.486  -1.361  1.00  0.00    +0.0233  H
ATOM     16 H36  CHE L   1      -1.938   3.710  -1.346  1.00  0.00    +0.0233  H
ATOM     17 H37  CHE L   1      -1.778   2.277  -2.376  1.00  0.00    +0.0233  H
ATOM     18 H38  CHE L   1      -0.377   2.220  -0.215  1.00  0.00    +0.0311  H
ATOM     19 H39  CHE L   1      -1.841   2.289   0.692  1.00  0.00    +0.0311  H
ENDBRANCH 1 14
BRANCH 2 20
ATOM     20  N5  CHE L   1      -3.739   0.453   0.820  1.00  0.00    -0.3672  N
BRANCH 20 21
ATOM     21  C6  CHE L   1      -3.389   0.702   2.243  1.00  0.00    +0.0161  C
ATOM     22  C7  CHE L   1      -3.701  -0.470   3.165  1.00  0.00    -0.0475  C
ATOM     23 H40  CHE L   1      -2.329   0.957   2.356  1.00  0.00    +0.0485  H
ATOM     24 H41  CHE L   1      -3.945   1.582   2.589  1.00  0.00    +0.0485  H
ATOM     25 H42  CHE L   1      -3.163  -1.375   2.867  1.00  0.00    +0.0247  H
ATOM     26 H43  CHE L   1      -3.401  -0.227   4.189  1.00  0.00    +0.0247  H
ATOM     27 H44  CHE L   1      -4.770  -0.699   3.182  1.00  0.00    +0.0247  H
ENDBRANCH 20 21
BRANCH 20 28
ATOM     28  C8  CHE L   1      -5.139   0.188   0.544  1.00  0.00    +0.0408  C
ATOM     29  C9  CHE L   1      -6.036   1.427   0.759  1.00  0.00    +0.0314  C
ATOM     30 C10  CHE L   1      -6.809   0.988  -0.503  1.00  0.00    +0.2527  C
ATOM     31 F11  CHE L   1      -7.250   1.985  -1.301  1.00  0.00    -0.2055  F
ATOM     32 F12  CHE L   1      -7.866   0.173  -0.276  1.00  0.00    -0.2055  F
ATOM     33 C13  CHE L   1      -5.514   0.279  -0.954  1.00  0.00    +0.0314  C
ATOM     34 H45  CHE L   1      -5.515  -0.724   1.025  1.00  0.00    +0.0527  H
ATOM     35 H46  CHE L   1      -5.538   2.398   0.649  1.00  0.00    +0.0343  H
ATOM     36 H47  CHE L   1      -6.618   1.427   1.685  1.00  0.00    +0.0343  H
ATOM     37 H48  CHE L   1      -5.664  -0.680  -1.457  1.00  0.00    +0.0343  H
ATOM     38 H49  CHE L   1      -4.872   0.909  -1.578  1.00  0.00    +0.0343  H
ENDBRANCH 20 28
ENDBRANCH 2 20
BRANCH 9 39
ATOM     39 C21  CHE L   1       0.695   0.301  -1.525  1.00  0.00    +0.2533  C
ATOM     40 O22  CHE L   1       0.616   1.154  -2.398  1.00  0.00    -0.2676 OA
ATOM     41 N23  CHE L   1       1.880  -0.143  -0.980  1.00  0.00    -0.3477  N
ATOM     42 H53  CHE L   1       1.858  -0.998  -0.435  1.00  0.00    +0.1630 HD
BRANCH 41 43
ATOM     43 C24  CHE L   1       3.138   0.210  -1.601  1.00  0.00    +0.0524  C
ATOM     44 H54  CHE L   1       3.208  -0.335  -2.550  1.00  0.00    +0.0539  H
ATOM     45 H55  CHE L   1       3.117   1.277  -1.848  1.00  0.00    +0.0539  H
BRANCH 43 46
ATOM     46 C25  CHE L   1       4.283  -0.145  -0.709  1.00  0.00    +0.0774  A
ATOM     47 C26  CHE L   1       5.187   0.727  -0.224  1.00  0.00    +0.1317  A
ATOM     48 C29  CHE L   1       6.253   0.307   0.659  1.00  0.00    -0.0005  A
ATOM     49 C30  CHE L   1       6.415  -0.992   0.955  1.00  0.00    +0.0195  A
ATOM     50 C31  CHE L   1       7.493  -1.515   1.850  1.00  0.00    -0.0242  C
ATOM     51 N32  CHE L   1       5.539  -1.908   0.422  1.00  0.00    -0.3260  N
ATOM     52 C33  CHE L   1       4.470  -1.590  -0.381  1.00  0.00    +0.2573  A
ATOM     53 O34  CHE L   1       3.700  -2.452  -0.793  1.00  0.00    -0.2674 OA
ATOM     54 H59  CHE L   1       6.906   1.069   1.073  1.00  0.00    +0.0671  H
ATOM     55 H60  CHE L   1       8.132  -0.711   2.231  1.00  0.00    +0.0292  H
ATOM     56 H61  CHE L   1       8.131  -2.220   1.307  1.00  0.00    +0.0292  H
ATOM     57 H62  CHE L   1       7.058  -2.032   2.711  1.00  0.00    +0.0292  H
ATOM     58 H63  CHE L   1       5.640  -2.892   0.641  1.00  0.00    +0.1686 HD
BRANCH 47 59
ATOM     59 O27  CHE L   1       5.112   2.085  -0.447  1.00  0.00    -0.4945 OA
ATOM     60 C28  CHE L   1       5.973   2.484  -1.514  1.00  0.00    +0.0788  C
ATOM     61 H56  CHE L   1       5.844   3.560  -1.666  1.00  0.00    +0.0660  H
ATOM     62 H57  CHE L   1       5.708   1.972  -2.445  1.00  0.00    +0.0660  H
ATOM     63 H58  CHE L   1       7.024   2.299  -1.265  1.00  0.00    +0.0660  H
ENDBRANCH 47 59
ENDBRANCH 43 46
ENDBRANCH 41 43
ENDBRANCH 9 39
TORSDOF 8
