ROOT
ATOM      1 N12  CHE L   1       1.596   0.344   1.793  1.00  0.00    -0.3334  N
ATOM      2 C13  CHE L   1       1.331   1.734   2.107  1.00  0.00    +0.0259  C
ATOM      3 C14  CHE L   1      -0.085   1.903   2.644  1.00  0.00    -0.0078  C
ATOM      4 C15  CHE L   1      -1.072   1.327   1.662  1.00  0.00    -0.0137  A
ATOM      5 C16  CHE L   1      -2.353   1.860   1.504  1.00  0.00    +0.0453  A
ATOM      6 CL17 CHE L   1      -2.917   3.195   2.444  1.00  0.00    -0.0832 Cl
ATOM      7 C18  CHE L   1      -3.235   1.318   0.570  1.00  0.00    -0.0360  A
ATOM      8 C19  CHE L   1      -2.876   0.230  -0.246  1.00  0.00    +0.0022  A
ATOM      9 C28  CHE L   1      -1.584  -0.326  -0.082  1.00  0.00    +0.0593  A
ATOM     10 CL29 CHE L   1      -1.053  -1.592  -1.154  1.00  0.00    -0.0824 Cl
ATOM     11 C30  CHE L   1      -0.705   0.191   0.902  1.00  0.00    +0.0624  A
ATOM     12 C31  CHE L   1       0.616  -0.459   1.213  1.00  0.00    +0.2566  C
ATOM     13 O32  CHE L   1       0.790  -1.658   1.021  1.00  0.00    -0.2673 OA
ATOM     14 H43  CHE L   1       2.035   2.073   2.871  1.00  0.00    +0.0492  H
ATOM     15 H44  CHE L   1       1.486   2.321   1.194  1.00  0.00    +0.0492  H
ATOM     16 H45  CHE L   1      -0.201   1.384   3.601  1.00  0.00    +0.0331  H
ATOM     17 H46  CHE L   1      -0.250   2.970   2.812  1.00  0.00    +0.0331  H
ATOM     18 H47  CHE L   1      -4.224   1.764   0.472  1.00  0.00    +0.0636  H
ENDROOT
BRANCH 1 19
ATOM     19 C11  CHE L   1       2.965  -0.156   1.913  1.00  0.00    +0.0552  C
ATOM     20 H41  CHE L   1       2.946  -1.249   1.986  1.00  0.00    +0.0541  H
ATOM     21 H42  CHE L   1       3.380   0.189   2.868  1.00  0.00    +0.0541  H
BRANCH 19 29
ATOM     22  C3  CHE L   1       4.052  -0.461  -0.351  1.00  0.00    +0.1317  A
ATOM     23  C4  CHE L   1       4.888   0.023  -1.428  1.00  0.00    -0.0005  A
ATOM     24  C5  CHE L   1       5.520   1.199  -1.318  1.00  0.00    +0.0195  A
ATOM     25  C6  CHE L   1       6.404   1.768  -2.382  1.00  0.00    -0.0242  C
ATOM     26  N7  CHE L   1       5.345   1.941  -0.175  1.00  0.00    -0.3260  N
ATOM     27  C8  CHE L   1       4.538   1.576   0.878  1.00  0.00    +0.2573  A
ATOM     28  O9  CHE L   1       4.421   2.302   1.862  1.00  0.00    -0.2674 OA
ATOM     29 C10  CHE L   1       3.816   0.272   0.754  1.00  0.00    +0.0776  A
ATOM     30 H36  CHE L   1       4.968  -0.585  -2.323  1.00  0.00    +0.0671  H
ATOM     31 H37  CHE L   1       6.464   1.110  -3.255  1.00  0.00    +0.0292  H
ATOM     32 H38  CHE L   1       6.021   2.735  -2.720  1.00  0.00    +0.0292  H
ATOM     33 H39  CHE L   1       7.419   1.907  -2.003  1.00  0.00    +0.0292  H
ATOM     34 H40  CHE L   1       5.817   2.834  -0.069  1.00  0.00    +0.1686 HD
BRANCH 22 36
ATOM     35  C1  CHE L   1       4.264  -2.773  -0.269  1.00  0.00    +0.0788  C
ATOM     36  O2  CHE L   1       3.432  -1.662  -0.597  1.00  0.00    -0.4945 OA
ATOM     37 H33  CHE L   1       5.144  -2.806  -0.920  1.00  0.00    +0.0660  H
ATOM     38 H34  CHE L   1       3.686  -3.688  -0.432  1.00  0.00    +0.0660  H
ATOM     39 H35  CHE L   1       4.571  -2.740   0.783  1.00  0.00    +0.0660  H
ENDBRANCH 22 36
ENDBRANCH 19 29
ENDBRANCH 1 19
BRANCH 8 40
ATOM     40 C20  CHE L   1      -3.933  -0.248  -1.242  1.00  0.00    +0.0942  C
ATOM     41 H48  CHE L   1      -4.637   0.579  -1.415  1.00  0.00    +0.0653  H
BRANCH 40 42
ATOM     42 O21  CHE L   1      -3.366  -0.558  -2.520  1.00  0.00    -0.3744 OA
ATOM     43 C22  CHE L   1      -3.173   0.579  -3.348  1.00  0.00    +0.0373  C
ATOM     44 H49  CHE L   1      -2.509   1.302  -2.869  1.00  0.00    +0.0524  H
ATOM     45 H50  CHE L   1      -4.133   1.052  -3.585  1.00  0.00    +0.0524  H
ATOM     46 H51  CHE L   1      -2.713   0.250  -4.281  1.00  0.00    +0.0524  H
ENDBRANCH 40 42
BRANCH 40 47
ATOM     47 C23  CHE L   1      -4.789  -1.442  -0.753  1.00  0.00    +0.0449  C
ATOM     48 C24  CHE L   1      -5.583  -2.081  -1.900  1.00  0.00    -0.0526  C
ATOM     49 C25  CHE L   1      -5.724  -1.087   0.428  1.00  0.00    +0.0578  C
ATOM     50 O26  CHE L   1      -4.889  -1.824   1.354  1.00  0.00    -0.3783 OA
ATOM     51 C27  CHE L   1      -4.234  -2.490   0.245  1.00  0.00    +0.0578  C
ATOM     52 H52  CHE L   1      -6.168  -1.327  -2.437  1.00  0.00    +0.0237  H
ATOM     53 H53  CHE L   1      -6.282  -2.840  -1.537  1.00  0.00    +0.0237  H
ATOM     54 H54  CHE L   1      -4.914  -2.574  -2.613  1.00  0.00    +0.0237  H
ATOM     55 H55  CHE L   1      -5.804  -0.029   0.702  1.00  0.00    +0.0567  H
ATOM     56 H56  CHE L   1      -6.733  -1.509   0.397  1.00  0.00    +0.0567  H
ATOM     57 H57  CHE L   1      -3.160  -2.554   0.397  1.00  0.00    +0.0567  H
ATOM     58 H58  CHE L   1      -4.617  -3.510   0.130  1.00  0.00    +0.0567  H
ENDBRANCH 40 47
ENDBRANCH 8 40
TORSDOF 6
