ROOT
ATOM      1  C4  178 L   1       2.950  -1.163  -0.298  1.00  0.00    +0.1378  A
ATOM      2  N5  178 L   1       3.362  -2.301  -0.842  1.00  0.00    -0.1340 NA
ATOM      3  N6  178 L   1       4.591  -2.094  -1.458  1.00  0.00    -0.1344 NA
ATOM      4  C7  178 L   1       4.884  -0.838  -1.268  1.00  0.00    +0.1335  A
ATOM      5  N8  178 L   1       3.897  -0.235  -0.557  1.00  0.00    -0.3145  N
ATOM      6  C9  178 L   1       4.158   1.162  -0.306  1.00  0.00    +0.0265  C
ATOM      7 C10  178 L   1       5.302   1.459  -1.298  1.00  0.00    -0.0280  C
ATOM      8 C11  178 L   1       5.970   0.094  -1.605  1.00  0.00    +0.0091  C
ATOM      9 H27  178 L   1       3.268   1.759  -0.505  1.00  0.00    +0.0493  H
ATOM     10 H28  178 L   1       4.484   1.264   0.732  1.00  0.00    +0.0493  H
ATOM     11 H29  178 L   1       6.012   2.197  -0.912  1.00  0.00    +0.0286  H
ATOM     12 H30  178 L   1       4.877   1.867  -2.225  1.00  0.00    +0.0286  H
ATOM     13 H31  178 L   1       6.834  -0.069  -0.953  1.00  0.00    +0.0344  H
ATOM     14 H32  178 L   1       6.282   0.026  -2.649  1.00  0.00    +0.0344  H
ENDROOT
BRANCH 1 17
ATOM     15  C1  178 L   1       0.721   0.339   2.419  1.00  0.00    -0.0395  C
ATOM     16  C2  178 L   1       1.892  -0.493   1.892  1.00  0.00    -0.0410  C
ATOM     17  C3  178 L   1       1.669  -0.958   0.445  1.00  0.00    +0.0319  C
ATOM     18 C12  178 L   1       0.705  -0.025  -0.307  1.00  0.00    +0.0086  C
ATOM     19 N13  178 L   1      -0.619   0.129   0.327  1.00  0.00    -0.3014 NA
ATOM     20 C21  178 L   1      -0.599  -0.092   1.783  1.00  0.00    -0.0011  C
ATOM     21 H22  178 L   1       0.665   0.244   3.509  1.00  0.00    +0.0278  H
ATOM     22 H23  178 L   1       0.901   1.401   2.208  1.00  0.00    +0.0278  H
ATOM     23 H24  178 L   1       2.022  -1.380   2.526  1.00  0.00    +0.0273  H
ATOM     24 H25  178 L   1       2.812   0.089   2.012  1.00  0.00    +0.0273  H
ATOM     25 H26  178 L   1       1.182  -1.944   0.494  1.00  0.00    +0.0392  H
ATOM     26 H33  178 L   1       0.612  -0.339  -1.356  1.00  0.00    +0.0433  H
ATOM     27 H34  178 L   1       1.142   0.980  -0.358  1.00  0.00    +0.0433  H
ATOM     28 H47  178 L   1      -0.769  -1.150   2.023  1.00  0.00    +0.0426  H
ATOM     29 H48  178 L   1      -1.410   0.482   2.245  1.00  0.00    +0.0426  H
BRANCH 19 30
ATOM     30 C14  178 L   1      -1.636  -0.702  -0.343  1.00  0.00    +0.0018  C
ATOM     31 H35  178 L   1      -1.594  -0.510  -1.424  1.00  0.00    +0.0429  H
ATOM     32 H36  178 L   1      -1.399  -1.766  -0.206  1.00  0.00    +0.0429  H
BRANCH 30 33
ATOM     33 C15  178 L   1      -3.086  -0.435   0.113  1.00  0.00    -0.0260  C
ATOM     34 C16  178 L   1      -4.067  -1.344  -0.637  1.00  0.00    -0.0364  C
ATOM     35 C17  178 L   1      -5.505  -1.129  -0.148  1.00  0.00    -0.0038  C
ATOM     36 N18  178 L   1      -5.803   0.245   0.261  1.00  0.00    -0.3160 NA
ATOM     37 C19  178 L   1      -4.972   1.219  -0.433  1.00  0.00    -0.0038  C
ATOM     38 C20  178 L   1      -3.495   1.042  -0.070  1.00  0.00    -0.0364  C
ATOM     39 H37  178 L   1      -3.172  -0.684   1.180  1.00  0.00    +0.0314  H
ATOM     40 H38  178 L   1      -4.012  -1.135  -1.713  1.00  0.00    +0.0281  H
ATOM     41 H39  178 L   1      -3.794  -2.398  -0.505  1.00  0.00    +0.0281  H
ATOM     42 H40  178 L   1      -5.699  -1.782   0.710  1.00  0.00    +0.0424  H
ATOM     43 H41  178 L   1      -6.195  -1.439  -0.941  1.00  0.00    +0.0424  H
ATOM     44 H42  178 L   1      -6.790   0.442   0.103  1.00  0.00    +0.1219 HD
ATOM     45 H43  178 L   1      -5.114   1.133  -1.518  1.00  0.00    +0.0424  H
ATOM     46 H44  178 L   1      -5.288   2.231  -0.159  1.00  0.00    +0.0424  H
ATOM     47 H45  178 L   1      -3.281   1.581   0.862  1.00  0.00    +0.0281  H
ATOM     48 H46  178 L   1      -2.893   1.523  -0.850  1.00  0.00    +0.0281  H
ENDBRANCH 30 33
ENDBRANCH 19 30
ENDBRANCH 1 17
TORSDOF 3
