ROOT
ATOM      1  C1  CHE L   1       6.668  -1.636   0.052  1.00  0.00    -0.0383  C
ATOM      2  C2  CHE L   1       5.259  -1.144   0.154  1.00  0.00    -0.0338  A
ATOM      3  C3  CHE L   1       4.721  -0.368  -0.964  1.00  0.00    -0.0540  A
ATOM      4  C4  CHE L   1       3.461   0.113  -0.954  1.00  0.00    -0.0185  A
ATOM      5  C5  CHE L   1       2.620  -0.133   0.166  1.00  0.00    +0.1379  A
ATOM      6  N6  CHE L   1       1.375   0.217   0.416  1.00  0.00    -0.2310 NA
ATOM      7  C7  CHE L   1       1.086  -0.311   1.665  1.00  0.00    +0.0791  A
ATOM      8 C23  CHE L   1       2.183  -0.980   2.169  1.00  0.00    +0.0342  A
ATOM      9 N24  CHE L   1       3.160  -0.872   1.213  1.00  0.00    -0.3060  N
ATOM     10 C25  CHE L   1       4.459  -1.374   1.214  1.00  0.00    +0.0141  A
ATOM     11 H26  CHE L   1       7.363  -0.794  -0.048  1.00  0.00    +0.0278  H
ATOM     12 H27  CHE L   1       6.786  -2.290  -0.819  1.00  0.00    +0.0278  H
ATOM     13 H28  CHE L   1       6.963  -2.206   0.940  1.00  0.00    +0.0278  H
ATOM     14 H29  CHE L   1       5.365  -0.182  -1.819  1.00  0.00    +0.0622  H
ATOM     15 H30  CHE L   1       3.065   0.686  -1.785  1.00  0.00    +0.0654  H
ATOM     16 H38  CHE L   1       2.344  -1.513   3.094  1.00  0.00    +0.0832  H
ATOM     17 H39  CHE L   1       4.769  -1.937   2.085  1.00  0.00    +0.0816  H
ENDROOT
BRANCH 7 18
ATOM     18  C8  CHE L   1      -0.261  -0.125   2.279  1.00  0.00    +0.0623  C
ATOM     19 H31  CHE L   1      -0.252   0.711   2.985  1.00  0.00    +0.0552  H
ATOM     20 H32  CHE L   1      -0.593  -1.029   2.801  1.00  0.00    +0.0552  H
BRANCH 18 21
ATOM     21  N9  CHE L   1      -1.194   0.179   1.220  1.00  0.00    -0.3465  N
ATOM     22 C10  CHE L   1      -2.541   0.249   1.447  1.00  0.00    +0.2531  C
ATOM     23 O11  CHE L   1      -3.055   0.033   2.539  1.00  0.00    -0.2676 OA
ATOM     24 H33  CHE L   1      -0.775   0.582   0.388  1.00  0.00    +0.1630 HD
BRANCH 22 25
ATOM     25 C12  CHE L   1      -3.387   0.652   0.301  1.00  0.00    +0.0508  A
ATOM     26 C13  CHE L   1      -4.557   1.391   0.564  1.00  0.00    -0.0313  A
ATOM     27 C14  CHE L   1      -5.400   1.797  -0.474  1.00  0.00    +0.0545  A
ATOM     28 C17  CHE L   1      -5.106   1.468  -1.806  1.00  0.00    -0.0189  A
ATOM     29 C18  CHE L   1      -3.950   0.714  -2.045  1.00  0.00    +0.0677  A
ATOM     30 N19  CHE L   1      -3.414   0.227  -3.209  1.00  0.00    -0.2769  N
ATOM     31 N20  CHE L   1      -2.292  -0.486  -3.036  1.00  0.00    -0.1812 NA
ATOM     32 C21  CHE L   1      -2.100  -0.455  -1.715  1.00  0.00    +0.0576  A
ATOM     33 C22  CHE L   1      -3.088   0.295  -1.032  1.00  0.00    +0.0318  A
ATOM     34 H34  CHE L   1      -4.799   1.649   1.596  1.00  0.00    +0.0638  H
ATOM     35 H35  CHE L   1      -5.756   1.777  -2.621  1.00  0.00    +0.0652  H
ATOM     36 H36  CHE L   1      -3.771   0.339  -4.152  1.00  0.00    +0.1889 HD
ATOM     37 H37  CHE L   1      -1.247  -0.984  -1.305  1.00  0.00    +0.0854  H
BRANCH 27 38
ATOM     38 C15  CHE L   1      -6.579   2.559  -0.180  1.00  0.00    +0.0992  C
ATOM     39 N16  CHE L   1      -7.533   3.181   0.041  1.00  0.00    -0.1909 NA
ENDBRANCH 27 38
ENDBRANCH 22 25
ENDBRANCH 18 21
ENDBRANCH 7 18
TORSDOF 4
