ROOT
ATOM      1 C15  CHE L   1       2.057   1.628   1.700  1.00  0.00    +0.0671  A
ATOM      2 C16  CHE L   1       0.853   1.079   2.148  1.00  0.00    +0.0295  A
ATOM      3 C17  CHE L   1       0.668  -0.087   3.061  1.00  0.00    -0.0235  C
ATOM      4 N18  CHE L   1      -0.180   1.835   1.608  1.00  0.00    -0.3357  N
ATOM      5 C33  CHE L   1       0.348   2.908   0.895  1.00  0.00    +0.0504  A
ATOM      6 C34  CHE L   1      -0.273   3.970   0.207  1.00  0.00    -0.0376  A
ATOM      7 C35  CHE L   1       0.530   4.919  -0.433  1.00  0.00    -0.0598  A
ATOM      8 C36  CHE L   1       1.914   4.824  -0.393  1.00  0.00    -0.0611  A
ATOM      9 C37  CHE L   1       2.526   3.771   0.290  1.00  0.00    -0.0518  A
ATOM     10 C38  CHE L   1       1.738   2.799   0.948  1.00  0.00    +0.0125  A
ATOM     11 H50  CHE L   1       0.647  -1.018   2.486  1.00  0.00    +0.0292  H
ATOM     12 H51  CHE L   1       1.491  -0.150   3.781  1.00  0.00    +0.0292  H
ATOM     13 H52  CHE L   1      -0.245  -0.028   3.653  1.00  0.00    +0.0292  H
ATOM     14 H73  CHE L   1      -1.351   4.071   0.159  1.00  0.00    +0.0638  H
ATOM     15 H74  CHE L   1       0.064   5.743  -0.969  1.00  0.00    +0.0618  H
ATOM     16 H75  CHE L   1       2.528   5.568  -0.892  1.00  0.00    +0.0618  H
ATOM     17 H76  CHE L   1       3.611   3.704   0.321  1.00  0.00    +0.0624  H
ENDROOT
BRANCH 1 19
ATOM     18 N12  CHE L   1       3.532  -0.234   1.941  1.00  0.00    -0.3477  N
ATOM     19 C13  CHE L   1       3.413   1.139   1.964  1.00  0.00    +0.2546  C
ATOM     20 O14  CHE L   1       4.367   1.891   2.127  1.00  0.00    -0.2675 OA
ATOM     21 H49  CHE L   1       2.769  -0.736   1.504  1.00  0.00    +0.1630 HD
BRANCH 18 22
ATOM     22 C11  CHE L   1       4.826  -0.886   1.938  1.00  0.00    +0.0499  C
ATOM     23 H47  CHE L   1       5.502  -0.307   2.574  1.00  0.00    +0.0538  H
ATOM     24 H48  CHE L   1       4.699  -1.869   2.404  1.00  0.00    +0.0538  H
BRANCH 22 32
ATOM     25  C3  CHE L   1       4.692  -1.582  -0.530  1.00  0.00    +0.0192  A
ATOM     26  C4  CHE L   1       5.301  -1.594  -1.850  1.00  0.00    -0.0288  A
ATOM     27  C5  CHE L   1       6.539  -1.118  -2.041  1.00  0.00    +0.0170  A
ATOM     28  C6  CHE L   1       7.225  -1.081  -3.370  1.00  0.00    -0.0243  C
ATOM     29  N7  CHE L   1       7.235  -0.640  -0.961  1.00  0.00    -0.3262  N
ATOM     30  C8  CHE L   1       6.756  -0.603   0.324  1.00  0.00    +0.2548  A
ATOM     31  O9  CHE L   1       7.482  -0.254   1.248  1.00  0.00    -0.2675 OA
ATOM     32 C10  CHE L   1       5.339  -1.051   0.532  1.00  0.00    +0.0493  A
ATOM     33 H42  CHE L   1       4.722  -1.974  -2.688  1.00  0.00    +0.0646  H
ATOM     34 H43  CHE L   1       8.157  -1.658  -3.336  1.00  0.00    +0.0292  H
ATOM     35 H44  CHE L   1       7.465  -0.049  -3.648  1.00  0.00    +0.0292  H
ATOM     36 H45  CHE L   1       6.600  -1.505  -4.163  1.00  0.00    +0.0292  H
ATOM     37 H46  CHE L   1       8.185  -0.307  -1.072  1.00  0.00    +0.1686 HD
BRANCH 25 39
ATOM     38  C1  CHE L   1       3.515  -4.025  -0.350  1.00  0.00    -0.0134  C
ATOM     39  S2  CHE L   1       3.088  -2.267  -0.416  1.00  0.00    -0.1280 SA
ATOM     40 H39  CHE L   1       4.014  -4.337  -1.272  1.00  0.00    +0.0344  H
ATOM     41 H40  CHE L   1       4.168  -4.229   0.503  1.00  0.00    +0.0344  H
ATOM     42 H41  CHE L   1       2.600  -4.612  -0.234  1.00  0.00    +0.0344  H
ENDBRANCH 25 39
ENDBRANCH 22 32
ENDBRANCH 18 22
ENDBRANCH 1 19
BRANCH 4 43
ATOM     43 C19  CHE L   1      -1.628   1.628   1.775  1.00  0.00    +0.0828  C
ATOM     44 C20  CHE L   1      -2.099   2.053   3.170  1.00  0.00    -0.0395  C
ATOM     45 H53  CHE L   1      -2.112   2.327   1.084  1.00  0.00    +0.0575  H
ATOM     46 H54  CHE L   1      -3.191   2.139   3.201  1.00  0.00    +0.0251  H
ATOM     47 H55  CHE L   1      -1.807   1.343   3.947  1.00  0.00    +0.0251  H
ATOM     48 H56  CHE L   1      -1.688   3.032   3.441  1.00  0.00    +0.0251  H
BRANCH 43 49
ATOM     49 C21  CHE L   1      -2.127   0.229   1.335  1.00  0.00    +0.1795  C
ATOM     50 O22  CHE L   1      -3.516   0.072   1.671  1.00  0.00    -0.3476 OA
ATOM     51 C23  CHE L   1      -4.361   0.195   0.523  1.00  0.00    +0.0684  C
ATOM     52 C24  CHE L   1      -4.077  -0.972  -0.442  1.00  0.00    +0.0578  C
ATOM     53 C31  CHE L   1      -2.537  -1.101  -0.571  1.00  0.00    +0.0684  C
ATOM     54 O32  CHE L   1      -1.880   0.060  -0.065  1.00  0.00    -0.3476 OA
ATOM     55 H57  CHE L   1      -1.599  -0.562   1.871  1.00  0.00    +0.0931  H
ATOM     56 H58  CHE L   1      -4.190   1.179   0.073  1.00  0.00    +0.0577  H
ATOM     57 H59  CHE L   1      -5.390   0.172   0.885  1.00  0.00    +0.0577  H
ATOM     58 H60  CHE L   1      -4.384  -1.900   0.061  1.00  0.00    +0.0508  H
ATOM     59 H71  CHE L   1      -2.175  -1.987  -0.033  1.00  0.00    +0.0577  H
ATOM     60 H72  CHE L   1      -2.224  -1.224  -1.614  1.00  0.00    +0.0577  H
BRANCH 52 61
ATOM     61 N25  CHE L   1      -4.672  -1.006  -1.782  1.00  0.00    -0.2898 NA
ATOM     62 C26  CHE L   1      -4.964   0.287  -2.420  1.00  0.00    +0.0015  C
ATOM     63 C27  CHE L   1      -6.159  -0.411  -3.113  1.00  0.00    -0.0221  C
ATOM     64 C28  CHE L   1      -6.086  -1.427  -1.929  1.00  0.00    +0.0179  C
ATOM     65 C29  CHE L   1      -6.169  -2.891  -2.352  1.00  0.00    -0.0468  C
ATOM     66 C30  CHE L   1      -7.060  -1.104  -0.800  1.00  0.00    -0.0468  C
ATOM     67 H61  CHE L   1      -4.185   0.654  -3.095  1.00  0.00    +0.0427  H
ATOM     68 H62  CHE L   1      -5.285   1.107  -1.770  1.00  0.00    +0.0427  H
ATOM     69 H63  CHE L   1      -5.913  -0.828  -4.098  1.00  0.00    +0.0295  H
ATOM     70 H64  CHE L   1      -7.072   0.184  -3.200  1.00  0.00    +0.0295  H
ATOM     71 H65  CHE L   1      -5.931  -3.557  -1.516  1.00  0.00    +0.0247  H
ATOM     72 H66  CHE L   1      -7.179  -3.137  -2.699  1.00  0.00    +0.0247  H
ATOM     73 H67  CHE L   1      -5.476  -3.121  -3.170  1.00  0.00    +0.0247  H
ATOM     74 H68  CHE L   1      -8.083  -1.363  -1.098  1.00  0.00    +0.0247  H
ATOM     75 H69  CHE L   1      -7.072  -0.040  -0.546  1.00  0.00    +0.0247  H
ATOM     76 H70  CHE L   1      -6.833  -1.678   0.105  1.00  0.00    +0.0247  H
ENDBRANCH 52 61
ENDBRANCH 43 49
ENDBRANCH 4 43
TORSDOF 7
