ROOT
ATOM      1 C34  WH0 L   1      -0.230   2.952   0.561  1.00  0.00    -0.0133  A
ATOM      2 C35  WH0 L   1       0.082   3.639   1.759  1.00  0.00    -0.0519  A
ATOM      3 C36  WH0 L   1       0.846   4.816   1.731  1.00  0.00    -0.0374  A
ATOM      4 C37  WH0 L   1       1.282   5.292   0.498  1.00  0.00    +0.0454  A
ATOM      5 C38  WH0 L   1       0.977   4.640  -0.677  1.00  0.00    -0.0145  A
ATOM      6 C39  WH0 L   1       0.227   3.464  -0.673  1.00  0.00    -0.0483  A
ATOM      7 C40  WH0 L   1       1.573   5.352  -1.849  1.00  0.00    +0.0535  C
ATOM      8 C41  WH0 L   1       2.248   6.488  -1.139  1.00  0.00    +0.2296  C
ATOM      9 O42  WH0 L   1       2.911   7.389  -1.718  1.00  0.00    -0.2725 OA
ATOM     10 N43  WH0 L   1       2.067   6.447   0.273  1.00  0.00    -0.3256  N
ATOM     11 H69  WH0 L   1      -0.275   3.274   2.712  1.00  0.00    +0.0624  H
ATOM     12 H70  WH0 L   1       1.089   5.340   2.645  1.00  0.00    +0.0638  H
ATOM     13 H71  WH0 L   1       0.036   2.945  -1.603  1.00  0.00    +0.0627  H
ATOM     14 H72  WH0 L   1       2.313   4.711  -2.371  1.00  0.00    +0.0410  H
ATOM     15 H73  WH0 L   1       0.782   5.724  -2.534  1.00  0.00    +0.0410  H
ATOM     16 H74  WH0 L   1       2.449   7.108   0.984  1.00  0.00    +0.1686 HD
ENDROOT
BRANCH 1 25
ATOM     17 C18  WH0 L   1      -0.777   0.585   1.451  1.00  0.00    +0.1018  A
ATOM     18 N19  WH0 L   1      -1.593  -0.434   1.106  1.00  0.00    -0.1627 NA
ATOM     19 N20  WH0 L   1      -2.304  -0.023   0.069  1.00  0.00    -0.1987  N
ATOM     20 C21  WH0 L   1      -3.263  -0.720  -0.601  1.00  0.00    +0.2282  A
ATOM     21 N29  WH0 L   1      -3.932  -0.087  -1.608  1.00  0.00    -0.2207 NA
ATOM     22 C30  WH0 L   1      -3.641   1.203  -1.954  1.00  0.00    +0.0334  A
ATOM     23 C31  WH0 L   1      -2.636   1.909  -1.280  1.00  0.00    -0.0173  A
ATOM     24 C32  WH0 L   1      -1.973   1.237  -0.255  1.00  0.00    +0.0803  A
ATOM     25 C33  WH0 L   1      -0.977   1.675   0.601  1.00  0.00    +0.0353  A
ATOM     26 H67  WH0 L   1      -4.193   1.681  -2.752  1.00  0.00    +0.0831  H
ATOM     27 H68  WH0 L   1      -2.413   2.936  -1.534  1.00  0.00    +0.0654  H
BRANCH 17 34
ATOM     28 C11  WH0 L   1       1.555  -0.003   2.218  1.00  0.00    -0.0354  A
ATOM     29 C12  WH0 L   1       2.489  -0.098   3.265  1.00  0.00    -0.0226  A
ATOM     30 C13  WH0 L   1       2.127   0.236   4.573  1.00  0.00    +0.1237  A
ATOM     31 F14  WH0 L   1       3.036   0.135   5.573  1.00  0.00    -0.2055  F
ATOM     32 C15  WH0 L   1       0.827   0.661   4.852  1.00  0.00    -0.0258  A
ATOM     33 C16  WH0 L   1      -0.111   0.766   3.823  1.00  0.00    -0.0495  A
ATOM     34 C17  WH0 L   1       0.247   0.461   2.502  1.00  0.00    +0.0061  A
ATOM     35 H53  WH0 L   1       3.498  -0.438   3.066  1.00  0.00    +0.0649  H
ATOM     36 H54  WH0 L   1       0.545   0.913   5.865  1.00  0.00    +0.0646  H
ATOM     37 H55  WH0 L   1      -1.116   1.099   4.054  1.00  0.00    +0.0625  H
BRANCH 28 38
ATOM     38 C10  WH0 L   1       1.987  -0.388   0.821  1.00  0.00    -0.0254  C
ATOM     39 H51  WH0 L   1       1.110  -0.645   0.190  1.00  0.00    +0.0314  H
ATOM     40 H52  WH0 L   1       2.607  -1.309   0.874  1.00  0.00    +0.0314  H
BRANCH 38 41
ATOM     41  C9  WH0 L   1       2.796   0.741   0.164  1.00  0.00    -0.0315  C
ATOM     42 H49  WH0 L   1       3.781   0.846   0.671  1.00  0.00    +0.0285  H
ATOM     43 H50  WH0 L   1       2.256   1.704   0.282  1.00  0.00    +0.0285  H
BRANCH 41 44
ATOM     44  C8  WH0 L   1       3.009   0.489  -1.334  1.00  0.00    +0.0187  C
ATOM     45 H47  WH0 L   1       3.496   1.380  -1.788  1.00  0.00    +0.0486  H
ATOM     46 H48  WH0 L   1       2.021   0.348  -1.826  1.00  0.00    +0.0486  H
BRANCH 44 49
ATOM     47  C5  WH0 L   1       4.017  -1.232  -2.884  1.00  0.00    +0.2618  C
ATOM     48  O6  WH0 L   1       3.618  -0.572  -3.884  1.00  0.00    -0.2669 OA
ATOM     49  N7  WH0 L   1       3.850  -0.686  -1.566  1.00  0.00    -0.3514  N
ATOM     50 H46  WH0 L   1       4.374  -1.107  -0.766  1.00  0.00    +0.1626 HD
BRANCH 47 52
ATOM     51  C1  WH0 L   1       4.739  -3.472  -2.137  1.00  0.00    -0.0760  C
ATOM     52  C2  WH0 L   1       4.663  -2.549  -3.101  1.00  0.00    +0.1085  C
ATOM     53 H44  WH0 L   1       5.206  -4.433  -2.325  1.00  0.00    +0.0549  H
ATOM     54 H45  WH0 L   1       4.315  -3.313  -1.155  1.00  0.00    +0.0549  H
BRANCH 52 55
ATOM     55  C3  WH0 L   1       5.183  -2.867  -4.408  1.00  0.00    +0.1040  C
ATOM     56  N4  WH0 L   1       5.600  -3.123  -5.457  1.00  0.00    -0.1907 NA
ENDBRANCH 52 55
ENDBRANCH 47 52
ENDBRANCH 44 49
ENDBRANCH 41 44
ENDBRANCH 38 41
ENDBRANCH 28 38
ENDBRANCH 17 34
BRANCH 20 57
ATOM     57 N22  WH0 L   1      -3.568  -2.092  -0.282  1.00  0.00    -0.3402  N
ATOM     58 C23  WH0 L   1      -4.928  -2.599  -0.512  1.00  0.00    +0.0228  C
ATOM     59 C24  WH0 L   1      -5.203  -3.803   0.394  1.00  0.00    -0.0199  C
ATOM     60 C25  WH0 L   1      -4.181  -4.949   0.182  1.00  0.00    +0.0080  C
ATOM     61 N26  WH0 L   1      -4.740  -5.966  -0.715  1.00  0.00    -0.3271 NA
ATOM     62 C27  WH0 L   1      -2.826  -4.449  -0.373  1.00  0.00    -0.0199  C
ATOM     63 C28  WH0 L   1      -2.496  -3.028   0.095  1.00  0.00    +0.0228  C
ATOM     64 H56  WH0 L   1      -5.674  -1.805  -0.281  1.00  0.00    +0.0489  H
ATOM     65 H57  WH0 L   1      -5.042  -2.891  -1.579  1.00  0.00    +0.0489  H
ATOM     66 H58  WH0 L   1      -5.135  -3.457   1.448  1.00  0.00    +0.0297  H
ATOM     67 H59  WH0 L   1      -6.244  -4.158   0.237  1.00  0.00    +0.0297  H
ATOM     68 H60  WH0 L   1      -3.991  -5.420   1.176  1.00  0.00    +0.0459  H
ATOM     69 H61  WH0 L   1      -5.565  -6.403  -0.244  1.00  0.00    +0.1185 HD
ATOM     70 H62  WH0 L   1      -4.037  -6.734  -0.825  1.00  0.00    +0.1185 HD
ATOM     71 H63  WH0 L   1      -2.850  -4.451  -1.487  1.00  0.00    +0.0297  H
ATOM     72 H64  WH0 L   1      -2.016  -5.142  -0.056  1.00  0.00    +0.0297  H
ATOM     73 H65  WH0 L   1      -1.538  -2.723  -0.380  1.00  0.00    +0.0489  H
ATOM     74 H66  WH0 L   1      -2.366  -3.017   1.199  1.00  0.00    +0.0489  H
ENDBRANCH 20 57
ENDBRANCH 1 25
TORSDOF 9
