ROOT
ATOM      1 C12  WH0 L   1      -1.967  -1.836  -0.086  1.00  0.00    -0.0133  A
ATOM      2 C13  WH0 L   1      -1.800  -2.832   0.903  1.00  0.00    -0.0519  A
ATOM      3 C14  WH0 L   1      -2.466  -4.058   0.809  1.00  0.00    -0.0374  A
ATOM      4 C15  WH0 L   1      -3.282  -4.249  -0.284  1.00  0.00    +0.0454  A
ATOM      5 C16  WH0 L   1      -3.454  -3.280  -1.271  1.00  0.00    -0.0145  A
ATOM      6 C17  WH0 L   1      -2.805  -2.062  -1.189  1.00  0.00    -0.0483  A
ATOM      7 C18  WH0 L   1      -4.389  -3.801  -2.322  1.00  0.00    +0.0535  C
ATOM      8 C19  WH0 L   1      -4.722  -5.200  -1.790  1.00  0.00    +0.2296  C
ATOM      9 O20  WH0 L   1      -5.455  -6.023  -2.313  1.00  0.00    -0.2725 OA
ATOM     10 N21  WH0 L   1      -4.034  -5.369  -0.594  1.00  0.00    -0.3256  N
ATOM     11 H53  WH0 L   1      -1.148  -2.648   1.755  1.00  0.00    +0.0624  H
ATOM     12 H54  WH0 L   1      -2.338  -4.821   1.570  1.00  0.00    +0.0638  H
ATOM     13 H55  WH0 L   1      -2.937  -1.307  -1.959  1.00  0.00    +0.0627  H
ATOM     14 H56  WH0 L   1      -5.300  -3.201  -2.378  1.00  0.00    +0.0410  H
ATOM     15 H57  WH0 L   1      -3.889  -3.885  -3.290  1.00  0.00    +0.0410  H
ATOM     16 H58  WH0 L   1      -4.087  -6.218  -0.050  1.00  0.00    +0.1686 HD
ENDROOT
BRANCH 1 20
ATOM     17  C8  WH0 L   1       2.424  -0.718  -0.453  1.00  0.00    +0.0488  A
ATOM     18  C9  WH0 L   1       1.200  -1.274  -0.359  1.00  0.00    -0.0140  A
ATOM     19 C10  WH0 L   1       0.092  -0.438  -0.096  1.00  0.00    +0.0806  A
ATOM     20 C11  WH0 L   1      -1.273  -0.571   0.042  1.00  0.00    +0.0353  A
ATOM     21 C22  WH0 L   1      -1.760   0.766   0.216  1.00  0.00    +0.1015  A
ATOM     22 N33  WH0 L   1      -0.746   1.650   0.214  1.00  0.00    -0.1627 NA
ATOM     23 N34  WH0 L   1       0.367   0.897   0.045  1.00  0.00    -0.1987  N
ATOM     24 C35  WH0 L   1       1.682   1.443  -0.039  1.00  0.00    +0.2285  A
ATOM     25 N43  WH0 L   1       2.684   0.634  -0.299  1.00  0.00    -0.2172 NA
ATOM     26 H52  WH0 L   1       1.051  -2.341  -0.498  1.00  0.00    +0.0657  H
BRANCH 17 27
ATOM     27  C7  WH0 L   1       3.631  -1.571  -0.772  1.00  0.00    +0.0073  C
ATOM     28 H50  WH0 L   1       3.319  -2.561  -1.128  1.00  0.00    +0.0345  H
ATOM     29 H51  WH0 L   1       4.184  -1.119  -1.606  1.00  0.00    +0.0345  H
BRANCH 27 30
ATOM     30  C6  WH0 L   1       4.553  -1.722   0.439  1.00  0.00    +0.0238  C
ATOM     31 H48  WH0 L   1       4.948  -0.751   0.758  1.00  0.00    +0.0490  H
ATOM     32 H49  WH0 L   1       4.005  -2.159   1.284  1.00  0.00    +0.0490  H
BRANCH 30 35
ATOM     33  C3  WH0 L   1       5.594  -3.933   0.142  1.00  0.00    +0.2443  C
ATOM     34  O4  WH0 L   1       4.567  -4.550   0.393  1.00  0.00    -0.2683 OA
ATOM     35  N5  WH0 L   1       5.698  -2.567   0.150  1.00  0.00    -0.3521  N
ATOM     36 H47  WH0 L   1       6.521  -2.132  -0.242  1.00  0.00    +0.1626 HD
BRANCH 33 38
ATOM     37  C1  WH0 L   1       8.074  -4.232  -0.092  1.00  0.00    -0.0936  C
ATOM     38  C2  WH0 L   1       6.818  -4.664  -0.271  1.00  0.00    -0.0047  C
ATOM     39 H44  WH0 L   1       8.911  -4.855  -0.393  1.00  0.00    +0.0536  H
ATOM     40 H45  WH0 L   1       8.308  -3.285   0.383  1.00  0.00    +0.0536  H
ATOM     41 H46  WH0 L   1       6.627  -5.649  -0.687  1.00  0.00    +0.0666  H
ENDBRANCH 33 38
ENDBRANCH 30 35
ENDBRANCH 27 30
ENDBRANCH 17 27
BRANCH 21 42
ATOM     42 C23  WH0 L   1      -3.140   1.240   0.368  1.00  0.00    +0.0028  A
ATOM     43 C24  WH0 L   1      -3.510   2.486  -0.162  1.00  0.00    -0.0520  A
ATOM     44 C25  WH0 L   1      -4.818   2.963  -0.034  1.00  0.00    -0.0495  A
ATOM     45 C26  WH0 L   1      -5.787   2.205   0.634  1.00  0.00    +0.0548  A
ATOM     46 C31  WH0 L   1      -5.418   0.963   1.172  1.00  0.00    -0.0495  A
ATOM     47 C32  WH0 L   1      -4.107   0.488   1.045  1.00  0.00    -0.0520  A
ATOM     48 H59  WH0 L   1      -2.772   3.095  -0.683  1.00  0.00    +0.0624  H
ATOM     49 H60  WH0 L   1      -5.070   3.933  -0.458  1.00  0.00    +0.0623  H
ATOM     50 H61  WH0 L   1      -6.152   0.359   1.703  1.00  0.00    +0.0623  H
ATOM     51 H62  WH0 L   1      -3.857  -0.470   1.494  1.00  0.00    +0.0624  H
BRANCH 45 52
ATOM     52 C27  WH0 L   1      -7.203   2.704   0.786  1.00  0.00    +0.4174  C
ATOM     53 F28  WH0 L   1      -7.570   2.842   2.090  1.00  0.00    -0.1659  F
ATOM     54 F29  WH0 L   1      -7.419   3.918   0.207  1.00  0.00    -0.1659  F
ATOM     55 F30  WH0 L   1      -8.114   1.859   0.229  1.00  0.00    -0.1659  F
ENDBRANCH 45 52
ENDBRANCH 21 42
BRANCH 24 56
ATOM     56 N36  WH0 L   1       1.882   2.820   0.131  1.00  0.00    -0.3401  N
ATOM     57 C37  WH0 L   1       1.487   3.427   1.413  1.00  0.00    +0.0237  C
ATOM     58 C38  WH0 L   1       1.242   4.918   1.226  1.00  0.00    -0.0090  C
ATOM     59 C39  WH0 L   1       2.479   5.588   0.637  1.00  0.00    +0.0585  C
ATOM     60 O40  WH0 L   1       2.218   6.966   0.393  1.00  0.00    -0.3917 OA
ATOM     61 C41  WH0 L   1       2.903   4.905  -0.657  1.00  0.00    -0.0090  C
ATOM     62 C42  WH0 L   1       3.102   3.409  -0.438  1.00  0.00    +0.0237  C
ATOM     63 H63  WH0 L   1       2.284   3.262   2.150  1.00  0.00    +0.0489  H
ATOM     64 H64  WH0 L   1       0.584   2.971   1.828  1.00  0.00    +0.0489  H
ATOM     65 H65  WH0 L   1       0.380   5.078   0.564  1.00  0.00    +0.0307  H
ATOM     66 H66  WH0 L   1       0.980   5.386   2.182  1.00  0.00    +0.0307  H
ATOM     67 H67  WH0 L   1       3.300   5.540   1.362  1.00  0.00    +0.0594  H
ATOM     68 H68  WH0 L   1       1.435   7.027  -0.180  1.00  0.00    +0.2098 HD
ATOM     69 H69  WH0 L   1       2.142   5.074  -1.430  1.00  0.00    +0.0307  H
ATOM     70 H70  WH0 L   1       3.826   5.360  -1.036  1.00  0.00    +0.0307  H
ATOM     71 H71  WH0 L   1       3.954   3.226   0.228  1.00  0.00    +0.0489  H
ATOM     72 H72  WH0 L   1       3.332   2.950  -1.407  1.00  0.00    +0.0489  H
ENDBRANCH 24 56
ENDBRANCH 1 20
TORSDOF 8
