ROOT
ATOM      1 N10  878 L   1      -1.755  -0.376   1.054  1.00  0.00    -0.3646  N
ATOM      2 C11  878 L   1      -0.788  -1.118   1.881  1.00  0.00    +0.0422  C
ATOM      3 C12  878 L   1      -1.232  -2.588   1.983  1.00  0.00    +0.0653  C
ATOM      4 O13  878 L   1      -1.410  -3.175   0.681  1.00  0.00    -0.3763 OA
ATOM      5 C14  878 L   1      -2.431  -2.466  -0.044  1.00  0.00    +0.0653  C
ATOM      6 C15  878 L   1      -2.049  -0.991  -0.252  1.00  0.00    +0.0422  C
ATOM      7 H27  878 L   1      -0.730  -0.689   2.888  1.00  0.00    +0.0510  H
ATOM      8 H28  878 L   1       0.212  -1.089   1.437  1.00  0.00    +0.0510  H
ATOM      9 H29  878 L   1      -2.169  -2.679   2.546  1.00  0.00    +0.0577  H
ATOM     10 H30  878 L   1      -0.469  -3.170   2.509  1.00  0.00    +0.0577  H
ATOM     11 H31  878 L   1      -2.553  -2.959  -1.014  1.00  0.00    +0.0577  H
ATOM     12 H32  878 L   1      -3.380  -2.555   0.499  1.00  0.00    +0.0577  H
ATOM     13 H33  878 L   1      -2.878  -0.471  -0.748  1.00  0.00    +0.0510  H
ATOM     14 H34  878 L   1      -1.176  -0.948  -0.911  1.00  0.00    +0.0510  H
ENDROOT
BRANCH 1 20
ATOM     15  C4  878 L   1      -0.604   1.787   0.499  1.00  0.00    +0.0655  A
ATOM     16  C5  878 L   1      -0.638   3.185   0.600  1.00  0.00    -0.0363  A
ATOM     17  C6  878 L   1      -1.685   3.834   1.259  1.00  0.00    -0.0597  A
ATOM     18  C7  878 L   1      -2.713   3.094   1.826  1.00  0.00    -0.0597  A
ATOM     19  C8  878 L   1      -2.693   1.703   1.733  1.00  0.00    -0.0365  A
ATOM     20  C9  878 L   1      -1.651   1.023   1.075  1.00  0.00    +0.0617  A
ATOM     21 H23  878 L   1       0.144   3.804   0.172  1.00  0.00    +0.0639  H
ATOM     22 H24  878 L   1      -1.690   4.918   1.325  1.00  0.00    +0.0618  H
ATOM     23 H25  878 L   1      -3.529   3.594   2.340  1.00  0.00    +0.0618  H
ATOM     24 H26  878 L   1      -3.502   1.131   2.180  1.00  0.00    +0.0639  H
BRANCH 15 27
ATOM     25  O1  878 L   1       1.865   2.808  -0.916  1.00  0.00    -0.2638 OA
ATOM     26  C2  878 L   1       1.555   1.631  -0.793  1.00  0.00    +0.2941  C
ATOM     27  N3  878 L   1       0.444   1.115  -0.161  1.00  0.00    -0.3178  N
ATOM     28 H22  878 L   1       0.376   0.107  -0.174  1.00  0.00    +0.1691 HD
BRANCH 26 29
ATOM     29 C16  878 L   1       2.409   0.527  -1.358  1.00  0.00    +0.2194  C
ATOM     30 C17  878 L   1       3.537   0.853  -2.012  1.00  0.00    +0.1316  C
ATOM     31 O18  878 L   1       4.435  -0.046  -2.540  1.00  0.00    -0.4923 OA
ATOM     32 C19  878 L   1       4.176  -1.382  -2.084  1.00  0.00    +0.1228  C
ATOM     33 C20  878 L   1       2.681  -1.676  -2.079  1.00  0.00    +0.1238  C
ATOM     34 O21  878 L   1       1.985  -0.789  -1.189  1.00  0.00    -0.4810 OA
ATOM     35 H35  878 L   1       3.859   1.871  -2.196  1.00  0.00    +0.1063  H
ATOM     36 H36  878 L   1       4.600  -1.487  -1.078  1.00  0.00    +0.0731  H
ATOM     37 H37  878 L   1       4.700  -2.072  -2.752  1.00  0.00    +0.0731  H
ATOM     38 H38  878 L   1       2.495  -2.700  -1.741  1.00  0.00    +0.0731  H
ATOM     39 H39  878 L   1       2.252  -1.563  -3.082  1.00  0.00    +0.0731  H
ENDBRANCH 26 29
ENDBRANCH 15 27
ENDBRANCH 1 20
TORSDOF 3
