ROOT
ATOM      1  O1  161 L   1       2.580   1.326  -1.323  1.00  0.00    -0.3902 OA
ATOM      2  C2  161 L   1       1.911   0.769  -0.199  1.00  0.00    +0.0722  C
ATOM      3  C3  161 L   1       0.508   1.346  -0.031  1.00  0.00    +0.0253  C
ATOM      4  N4  161 L   1      -0.185   0.251   0.647  1.00  0.00    -0.2992 NA
ATOM      5 C13  161 L   1       0.198  -0.952  -0.086  1.00  0.00    +0.0046  C
ATOM      6 C14  161 L   1       1.687  -0.742  -0.399  1.00  0.00    +0.0044  C
ATOM      7 H22  161 L   1       3.409   0.805  -1.402  1.00  0.00    +0.2098 HD
ATOM      8 H23  161 L   1       2.508   0.981   0.697  1.00  0.00    +0.0609  H
ATOM      9 H24  161 L   1       0.078   1.594  -1.008  1.00  0.00    +0.0452  H
ATOM     10 H25  161 L   1       0.528   2.259   0.574  1.00  0.00    +0.0452  H
ATOM     11 H35  161 L   1      -0.345  -1.040  -1.034  1.00  0.00    +0.0430  H
ATOM     12 H36  161 L   1       0.010  -1.859   0.497  1.00  0.00    +0.0430  H
ATOM     13 H37  161 L   1       1.874  -1.031  -1.442  1.00  0.00    +0.0342  H
ENDROOT
BRANCH 4 14
ATOM     14  C5  161 L   1      -1.625   0.449   0.826  1.00  0.00    +0.0030  C
ATOM     15 H26  161 L   1      -2.006  -0.387   1.428  1.00  0.00    +0.0430  H
ATOM     16 H27  161 L   1      -1.765   1.337   1.458  1.00  0.00    +0.0430  H
BRANCH 14 17
ATOM     17  C6  161 L   1      -2.494   0.596  -0.437  1.00  0.00    -0.0149  C
ATOM     18 H28  161 L   1      -2.428  -0.301  -1.064  1.00  0.00    +0.0326  H
ATOM     19 H29  161 L   1      -2.144   1.428  -1.058  1.00  0.00    +0.0326  H
BRANCH 17 20
ATOM     20  C7  161 L   1      -3.946   0.827  -0.086  1.00  0.00    -0.0462  A
ATOM     21  C8  161 L   1      -4.455   2.130   0.008  1.00  0.00    -0.0585  A
ATOM     22  C9  161 L   1      -5.791   2.344   0.349  1.00  0.00    -0.0615  A
ATOM     23 C10  161 L   1      -6.629   1.259   0.602  1.00  0.00    -0.0617  A
ATOM     24 C11  161 L   1      -6.132  -0.040   0.516  1.00  0.00    -0.0615  A
ATOM     25 C12  161 L   1      -4.796  -0.256   0.175  1.00  0.00    -0.0585  A
ATOM     26 H30  161 L   1      -3.813   2.987  -0.184  1.00  0.00    +0.0620  H
ATOM     27 H31  161 L   1      -6.179   3.357   0.416  1.00  0.00    +0.0618  H
ATOM     28 H32  161 L   1      -7.669   1.428   0.869  1.00  0.00    +0.0618  H
ATOM     29 H33  161 L   1      -6.786  -0.885   0.715  1.00  0.00    +0.0618  H
ATOM     30 H34  161 L   1      -4.423  -1.275   0.113  1.00  0.00    +0.0620  H
ENDBRANCH 17 20
ENDBRANCH 14 17
ENDBRANCH 4 14
BRANCH 6 31
ATOM     31 C15  161 L   1       2.590  -1.577   0.524  1.00  0.00    -0.0026  C
ATOM     32 H38  161 L   1       2.291  -2.630   0.445  1.00  0.00    +0.0333  H
ATOM     33 H39  161 L   1       2.438  -1.275   1.568  1.00  0.00    +0.0333  H
BRANCH 31 34
ATOM     34 C16  161 L   1       4.067  -1.502   0.211  1.00  0.00    +0.0597  A
ATOM     35 C17  161 L   1       4.966  -2.243   0.975  1.00  0.00    +0.0488  A
ATOM     36 N18  161 L   1       6.303  -2.234   0.760  1.00  0.00    -0.2600 NA
ATOM     37 C19  161 L   1       6.718  -1.450  -0.257  1.00  0.00    +0.0457  A
ATOM     38 C20  161 L   1       5.839  -0.706  -1.022  1.00  0.00    +0.0460  A
ATOM     39 N21  161 L   1       4.500  -0.711  -0.808  1.00  0.00    -0.2569 NA
ATOM     40 H40  161 L   1       4.633  -2.871   1.795  1.00  0.00    +0.0848  H
ATOM     41 H41  161 L   1       7.786  -1.431  -0.440  1.00  0.00    +0.0845  H
ATOM     42 H42  161 L   1       6.190  -0.076  -1.832  1.00  0.00    +0.0845  H
ENDBRANCH 31 34
ENDBRANCH 6 31
TORSDOF 5
