ROOT
ATOM      1 C29  WH0 L   1       0.878   1.248  -0.363  1.00  0.00    -0.0133  A
ATOM      2 C30  WH0 L   1       1.366   1.454  -1.674  1.00  0.00    -0.0519  A
ATOM      3 C31  WH0 L   1       2.611   2.068  -1.881  1.00  0.00    -0.0374  A
ATOM      4 C32  WH0 L   1       3.340   2.474  -0.766  1.00  0.00    +0.0454  A
ATOM      5 C33  WH0 L   1       2.861   2.296   0.516  1.00  0.00    -0.0145  A
ATOM      6 C34  WH0 L   1       1.627   1.690   0.745  1.00  0.00    -0.0483  A
ATOM      7 C35  WH0 L   1       3.839   2.811   1.522  1.00  0.00    +0.0535  C
ATOM      8 C36  WH0 L   1       4.923   3.289   0.602  1.00  0.00    +0.2296  C
ATOM      9 O37  WH0 L   1       5.998   3.815   0.990  1.00  0.00    -0.2725 OA
ATOM     10 N38  WH0 L   1       4.616   3.086  -0.773  1.00  0.00    -0.3256  N
ATOM     11 H61  WH0 L   1       0.787   1.126  -2.529  1.00  0.00    +0.0624  H
ATOM     12 H62  WH0 L   1       2.996   2.215  -2.882  1.00  0.00    +0.0638  H
ATOM     13 H63  WH0 L   1       1.268   1.543   1.756  1.00  0.00    +0.0627  H
ATOM     14 H64  WH0 L   1       4.204   1.994   2.179  1.00  0.00    +0.0410  H
ATOM     15 H65  WH0 L   1       3.408   3.654   2.101  1.00  0.00    +0.0410  H
ATOM     16 H66  WH0 L   1       5.206   3.322  -1.602  1.00  0.00    +0.1686 HD
ENDROOT
BRANCH 1 24
ATOM     17  C8  WH0 L   1       0.100  -1.889  -0.706  1.00  0.00    -0.0014  A
ATOM     18  C9  WH0 L   1      -0.549  -3.142  -0.757  1.00  0.00    +0.0366  A
ATOM     19 N10  WH0 L   1      -1.854  -3.269  -0.385  1.00  0.00    -0.2204 NA
ATOM     20 C11  WH0 L   1      -2.586  -2.203   0.037  1.00  0.00    +0.2284  A
ATOM     21 N18  WH0 L   1      -1.982  -0.983   0.066  1.00  0.00    -0.1984  N
ATOM     22 N19  WH0 L   1      -2.512   0.148   0.501  1.00  0.00    -0.1627 NA
ATOM     23 C20  WH0 L   1      -1.574   1.110   0.377  1.00  0.00    +0.1015  A
ATOM     24 C28  WH0 L   1      -0.405   0.558  -0.152  1.00  0.00    +0.0356  A
ATOM     25 C39  WH0 L   1      -0.703  -0.795  -0.311  1.00  0.00    +0.0835  A
ATOM     26 H48  WH0 L   1      -0.028  -4.031  -1.081  1.00  0.00    +0.0834  H
BRANCH 17 27
ATOM     27  C7  WH0 L   1       1.561  -1.718  -1.082  1.00  0.00    -0.0067  C
ATOM     28 H46  WH0 L   1       2.027  -1.027  -0.353  1.00  0.00    +0.0331  H
ATOM     29 H47  WH0 L   1       1.621  -1.268  -2.096  1.00  0.00    +0.0331  H
BRANCH 27 30
ATOM     30  C6  WH0 L   1       2.405  -3.000  -1.069  1.00  0.00    +0.0225  C
ATOM     31 H44  WH0 L   1       2.075  -3.665  -1.896  1.00  0.00    +0.0489  H
ATOM     32 H45  WH0 L   1       2.279  -3.542  -0.106  1.00  0.00    +0.0489  H
BRANCH 30 35
ATOM     33  C3  WH0 L   1       4.605  -2.028  -0.254  1.00  0.00    +0.2443  C
ATOM     34  O4  WH0 L   1       4.188  -1.995   0.936  1.00  0.00    -0.2683 OA
ATOM     35  N5  WH0 L   1       3.816  -2.673  -1.269  1.00  0.00    -0.3522  N
ATOM     36 H43  WH0 L   1       4.263  -2.967  -2.167  1.00  0.00    +0.1626 HD
BRANCH 33 38
ATOM     37  C1  WH0 L   1       6.307  -1.106  -1.794  1.00  0.00    -0.0936  C
ATOM     38  C2  WH0 L   1       5.909  -1.410  -0.558  1.00  0.00    -0.0047  C
ATOM     39 H40  WH0 L   1       5.686  -1.287  -2.660  1.00  0.00    +0.0536  H
ATOM     40 H41  WH0 L   1       7.271  -0.637  -1.947  1.00  0.00    +0.0536  H
ATOM     41 H42  WH0 L   1       6.558  -1.149   0.269  1.00  0.00    +0.0666  H
ENDBRANCH 33 38
ENDBRANCH 30 35
ENDBRANCH 27 30
ENDBRANCH 17 27
BRANCH 20 42
ATOM     42 N12  WH0 L   1      -3.966  -2.385   0.420  1.00  0.00    -0.3359  N
ATOM     43 C13  WH0 L   1      -4.400  -3.631   1.064  1.00  0.00    +0.0449  C
ATOM     44 C14  WH0 L   1      -5.689  -4.174   0.403  1.00  0.00    +0.0653  C
ATOM     45 O15  WH0 L   1      -6.304  -3.256  -0.487  1.00  0.00    -0.3763 OA
ATOM     46 C16  WH0 L   1      -6.374  -1.975   0.103  1.00  0.00    +0.0653  C
ATOM     47 C17  WH0 L   1      -4.975  -1.353   0.143  1.00  0.00    +0.0449  C
ATOM     48 H49  WH0 L   1      -3.607  -4.409   1.035  1.00  0.00    +0.0511  H
ATOM     49 H50  WH0 L   1      -4.605  -3.417   2.135  1.00  0.00    +0.0511  H
ATOM     50 H51  WH0 L   1      -6.417  -4.486   1.184  1.00  0.00    +0.0577  H
ATOM     51 H52  WH0 L   1      -5.432  -5.086  -0.176  1.00  0.00    +0.0577  H
ATOM     52 H53  WH0 L   1      -6.813  -2.023   1.127  1.00  0.00    +0.0577  H
ATOM     53 H54  WH0 L   1      -7.043  -1.333  -0.508  1.00  0.00    +0.0577  H
ATOM     54 H55  WH0 L   1      -4.765  -0.890  -0.847  1.00  0.00    +0.0511  H
ATOM     55 H56  WH0 L   1      -4.945  -0.569   0.929  1.00  0.00    +0.0511  H
ENDBRANCH 20 42
BRANCH 23 56
ATOM     56 C21  WH0 L   1      -1.804   2.511   0.794  1.00  0.00    +0.0029  A
ATOM     57 C22  WH0 L   1      -1.225   3.588   0.099  1.00  0.00    -0.0498  A
ATOM     58 C23  WH0 L   1      -1.462   4.904   0.511  1.00  0.00    -0.0258  A
ATOM     59 C24  WH0 L   1      -2.284   5.156   1.612  1.00  0.00    +0.1234  A
ATOM     60 F25  WH0 L   1      -2.515   6.432   2.010  1.00  0.00    -0.2055  F
ATOM     61 C26  WH0 L   1      -2.878   4.094   2.298  1.00  0.00    -0.0258  A
ATOM     62 C27  WH0 L   1      -2.646   2.778   1.888  1.00  0.00    -0.0498  A
ATOM     63 H57  WH0 L   1      -0.613   3.422  -0.776  1.00  0.00    +0.0625  H
ATOM     64 H58  WH0 L   1      -1.014   5.727  -0.030  1.00  0.00    +0.0646  H
ATOM     65 H59  WH0 L   1      -3.521   4.291   3.147  1.00  0.00    +0.0646  H
ATOM     66 H60  WH0 L   1      -3.113   1.968   2.435  1.00  0.00    +0.0625  H
ENDBRANCH 23 56
ENDBRANCH 1 24
TORSDOF 7
