ROOT
ATOM      1  C6  CHE L   1      -0.992  -0.427   1.069  1.00  0.00    -0.0137  A
ATOM      2  C7  CHE L   1      -0.208   0.172   2.061  1.00  0.00    -0.0532  A
ATOM      3  C8  CHE L   1      -0.359   1.530   2.342  1.00  0.00    -0.0482  A
ATOM      4  C9  CHE L   1      -1.289   2.291   1.624  1.00  0.00    +0.0497  A
ATOM      5 C10  CHE L   1      -1.464   3.720   1.932  1.00  0.00    +0.2725  A
ATOM      6 O11  CHE L   1      -0.791   4.273   2.794  1.00  0.00    -0.2658 OA
ATOM      7 N12  CHE L   1      -2.424   4.380   1.207  1.00  0.00    -0.2424  N
ATOM      8 N13  CHE L   1      -3.177   3.851   0.206  1.00  0.00    -0.1740 NA
ATOM      9 C14  CHE L   1      -3.012   2.597  -0.100  1.00  0.00    +0.0828  A
ATOM     10 C17  CHE L   1      -2.068   1.708   0.626  1.00  0.00    +0.0121  A
ATOM     11 C18  CHE L   1      -1.933   0.339   0.362  1.00  0.00    -0.0442  A
ATOM     12 H35  CHE L   1       0.516  -0.411   2.627  1.00  0.00    +0.0624  H
ATOM     13 H36  CHE L   1       0.245   1.992   3.122  1.00  0.00    +0.0625  H
ATOM     14 H37  CHE L   1      -2.560   5.368   1.403  1.00  0.00    +0.1921 HD
ATOM     15 H42  CHE L   1      -2.529  -0.150  -0.404  1.00  0.00    +0.0630  H
ENDROOT
BRANCH 1 20
ATOM     16  C1  CHE L   1       0.843  -4.806  -0.437  1.00  0.00    +0.0309  C
ATOM     17  N2  CHE L   1       0.009  -3.750   0.093  1.00  0.00    -0.2656  N
ATOM     18  N3  CHE L   1      -1.253  -4.052   0.460  1.00  0.00    -0.1787 NA
ATOM     19  C4  CHE L   1      -1.761  -2.885   0.854  1.00  0.00    +0.0577  A
ATOM     20  C5  CHE L   1      -0.830  -1.831   0.754  1.00  0.00    +0.0280  A
ATOM     21 C19  CHE L   1       0.322  -2.417   0.248  1.00  0.00    +0.0841  A
ATOM     22 H31  CHE L   1       1.448  -4.413  -1.257  1.00  0.00    +0.0473  H
ATOM     23 H32  CHE L   1       0.206  -5.610  -0.818  1.00  0.00    +0.0473  H
ATOM     24 H33  CHE L   1       1.474  -5.181   0.372  1.00  0.00    +0.0473  H
ATOM     25 H34  CHE L   1      -2.785  -2.851   1.202  1.00  0.00    +0.0854  H
BRANCH 21 26
ATOM     26 C20  CHE L   1       1.589  -1.824  -0.093  1.00  0.00    +0.0577  A
ATOM     27 S21  CHE L   1       3.012  -2.285   0.743  1.00  0.00    -0.0659  S
ATOM     28 C22  CHE L   1       3.971  -1.198  -0.146  1.00  0.00    +0.1100  A
ATOM     29 N23  CHE L   1       5.296  -1.111   0.083  1.00  0.00    -0.2478 NA
ATOM     30 C24  CHE L   1       5.932  -0.205  -0.685  1.00  0.00    +0.0289  A
ATOM     31 C25  CHE L   1       5.332   0.593  -1.643  1.00  0.00    -0.0429  A
ATOM     32 C26  CHE L   1       3.960   0.470  -1.851  1.00  0.00    -0.0493  A
ATOM     33 C27  CHE L   1       3.238  -0.465  -1.074  1.00  0.00    +0.0257  A
ATOM     34 C28  CHE L   1       1.852  -0.838  -1.030  1.00  0.00    +0.0772  A
ATOM     35 H43  CHE L   1       7.002  -0.128  -0.501  1.00  0.00    +0.0830  H
ATOM     36 H44  CHE L   1       5.921   1.301  -2.218  1.00  0.00    +0.0633  H
ATOM     37 H45  CHE L   1       3.465   1.086  -2.597  1.00  0.00    +0.0625  H
BRANCH 34 38
ATOM     38 C29  CHE L   1       0.846  -0.253  -1.867  1.00  0.00    +0.1010  C
ATOM     39 N30  CHE L   1       0.036   0.236  -2.540  1.00  0.00    -0.1908 NA
ENDBRANCH 34 38
ENDBRANCH 21 26
ENDBRANCH 1 20
BRANCH 9 40
ATOM     40 C15  CHE L   1      -3.862   2.044  -1.243  1.00  0.00    +0.0383  C
ATOM     41 N16  CHE L   1      -5.169   1.638  -0.721  1.00  0.00    -0.3248 NA
ATOM     42 H38  CHE L   1      -3.375   1.214  -1.758  1.00  0.00    +0.0487  H
ATOM     43 H39  CHE L   1      -4.003   2.835  -1.989  1.00  0.00    +0.0487  H
ATOM     44 H40  CHE L   1      -5.618   2.466  -0.323  1.00  0.00    +0.1186 HD
ATOM     45 H41  CHE L   1      -5.054   0.987   0.053  1.00  0.00    +0.1186 HD
ENDBRANCH 9 40
TORSDOF 4
