ROOT
ATOM      1  O1  678 L   1      -0.623   0.538   1.597  1.00  0.00    -0.2727 OA
ATOM      2  C2  678 L   1      -1.089   0.523   0.456  1.00  0.00    +0.2284  C
ATOM      3 N16  678 L   1      -2.464   0.499   0.264  1.00  0.00    -0.3376  N
ATOM      4 C17  678 L   1      -3.169   0.646  -1.018  1.00  0.00    +0.0446  C
ATOM      5 C18  678 L   1      -4.560   1.259  -0.812  1.00  0.00    +0.0653  C
ATOM      6 O19  678 L   1      -5.397   0.457   0.037  1.00  0.00    -0.3763 OA
ATOM      7 C20  678 L   1      -4.689  -0.215   1.090  1.00  0.00    +0.0653  C
ATOM      8 C21  678 L   1      -3.336   0.414   1.444  1.00  0.00    +0.0446  C
ATOM      9 H34  678 L   1      -3.276  -0.362  -1.435  1.00  0.00    +0.0511  H
ATOM     10 H35  678 L   1      -2.589   1.260  -1.711  1.00  0.00    +0.0511  H
ATOM     11 H36  678 L   1      -4.481   2.260  -0.362  1.00  0.00    +0.0577  H
ATOM     12 H37  678 L   1      -5.075   1.367  -1.777  1.00  0.00    +0.0577  H
ATOM     13 H38  678 L   1      -5.338  -0.225   1.966  1.00  0.00    +0.0577  H
ATOM     14 H39  678 L   1      -4.548  -1.252   0.777  1.00  0.00    +0.0577  H
ATOM     15 H40  678 L   1      -2.850  -0.164   2.237  1.00  0.00    +0.0511  H
ATOM     16 H41  678 L   1      -3.479   1.441   1.807  1.00  0.00    +0.0511  H
ENDROOT
BRANCH 2 17
ATOM     17  C3  678 L   1      -0.179   0.520  -0.779  1.00  0.00    +0.0554  C
ATOM     18  C4  678 L   1      -0.265  -0.826  -1.523  1.00  0.00    -0.0385  C
ATOM     19  C5  678 L   1       0.931  -1.034  -2.452  1.00  0.00    -0.0346  C
ATOM     20  C6  678 L   1       2.280  -0.991  -1.712  1.00  0.00    +0.0187  C
ATOM     21  N7  678 L   1       2.118  -0.349  -0.406  1.00  0.00    -0.3676  N
ATOM     22 C15  678 L   1       1.279   0.869  -0.398  1.00  0.00    +0.0300  C
ATOM     23 H22  678 L   1      -0.517   1.332  -1.433  1.00  0.00    +0.0414  H
ATOM     24 H23  678 L   1      -0.320  -1.652  -0.809  1.00  0.00    +0.0274  H
ATOM     25 H24  678 L   1      -1.195  -0.876  -2.120  1.00  0.00    +0.0274  H
ATOM     26 H25  678 L   1       0.916  -0.245  -3.224  1.00  0.00    +0.0282  H
ATOM     27 H26  678 L   1       0.836  -1.987  -2.985  1.00  0.00    +0.0282  H
ATOM     28 H27  678 L   1       3.011  -0.464  -2.343  1.00  0.00    +0.0488  H
ATOM     29 H28  678 L   1       2.641  -2.022  -1.563  1.00  0.00    +0.0488  H
ATOM     30 H32  678 L   1       1.331   1.421   0.551  1.00  0.00    +0.0495  H
ATOM     31 H33  678 L   1       1.687   1.561  -1.155  1.00  0.00    +0.0495  H
BRANCH 21 32
ATOM     32  C8  678 L   1       3.187  -0.343   0.497  1.00  0.00    +0.0765  A
ATOM     33  C9  678 L   1       2.889  -0.266   1.872  1.00  0.00    -0.0175  A
ATOM     34 C10  678 L   1       3.923  -0.295   2.804  1.00  0.00    +0.0297  A
ATOM     35 N11  678 L   1       5.236  -0.369   2.474  1.00  0.00    -0.2603 NA
ATOM     36 C12  678 L   1       5.516  -0.446   1.148  1.00  0.00    +0.0648  A
ATOM     37 C13  678 L   1       4.550  -0.448   0.147  1.00  0.00    +0.1644  A
ATOM     38 F14  678 L   1       4.960  -0.539  -1.137  1.00  0.00    -0.2017  F
ATOM     39 H29  678 L   1       1.854  -0.231   2.218  1.00  0.00    +0.0654  H
ATOM     40 H30  678 L   1       3.714  -0.269   3.868  1.00  0.00    +0.0830  H
ATOM     41 H31  678 L   1       6.576  -0.497   0.884  1.00  0.00    +0.0859  H
ENDBRANCH 21 32
ENDBRANCH 2 17
TORSDOF 2
