ROOT
ATOM      1 C11  156 L   1      -1.595  -0.622  -0.530  1.00  0.00    +0.0893  C
ATOM      2 C17  156 L   1      -2.213  -2.025  -0.701  1.00  0.00    -0.0235  C
ATOM      3 C18  156 L   1      -3.505  -1.987   0.106  1.00  0.00    -0.0505  C
ATOM      4 C19  156 L   1      -3.232  -1.032   1.264  1.00  0.00    -0.0505  C
ATOM      5 C20  156 L   1      -1.895  -0.350   0.959  1.00  0.00    -0.0235  C
ATOM      6 H32  156 L   1      -1.547  -2.789  -0.275  1.00  0.00    +0.0292  H
ATOM      7 H33  156 L   1      -2.396  -2.304  -1.744  1.00  0.00    +0.0292  H
ATOM      8 H34  156 L   1      -4.326  -1.601  -0.509  1.00  0.00    +0.0266  H
ATOM      9 H35  156 L   1      -3.797  -2.983   0.455  1.00  0.00    +0.0266  H
ATOM     10 H36  156 L   1      -3.179  -1.569   2.217  1.00  0.00    +0.0266  H
ATOM     11 H37  156 L   1      -4.039  -0.297   1.349  1.00  0.00    +0.0266  H
ATOM     12 H38  156 L   1      -1.928   0.715   1.214  1.00  0.00    +0.0292  H
ATOM     13 H39  156 L   1      -1.122  -0.806   1.592  1.00  0.00    +0.0292  H
ENDROOT
BRANCH 1 16
ATOM     14  C8  156 L   1       0.717   0.340  -0.493  1.00  0.00    +0.2234  C
ATOM     15  O9  156 L   1       0.409   1.325   0.169  1.00  0.00    -0.2732 OA
ATOM     16 N10  156 L   1      -0.155  -0.681  -0.811  1.00  0.00    -0.3445  N
ATOM     17 H29  156 L   1       0.133  -1.316  -1.544  1.00  0.00    +0.1632 HD
BRANCH 14 18
ATOM     18  C7  156 L   1       2.110   0.108  -1.043  1.00  0.00    +0.0435  C
ATOM     19 H27  156 L   1       2.477  -0.855  -0.671  1.00  0.00    +0.0378  H
ATOM     20 H28  156 L   1       2.035   0.051  -2.136  1.00  0.00    +0.0378  H
BRANCH 18 21
ATOM     21  C6  156 L   1       3.069   1.233  -0.670  1.00  0.00    +0.0268  C
ATOM     22 H25  156 L   1       4.016   1.095  -1.205  1.00  0.00    +0.0491  H
ATOM     23 H26  156 L   1       2.662   2.210  -0.950  1.00  0.00    +0.0491  H
BRANCH 21 26
ATOM     24  C3  156 L   1       4.253   0.427   1.337  1.00  0.00    +0.2443  C
ATOM     25  O4  156 L   1       4.954  -0.363   0.719  1.00  0.00    -0.2683 OA
ATOM     26  N5  156 L   1       3.350   1.277   0.752  1.00  0.00    -0.3520  N
ATOM     27 H24  156 L   1       2.686   1.784   1.326  1.00  0.00    +0.1626 HD
BRANCH 24 29
ATOM     28  C1  156 L   1       5.075  -0.246   3.548  1.00  0.00    -0.0936  C
ATOM     29  C2  156 L   1       4.277   0.543   2.817  1.00  0.00    -0.0047  C
ATOM     30 H21  156 L   1       5.099  -0.165   4.629  1.00  0.00    +0.0536  H
ATOM     31 H22  156 L   1       5.720  -0.987   3.082  1.00  0.00    +0.0536  H
ATOM     32 H23  156 L   1       3.641   1.279   3.291  1.00  0.00    +0.0666  H
ENDBRANCH 24 29
ENDBRANCH 21 26
ENDBRANCH 18 21
ENDBRANCH 14 18
ENDBRANCH 1 16
BRANCH 1 33
ATOM     33 C12  156 L   1      -2.285   0.382  -1.459  1.00  0.00    +0.1036  A
ATOM     34 N13  156 L   1      -3.268   1.187  -1.100  1.00  0.00    -0.2499 NA
ATOM     35 C14  156 L   1      -3.676   1.956  -2.170  1.00  0.00    +0.0351  A
ATOM     36 C15  156 L   1      -3.025   1.713  -3.358  1.00  0.00    -0.0045  A
ATOM     37 S16  156 L   1      -1.858   0.482  -3.137  1.00  0.00    -0.0782  S
ATOM     38 H30  156 L   1      -4.464   2.685  -2.027  1.00  0.00    +0.0835  H
ATOM     39 H31  156 L   1      -3.179   2.186  -4.317  1.00  0.00    +0.0709  H
ENDBRANCH 1 33
TORSDOF 6
