ROOT
ATOM      1  C3  EUB L   1       1.691  -0.976  -0.669  1.00  0.00    +0.1271  A
ATOM      2  C4  EUB L   1       0.410  -1.276  -0.189  1.00  0.00    +0.0228  A
ATOM      3  C5  EUB L   1      -0.651  -0.398  -0.412  1.00  0.00    +0.1353  A
ATOM      4  C6  EUB L   1      -0.449   0.767  -1.147  1.00  0.00    +0.0597  A
ATOM      5  C7  EUB L   1       0.821   1.080  -1.634  1.00  0.00    -0.0408  A
ATOM      6  C8  EUB L   1       1.902   0.210  -1.402  1.00  0.00    -0.0011  A
ATOM      7 C14  EUB L   1      -1.604   1.642  -1.431  1.00  0.00    +0.1705  C
ATOM      8 O15  EUB L   1      -1.465   2.694  -2.046  1.00  0.00    -0.2918 OA
ATOM      9 C16  EUB L   1      -2.946   1.140  -0.981  1.00  0.00    +0.0519  C
ATOM     10 C17  EUB L   1      -2.747   0.355   0.309  1.00  0.00    +0.1322  C
ATOM     11 O25  EUB L   1      -1.868  -0.764   0.102  1.00  0.00    -0.4830 OA
ATOM     12 H29  EUB L   1       0.207  -2.183   0.371  1.00  0.00    +0.0691  H
ATOM     13 H30  EUB L   1       0.970   1.997  -2.202  1.00  0.00    +0.0630  H
ATOM     14 H40  EUB L   1      -3.358   0.520  -1.785  1.00  0.00    +0.0385  H
ATOM     15 H41  EUB L   1      -3.609   1.996  -0.815  1.00  0.00    +0.0385  H
ATOM     16 H42  EUB L   1      -2.292   0.990   1.084  1.00  0.00    +0.0789  H
ENDROOT
BRANCH 1 18
ATOM     17  C1  EUB L   1       2.651  -2.904   0.363  1.00  0.00    +0.0788  C
ATOM     18  O2  EUB L   1       2.789  -1.775  -0.490  1.00  0.00    -0.4947 OA
ATOM     19 H26  EUB L   1       3.633  -3.379   0.449  1.00  0.00    +0.0660  H
ATOM     20 H27  EUB L   1       1.963  -3.639  -0.067  1.00  0.00    +0.0660  H
ATOM     21 H28  EUB L   1       2.337  -2.606   1.369  1.00  0.00    +0.0660  H
ENDBRANCH 1 18
BRANCH 6 22
ATOM     22  C9  EUB L   1       3.274   0.592  -1.921  1.00  0.00    -0.0058  C
ATOM     23 H31  EUB L   1       3.156   1.151  -2.859  1.00  0.00    +0.0357  H
ATOM     24 H32  EUB L   1       3.830  -0.304  -2.212  1.00  0.00    +0.0357  H
BRANCH 22 25
ATOM     25 C10  EUB L   1       4.027   1.463  -0.951  1.00  0.00    -0.0809  C
ATOM     26 C11  EUB L   1       5.152   1.175  -0.267  1.00  0.00    -0.0793  C
ATOM     27 C12  EUB L   1       5.894  -0.132  -0.324  1.00  0.00    -0.0440  C
ATOM     28 C13  EUB L   1       5.766   2.191   0.660  1.00  0.00    -0.0440  C
ATOM     29 H33  EUB L   1       3.585   2.451  -0.816  1.00  0.00    +0.0575  H
ATOM     30 H34  EUB L   1       5.444  -0.864  -0.997  1.00  0.00    +0.0274  H
ATOM     31 H35  EUB L   1       5.931  -0.586   0.672  1.00  0.00    +0.0274  H
ATOM     32 H36  EUB L   1       6.921   0.035  -0.665  1.00  0.00    +0.0274  H
ATOM     33 H37  EUB L   1       6.786   2.427   0.341  1.00  0.00    +0.0274  H
ATOM     34 H38  EUB L   1       5.802   1.800   1.682  1.00  0.00    +0.0274  H
ATOM     35 H39  EUB L   1       5.201   3.129   0.684  1.00  0.00    +0.0274  H
ENDBRANCH 22 25
ENDBRANCH 6 22
BRANCH 10 36
ATOM     36 C18  EUB L   1      -4.077  -0.159   0.831  1.00  0.00    -0.0067  A
ATOM     37 C19  EUB L   1      -4.675  -1.311   0.296  1.00  0.00    -0.0516  A
ATOM     38 C20  EUB L   1      -5.909  -1.757   0.770  1.00  0.00    -0.0198  A
ATOM     39 C21  EUB L   1      -6.555  -1.052   1.777  1.00  0.00    +0.1169  A
ATOM     40 O22  EUB L   1      -7.760  -1.523   2.210  1.00  0.00    -0.5068 OA
ATOM     41 C23  EUB L   1      -5.988   0.095   2.320  1.00  0.00    -0.0198  A
ATOM     42 C24  EUB L   1      -4.751   0.542   1.845  1.00  0.00    -0.0516  A
ATOM     43 H43  EUB L   1      -4.179  -1.873  -0.494  1.00  0.00    +0.0623  H
ATOM     44 H44  EUB L   1      -6.364  -2.652   0.354  1.00  0.00    +0.0654  H
ATOM     45 H45  EUB L   1      -8.088  -0.937   2.911  1.00  0.00    +0.2921 HD
ATOM     46 H46  EUB L   1      -6.488   0.652   3.106  1.00  0.00    +0.0654  H
ATOM     47 H47  EUB L   1      -4.318   1.443   2.275  1.00  0.00    +0.0623  H
ENDBRANCH 10 36
TORSDOF 4
