ROOT
ATOM      1 C10  185 L   1      -1.556   0.125   0.640  1.00  0.00    -0.0198  C
ATOM      2 C11  185 L   1      -2.362   0.873   1.702  1.00  0.00    -0.0481  C
ATOM      3 C12  185 L   1      -3.797   0.596   1.282  1.00  0.00    -0.0496  C
ATOM      4 C13  185 L   1      -3.771   0.722  -0.243  1.00  0.00    -0.0379  C
ATOM      5 C14  185 L   1      -4.630  -0.311  -0.971  1.00  0.00    -0.0499  C
ATOM      6 C15  185 L   1      -3.671  -1.451  -1.287  1.00  0.00    -0.0525  C
ATOM      7 C16  185 L   1      -2.376  -0.732  -1.641  1.00  0.00    -0.0496  C
ATOM      8 C17  185 L   1      -2.311   0.443  -0.664  1.00  0.00    -0.0338  C
ATOM      9 H28  185 L   1      -1.614  -0.952   0.855  1.00  0.00    +0.0321  H
ATOM     10 H29  185 L   1      -2.158   0.513   2.714  1.00  0.00    +0.0269  H
ATOM     11 H30  185 L   1      -2.157   1.950   1.671  1.00  0.00    +0.0269  H
ATOM     12 H31  185 L   1      -4.500   1.300   1.737  1.00  0.00    +0.0268  H
ATOM     13 H32  185 L   1      -4.089  -0.414   1.595  1.00  0.00    +0.0268  H
ATOM     14 H33  185 L   1      -4.069   1.737  -0.531  1.00  0.00    +0.0304  H
ATOM     15 H34  185 L   1      -5.495  -0.643  -0.390  1.00  0.00    +0.0268  H
ATOM     16 H35  185 L   1      -5.002   0.119  -1.908  1.00  0.00    +0.0268  H
ATOM     17 H36  185 L   1      -4.032  -2.079  -2.107  1.00  0.00    +0.0265  H
ATOM     18 H37  185 L   1      -3.528  -2.087  -0.406  1.00  0.00    +0.0265  H
ATOM     19 H38  185 L   1      -2.441  -0.350  -2.668  1.00  0.00    +0.0268  H
ATOM     20 H39  185 L   1      -1.504  -1.391  -1.585  1.00  0.00    +0.0268  H
ATOM     21 H40  185 L   1      -1.880   1.323  -1.156  1.00  0.00    +0.0307  H
ENDROOT
BRANCH 1 22
ATOM     22  C9  185 L   1      -0.087   0.544   0.582  1.00  0.00    +0.0295  C
ATOM     23 H26  185 L   1      -0.011   1.629   0.451  1.00  0.00    +0.0495  H
ATOM     24 H27  185 L   1       0.397   0.055  -0.271  1.00  0.00    +0.0495  H
BRANCH 22 25
ATOM     25  N8  185 L   1       0.588   0.121   1.817  1.00  0.00    -0.3090 NA
ATOM     26 H25  185 L   1       0.555  -0.873   2.033  1.00  0.00    +0.1724 HD
BRANCH 25 27
ATOM     27  S5  185 L   1       2.072   0.819   2.177  1.00  0.00    +0.2758  S
ATOM     28  O6  185 L   1       1.938   2.255   2.112  1.00  0.00    -0.1988 OA
ATOM     29  O7  185 L   1       2.590   0.136   3.338  1.00  0.00    -0.1988 OA
BRANCH 27 33
ATOM     30  C1  185 L   1       5.120   0.532  -2.258  1.00  0.00    -0.0206  C
ATOM     31  C2  185 L   1       4.415   0.264  -0.983  1.00  0.00    +0.0613  A
ATOM     32  C3  185 L   1       3.561   1.118  -0.261  1.00  0.00    -0.0009  A
ATOM     33  C4  185 L   1       3.159   0.403   0.856  1.00  0.00    +0.1729  A
ATOM     34 N18  185 L   1       3.808  -0.800   0.750  1.00  0.00    -0.2547  N
ATOM     35 C19  185 L   1       3.780  -1.918   1.666  1.00  0.00    +0.0317  C
ATOM     36 N20  185 L   1       4.545  -0.918  -0.375  1.00  0.00    -0.1755 NA
ATOM     37 H21  185 L   1       6.203   0.431  -2.128  1.00  0.00    +0.0293  H
ATOM     38 H22  185 L   1       4.916   1.546  -2.616  1.00  0.00    +0.0293  H
ATOM     39 H23  185 L   1       4.797  -0.172  -3.032  1.00  0.00    +0.0293  H
ATOM     40 H24  185 L   1       3.263   2.129  -0.505  1.00  0.00    +0.0664  H
ATOM     41 H41  185 L   1       2.743  -2.139   1.928  1.00  0.00    +0.0473  H
ATOM     42 H42  185 L   1       4.370  -1.657   2.547  1.00  0.00    +0.0473  H
ATOM     43 H43  185 L   1       4.218  -2.795   1.180  1.00  0.00    +0.0473  H
ENDBRANCH 27 33
ENDBRANCH 25 27
ENDBRANCH 22 25
ENDBRANCH 1 22
TORSDOF 4
