ROOT
ATOM      1  O1  CHE L   1      -5.621  -2.391  -0.901  1.00  0.00    -0.2839 OA
ATOM      2  C2  CHE L   1      -4.632  -1.720  -0.626  1.00  0.00    +0.2229  A
ATOM      3  C3  CHE L   1      -3.413  -2.378  -0.097  1.00  0.00    +0.0053  A
ATOM      4  C4  CHE L   1      -2.352  -1.616   0.199  1.00  0.00    +0.0136  A
ATOM      5  N5  CHE L   1      -2.306  -0.234   0.047  1.00  0.00    -0.3193  N
ATOM      6 C18  CHE L   1      -3.444   0.396  -0.453  1.00  0.00    +0.0550  A
ATOM      7 C19  CHE L   1      -4.584  -0.228  -0.798  1.00  0.00    +0.1804  A
ATOM      8 O20  CHE L   1      -5.687   0.425  -1.308  1.00  0.00    -0.5022 OA
ATOM      9 H21  CHE L   1      -3.439  -3.450   0.041  1.00  0.00    +0.0672  H
ATOM     10 H22  CHE L   1      -1.461  -2.073   0.619  1.00  0.00    +0.0814  H
ATOM     11 H32  CHE L   1      -3.343   1.467  -0.589  1.00  0.00    +0.0851  H
ATOM     12 H33  CHE L   1      -5.489   1.373  -1.377  1.00  0.00    +0.2923 HD
ENDROOT
BRANCH 5 13
ATOM     13  C6  CHE L   1      -1.132   0.512   0.391  1.00  0.00    +0.0467  A
ATOM     14  C7  CHE L   1      -1.224   1.755   1.039  1.00  0.00    -0.0378  A
ATOM     15  C8  CHE L   1      -0.079   2.481   1.372  1.00  0.00    -0.0592  A
ATOM     16  C9  CHE L   1       1.183   1.977   1.060  1.00  0.00    -0.0539  A
ATOM     17 C10  CHE L   1       1.323   0.741   0.414  1.00  0.00    -0.0159  A
ATOM     18 C17  CHE L   1       0.155   0.025   0.090  1.00  0.00    -0.0301  A
ATOM     19 H23  CHE L   1      -2.192   2.159   1.324  1.00  0.00    +0.0638  H
ATOM     20 H24  CHE L   1      -0.170   3.435   1.884  1.00  0.00    +0.0618  H
ATOM     21 H25  CHE L   1       2.064   2.552   1.338  1.00  0.00    +0.0624  H
ATOM     22 H31  CHE L   1       0.257  -0.916  -0.449  1.00  0.00    +0.0644  H
BRANCH 17 23
ATOM     23 C11  CHE L   1       2.654   0.208   0.080  1.00  0.00    -0.0178  A
ATOM     24 C12  CHE L   1       3.051  -1.069   0.511  1.00  0.00    -0.0540  A
ATOM     25 C13  CHE L   1       4.314  -1.576   0.193  1.00  0.00    -0.0612  A
ATOM     26 C14  CHE L   1       5.201  -0.814  -0.562  1.00  0.00    -0.0617  A
ATOM     27 C15  CHE L   1       4.828   0.454  -1.000  1.00  0.00    -0.0612  A
ATOM     28 C16  CHE L   1       3.565   0.960  -0.680  1.00  0.00    -0.0540  A
ATOM     29 H26  CHE L   1       2.378  -1.677   1.112  1.00  0.00    +0.0624  H
ATOM     30 H27  CHE L   1       4.604  -2.565   0.539  1.00  0.00    +0.0618  H
ATOM     31 H28  CHE L   1       6.184  -1.208  -0.810  1.00  0.00    +0.0618  H
ATOM     32 H29  CHE L   1       5.517   1.050  -1.592  1.00  0.00    +0.0618  H
ATOM     33 H30  CHE L   1       3.289   1.949  -1.042  1.00  0.00    +0.0624  H
ENDBRANCH 17 23
ENDBRANCH 5 13
TORSDOF 2
