ROOT
ATOM      1  C1  CHE L   1      11.721  -0.450  -0.433  1.00  0.00    -0.0383  C
ATOM      2  C2  CHE L   1      10.268  -0.693  -0.178  1.00  0.00    -0.0323  A
ATOM      3  C3  CHE L   1       9.758  -0.744   1.119  1.00  0.00    -0.0557  A
ATOM      4  C4  CHE L   1       8.393  -0.943   1.319  1.00  0.00    -0.0389  A
ATOM      5  C5  CHE L   1       7.563  -1.073   0.208  1.00  0.00    +0.0550  A
ATOM      6 N35  CHE L   1       8.035  -1.016  -1.066  1.00  0.00    -0.2583 NA
ATOM      7 C36  CHE L   1       9.364  -0.821  -1.226  1.00  0.00    +0.0308  A
ATOM      8 H37  CHE L   1      12.335  -0.930   0.338  1.00  0.00    +0.0278  H
ATOM      9 H38  CHE L   1      12.027  -0.868  -1.399  1.00  0.00    +0.0278  H
ATOM     10 H39  CHE L   1      11.927   0.625  -0.432  1.00  0.00    +0.0278  H
ATOM     11 H40  CHE L   1      10.416  -0.630   1.978  1.00  0.00    +0.0621  H
ATOM     12 H41  CHE L   1       7.992  -0.991   2.326  1.00  0.00    +0.0636  H
ATOM     13 H73  CHE L   1       9.691  -0.772  -2.261  1.00  0.00    +0.0832  H
ENDROOT
BRANCH 5 14
ATOM     14  C6  CHE L   1       6.075  -1.314   0.391  1.00  0.00    +0.0387  C
ATOM     15 H42  CHE L   1       5.775  -1.171   1.434  1.00  0.00    +0.0489  H
ATOM     16 H43  CHE L   1       5.896  -2.375   0.178  1.00  0.00    +0.0489  H
BRANCH 14 17
ATOM     17  N7  CHE L   1       5.225  -0.528  -0.519  1.00  0.00    -0.3078 NA
ATOM     18 H44  CHE L   1       5.623  -0.682  -1.451  1.00  0.00    +0.1226 HD
BRANCH 17 19
ATOM     19  C8  CHE L   1       5.228   0.920  -0.258  1.00  0.00    +0.0080  C
ATOM     20  C9  CHE L   1       4.448   1.616  -1.382  1.00  0.00    -0.0373  C
ATOM     21 C10  CHE L   1       2.954   1.267  -1.411  1.00  0.00    -0.0478  C
ATOM     22 C11  CHE L   1       2.407   0.650  -0.109  1.00  0.00    -0.0256  C
ATOM     23 C33  CHE L   1       3.060   1.294   1.120  1.00  0.00    -0.0478  C
ATOM     24 C34  CHE L   1       4.594   1.333   1.080  1.00  0.00    -0.0373  C
ATOM     25 H45  CHE L   1       6.260   1.291  -0.287  1.00  0.00    +0.0460  H
ATOM     26 H46  CHE L   1       4.894   1.396  -2.361  1.00  0.00    +0.0280  H
ATOM     27 H47  CHE L   1       4.547   2.701  -1.252  1.00  0.00    +0.0280  H
ATOM     28 H48  CHE L   1       2.766   0.564  -2.233  1.00  0.00    +0.0269  H
ATOM     29 H49  CHE L   1       2.396   2.178  -1.665  1.00  0.00    +0.0269  H
ATOM     30 H50  CHE L   1       2.659  -0.417  -0.105  1.00  0.00    +0.0311  H
ATOM     31 H69  CHE L   1       2.763   0.766   2.031  1.00  0.00    +0.0269  H
ATOM     32 H70  CHE L   1       2.688   2.322   1.230  1.00  0.00    +0.0269  H
ATOM     33 H71  CHE L   1       4.997   0.745   1.911  1.00  0.00    +0.0280  H
ATOM     34 H72  CHE L   1       4.906   2.364   1.300  1.00  0.00    +0.0280  H
BRANCH 22 35
ATOM     35 C12  CHE L   1       0.873   0.760  -0.097  1.00  0.00    +0.0715  C
ATOM     36 H51  CHE L   1       0.480   0.426  -1.062  1.00  0.00    +0.0446  H
ATOM     37 H52  CHE L   1       0.553   1.793   0.078  1.00  0.00    +0.0446  H
BRANCH 35 38
ATOM     38 S13  CHE L   1       0.095  -0.273   1.153  1.00  0.00    +0.2325  S
ATOM     39 O14  CHE L   1       0.313   0.331   2.451  1.00  0.00    -0.2053 OA
ATOM     40 O15  CHE L   1       0.437  -1.655   0.896  1.00  0.00    -0.2053 OA
BRANCH 38 41
ATOM     41 N16  CHE L   1      -1.550  -0.086   0.795  1.00  0.00    -0.3007 NA
ATOM     42 C17  CHE L   1      -2.178   1.221   1.041  1.00  0.00    +0.0310  C
ATOM     43 C18  CHE L   1      -3.648   1.014   1.405  1.00  0.00    -0.0142  C
ATOM     44 C19  CHE L   1      -4.295  -0.161   0.653  1.00  0.00    +0.0332  C
ATOM     45 C31  CHE L   1      -3.543  -0.441  -0.651  1.00  0.00    -0.0142  C
ATOM     46 C32  CHE L   1      -2.098  -0.844  -0.355  1.00  0.00    +0.0310  C
ATOM     47 H53  CHE L   1      -1.687   1.763   1.856  1.00  0.00    +0.0496  H
ATOM     48 H54  CHE L   1      -2.089   1.842   0.141  1.00  0.00    +0.0496  H
ATOM     49 H55  CHE L   1      -3.740   0.826   2.485  1.00  0.00    +0.0302  H
ATOM     50 H56  CHE L   1      -4.183   1.954   1.218  1.00  0.00    +0.0302  H
ATOM     51 H57  CHE L   1      -4.236  -1.058   1.284  1.00  0.00    +0.0524  H
ATOM     52 H65  CHE L   1      -4.021  -1.231  -1.239  1.00  0.00    +0.0302  H
ATOM     53 H66  CHE L   1      -3.559   0.456  -1.284  1.00  0.00    +0.0302  H
ATOM     54 H67  CHE L   1      -1.491  -0.689  -1.251  1.00  0.00    +0.0496  H
ATOM     55 H68  CHE L   1      -2.074  -1.910  -0.105  1.00  0.00    +0.0496  H
BRANCH 44 56
ATOM     56 N20  CHE L   1      -5.711   0.090   0.426  1.00  0.00    -0.3478  N
ATOM     57 C21  CHE L   1      -6.600  -0.910   0.078  1.00  0.00    +0.2739  C
ATOM     58 O22  CHE L   1      -6.257  -2.057  -0.196  1.00  0.00    -0.2658 OA
ATOM     59 H58  CHE L   1      -6.140   0.949   0.760  1.00  0.00    +0.1629 HD
BRANCH 57 60
ATOM     60 C23  CHE L   1      -8.002  -0.491   0.078  1.00  0.00    +0.1701  A
ATOM     61 C24  CHE L   1      -9.134  -1.287  -0.227  1.00  0.00    +0.0132  A
ATOM     62 C25  CHE L   1     -10.200  -0.434  -0.092  1.00  0.00    +0.1411  A
ATOM     63 O29  CHE L   1      -9.751   0.792   0.285  1.00  0.00    -0.3586 OA
ATOM     64 N30  CHE L   1      -8.370   0.766   0.395  1.00  0.00    -0.0732 NA
ATOM     65 H59  CHE L   1      -9.151  -2.330  -0.507  1.00  0.00    +0.0676  H
BRANCH 62 66
ATOM     66 C26  CHE L   1     -11.688  -0.801  -0.307  1.00  0.00    +0.0199  C
ATOM     67 C27  CHE L   1     -12.574   0.164  -1.051  1.00  0.00    -0.0426  C
ATOM     68 C28  CHE L   1     -12.167  -1.129  -1.697  1.00  0.00    -0.0426  C
ATOM     69 H60  CHE L   1     -12.138  -1.346   0.517  1.00  0.00    +0.0380  H
ATOM     70 H61  CHE L   1     -12.140   1.081  -1.435  1.00  0.00    +0.0272  H
ATOM     71 H62  CHE L   1     -13.599   0.267  -0.717  1.00  0.00    +0.0272  H
ATOM     72 H63  CHE L   1     -12.920  -1.901  -1.804  1.00  0.00    +0.0272  H
ATOM     73 H64  CHE L   1     -11.466  -1.076  -2.524  1.00  0.00    +0.0272  H
ENDBRANCH 62 66
ENDBRANCH 57 60
ENDBRANCH 44 56
ENDBRANCH 38 41
ENDBRANCH 35 38
ENDBRANCH 22 35
ENDBRANCH 17 19
ENDBRANCH 14 17
ENDBRANCH 5 14
TORSDOF 9
