ROOT
ATOM      1 C14  CHE L   1       4.898  -0.786   0.075  1.00  0.00    +0.0391  A
ATOM      2 C15  CHE L   1       5.800   0.031   0.658  1.00  0.00    -0.0388  A
ATOM      3 C16  CHE L   1       6.401  -0.150   2.024  1.00  0.00    -0.0392  C
ATOM      4 C17  CHE L   1       6.267   1.214  -0.040  1.00  0.00    -0.0391  A
ATOM      5 C18  CHE L   1       5.808   1.551  -1.256  1.00  0.00    +0.0189  A
ATOM      6 C19  CHE L   1       6.330   2.779  -1.956  1.00  0.00    -0.0242  C
ATOM      7 N20  CHE L   1       4.851   0.749  -1.876  1.00  0.00    -0.3154  N
ATOM      8 C21  CHE L   1       4.347   1.092  -3.202  1.00  0.00    +0.0149  C
ATOM      9 C22  CHE L   1       4.377  -0.433  -1.293  1.00  0.00    +0.2564  A
ATOM     10 O23  CHE L   1       3.560  -1.176  -1.841  1.00  0.00    -0.2673 OA
ATOM     11 H45  CHE L   1       5.975  -0.981   2.590  1.00  0.00    +0.0278  H
ATOM     12 H46  CHE L   1       6.231   0.752   2.619  1.00  0.00    +0.0278  H
ATOM     13 H47  CHE L   1       7.481  -0.317   1.946  1.00  0.00    +0.0278  H
ATOM     14 H48  CHE L   1       7.023   1.828   0.445  1.00  0.00    +0.0637  H
ATOM     15 H49  CHE L   1       5.537   3.521  -2.079  1.00  0.00    +0.0292  H
ATOM     16 H50  CHE L   1       6.734   2.523  -2.941  1.00  0.00    +0.0292  H
ATOM     17 H51  CHE L   1       7.139   3.259  -1.390  1.00  0.00    +0.0292  H
ATOM     18 H52  CHE L   1       3.445   0.522  -3.450  1.00  0.00    +0.0457  H
ATOM     19 H53  CHE L   1       5.121   0.865  -3.942  1.00  0.00    +0.0457  H
ATOM     20 H54  CHE L   1       4.085   2.152  -3.244  1.00  0.00    +0.0457  H
ENDROOT
BRANCH 1 21
ATOM     21 C13  CHE L   1       4.372  -2.074   0.638  1.00  0.00    +0.0491  C
ATOM     22 H43  CHE L   1       4.959  -2.434   1.489  1.00  0.00    +0.0538  H
ATOM     23 H44  CHE L   1       4.399  -2.876  -0.111  1.00  0.00    +0.0538  H
BRANCH 21 26
ATOM     24 C10  CHE L   1       2.630  -1.556   2.317  1.00  0.00    +0.2527  C
ATOM     25 O11  CHE L   1       3.413  -1.467   3.256  1.00  0.00    -0.2676 OA
ATOM     26 N12  CHE L   1       2.996  -1.898   1.041  1.00  0.00    -0.3478  N
ATOM     27 H42  CHE L   1       2.297  -1.997   0.316  1.00  0.00    +0.1630 HD
BRANCH 24 33
ATOM     28  C4  CHE L   1      -1.045  -0.519   1.991  1.00  0.00    +0.0432  A
ATOM     29  C5  CHE L   1      -1.554  -1.236   3.088  1.00  0.00    -0.0198  A
ATOM     30  C6  CHE L   1      -0.717  -1.986   3.909  1.00  0.00    +0.0437  A
ATOM     31 CL7  CHE L   1      -1.379  -2.855   5.240  1.00  0.00    -0.0835 Cl
ATOM     32  C8  CHE L   1       0.641  -2.061   3.641  1.00  0.00    -0.0307  A
ATOM     33  C9  CHE L   1       1.173  -1.369   2.545  1.00  0.00    +0.0452  A
ATOM     34 C24  CHE L   1       0.348  -0.557   1.730  1.00  0.00    -0.0149  A
ATOM     35 C25  CHE L   1       0.934   0.276   0.614  1.00  0.00    -0.0370  C
ATOM     36 H40  CHE L   1      -2.620  -1.225   3.297  1.00  0.00    +0.0653  H
ATOM     37 H41  CHE L   1       1.292  -2.661   4.275  1.00  0.00    +0.0640  H
ATOM     38 H55  CHE L   1       1.136  -0.348  -0.264  1.00  0.00    +0.0278  H
ATOM     39 H56  CHE L   1       0.259   1.080   0.296  1.00  0.00    +0.0278  H
ATOM     40 H57  CHE L   1       1.859   0.773   0.943  1.00  0.00    +0.0278  H
BRANCH 28 41
ATOM     41  N3  CHE L   1      -1.904   0.191   1.127  1.00  0.00    -0.3676  N
BRANCH 41 43
ATOM     42  C1  CHE L   1      -1.965   2.507   1.925  1.00  0.00    -0.0475  C
ATOM     43  C2  CHE L   1      -2.749   1.214   1.756  1.00  0.00    +0.0161  C
ATOM     44 H35  CHE L   1      -1.543   2.843   0.971  1.00  0.00    +0.0247  H
ATOM     45 H36  CHE L   1      -1.142   2.386   2.638  1.00  0.00    +0.0247  H
ATOM     46 H37  CHE L   1      -2.621   3.305   2.301  1.00  0.00    +0.0247  H
ATOM     47 H38  CHE L   1      -3.622   1.430   1.136  1.00  0.00    +0.0485  H
ATOM     48 H39  CHE L   1      -3.141   0.897   2.728  1.00  0.00    +0.0485  H
ENDBRANCH 41 43
BRANCH 41 49
ATOM     49 C26  CHE L   1      -2.463  -0.649   0.039  1.00  0.00    +0.0300  C
ATOM     50 C27  CHE L   1      -3.731  -1.408   0.458  1.00  0.00    -0.0311  C
ATOM     51 C28  CHE L   1      -4.735  -1.523  -0.680  1.00  0.00    -0.0355  C
ATOM     52 C29  CHE L   1      -5.179  -0.117  -1.124  1.00  0.00    +0.0100  C
ATOM     53 C33  CHE L   1      -3.985   0.767  -1.545  1.00  0.00    -0.0355  C
ATOM     54 C34  CHE L   1      -2.607   0.164  -1.262  1.00  0.00    -0.0311  C
ATOM     55 H58  CHE L   1      -1.708  -1.415  -0.211  1.00  0.00    +0.0524  H
ATOM     56 H59  CHE L   1      -4.226  -0.930   1.313  1.00  0.00    +0.0285  H
ATOM     57 H60  CHE L   1      -3.455  -2.409   0.804  1.00  0.00    +0.0285  H
ATOM     58 H61  CHE L   1      -5.605  -2.098  -0.337  1.00  0.00    +0.0281  H
ATOM     59 H62  CHE L   1      -4.278  -2.084  -1.502  1.00  0.00    +0.0281  H
ATOM     60 H63  CHE L   1      -5.591   0.349  -0.216  1.00  0.00    +0.0462  H
ATOM     61 H70  CHE L   1      -4.071   1.736  -1.035  1.00  0.00    +0.0281  H
ATOM     62 H71  CHE L   1      -4.025   1.017  -2.612  1.00  0.00    +0.0281  H
ATOM     63 H72  CHE L   1      -1.845   0.953  -1.320  1.00  0.00    +0.0285  H
ATOM     64 H73  CHE L   1      -2.387  -0.518  -2.095  1.00  0.00    +0.0285  H
BRANCH 52 65
ATOM     65 N30  CHE L   1      -6.303  -0.163  -2.077  1.00  0.00    -0.3054 NA
ATOM     66 C31  CHE L   1      -6.029  -0.881  -3.318  1.00  0.00    -0.0128  C
ATOM     67 C32  CHE L   1      -6.864   1.162  -2.357  1.00  0.00    -0.0128  C
ATOM     68 H64  CHE L   1      -5.778  -1.927  -3.125  1.00  0.00    +0.0391  H
ATOM     69 H65  CHE L   1      -6.928  -0.907  -3.949  1.00  0.00    +0.0391  H
ATOM     70 H66  CHE L   1      -5.222  -0.431  -3.903  1.00  0.00    +0.0391  H
ATOM     71 H67  CHE L   1      -7.005   1.743  -1.441  1.00  0.00    +0.0391  H
ATOM     72 H68  CHE L   1      -6.239   1.742  -3.043  1.00  0.00    +0.0391  H
ATOM     73 H69  CHE L   1      -7.856   1.052  -2.809  1.00  0.00    +0.0391  H
ENDBRANCH 52 65
ENDBRANCH 41 49
ENDBRANCH 28 41
ENDBRANCH 24 33
ENDBRANCH 21 26
ENDBRANCH 1 21
TORSDOF 7
