ROOT
ATOM      1 C11  CHE L   1       1.281  -0.933   1.865  1.00  0.00    +0.0671  A
ATOM      2 C12  CHE L   1       0.059  -1.566   1.633  1.00  0.00    +0.0293  A
ATOM      3 C13  CHE L   1      -0.166  -2.909   1.019  1.00  0.00    -0.0235  C
ATOM      4 N14  CHE L   1      -0.942  -0.725   2.099  1.00  0.00    -0.3403  N
ATOM      5 C28  CHE L   1      -0.365   0.364   2.753  1.00  0.00    +0.0503  A
ATOM      6 C29  CHE L   1      -0.941   1.458   3.432  1.00  0.00    -0.0376  A
ATOM      7 C30  CHE L   1      -0.098   2.428   3.983  1.00  0.00    -0.0598  A
ATOM      8 C31  CHE L   1       1.281   2.326   3.858  1.00  0.00    -0.0611  A
ATOM      9 C32  CHE L   1       1.847   1.246   3.177  1.00  0.00    -0.0518  A
ATOM     10 C33  CHE L   1       1.019   0.247   2.620  1.00  0.00    +0.0125  A
ATOM     11 H44  CHE L   1       0.773  -3.470   0.948  1.00  0.00    +0.0292  H
ATOM     12 H45  CHE L   1      -0.827  -3.534   1.626  1.00  0.00    +0.0292  H
ATOM     13 H46  CHE L   1      -0.566  -2.813   0.002  1.00  0.00    +0.0292  H
ATOM     14 H62  CHE L   1      -2.016   1.566   3.542  1.00  0.00    +0.0638  H
ATOM     15 H63  CHE L   1      -0.529   3.273   4.516  1.00  0.00    +0.0618  H
ATOM     16 H64  CHE L   1       1.925   3.088   4.290  1.00  0.00    +0.0618  H
ATOM     17 H65  CHE L   1       2.928   1.171   3.082  1.00  0.00    +0.0624  H
ENDROOT
BRANCH 1 19
ATOM     18  N8  CHE L   1       2.639  -1.792   0.119  1.00  0.00    -0.3477  N
ATOM     19  C9  CHE L   1       2.602  -1.391   1.438  1.00  0.00    +0.2546  C
ATOM     20 O10  CHE L   1       3.591  -1.349   2.161  1.00  0.00    -0.2675 OA
ATOM     21 H43  CHE L   1       1.844  -1.538  -0.451  1.00  0.00    +0.1630 HD
BRANCH 18 22
ATOM     22  C7  CHE L   1       3.883  -2.109  -0.542  1.00  0.00    +0.0503  C
ATOM     23 H41  CHE L   1       3.647  -2.746  -1.400  1.00  0.00    +0.0538  H
ATOM     24 H42  CHE L   1       4.474  -2.701   0.164  1.00  0.00    +0.0538  H
BRANCH 22 30
ATOM     25  C1  CHE L   1       7.312   2.351  -2.066  1.00  0.00    -0.0243  C
ATOM     26  C2  CHE L   1       6.342   1.263  -1.726  1.00  0.00    +0.0174  A
ATOM     27  C3  CHE L   1       5.013   1.379  -1.844  1.00  0.00    -0.0239  A
ATOM     28  C4  CHE L   1       4.142   0.280  -1.482  1.00  0.00    +0.0526  A
ATOM     29 CL5  CHE L   1       2.451   0.570  -1.746  1.00  0.00    -0.0830 Cl
ATOM     30  C6  CHE L   1       4.623  -0.888  -1.010  1.00  0.00    +0.0542  A
ATOM     31 C34  CHE L   1       6.116  -1.029  -0.952  1.00  0.00    +0.2552  A
ATOM     32 O35  CHE L   1       6.663  -2.088  -0.659  1.00  0.00    -0.2675 OA
ATOM     33 N36  CHE L   1       6.863   0.075  -1.279  1.00  0.00    -0.3262  N
ATOM     34 H37  CHE L   1       7.914   2.611  -1.188  1.00  0.00    +0.0292  H
ATOM     35 H38  CHE L   1       7.986   2.027  -2.867  1.00  0.00    +0.0292  H
ATOM     36 H39  CHE L   1       6.802   3.259  -2.401  1.00  0.00    +0.0292  H
ATOM     37 H40  CHE L   1       4.563   2.300  -2.204  1.00  0.00    +0.0649  H
ATOM     38 H66  CHE L   1       7.865  -0.055  -1.227  1.00  0.00    +0.1686 HD
ENDBRANCH 22 30
ENDBRANCH 18 22
ENDBRANCH 1 19
BRANCH 4 39
ATOM     39 C15  CHE L   1      -2.402  -0.829   1.906  1.00  0.00    +0.0349  C
ATOM     40 C16  CHE L   1      -3.001  -2.231   2.061  1.00  0.00    -0.0440  C
ATOM     41 H47  CHE L   1      -2.819  -0.292   2.768  1.00  0.00    +0.0528  H
ATOM     42 H48  CHE L   1      -2.561  -2.754   2.918  1.00  0.00    +0.0250  H
ATOM     43 H49  CHE L   1      -4.080  -2.171   2.251  1.00  0.00    +0.0250  H
ATOM     44 H50  CHE L   1      -2.868  -2.848   1.169  1.00  0.00    +0.0250  H
BRANCH 39 45
ATOM     45 C17  CHE L   1      -2.862  -0.046   0.641  1.00  0.00    -0.0181  C
ATOM     46 C18  CHE L   1      -2.435  -0.679  -0.691  1.00  0.00    -0.0354  C
ATOM     47 C19  CHE L   1      -2.946   0.128  -1.886  1.00  0.00    -0.0005  C
ATOM     48 N20  CHE L   1      -4.407   0.284  -1.845  1.00  0.00    -0.2944 NA
ATOM     49 C26  CHE L   1      -4.831   0.958  -0.610  1.00  0.00    -0.0005  C
ATOM     50 C27  CHE L   1      -4.383   0.175   0.626  1.00  0.00    -0.0354  C
ATOM     51 H51  CHE L   1      -2.396   0.949   0.683  1.00  0.00    +0.0321  H
ATOM     52 H52  CHE L   1      -2.814  -1.704  -0.769  1.00  0.00    +0.0281  H
ATOM     53 H53  CHE L   1      -1.343  -0.727  -0.756  1.00  0.00    +0.0281  H
ATOM     54 H54  CHE L   1      -2.655  -0.406  -2.799  1.00  0.00    +0.0427  H
ATOM     55 H55  CHE L   1      -2.446   1.104  -1.910  1.00  0.00    +0.0427  H
ATOM     56 H58  CHE L   1      -5.923   1.029  -0.568  1.00  0.00    +0.0427  H
ATOM     57 H59  CHE L   1      -4.432   1.979  -0.568  1.00  0.00    +0.0427  H
ATOM     58 H60  CHE L   1      -4.690   0.721   1.527  1.00  0.00    +0.0281  H
ATOM     59 H61  CHE L   1      -4.910  -0.787   0.641  1.00  0.00    +0.0281  H
BRANCH 48 60
ATOM     60 C21  CHE L   1      -4.874   1.008  -3.062  1.00  0.00    +0.0949  C
ATOM     61 H56  CHE L   1      -4.519   0.448  -3.938  1.00  0.00    +0.0515  H
ATOM     62 H57  CHE L   1      -4.395   1.996  -3.108  1.00  0.00    +0.0515  H
BRANCH 60 63
ATOM     63 C22  CHE L   1      -6.390   1.207  -3.272  1.00  0.00    +0.4024  C
ATOM     64 F23  CHE L   1      -6.628   1.690  -4.516  1.00  0.00    -0.1693  F
ATOM     65 F24  CHE L   1      -7.077   0.051  -3.150  1.00  0.00    -0.1693  F
ATOM     66 F25  CHE L   1      -6.907   2.099  -2.396  1.00  0.00    -0.1693  F
ENDBRANCH 60 63
ENDBRANCH 48 60
ENDBRANCH 39 45
ENDBRANCH 4 39
TORSDOF 7
