ROOT
ATOM      1  C1  MCU L   1      -4.393  -3.711  -0.957  1.00  0.00    -0.0377  C
ATOM      2  C2  MCU L   1      -4.002  -2.823   0.191  1.00  0.00    -0.0265  A
ATOM      3  C3  MCU L   1      -4.630  -2.989   1.435  1.00  0.00    -0.0569  A
ATOM      4  C4  MCU L   1      -4.283  -2.189   2.525  1.00  0.00    -0.0608  A
ATOM      5  C5  MCU L   1      -3.297  -1.213   2.390  1.00  0.00    -0.0526  A
ATOM      6  C6  MCU L   1      -2.660  -1.034   1.161  1.00  0.00    -0.0009  A
ATOM      7  C7  MCU L   1      -1.610  -0.031   0.996  1.00  0.00    -0.0421  A
ATOM      8  C8  MCU L   1      -0.968   0.175  -0.178  1.00  0.00    +0.0449  A
ATOM      9 C33  MCU L   1      -1.384  -0.669  -1.347  1.00  0.00    +0.2546  A
ATOM     10 O34  MCU L   1      -0.896  -0.548  -2.465  1.00  0.00    -0.2675 OA
ATOM     11 N35  MCU L   1      -2.356  -1.611  -1.148  1.00  0.00    -0.3216  N
ATOM     12 C36  MCU L   1      -3.015  -1.832   0.068  1.00  0.00    +0.0521  A
ATOM     13 H37  MCU L   1      -3.539  -4.317  -1.275  1.00  0.00    +0.0278  H
ATOM     14 H38  MCU L   1      -5.200  -4.397  -0.678  1.00  0.00    +0.0278  H
ATOM     15 H39  MCU L   1      -4.751  -3.109  -1.800  1.00  0.00    +0.0278  H
ATOM     16 H40  MCU L   1      -5.397  -3.750   1.565  1.00  0.00    +0.0621  H
ATOM     17 H41  MCU L   1      -4.778  -2.329   3.482  1.00  0.00    +0.0618  H
ATOM     18 H42  MCU L   1      -3.032  -0.604   3.252  1.00  0.00    +0.0624  H
ATOM     19 H43  MCU L   1      -1.342   0.526   1.890  1.00  0.00    +0.0629  H
ATOM     20 H67  MCU L   1      -2.589  -2.164  -1.961  1.00  0.00    +0.1689 HD
ENDROOT
BRANCH 8 21
ATOM     21  C9  MCU L   1       0.174   1.210  -0.337  1.00  0.00    +0.1112  C
ATOM     22 C10  MCU L   1       0.265   1.906  -1.731  1.00  0.00    -0.0350  C
ATOM     23 H44  MCU L   1       1.010   2.712  -1.722  1.00  0.00    +0.0255  H
ATOM     24 H45  MCU L   1       0.532   1.248  -2.560  1.00  0.00    +0.0255  H
ATOM     25 H46  MCU L   1      -0.682   2.344  -2.038  1.00  0.00    +0.0255  H
BRANCH 21 26
ATOM     26 C11  MCU L   1       0.040   2.413   0.667  1.00  0.00    +0.1765  A
ATOM     27 N12  MCU L   1       0.969   2.689   1.577  1.00  0.00    -0.1111 NA
ATOM     28 N13  MCU L   1       0.535   3.732   2.319  1.00  0.00    -0.0229 NA
ATOM     29 N14  MCU L   1      -0.633   4.148   1.885  1.00  0.00    -0.0433 NA
ATOM     30 N15  MCU L   1      -0.969   3.364   0.828  1.00  0.00    -0.2218  N
BRANCH 30 31
ATOM     31 C16  MCU L   1      -2.177   3.782   0.090  1.00  0.00    +0.0590  C
ATOM     32 C17  MCU L   1      -3.026   2.643  -0.499  1.00  0.00    -0.0401  C
ATOM     33 C18  MCU L   1      -1.782   4.788  -1.010  1.00  0.00    -0.0401  C
ATOM     34 C19  MCU L   1      -3.162   4.537   1.043  1.00  0.00    -0.0401  C
ATOM     35 H47  MCU L   1      -3.364   1.957   0.283  1.00  0.00    +0.0253  H
ATOM     36 H48  MCU L   1      -2.516   2.070  -1.269  1.00  0.00    +0.0253  H
ATOM     37 H49  MCU L   1      -3.929   3.040  -0.980  1.00  0.00    +0.0253  H
ATOM     38 H50  MCU L   1      -1.269   5.661  -0.586  1.00  0.00    +0.0253  H
ATOM     39 H51  MCU L   1      -2.665   5.153  -1.548  1.00  0.00    +0.0253  H
ATOM     40 H52  MCU L   1      -1.103   4.357  -1.749  1.00  0.00    +0.0253  H
ATOM     41 H53  MCU L   1      -2.734   5.469   1.431  1.00  0.00    +0.0253  H
ATOM     42 H54  MCU L   1      -4.086   4.812   0.521  1.00  0.00    +0.0253  H
ATOM     43 H55  MCU L   1      -3.439   3.911   1.900  1.00  0.00    +0.0253  H
ENDBRANCH 30 31
ENDBRANCH 21 26
BRANCH 21 44
ATOM     44 N20  MCU L   1       1.522   0.542  -0.073  1.00  0.00    -0.2832 NA
ATOM     45 C21  MCU L   1       2.063  -0.323  -1.142  1.00  0.00    +0.0179  C
ATOM     46 C22  MCU L   1       3.504  -0.808  -0.857  1.00  0.00    +0.0344  C
ATOM     47 N23  MCU L   1       3.673  -1.382   0.478  1.00  0.00    -0.3333  N
ATOM     48 C24  MCU L   1       4.629  -2.345   0.826  1.00  0.00    +0.2899  C
ATOM     49 O25  MCU L   1       4.654  -2.809   1.967  1.00  0.00    -0.2640 OA
ATOM     50 C31  MCU L   1       3.027  -0.633   1.555  1.00  0.00    +0.0344  C
ATOM     51 C32  MCU L   1       1.588  -0.229   1.199  1.00  0.00    +0.0179  C
ATOM     52 H56  MCU L   1       2.125   0.195  -2.100  1.00  0.00    +0.0444  H
ATOM     53 H57  MCU L   1       1.421  -1.202  -1.276  1.00  0.00    +0.0444  H
ATOM     54 H58  MCU L   1       4.206   0.032  -0.939  1.00  0.00    +0.0501  H
ATOM     55 H59  MCU L   1       3.754  -1.550  -1.621  1.00  0.00    +0.0501  H
ATOM     56 H63  MCU L   1       3.637   0.261   1.738  1.00  0.00    +0.0501  H
ATOM     57 H64  MCU L   1       3.017  -1.215   2.483  1.00  0.00    +0.0501  H
ATOM     58 H65  MCU L   1       1.181   0.330   2.050  1.00  0.00    +0.0444  H
ATOM     59 H66  MCU L   1       0.997  -1.154   1.107  1.00  0.00    +0.0444  H
BRANCH 48 60
ATOM     60 C26  MCU L   1       5.578  -2.808  -0.175  1.00  0.00    +0.1915  A
ATOM     61 C27  MCU L   1       6.254  -4.014  -0.270  1.00  0.00    -0.0111  A
ATOM     62 C28  MCU L   1       7.105  -3.925  -1.398  1.00  0.00    -0.0231  A
ATOM     63 C29  MCU L   1       6.925  -2.662  -1.911  1.00  0.00    +0.0928  A
ATOM     64 O30  MCU L   1       6.012  -1.976  -1.176  1.00  0.00    -0.4581 OA
ATOM     65 H60  MCU L   1       6.137  -4.851   0.406  1.00  0.00    +0.0657  H
ATOM     66 H61  MCU L   1       7.772  -4.682  -1.781  1.00  0.00    +0.0649  H
ATOM     67 H62  MCU L   1       7.352  -2.123  -2.747  1.00  0.00    +0.1029  H
ENDBRANCH 48 60
ENDBRANCH 21 44
ENDBRANCH 8 21
TORSDOF 5
