ROOT
ATOM      1  O1  SEL L   1       7.750  -0.378   1.500  1.00  0.00    -0.5068 OA
ATOM      2  C2  SEL L   1       6.465  -0.181   1.095  1.00  0.00    +0.1170  A
ATOM      3  C3  SEL L   1       5.457  -0.318   2.035  1.00  0.00    -0.0182  A
ATOM      4  C4  SEL L   1       4.123  -0.126   1.656  1.00  0.00    -0.0350  A
ATOM      5  C5  SEL L   1       3.763   0.204   0.338  1.00  0.00    +0.0382  A
ATOM      6 C27  SEL L   1       4.817   0.333  -0.583  1.00  0.00    -0.0350  A
ATOM      7 C28  SEL L   1       6.157   0.146  -0.216  1.00  0.00    -0.0182  A
ATOM      8 H29  SEL L   1       8.333  -0.276   0.731  1.00  0.00    +0.2921 HD
ATOM      9 H30  SEL L   1       5.700  -0.580   3.060  1.00  0.00    +0.0655  H
ATOM     10 H31  SEL L   1       3.362  -0.270   2.417  1.00  0.00    +0.0639  H
ATOM     11 H50  SEL L   1       4.615   0.610  -1.614  1.00  0.00    +0.0639  H
ATOM     12 H51  SEL L   1       6.932   0.264  -0.965  1.00  0.00    +0.0655  H
ENDROOT
BRANCH 5 13
ATOM     13  N6  SEL L   1       2.442   0.389  -0.030  1.00  0.00    -0.3681  N
ATOM     14  C7  SEL L   1       1.408   0.718   0.962  1.00  0.00    +0.0314  C
ATOM     15  C8  SEL L   1       0.229   1.475   0.305  1.00  0.00    +0.0175  C
ATOM     16  N9  SEL L   1      -0.419   0.784  -0.826  1.00  0.00    -0.2857 NA
ATOM     17 C25  SEL L   1       0.521  -0.111  -1.528  1.00  0.00    +0.0175  C
ATOM     18 C26  SEL L   1       2.007   0.320  -1.434  1.00  0.00    +0.0314  C
ATOM     19 H32  SEL L   1       1.817   1.371   1.744  1.00  0.00    +0.0500  H
ATOM     20 H33  SEL L   1       1.051  -0.202   1.439  1.00  0.00    +0.0500  H
ATOM     21 H34  SEL L   1       0.621   2.422  -0.092  1.00  0.00    +0.0444  H
ATOM     22 H35  SEL L   1      -0.493   1.775   1.073  1.00  0.00    +0.0444  H
ATOM     23 H46  SEL L   1       0.263  -0.151  -2.591  1.00  0.00    +0.0444  H
ATOM     24 H47  SEL L   1       0.464  -1.130  -1.133  1.00  0.00    +0.0444  H
ATOM     25 H48  SEL L   1       2.149   1.296  -1.913  1.00  0.00    +0.0500  H
ATOM     26 H49  SEL L   1       2.595  -0.421  -1.989  1.00  0.00    +0.0500  H
BRANCH 16 27
ATOM     27 C10  SEL L   1      -1.758   0.226  -0.523  1.00  0.00    +0.0978  C
ATOM     28 H36  SEL L   1      -2.315   1.086  -0.127  1.00  0.00    +0.0594  H
BRANCH 27 29
ATOM     29 C11  SEL L   1      -1.797  -0.841   0.573  1.00  0.00    -0.0200  A
ATOM     30 C12  SEL L   1      -2.102  -0.483   1.895  1.00  0.00    -0.0385  A
ATOM     31 C13  SEL L   1      -2.142  -1.468   2.869  1.00  0.00    +0.0279  A
ATOM     32 N14  SEL L   1      -1.906  -2.772   2.624  1.00  0.00    -0.2632 NA
ATOM     33 C15  SEL L   1      -1.616  -3.108   1.350  1.00  0.00    +0.0279  A
ATOM     34 C16  SEL L   1      -1.555  -2.196   0.308  1.00  0.00    -0.0385  A
ATOM     35 H37  SEL L   1      -2.310   0.545   2.173  1.00  0.00    +0.0636  H
ATOM     36 H38  SEL L   1      -2.371  -1.227   3.903  1.00  0.00    +0.0829  H
ATOM     37 H39  SEL L   1      -1.431  -4.165   1.179  1.00  0.00    +0.0829  H
ATOM     38 H40  SEL L   1      -1.324  -2.550  -0.693  1.00  0.00    +0.0636  H
ENDBRANCH 27 29
BRANCH 27 39
ATOM     39 C17  SEL L   1      -2.538  -0.190  -1.742  1.00  0.00    +0.1732  A
ATOM     40 N18  SEL L   1      -2.111  -0.786  -2.844  1.00  0.00    -0.1114 NA
ATOM     41 N19  SEL L   1      -3.218  -1.007  -3.624  1.00  0.00    -0.0230 NA
ATOM     42 N20  SEL L   1      -4.318  -0.587  -3.018  1.00  0.00    -0.0436 NA
ATOM     43 N21  SEL L   1      -3.900  -0.071  -1.856  1.00  0.00    -0.2244  N
BRANCH 43 44
ATOM     44 C22  SEL L   1      -4.835   0.439  -0.831  1.00  0.00    +0.0565  C
ATOM     45 C23  SEL L   1      -4.930   1.905  -0.477  1.00  0.00    -0.0284  C
ATOM     46 C24  SEL L   1      -6.064   1.240  -1.196  1.00  0.00    -0.0284  C
ATOM     47 H41  SEL L   1      -4.966  -0.278  -0.025  1.00  0.00    +0.0546  H
ATOM     48 H42  SEL L   1      -5.079   2.171   0.563  1.00  0.00    +0.0286  H
ATOM     49 H43  SEL L   1      -4.339   2.622  -1.038  1.00  0.00    +0.0286  H
ATOM     50 H44  SEL L   1      -6.227   1.492  -2.239  1.00  0.00    +0.0286  H
ATOM     51 H45  SEL L   1      -6.977   1.044  -0.645  1.00  0.00    +0.0286  H
ENDBRANCH 43 44
ENDBRANCH 27 39
ENDBRANCH 16 27
ENDBRANCH 5 13
TORSDOF 5
