ROOT
ATOM      1  C1  EUB L   1      -2.380  -2.019   0.929  1.00  0.00    -0.0555  C
ATOM      2  C2  EUB L   1      -2.493  -0.544   0.474  1.00  0.00    -0.0049  C
ATOM      3  C3  EUB L   1      -3.301   0.249   1.535  1.00  0.00    -0.0366  C
ATOM      4  C4  EUB L   1      -4.745  -0.229   1.674  1.00  0.00    +0.0107  C
ATOM      5  C5  EUB L   1      -5.439  -0.345   0.338  1.00  0.00    +0.1561  C
ATOM      6  O6  EUB L   1      -6.663  -0.403   0.244  1.00  0.00    -0.2927 OA
ATOM      7  C7  EUB L   1      -4.616  -0.409  -0.894  1.00  0.00    -0.0194  C
ATOM      8  C8  EUB L   1      -3.274  -0.487  -0.848  1.00  0.00    -0.0600  C
ATOM      9  C9  EUB L   1      -2.480  -0.419  -2.136  1.00  0.00    -0.0305  C
ATOM     10 C10  EUB L   1      -1.115  -1.097  -2.056  1.00  0.00    -0.0459  C
ATOM     11 C11  EUB L   1      -0.269  -0.665  -0.841  1.00  0.00    -0.0311  C
ATOM     12 C12  EUB L   1      -1.100   0.132   0.221  1.00  0.00    -0.0027  C
ATOM     13 C13  EUB L   1      -0.247   0.476   1.471  1.00  0.00    +0.0600  C
ATOM     14 O14  EUB L   1       0.029  -0.697   2.221  1.00  0.00    -0.3914 OA
ATOM     15 C15  EUB L   1       1.087   1.168   1.105  1.00  0.00    -0.0135  C
ATOM     16 C16  EUB L   1       1.872   0.394   0.028  1.00  0.00    +0.0409  C
ATOM     17 C19  EUB L   1       3.042   1.162  -0.626  1.00  0.00    +0.0322  C
ATOM     18 C24  EUB L   1       3.226   0.453  -1.987  1.00  0.00    -0.0422  C
ATOM     19 C25  EUB L   1       1.904  -0.266  -2.302  1.00  0.00    -0.0484  C
ATOM     20 C26  EUB L   1       0.956   0.187  -1.198  1.00  0.00    -0.0250  C
ATOM     21 H27  EUB L   1      -2.011  -2.095   1.956  1.00  0.00    +0.0238  H
ATOM     22 H28  EUB L   1      -3.350  -2.530   0.904  1.00  0.00    +0.0238  H
ATOM     23 H29  EUB L   1      -1.717  -2.613   0.295  1.00  0.00    +0.0238  H
ATOM     24 H30  EUB L   1      -2.822   0.179   2.519  1.00  0.00    +0.0278  H
ATOM     25 H31  EUB L   1      -3.309   1.314   1.264  1.00  0.00    +0.0278  H
ATOM     26 H32  EUB L   1      -4.792  -1.204   2.173  1.00  0.00    +0.0345  H
ATOM     27 H33  EUB L   1      -5.300   0.492   2.286  1.00  0.00    +0.0345  H
ATOM     28 H34  EUB L   1      -5.169  -0.358  -1.826  1.00  0.00    +0.0652  H
ATOM     29 H35  EUB L   1      -2.330   0.639  -2.393  1.00  0.00    +0.0310  H
ATOM     30 H36  EUB L   1      -3.048  -0.866  -2.961  1.00  0.00    +0.0310  H
ATOM     31 H37  EUB L   1      -0.582  -0.935  -2.998  1.00  0.00    +0.0271  H
ATOM     32 H38  EUB L   1      -1.276  -2.182  -1.998  1.00  0.00    +0.0271  H
ATOM     33 H39  EUB L   1       0.099  -1.593  -0.385  1.00  0.00    +0.0308  H
ATOM     34 H40  EUB L   1      -1.319   1.118  -0.226  1.00  0.00    +0.0337  H
ATOM     35 H41  EUB L   1      -0.809   1.156   2.121  1.00  0.00    +0.0596  H
ATOM     36 H42  EUB L   1       0.292  -0.423   3.119  1.00  0.00    +0.2098 HD
ATOM     37 H43  EUB L   1       0.865   2.181   0.741  1.00  0.00    +0.0300  H
ATOM     38 H44  EUB L   1       1.694   1.281   2.011  1.00  0.00    +0.0300  H
ATOM     39 H46  EUB L   1       2.741   2.202  -0.813  1.00  0.00    +0.0388  H
ATOM     40 H50  EUB L   1       3.461   1.187  -2.765  1.00  0.00    +0.0272  H
ATOM     41 H51  EUB L   1       4.046  -0.273  -1.974  1.00  0.00    +0.0272  H
ATOM     42 H52  EUB L   1       2.040  -1.351  -2.307  1.00  0.00    +0.0268  H
ATOM     43 H53  EUB L   1       1.536   0.016  -3.294  1.00  0.00    +0.0268  H
ATOM     44 H54  EUB L   1       0.579   1.172  -1.521  1.00  0.00    +0.0313  H
ENDROOT
BRANCH 16 45
ATOM     45 C17  EUB L   1       2.418  -0.913   0.645  1.00  0.00    +0.1274  C
ATOM     46 O18  EUB L   1       2.809  -1.876  -0.010  1.00  0.00    -0.3004 OA
ATOM     47 H45  EUB L   1       2.531  -0.920   1.744  1.00  0.00    +0.1032  H
ENDBRANCH 16 45
BRANCH 17 48
ATOM     48 C20  EUB L   1       4.317   1.228   0.207  1.00  0.00    +0.1624  C
ATOM     49 O21  EUB L   1       4.299   1.058   1.430  1.00  0.00    -0.2946 OA
BRANCH 48 50
ATOM     50 C22  EUB L   1       5.614   1.602  -0.507  1.00  0.00    +0.1025  C
ATOM     51 O23  EUB L   1       6.612   2.016   0.415  1.00  0.00    -0.3875 OA
ATOM     52 H47  EUB L   1       5.426   2.432  -1.194  1.00  0.00    +0.0636  H
ATOM     53 H48  EUB L   1       5.990   0.736  -1.059  1.00  0.00    +0.0636  H
ATOM     54 H49  EUB L   1       6.471   1.480   1.224  1.00  0.00    +0.2100 HD
ENDBRANCH 48 50
ENDBRANCH 17 48
TORSDOF 3
