ROOT
ATOM      1  C4  238 L   1      -1.078   0.602   0.304  1.00  0.00    +0.0965  C
ATOM      2  C8  238 L   1      -0.092   1.683   0.828  1.00  0.00    -0.0171  C
ATOM      3  C9  238 L   1       1.371   1.208   0.796  1.00  0.00    +0.0199  C
ATOM      4 N10  238 L   1       1.543   0.144  -0.199  1.00  0.00    -0.3658  N
ATOM      5 C18  238 L   1       0.805   0.340  -1.458  1.00  0.00    +0.0457  C
ATOM      6 C19  238 L   1      -0.720   0.361  -1.192  1.00  0.00    +0.0884  C
ATOM      7 O20  238 L   1      -1.338  -0.803  -1.743  1.00  0.00    -0.3889 OA
ATOM      8 H29  238 L   1      -0.341   1.999   1.849  1.00  0.00    +0.0294  H
ATOM      9 H30  238 L   1      -0.183   2.585   0.206  1.00  0.00    +0.0294  H
ATOM     10 H31  238 L   1       1.635   0.830   1.791  1.00  0.00    +0.0488  H
ATOM     11 H32  238 L   1       2.019   2.064   0.575  1.00  0.00    +0.0488  H
ATOM     12 H36  238 L   1       1.109   1.310  -1.873  1.00  0.00    +0.0513  H
ATOM     13 H37  238 L   1       1.038  -0.403  -2.227  1.00  0.00    +0.0513  H
ATOM     14 H38  238 L   1      -1.124   1.193  -1.784  1.00  0.00    +0.0622  H
ATOM     15 H39  238 L   1      -1.048  -1.554  -1.183  1.00  0.00    +0.2099 HD
ENDROOT
BRANCH 1 16
ATOM     16  C3  238 L   1      -2.527   1.127   0.490  1.00  0.00    -0.0350  C
ATOM     17 H26  238 L   1      -2.616   2.113   0.013  1.00  0.00    +0.0277  H
ATOM     18 H27  238 L   1      -2.711   1.292   1.560  1.00  0.00    +0.0277  H
BRANCH 16 20
ATOM     19  C1  238 L   1      -5.016   0.762   0.314  1.00  0.00    -0.0652  C
ATOM     20  C2  238 L   1      -3.640   0.227  -0.057  1.00  0.00    -0.0548  C
ATOM     21 H21  238 L   1      -5.146   0.790   1.401  1.00  0.00    +0.0230  H
ATOM     22 H22  238 L   1      -5.798   0.121  -0.105  1.00  0.00    +0.0230  H
ATOM     23 H23  238 L   1      -5.161   1.775  -0.077  1.00  0.00    +0.0230  H
ATOM     24 H24  238 L   1      -3.541  -0.791   0.335  1.00  0.00    +0.0263  H
ATOM     25 H25  238 L   1      -3.579   0.171  -1.149  1.00  0.00    +0.0263  H
ENDBRANCH 16 20
ENDBRANCH 1 16
BRANCH 1 26
ATOM     26  C5  238 L   1      -0.904  -0.618   1.210  1.00  0.00    +0.3136  C
ATOM     27  O6  238 L   1      -0.804  -0.584   2.428  1.00  0.00    -0.2503 OA
ATOM     28  O7  238 L   1      -0.910  -1.810   0.582  1.00  0.00    -0.4802 OA
ATOM     29 H28  238 L   1      -0.759  -2.452   1.310  1.00  0.00    +0.2951 HD
ENDBRANCH 1 26
BRANCH 4 30
ATOM     30 C11  238 L   1       2.739  -0.579  -0.255  1.00  0.00    +0.0766  A
ATOM     31 C12  238 L   1       3.914  -0.135   0.367  1.00  0.00    -0.0175  A
ATOM     32 C13  238 L   1       5.075  -0.900   0.294  1.00  0.00    +0.0297  A
ATOM     33 N14  238 L   1       5.160  -2.085  -0.342  1.00  0.00    -0.2603 NA
ATOM     34 C15  238 L   1       4.022  -2.524  -0.922  1.00  0.00    +0.0648  A
ATOM     35 C16  238 L   1       2.824  -1.826  -0.900  1.00  0.00    +0.1644  A
ATOM     36 F17  238 L   1       1.743  -2.391  -1.461  1.00  0.00    -0.2017  F
ATOM     37 H33  238 L   1       3.959   0.808   0.900  1.00  0.00    +0.0654  H
ATOM     38 H34  238 L   1       5.994  -0.560   0.764  1.00  0.00    +0.0830  H
ATOM     39 H35  238 L   1       4.086  -3.488  -1.415  1.00  0.00    +0.0859  H
ENDBRANCH 4 30
TORSDOF 4
