ROOT
ATOM      1 C15  CHE L   1       0.194  -0.428  -1.501  1.00  0.00    +0.0671  A
ATOM      2 C16  CHE L   1      -1.056   0.136  -1.754  1.00  0.00    +0.0293  A
ATOM      3 C17  CHE L   1      -1.336   1.410  -2.483  1.00  0.00    -0.0235  C
ATOM      4 N18  CHE L   1      -2.021  -0.704  -1.225  1.00  0.00    -0.3402  N
ATOM      5 C28  CHE L   1      -1.405  -1.791  -0.610  1.00  0.00    +0.0530  A
ATOM      6 C29  CHE L   1      -1.943  -2.895   0.083  1.00  0.00    -0.0023  A
ATOM      7 C30  CHE L   1      -1.066  -3.862   0.569  1.00  0.00    +0.1254  A
ATOM      8 F31  CHE L   1      -1.564  -4.918   1.228  1.00  0.00    -0.2054  F
ATOM      9 C32  CHE L   1       0.300  -3.766   0.381  1.00  0.00    -0.0257  A
ATOM     10 C33  CHE L   1       0.831  -2.669  -0.301  1.00  0.00    -0.0491  A
ATOM     11 C34  CHE L   1      -0.026  -1.651  -0.790  1.00  0.00    +0.0126  A
ATOM     12 H46  CHE L   1      -2.246   1.904  -2.144  1.00  0.00    +0.0292  H
ATOM     13 H47  CHE L   1      -1.422   1.216  -3.557  1.00  0.00    +0.0292  H
ATOM     14 H48  CHE L   1      -0.528   2.133  -2.332  1.00  0.00    +0.0292  H
ATOM     15 H64  CHE L   1      -3.006  -3.020   0.247  1.00  0.00    +0.0667  H
ATOM     16 H65  CHE L   1       0.951  -4.548   0.759  1.00  0.00    +0.0646  H
ATOM     17 H66  CHE L   1       1.905  -2.613  -0.462  1.00  0.00    +0.0625  H
ENDROOT
BRANCH 1 19
ATOM     18 N12  CHE L   1       2.492  -0.018  -1.015  1.00  0.00    -0.3477  N
ATOM     19 C13  CHE L   1       1.471   0.154  -1.923  1.00  0.00    +0.2546  C
ATOM     20 O14  CHE L   1       1.604   0.788  -2.964  1.00  0.00    -0.2675 OA
ATOM     21 H45  CHE L   1       2.208  -0.235  -0.067  1.00  0.00    +0.1630 HD
BRANCH 18 22
ATOM     22 C11  CHE L   1       3.755   0.657  -1.205  1.00  0.00    +0.0499  C
ATOM     23 H43  CHE L   1       4.093   0.491  -2.233  1.00  0.00    +0.0538  H
ATOM     24 H44  CHE L   1       3.583   1.736  -1.118  1.00  0.00    +0.0538  H
BRANCH 22 32
ATOM     25  C3  CHE L   1       4.753   0.503   1.135  1.00  0.00    +0.0192  A
ATOM     26  C4  CHE L   1       5.765  -0.033   2.029  1.00  0.00    -0.0288  A
ATOM     27  C5  CHE L   1       6.734  -0.835   1.566  1.00  0.00    +0.0170  A
ATOM     28  C6  CHE L   1       7.809  -1.426   2.423  1.00  0.00    -0.0243  C
ATOM     29  N7  CHE L   1       6.753  -1.145   0.231  1.00  0.00    -0.3262  N
ATOM     30  C8  CHE L   1       5.836  -0.701  -0.689  1.00  0.00    +0.2548  A
ATOM     31  O9  CHE L   1       5.932  -1.022  -1.869  1.00  0.00    -0.2675 OA
ATOM     32 C10  CHE L   1       4.741   0.182  -0.178  1.00  0.00    +0.0493  A
ATOM     33 H38  CHE L   1       5.719   0.224   3.083  1.00  0.00    +0.0646  H
ATOM     34 H39  CHE L   1       7.769  -2.520   2.386  1.00  0.00    +0.0292  H
ATOM     35 H40  CHE L   1       8.796  -1.102   2.076  1.00  0.00    +0.0292  H
ATOM     36 H41  CHE L   1       7.707  -1.123   3.471  1.00  0.00    +0.0292  H
ATOM     37 H42  CHE L   1       7.478  -1.747  -0.143  1.00  0.00    +0.1686 HD
BRANCH 25 39
ATOM     38  C1  CHE L   1       4.393   3.114   1.791  1.00  0.00    -0.0134  C
ATOM     39  S2  CHE L   1       3.538   1.521   1.863  1.00  0.00    -0.1280 SA
ATOM     40 H35  CHE L   1       5.310   3.086   2.386  1.00  0.00    +0.0344  H
ATOM     41 H36  CHE L   1       3.740   3.892   2.196  1.00  0.00    +0.0344  H
ATOM     42 H37  CHE L   1       4.641   3.372   0.757  1.00  0.00    +0.0344  H
ENDBRANCH 25 39
ENDBRANCH 22 32
ENDBRANCH 18 22
ENDBRANCH 1 19
BRANCH 4 43
ATOM     43 C19  CHE L   1      -3.485  -0.545  -1.300  1.00  0.00    +0.0348  C
ATOM     44 C20  CHE L   1      -3.971  -0.404  -2.750  1.00  0.00    -0.0440  C
ATOM     45 H49  CHE L   1      -3.903  -1.501  -0.964  1.00  0.00    +0.0528  H
ATOM     46 H50  CHE L   1      -3.840   0.610  -3.135  1.00  0.00    +0.0250  H
ATOM     47 H51  CHE L   1      -3.438  -1.093  -3.415  1.00  0.00    +0.0250  H
ATOM     48 H52  CHE L   1      -5.038  -0.642  -2.827  1.00  0.00    +0.0250  H
BRANCH 43 49
ATOM     49 C21  CHE L   1      -4.045   0.547  -0.338  1.00  0.00    -0.0203  C
ATOM     50 C22  CHE L   1      -5.589   0.625  -0.420  1.00  0.00    -0.0460  C
ATOM     51 C23  CHE L   1      -6.254   1.246   0.810  1.00  0.00    -0.0265  C
ATOM     52 C24  CHE L   1      -5.321   2.197   1.545  1.00  0.00    +0.0553  C
ATOM     53 O25  CHE L   1      -6.001   2.796   2.642  1.00  0.00    -0.3918 OA
ATOM     54 C26  CHE L   1      -4.069   1.474   2.042  1.00  0.00    -0.0265  C
ATOM     55 C27  CHE L   1      -3.612   0.335   1.124  1.00  0.00    -0.0460  C
ATOM     56 H53  CHE L   1      -3.654   1.523  -0.647  1.00  0.00    +0.0321  H
ATOM     57 H54  CHE L   1      -5.860   1.215  -1.305  1.00  0.00    +0.0269  H
ATOM     58 H55  CHE L   1      -6.020  -0.372  -0.571  1.00  0.00    +0.0269  H
ATOM     59 H56  CHE L   1      -6.571   0.449   1.497  1.00  0.00    +0.0290  H
ATOM     60 H57  CHE L   1      -7.179   1.759   0.521  1.00  0.00    +0.0290  H
ATOM     61 H58  CHE L   1      -5.031   3.010   0.870  1.00  0.00    +0.0593  H
ATOM     62 H59  CHE L   1      -6.265   2.090   3.256  1.00  0.00    +0.2098 HD
ATOM     63 H60  CHE L   1      -3.263   2.213   2.138  1.00  0.00    +0.0290  H
ATOM     64 H61  CHE L   1      -4.216   1.081   3.056  1.00  0.00    +0.0290  H
ATOM     65 H62  CHE L   1      -2.524   0.246   1.213  1.00  0.00    +0.0269  H
ATOM     66 H63  CHE L   1      -4.033  -0.610   1.490  1.00  0.00    +0.0269  H
ENDBRANCH 43 49
ENDBRANCH 4 43
TORSDOF 6
