ROOT
ATOM      1  C7  MCU L   1      -0.081   0.177   1.079  1.00  0.00    +0.0413  C
ATOM      2  C8  MCU L   1      -1.350   0.032   0.206  1.00  0.00    +0.1021  C
ATOM      3 N17  MCU L   1      -2.348   0.883   0.858  1.00  0.00    -0.3510  N
ATOM      4 C18  MCU L   1      -3.547   1.359   0.209  1.00  0.00    +0.0464  A
ATOM      5 C19  MCU L   1      -4.118   0.682  -0.885  1.00  0.00    -0.0352  A
ATOM      6 C20  MCU L   1      -5.279   1.171  -1.491  1.00  0.00    -0.0245  A
ATOM      7 C21  MCU L   1      -5.872   2.345  -1.024  1.00  0.00    +0.1241  A
ATOM      8 F22  MCU L   1      -6.995   2.819  -1.618  1.00  0.00    -0.2055  F
ATOM      9 C23  MCU L   1      -5.303   3.038   0.047  1.00  0.00    -0.0174  A
ATOM     10 C24  MCU L   1      -4.142   2.550   0.664  1.00  0.00    +0.0007  A
ATOM     11 C25  MCU L   1      -3.513   3.307   1.758  1.00  0.00    -0.0545  C
ATOM     12 C26  MCU L   1      -2.419   2.857   2.377  1.00  0.00    -0.0592  C
ATOM     13 C27  MCU L   1      -1.814   1.500   2.076  1.00  0.00    +0.0771  C
ATOM     14 C28  MCU L   1      -0.280   1.498   1.879  1.00  0.00    +0.1672  C
ATOM     15 H43  MCU L   1      -0.133  -0.653   1.821  1.00  0.00    +0.0394  H
ATOM     16 H44  MCU L   1      -1.192   0.425  -0.816  1.00  0.00    +0.0614  H
ATOM     17 H50  MCU L   1      -3.676  -0.223  -1.277  1.00  0.00    +0.0639  H
ATOM     18 H51  MCU L   1      -5.716   0.639  -2.326  1.00  0.00    +0.0647  H
ATOM     19 H52  MCU L   1      -5.762   3.957   0.389  1.00  0.00    +0.0653  H
ATOM     20 H53  MCU L   1      -3.933   4.259   2.061  1.00  0.00    +0.0622  H
ATOM     21 H54  MCU L   1      -2.010   3.442   3.190  1.00  0.00    +0.0593  H
ATOM     22 H55  MCU L   1      -2.077   0.834   2.929  1.00  0.00    +0.0589  H
ENDROOT
BRANCH 1 26
ATOM     23  C3  MCU L   1       3.670  -0.364  -1.078  1.00  0.00    +0.1615  A
ATOM     24  C4  MCU L   1       2.695   0.530  -1.561  1.00  0.00    -0.0160  A
ATOM     25  C5  MCU L   1       1.499   0.724  -0.872  1.00  0.00    -0.0545  A
ATOM     26  C6  MCU L   1       1.238   0.029   0.321  1.00  0.00    -0.0362  A
ATOM     27 C34  MCU L   1       2.215  -0.853   0.810  1.00  0.00    -0.0127  A
ATOM     28 C35  MCU L   1       3.418  -1.068   0.126  1.00  0.00    +0.1618  A
ATOM     29 H41  MCU L   1       2.850   1.083  -2.477  1.00  0.00    +0.0655  H
ATOM     30 H42  MCU L   1       0.776   1.414  -1.285  1.00  0.00    +0.0622  H
ATOM     31 H58  MCU L   1       2.038  -1.401   1.727  1.00  0.00    +0.0658  H
BRANCH 23 33
ATOM     32  C1  MCU L   1       5.224   0.078  -2.996  1.00  0.00    +0.0790  C
ATOM     33  O2  MCU L   1       4.874  -0.561  -1.772  1.00  0.00    -0.4915 OA
ATOM     34 H38  MCU L   1       5.268   1.179  -2.853  1.00  0.00    +0.0660  H
ATOM     35 H39  MCU L   1       6.226  -0.277  -3.317  1.00  0.00    +0.0660  H
ATOM     36 H40  MCU L   1       4.487  -0.179  -3.786  1.00  0.00    +0.0660  H
ENDBRANCH 23 33
BRANCH 28 37
ATOM     37 O36  MCU L   1       4.309  -1.995   0.698  1.00  0.00    -0.4914 OA
ATOM     38 C37  MCU L   1       5.560  -2.411   0.157  1.00  0.00    +0.0790  C
ATOM     39 H59  MCU L   1       6.001  -3.182   0.822  1.00  0.00    +0.0660  H
ATOM     40 H60  MCU L   1       6.264  -1.552   0.111  1.00  0.00    +0.0660  H
ATOM     41 H61  MCU L   1       5.416  -2.863  -0.848  1.00  0.00    +0.0660  H
ENDBRANCH 28 37
ENDBRANCH 1 26
BRANCH 2 42
ATOM     42  C9  MCU L   1      -1.794  -1.420   0.157  1.00  0.00    +0.1860  C
ATOM     43 O10  MCU L   1      -2.760  -1.792   0.879  1.00  0.00    -0.2898 OA
BRANCH 42 44
ATOM     44 C11  MCU L   1      -1.043  -2.436  -0.622  1.00  0.00    +0.0195  A
ATOM     45 C12  MCU L   1      -1.004  -3.770  -0.174  1.00  0.00    -0.0512  A
ATOM     46 C13  MCU L   1      -0.264  -4.731  -0.868  1.00  0.00    -0.0611  A
ATOM     47 C14  MCU L   1       0.440  -4.377  -2.019  1.00  0.00    -0.0617  A
ATOM     48 C15  MCU L   1       0.397  -3.062  -2.484  1.00  0.00    -0.0611  A
ATOM     49 C16  MCU L   1      -0.343  -2.097  -1.796  1.00  0.00    -0.0512  A
ATOM     50 H45  MCU L   1      -1.529  -4.065   0.726  1.00  0.00    +0.0625  H
ATOM     51 H46  MCU L   1      -0.232  -5.751  -0.509  1.00  0.00    +0.0618  H
ATOM     52 H47  MCU L   1       1.015  -5.122  -2.554  1.00  0.00    +0.0618  H
ATOM     53 H48  MCU L   1       0.936  -2.790  -3.382  1.00  0.00    +0.0618  H
ATOM     54 H49  MCU L   1      -0.370  -1.095  -2.196  1.00  0.00    +0.0625  H
ENDBRANCH 42 44
ENDBRANCH 2 42
BRANCH 14 55
ATOM     55 C29  MCU L   1       0.141   2.671   1.071  1.00  0.00    +0.0820  C
ATOM     56 N30  MCU L   1       0.467   3.589   0.446  1.00  0.00    -0.1954 NA
ENDBRANCH 14 55
BRANCH 14 57
ATOM     57 C31  MCU L   1       0.455   1.506   3.215  1.00  0.00    +0.2415  C
ATOM     58 N32  MCU L   1       0.666   2.726   3.932  1.00  0.00    -0.3685  N
ATOM     59 O33  MCU L   1       0.846   0.427   3.736  1.00  0.00    -0.2716 OA
ATOM     60 H56  MCU L   1       0.348   3.646   3.554  1.00  0.00    +0.1586 HD
ATOM     61 H57  MCU L   1       1.159   2.712   4.852  1.00  0.00    +0.1586 HD
ENDBRANCH 14 57
TORSDOF 7
