ROOT
ATOM      1  C1  205 L   1      -4.960  -2.777  -1.641  1.00  0.00    +0.0145  C
ATOM      2  C2  205 L   1      -3.810  -2.092  -2.337  1.00  0.00    +0.2205  C
ATOM      3  O3  205 L   1      -3.698  -2.160  -3.563  1.00  0.00    -0.2733 OA
ATOM      4  N4  205 L   1      -2.913  -1.389  -1.543  1.00  0.00    -0.3400  N
ATOM      5  C5  205 L   1      -2.870  -1.449  -0.077  1.00  0.00    +0.0216  C
ATOM      6  C6  205 L   1      -2.564  -0.083   0.563  1.00  0.00    -0.0299  C
ATOM      7  C7  205 L   1      -1.720   0.801  -0.348  1.00  0.00    -0.0087  C
ATOM      8  C8  205 L   1      -0.699   1.719   0.282  1.00  0.00    -0.0157  C
ATOM      9  C9  205 L   1       0.294   1.939  -0.878  1.00  0.00    +0.1013  C
ATOM     10 O19  205 L   1       0.029   0.916  -1.880  1.00  0.00    -0.3652 OA
ATOM     11 C20  205 L   1      -0.845  -0.033  -1.264  1.00  0.00    +0.0800  C
ATOM     12 C21  205 L   1      -1.735  -0.812  -2.223  1.00  0.00    +0.0477  C
ATOM     13 H22  205 L   1      -4.590  -3.549  -0.962  1.00  0.00    +0.0325  H
ATOM     14 H23  205 L   1      -5.599  -3.260  -2.388  1.00  0.00    +0.0325  H
ATOM     15 H24  205 L   1      -5.563  -2.037  -1.104  1.00  0.00    +0.0325  H
ATOM     16 H25  205 L   1      -3.797  -1.847   0.345  1.00  0.00    +0.0489  H
ATOM     17 H26  205 L   1      -2.078  -2.164   0.175  1.00  0.00    +0.0489  H
ATOM     18 H27  205 L   1      -2.084  -0.238   1.531  1.00  0.00    +0.0286  H
ATOM     19 H28  205 L   1      -3.508   0.435   0.771  1.00  0.00    +0.0286  H
ATOM     20 H29  205 L   1      -2.394   1.426  -0.956  1.00  0.00    +0.0328  H
ATOM     21 H30  205 L   1      -0.232   1.248   1.155  1.00  0.00    +0.0297  H
ATOM     22 H31  205 L   1      -1.134   2.667   0.621  1.00  0.00    +0.0297  H
ATOM     23 H32  205 L   1       0.085   2.901  -1.362  1.00  0.00    +0.0662  H
ATOM     24 H41  205 L   1      -0.226  -0.734  -0.687  1.00  0.00    +0.0617  H
ATOM     25 H42  205 L   1      -2.085  -0.171  -3.041  1.00  0.00    +0.0514  H
ATOM     26 H43  205 L   1      -1.162  -1.624  -2.692  1.00  0.00    +0.0514  H
ENDROOT
BRANCH 9 27
ATOM     27 C10  205 L   1       1.744   1.878  -0.444  1.00  0.00    +0.0752  A
ATOM     28 C11  205 L   1       2.626   2.864  -0.829  1.00  0.00    -0.0195  A
ATOM     29 C12  205 L   1       3.916   2.710  -0.390  1.00  0.00    +0.0332  A
ATOM     30 N13  205 L   1       4.325   1.682   0.376  1.00  0.00    -0.2208 NA
ATOM     31 C14  205 L   1       3.416   0.752   0.717  1.00  0.00    +0.2263  A
ATOM     32 N18  205 L   1       2.133   0.827   0.321  1.00  0.00    -0.2147 NA
ATOM     33 H33  205 L   1       2.334   3.704  -1.443  1.00  0.00    +0.0651  H
ATOM     34 H34  205 L   1       4.689   3.431  -0.652  1.00  0.00    +0.0831  H
BRANCH 31 35
ATOM     35 N15  205 L   1       3.816  -0.329   1.504  1.00  0.00    -0.3464  N
ATOM     36 C16  205 L   1       4.965  -0.063   2.352  1.00  0.00    +0.0096  C
ATOM     37 C17  205 L   1       2.729  -1.100   2.085  1.00  0.00    +0.0096  C
ATOM     38 H35  205 L   1       4.727   0.681   3.122  1.00  0.00    +0.0452  H
ATOM     39 H36  205 L   1       5.276  -0.983   2.860  1.00  0.00    +0.0452  H
ATOM     40 H37  205 L   1       5.835   0.278   1.779  1.00  0.00    +0.0452  H
ATOM     41 H38  205 L   1       3.124  -1.954   2.652  1.00  0.00    +0.0452  H
ATOM     42 H39  205 L   1       2.073  -1.519   1.311  1.00  0.00    +0.0452  H
ATOM     43 H40  205 L   1       2.129  -0.494   2.778  1.00  0.00    +0.0452  H
ENDBRANCH 31 35
ENDBRANCH 9 27
TORSDOF 2
