ROOT
ATOM      1  C4  CHE L   1       2.841   0.568  -0.833  1.00  0.00    +0.0019  A
ATOM      2  C5  CHE L   1       2.391   1.828  -1.270  1.00  0.00    -0.0360  A
ATOM      3  C6  CHE L   1       1.036   2.094  -1.451  1.00  0.00    +0.0453  A
ATOM      4 CL7  CHE L   1       0.605   3.680  -1.984  1.00  0.00    -0.0832 Cl
ATOM      5  C8  CHE L   1       0.078   1.106  -1.198  1.00  0.00    -0.0137  A
ATOM      6  C9  CHE L   1       0.498  -0.152  -0.695  1.00  0.00    +0.0624  A
ATOM      7 C10  CHE L   1       1.881  -0.431  -0.551  1.00  0.00    +0.0592  A
ATOM      8 CL11 CHE L   1       2.448  -2.011  -0.105  1.00  0.00    -0.0824 Cl
ATOM      9 C12  CHE L   1      -0.565  -1.141  -0.280  1.00  0.00    +0.2566  C
ATOM     10 O13  CHE L   1      -0.308  -2.057   0.492  1.00  0.00    -0.2673 OA
ATOM     11 N14  CHE L   1      -1.860  -0.931  -0.758  1.00  0.00    -0.3335  N
ATOM     12 C25  CHE L   1      -2.097   0.070  -1.782  1.00  0.00    +0.0259  C
ATOM     13 C26  CHE L   1      -1.392   1.366  -1.417  1.00  0.00    -0.0078  C
ATOM     14 H36  CHE L   1       3.120   2.607  -1.494  1.00  0.00    +0.0636  H
ATOM     15 H47  CHE L   1      -1.729  -0.331  -2.733  1.00  0.00    +0.0492  H
ATOM     16 H48  CHE L   1      -3.167   0.265  -1.885  1.00  0.00    +0.0492  H
ATOM     17 H49  CHE L   1      -1.815   1.792  -0.499  1.00  0.00    +0.0331  H
ATOM     18 H50  CHE L   1      -1.562   2.074  -2.235  1.00  0.00    +0.0331  H
ENDROOT
BRANCH 1 19
ATOM     19  C3  CHE L   1       4.348   0.357  -0.685  1.00  0.00    +0.0896  C
ATOM     20 H35  CHE L   1       4.615  -0.692  -0.531  1.00  0.00    +0.0650  H
BRANCH 19 22
ATOM     21  C1  CHE L   1       5.011  -0.208  -2.906  1.00  0.00    +0.0372  C
ATOM     22  O2  CHE L   1       4.981   0.803  -1.903  1.00  0.00    -0.3748 OA
ATOM     23 H32  CHE L   1       4.000  -0.536  -3.166  1.00  0.00    +0.0524  H
ATOM     24 H33  CHE L   1       5.609  -1.060  -2.570  1.00  0.00    +0.0524  H
ATOM     25 H34  CHE L   1       5.480   0.214  -3.800  1.00  0.00    +0.0524  H
ENDBRANCH 19 22
BRANCH 19 26
ATOM     26 C27  CHE L   1       4.938   1.203   0.473  1.00  0.00    +0.0150  C
ATOM     27 C28  CHE L   1       6.446   1.034   0.600  1.00  0.00    -0.0219  C
ATOM     28 C29  CHE L   1       6.581  -0.228   1.428  1.00  0.00    +0.0481  C
ATOM     29 O30  CHE L   1       5.388  -0.340   2.217  1.00  0.00    -0.3794 OA
ATOM     30 C31  CHE L   1       4.493   0.719   1.844  1.00  0.00    +0.0532  C
ATOM     31 H51  CHE L   1       4.692   2.261   0.325  1.00  0.00    +0.0352  H
ATOM     32 H52  CHE L   1       6.856   1.881   1.166  1.00  0.00    +0.0292  H
ATOM     33 H53  CHE L   1       6.993   0.979  -0.345  1.00  0.00    +0.0292  H
ATOM     34 H54  CHE L   1       6.651  -1.119   0.795  1.00  0.00    +0.0560  H
ATOM     35 H55  CHE L   1       7.454  -0.202   2.086  1.00  0.00    +0.0560  H
ATOM     36 H56  CHE L   1       3.462   0.362   1.895  1.00  0.00    +0.0563  H
ATOM     37 H57  CHE L   1       4.606   1.516   2.589  1.00  0.00    +0.0563  H
ENDBRANCH 19 26
ENDBRANCH 1 19
BRANCH 11 38
ATOM     38 C15  CHE L   1      -2.883  -1.959  -0.536  1.00  0.00    +0.0519  C
ATOM     39 H37  CHE L   1      -3.086  -2.432  -1.503  1.00  0.00    +0.0540  H
ATOM     40 H38  CHE L   1      -2.501  -2.764   0.101  1.00  0.00    +0.0540  H
BRANCH 38 41
ATOM     41 C16  CHE L   1      -4.111  -1.361   0.097  1.00  0.00    +0.0391  A
ATOM     42 C17  CHE L   1      -4.243  -0.991   1.391  1.00  0.00    -0.0388  A
ATOM     43 C18  CHE L   1      -3.169  -1.113   2.437  1.00  0.00    -0.0392  C
ATOM     44 C19  CHE L   1      -5.497  -0.427   1.871  1.00  0.00    -0.0393  A
ATOM     45 C20  CHE L   1      -6.552  -0.287   1.053  1.00  0.00    +0.0162  A
ATOM     46 C21  CHE L   1      -7.871   0.277   1.483  1.00  0.00    -0.0244  C
ATOM     47 N22  CHE L   1      -6.434  -0.679  -0.256  1.00  0.00    -0.3262  N
ATOM     48 C23  CHE L   1      -5.296  -1.209  -0.811  1.00  0.00    +0.2540  A
ATOM     49 O24  CHE L   1      -5.260  -1.523  -1.997  1.00  0.00    -0.2675 OA
ATOM     50 H39  CHE L   1      -2.325  -1.729   2.116  1.00  0.00    +0.0278  H
ATOM     51 H40  CHE L   1      -3.566  -1.582   3.345  1.00  0.00    +0.0278  H
ATOM     52 H41  CHE L   1      -2.781  -0.121   2.703  1.00  0.00    +0.0278  H
ATOM     53 H42  CHE L   1      -5.560  -0.124   2.913  1.00  0.00    +0.0637  H
ATOM     54 H43  CHE L   1      -8.668  -0.459   1.332  1.00  0.00    +0.0292  H
ATOM     55 H44  CHE L   1      -8.111   1.173   0.901  1.00  0.00    +0.0292  H
ATOM     56 H45  CHE L   1      -7.871   0.555   2.541  1.00  0.00    +0.0292  H
ATOM     57 H46  CHE L   1      -7.220  -0.586  -0.888  1.00  0.00    +0.1686 HD
ENDBRANCH 38 41
ENDBRANCH 11 38
TORSDOF 5
