ROOT
ATOM      1  O1  177 L   1       0.312   1.130   1.668  1.00  0.00    -0.2235 OA
ATOM      2  C2  177 L   1       0.503   0.476   0.649  1.00  0.00    +0.4115  C
ATOM      3 N11  177 L   1       1.604  -0.335   0.450  1.00  0.00    -0.3031  N
ATOM      4 C12  177 L   1       1.666  -1.318  -0.627  1.00  0.00    +0.0479  C
ATOM      5 C13  177 L   1       3.108  -1.675  -0.990  1.00  0.00    +0.0664  C
ATOM      6 O14  177 L   1       3.865  -2.076   0.158  1.00  0.00    -0.3653 OA
ATOM      7 C15  177 L   1       3.912  -1.040   1.174  1.00  0.00    +0.1372  C
ATOM      8 C21  177 L   1       2.498  -0.584   1.581  1.00  0.00    +0.0579  C
ATOM      9 H35  177 L   1       1.142  -2.210  -0.261  1.00  0.00    +0.0512  H
ATOM     10 H36  177 L   1       1.139  -0.961  -1.517  1.00  0.00    +0.0512  H
ATOM     11 H37  177 L   1       3.107  -2.518  -1.690  1.00  0.00    +0.0578  H
ATOM     12 H38  177 L   1       3.608  -0.845  -1.497  1.00  0.00    +0.0578  H
ATOM     13 H39  177 L   1       4.345  -1.534   2.054  1.00  0.00    +0.0696  H
ATOM     14 H42  177 L   1       2.019  -1.391   2.152  1.00  0.00    +0.0520  H
ATOM     15 H43  177 L   1       2.539   0.294   2.236  1.00  0.00    +0.0520  H
ENDROOT
BRANCH 2 16
ATOM     16  O3  177 L   1      -0.354   0.454  -0.408  1.00  0.00    -0.4484 OA
BRANCH 16 17
ATOM     17  C4  177 L   1      -1.535   1.261  -0.281  1.00  0.00    +0.0971  C
ATOM     18 H22  177 L   1      -1.303   2.213   0.213  1.00  0.00    +0.0701  H
ATOM     19 H23  177 L   1      -1.857   1.510  -1.299  1.00  0.00    +0.0701  H
BRANCH 17 20
ATOM     20  C5  177 L   1      -2.648   0.497   0.456  1.00  0.00    -0.0066  C
ATOM     21  C6  177 L   1      -3.913   1.363   0.605  1.00  0.00    -0.0471  C
ATOM     22  C7  177 L   1      -4.946   1.063  -0.474  1.00  0.00    -0.0527  C
ATOM     23  C8  177 L   1      -5.406  -0.396  -0.432  1.00  0.00    -0.0530  C
ATOM     24  C9  177 L   1      -4.334  -1.359   0.081  1.00  0.00    -0.0527  C
ATOM     25 C10  177 L   1      -2.931  -0.855  -0.230  1.00  0.00    -0.0471  C
ATOM     26 H24  177 L   1      -2.284   0.277   1.469  1.00  0.00    +0.0334  H
ATOM     27 H25  177 L   1      -4.366   1.163   1.585  1.00  0.00    +0.0269  H
ATOM     28 H26  177 L   1      -3.661   2.430   0.598  1.00  0.00    +0.0269  H
ATOM     29 H27  177 L   1      -5.814   1.723  -0.363  1.00  0.00    +0.0265  H
ATOM     30 H28  177 L   1      -4.514   1.281  -1.459  1.00  0.00    +0.0265  H
ATOM     31 H29  177 L   1      -5.721  -0.693  -1.440  1.00  0.00    +0.0265  H
ATOM     32 H30  177 L   1      -6.294  -0.487   0.204  1.00  0.00    +0.0265  H
ATOM     33 H31  177 L   1      -4.442  -1.480   1.166  1.00  0.00    +0.0265  H
ATOM     34 H32  177 L   1      -4.489  -2.350  -0.360  1.00  0.00    +0.0265  H
ATOM     35 H33  177 L   1      -2.191  -1.595   0.099  1.00  0.00    +0.0269  H
ATOM     36 H34  177 L   1      -2.819  -0.765  -1.318  1.00  0.00    +0.0269  H
ENDBRANCH 17 20
ENDBRANCH 16 17
ENDBRANCH 2 16
BRANCH 7 37
ATOM     37 C16  177 L   1       4.827   0.112   0.843  1.00  0.00    +0.1810  A
ATOM     38 N17  177 L   1       4.550   1.044  -0.132  1.00  0.00    -0.2170 NA
ATOM     39 C18  177 L   1       5.581   1.853  -0.081  1.00  0.00    +0.1118  A
ATOM     40 N19  177 L   1       6.439   1.432   0.882  1.00  0.00    -0.2651  N
ATOM     41 N20  177 L   1       5.982   0.329   1.495  1.00  0.00    -0.1549 NA
ATOM     42 H40  177 L   1       5.752   2.727  -0.693  1.00  0.00    +0.1041  H
ATOM     43 H41  177 L   1       7.325   1.832   1.172  1.00  0.00    +0.1900 HD
ENDBRANCH 7 37
TORSDOF 4
