ROOT
ATOM      1  C4  EUB L   1       0.769  -0.585  -0.989  1.00  0.00    +0.0409  C
ATOM      2  C5  EUB L   1      -0.557  -0.387  -0.842  1.00  0.00    +0.0342  C
ATOM      3  C6  EUB L   1      -1.442   0.023  -2.000  1.00  0.00    -0.0233  C
ATOM      4  N7  EUB L   1      -1.126  -0.507   0.446  1.00  0.00    -0.2667  N
ATOM      5 C18  EUB L   1      -0.310  -0.607   1.591  1.00  0.00    +0.3281  C
ATOM      6 O19  EUB L   1      -0.690  -0.710   2.756  1.00  0.00    -0.2465 OA
ATOM      7 N20  EUB L   1       1.041  -0.575   1.383  1.00  0.00    -0.3266  N
ATOM      8 C21  EUB L   1       1.652  -0.990   0.145  1.00  0.00    +0.0881  C
ATOM      9 H33  EUB L   1      -1.931  -0.847  -2.448  1.00  0.00    +0.0292  H
ATOM     10 H34  EUB L   1      -0.884   0.522  -2.798  1.00  0.00    +0.0292  H
ATOM     11 H35  EUB L   1      -2.200   0.748  -1.687  1.00  0.00    +0.0292  H
ATOM     12 H40  EUB L   1       1.544  -0.767   2.241  1.00  0.00    +0.1650 HD
ATOM     13 H41  EUB L   1       1.685  -2.088   0.182  1.00  0.00    +0.0626  H
ENDROOT
BRANCH 1 15
ATOM     14  C1  EUB L   1       1.869   0.753  -2.884  1.00  0.00    -0.0016  C
ATOM     15  C2  EUB L   1       1.391  -0.567  -2.337  1.00  0.00    +0.1601  C
ATOM     16  O3  EUB L   1       1.543  -1.625  -2.944  1.00  0.00    -0.2925 OA
ATOM     17 H30  EUB L   1       1.426   0.914  -3.870  1.00  0.00    +0.0309  H
ATOM     18 H31  EUB L   1       1.571   1.579  -2.232  1.00  0.00    +0.0309  H
ATOM     19 H32  EUB L   1       2.959   0.740  -2.961  1.00  0.00    +0.0309  H
ENDBRANCH 1 15
BRANCH 4 20
ATOM     20  C8  EUB L   1      -2.551  -0.553   0.667  1.00  0.00    +0.0516  A
ATOM     21  C9  EUB L   1      -3.368  -1.398  -0.098  1.00  0.00    -0.0377  A
ATOM     22 C10  EUB L   1      -4.746  -1.450   0.117  1.00  0.00    -0.0593  A
ATOM     23 C11  EUB L   1      -5.329  -0.661   1.106  1.00  0.00    -0.0500  A
ATOM     24 C12  EUB L   1      -4.538   0.188   1.892  1.00  0.00    +0.0568  A
ATOM     25 C17  EUB L   1      -3.150   0.224   1.670  1.00  0.00    -0.0261  A
ATOM     26 H36  EUB L   1      -2.935  -2.064  -0.840  1.00  0.00    +0.0638  H
ATOM     27 H37  EUB L   1      -5.363  -2.120  -0.478  1.00  0.00    +0.0618  H
ATOM     28 H38  EUB L   1      -6.405  -0.715   1.270  1.00  0.00    +0.0623  H
ATOM     29 H39  EUB L   1      -2.538   0.885   2.284  1.00  0.00    +0.0644  H
BRANCH 24 30
ATOM     30 C13  EUB L   1      -5.161   1.022   2.984  1.00  0.00    +0.4175  C
ATOM     31 F14  EUB L   1      -6.419   1.444   2.672  1.00  0.00    -0.1659  F
ATOM     32 F15  EUB L   1      -5.276   0.344   4.158  1.00  0.00    -0.1659  F
ATOM     33 F16  EUB L   1      -4.455   2.153   3.267  1.00  0.00    -0.1659  F
ENDBRANCH 24 30
ENDBRANCH 4 20
BRANCH 8 34
ATOM     34 C22  EUB L   1       3.069  -0.461   0.072  1.00  0.00    -0.0024  A
ATOM     35 C23  EUB L   1       4.120  -1.273  -0.374  1.00  0.00    -0.0522  A
ATOM     36 C24  EUB L   1       5.410  -0.754  -0.469  1.00  0.00    -0.0255  A
ATOM     37 C25  EUB L   1       5.615   0.574  -0.120  1.00  0.00    +0.1400  A
ATOM     38 N28  EUB L   1       4.621   1.391   0.307  1.00  0.00    -0.2443 NA
ATOM     39 C29  EUB L   1       3.381   0.859   0.395  1.00  0.00    +0.0345  A
ATOM     40 H42  EUB L   1       3.939  -2.308  -0.662  1.00  0.00    +0.0622  H
ATOM     41 H43  EUB L   1       6.230  -1.376  -0.815  1.00  0.00    +0.0646  H
ATOM     42 H44  EUB L   1       2.618   1.554   0.741  1.00  0.00    +0.0833  H
BRANCH 37 43
ATOM     43 C26  EUB L   1       6.924   1.161  -0.205  1.00  0.00    +0.1191  C
ATOM     44 N27  EUB L   1       7.999   1.596  -0.291  1.00  0.00    -0.1893 NA
ENDBRANCH 37 43
ENDBRANCH 8 34
TORSDOF 5
