ROOT
ATOM      1 C11  WH0 L   1      -2.231  -0.685   1.440  1.00  0.00    -0.0277  C
ATOM      2 C12  WH0 L   1      -2.285  -1.884   2.408  1.00  0.00    -0.0464  C
ATOM      3 C13  WH0 L   1      -1.535  -3.024   1.708  1.00  0.00    -0.0193  C
ATOM      4 C14  WH0 L   1      -0.919  -2.416   0.423  1.00  0.00    +0.0933  C
ATOM      5 O15  WH0 L   1      -0.822  -3.426  -0.578  1.00  0.00    -0.3837 OA
ATOM      6 C16  WH0 L   1       0.499  -1.851   0.574  1.00  0.00    -0.0310  C
ATOM      7 C17  WH0 L   1       1.404  -2.365   1.425  1.00  0.00    -0.0167  C
ATOM      8 C18  WH0 L   1       2.770  -1.820   1.563  1.00  0.00    +0.1598  C
ATOM      9 O19  WH0 L   1       3.450  -2.209   2.513  1.00  0.00    -0.2924 OA
ATOM     10 C20  WH0 L   1       3.288  -0.799   0.563  1.00  0.00    +0.0300  C
ATOM     11 C21  WH0 L   1       3.512   0.539   1.282  1.00  0.00    -0.0138  C
ATOM     12 C22  WH0 L   1       4.245   1.568   0.405  1.00  0.00    +0.0852  C
ATOM     13 C31  WH0 L   1       4.092   1.285  -1.113  1.00  0.00    +0.0819  C
ATOM     14 O32  WH0 L   1       5.091   0.383  -1.593  1.00  0.00    -0.3892 OA
ATOM     15 C33  WH0 L   1       2.701   0.722  -1.418  1.00  0.00    -0.0178  C
ATOM     16 C34  WH0 L   1       2.392  -0.640  -0.705  1.00  0.00    -0.0132  C
ATOM     17 C35  WH0 L   1       2.714  -1.802  -1.682  1.00  0.00    -0.0583  C
ATOM     18 C36  WH0 L   1       0.872  -0.664  -0.302  1.00  0.00    -0.0107  C
ATOM     19 C37  WH0 L   1      -0.086  -0.551  -1.499  1.00  0.00    -0.0453  C
ATOM     20 C38  WH0 L   1      -1.517  -0.314  -1.021  1.00  0.00    -0.0439  C
ATOM     21 C39  WH0 L   1      -2.005  -1.338   0.033  1.00  0.00    +0.0038  C
ATOM     22 C40  WH0 L   1      -3.246  -2.055  -0.554  1.00  0.00    -0.0564  C
ATOM     23 H58  WH0 L   1      -1.269  -0.201   1.673  1.00  0.00    +0.0310  H
ATOM     24 H59  WH0 L   1      -1.798  -1.636   3.358  1.00  0.00    +0.0269  H
ATOM     25 H60  WH0 L   1      -3.306  -2.200   2.638  1.00  0.00    +0.0269  H
ATOM     26 H61  WH0 L   1      -2.238  -3.828   1.451  1.00  0.00    +0.0296  H
ATOM     27 H62  WH0 L   1      -0.820  -3.495   2.386  1.00  0.00    +0.0296  H
ATOM     28 H63  WH0 L   1      -0.200  -4.098  -0.252  1.00  0.00    +0.2106 HD
ATOM     29 H64  WH0 L   1       1.210  -3.210   2.074  1.00  0.00    +0.0653  H
ATOM     30 H65  WH0 L   1       4.271  -1.188   0.258  1.00  0.00    +0.0387  H
ATOM     31 H66  WH0 L   1       2.536   0.949   1.574  1.00  0.00    +0.0298  H
ATOM     32 H67  WH0 L   1       4.062   0.383   2.219  1.00  0.00    +0.0298  H
ATOM     33 H68  WH0 L   1       3.804   2.547   0.636  1.00  0.00    +0.0622  H
ATOM     34 H76  WH0 L   1       4.232   2.223  -1.661  1.00  0.00    +0.0619  H
ATOM     35 H77  WH0 L   1       4.978   0.298  -2.555  1.00  0.00    +0.2099 HD
ATOM     36 H78  WH0 L   1       1.970   1.483  -1.113  1.00  0.00    +0.0297  H
ATOM     37 H79  WH0 L   1       2.589   0.604  -2.503  1.00  0.00    +0.0297  H
ATOM     38 H80  WH0 L   1       2.459  -2.778  -1.259  1.00  0.00    +0.0235  H
ATOM     39 H81  WH0 L   1       2.170  -1.698  -2.627  1.00  0.00    +0.0235  H
ATOM     40 H82  WH0 L   1       3.780  -1.830  -1.934  1.00  0.00    +0.0235  H
ATOM     41 H83  WH0 L   1       0.693   0.226   0.320  1.00  0.00    +0.0352  H
ATOM     42 H84  WH0 L   1       0.192   0.285  -2.150  1.00  0.00    +0.0271  H
ATOM     43 H85  WH0 L   1      -0.055  -1.452  -2.122  1.00  0.00    +0.0271  H
ATOM     44 H86  WH0 L   1      -1.583   0.704  -0.620  1.00  0.00    +0.0272  H
ATOM     45 H87  WH0 L   1      -2.170  -0.313  -1.902  1.00  0.00    +0.0272  H
ATOM     46 H88  WH0 L   1      -3.716  -2.745   0.151  1.00  0.00    +0.0236  H
ATOM     47 H89  WH0 L   1      -4.010  -1.354  -0.884  1.00  0.00    +0.0236  H
ATOM     48 H90  WH0 L   1      -2.979  -2.635  -1.444  1.00  0.00    +0.0236  H
ENDROOT
BRANCH 1 50
ATOM     49  C1  WH0 L   1      -3.084   0.932   3.178  1.00  0.00    -0.0598  C
ATOM     50  C2  WH0 L   1      -3.234   0.481   1.705  1.00  0.00    -0.0144  C
ATOM     51 H41  WH0 L   1      -3.495   0.189   3.870  1.00  0.00    +0.0233  H
ATOM     52 H42  WH0 L   1      -2.033   1.101   3.436  1.00  0.00    +0.0233  H
ATOM     53 H43  WH0 L   1      -3.612   1.878   3.347  1.00  0.00    +0.0233  H
ATOM     54 H44  WH0 L   1      -2.876   1.340   1.121  1.00  0.00    +0.0326  H
BRANCH 50 55
ATOM     55  C3  WH0 L   1      -4.750   0.321   1.412  1.00  0.00    +0.0582  C
ATOM     56  O4  WH0 L   1      -5.139  -1.039   1.482  1.00  0.00    -0.3915 OA
ATOM     57 H45  WH0 L   1      -5.321   0.827   2.201  1.00  0.00    +0.0596  H
ATOM     58 H46  WH0 L   1      -5.680  -1.271   0.711  1.00  0.00    +0.2098 HD
BRANCH 55 59
ATOM     59  C5  WH0 L   1      -5.157   1.018   0.095  1.00  0.00    -0.0240  C
ATOM     60 H47  WH0 L   1      -4.650   0.555  -0.751  1.00  0.00    +0.0291  H
ATOM     61 H48  WH0 L   1      -4.812   2.058   0.138  1.00  0.00    +0.0291  H
BRANCH 59 62
ATOM     62  C6  WH0 L   1      -6.673   1.012  -0.147  1.00  0.00    -0.0222  C
ATOM     63 H49  WH0 L   1      -7.055  -0.016  -0.134  1.00  0.00    +0.0293  H
ATOM     64 H50  WH0 L   1      -7.173   1.507   0.697  1.00  0.00    +0.0293  H
BRANCH 62 65
ATOM     65  C7  WH0 L   1      -7.134   1.682  -1.460  1.00  0.00    +0.0606  C
ATOM     66  C8  WH0 L   1      -6.621   0.945  -2.700  1.00  0.00    -0.0363  C
ATOM     67  C9  WH0 L   1      -6.751   3.160  -1.527  1.00  0.00    -0.0363  C
ATOM     68 O10  WH0 L   1      -8.566   1.629  -1.486  1.00  0.00    -0.3891 OA
ATOM     69 H51  WH0 L   1      -5.535   1.016  -2.805  1.00  0.00    +0.0257  H
ATOM     70 H52  WH0 L   1      -6.897  -0.116  -2.666  1.00  0.00    +0.0257  H
ATOM     71 H53  WH0 L   1      -7.077   1.354  -3.609  1.00  0.00    +0.0257  H
ATOM     72 H54  WH0 L   1      -5.669   3.305  -1.604  1.00  0.00    +0.0257  H
ATOM     73 H55  WH0 L   1      -7.217   3.642  -2.394  1.00  0.00    +0.0257  H
ATOM     74 H56  WH0 L   1      -7.113   3.696  -0.642  1.00  0.00    +0.0257  H
ATOM     75 H57  WH0 L   1      -8.836   0.695  -1.488  1.00  0.00    +0.2101 HD
ENDBRANCH 62 65
ENDBRANCH 59 62
ENDBRANCH 55 59
ENDBRANCH 50 55
ENDBRANCH 1 50
BRANCH 12 76
ATOM     76 O23  WH0 L   1       5.612   1.587   0.823  1.00  0.00    -0.3723 OA
BRANCH 76 77
ATOM     77 C24  WH0 L   1       6.359   2.718   0.381  1.00  0.00    +0.0655  C
ATOM     78 H69  WH0 L   1       6.053   3.593   0.962  1.00  0.00    +0.0577  H
ATOM     79 H70  WH0 L   1       6.173   2.916  -0.680  1.00  0.00    +0.0577  H
BRANCH 77 80
ATOM     80 C25  WH0 L   1       7.855   2.449   0.586  1.00  0.00    +0.0415  C
ATOM     81 H71  WH0 L   1       8.437   3.322   0.277  1.00  0.00    +0.0509  H
ATOM     82 H72  WH0 L   1       8.062   2.239   1.640  1.00  0.00    +0.0509  H
BRANCH 80 83
ATOM     83 N26  WH0 L   1       8.299   1.328  -0.228  1.00  0.00    -0.3528  N
ATOM     84 C27  WH0 L   1       8.296   0.042   0.273  1.00  0.00    +0.2357  C
ATOM     85 O28  WH0 L   1       8.272  -0.209   1.479  1.00  0.00    -0.2720 OA
ATOM     86 H73  WH0 L   1       8.189   1.405  -1.233  1.00  0.00    +0.1624 HD
BRANCH 84 87
ATOM     87 C29  WH0 L   1       8.320  -1.084  -0.747  1.00  0.00    +0.1010  C
ATOM     88 CL30 WH0 L   1       8.509  -0.513  -2.425  1.00  0.00    -0.1154 Cl
ATOM     89 H74  WH0 L   1       7.379  -1.637  -0.686  1.00  0.00    +0.0527  H
ATOM     90 H75  WH0 L   1       9.159  -1.749  -0.525  1.00  0.00    +0.0527  H
ENDBRANCH 84 87
ENDBRANCH 80 83
ENDBRANCH 77 80
ENDBRANCH 76 77
ENDBRANCH 12 76
TORSDOF 10
