ROOT
ATOM      1 N12  CHE L   1       0.150  -0.006   0.461  1.00  0.00    -0.2979 NA
ATOM      2 C13  CHE L   1       0.786  -0.679  -0.700  1.00  0.00    +0.0313  C
ATOM      3 C14  CHE L   1       1.106   0.336  -1.787  1.00  0.00    -0.0141  C
ATOM      4 C15  CHE L   1       1.973   1.485  -1.274  1.00  0.00    +0.0335  C
ATOM      5 C27  CHE L   1       1.359   2.105  -0.014  1.00  0.00    -0.0116  C
ATOM      6 C28  CHE L   1       0.972   1.088   1.070  1.00  0.00    +0.0394  C
ATOM      7 C29  CHE L   1       2.171   0.558   1.857  1.00  0.00    -0.0438  C
ATOM      8 H46  CHE L   1       1.690  -1.211  -0.388  1.00  0.00    +0.0496  H
ATOM      9 H47  CHE L   1       0.100  -1.420  -1.124  1.00  0.00    +0.0496  H
ATOM     10 H48  CHE L   1       0.164   0.751  -2.169  1.00  0.00    +0.0302  H
ATOM     11 H49  CHE L   1       1.597  -0.168  -2.628  1.00  0.00    +0.0302  H
ATOM     12 H50  CHE L   1       1.990   2.260  -2.052  1.00  0.00    +0.0524  H
ATOM     13 H58  CHE L   1       0.442   2.629  -0.319  1.00  0.00    +0.0305  H
ATOM     14 H59  CHE L   1       2.021   2.870   0.410  1.00  0.00    +0.0305  H
ATOM     15 H60  CHE L   1       0.334   1.638   1.773  1.00  0.00    +0.0529  H
ATOM     16 H61  CHE L   1       2.801   1.384   2.204  1.00  0.00    +0.0250  H
ATOM     17 H62  CHE L   1       1.843   0.008   2.745  1.00  0.00    +0.0250  H
ATOM     18 H63  CHE L   1       2.797  -0.123   1.275  1.00  0.00    +0.0250  H
ENDROOT
BRANCH 1 19
ATOM     19  S9  CHE L   1      -0.633  -1.043   1.565  1.00  0.00    +0.2327  S
ATOM     20 O10  CHE L   1      -1.042  -0.263   2.713  1.00  0.00    -0.2053 OA
ATOM     21 O11  CHE L   1       0.218  -2.204   1.727  1.00  0.00    -0.2053 OA
BRANCH 19 22
ATOM     22  C8  CHE L   1      -2.108  -1.546   0.674  1.00  0.00    +0.0716  C
ATOM     23 H44  CHE L   1      -2.735  -2.069   1.403  1.00  0.00    +0.0446  H
ATOM     24 H45  CHE L   1      -1.771  -2.294  -0.054  1.00  0.00    +0.0446  H
BRANCH 22 28
ATOM     25  N4  CHE L   1      -5.802  -0.578   0.587  1.00  0.00    -0.2999 NA
ATOM     26  C5  CHE L   1      -4.824  -0.053   1.558  1.00  0.00    -0.0006  C
ATOM     27  C6  CHE L   1      -3.585   0.562   0.899  1.00  0.00    -0.0364  C
ATOM     28  C7  CHE L   1      -2.874  -0.420  -0.047  1.00  0.00    -0.0234  C
ATOM     29 C30  CHE L   1      -3.915  -1.025  -1.010  1.00  0.00    -0.0364  C
ATOM     30 C31  CHE L   1      -5.141  -1.574  -0.272  1.00  0.00    -0.0006  C
ATOM     31 H39  CHE L   1      -4.516  -0.875   2.216  1.00  0.00    +0.0427  H
ATOM     32 H40  CHE L   1      -5.280   0.671   2.241  1.00  0.00    +0.0427  H
ATOM     33 H41  CHE L   1      -3.884   1.449   0.326  1.00  0.00    +0.0281  H
ATOM     34 H42  CHE L   1      -2.906   0.934   1.670  1.00  0.00    +0.0281  H
ATOM     35 H43  CHE L   1      -2.163   0.152  -0.654  1.00  0.00    +0.0312  H
ATOM     36 H64  CHE L   1      -4.230  -0.257  -1.726  1.00  0.00    +0.0281  H
ATOM     37 H65  CHE L   1      -3.460  -1.825  -1.607  1.00  0.00    +0.0281  H
ATOM     38 H66  CHE L   1      -4.835  -2.420   0.357  1.00  0.00    +0.0427  H
ATOM     39 H67  CHE L   1      -5.838  -2.020  -0.988  1.00  0.00    +0.0427  H
BRANCH 25 41
ATOM     40  C1  CHE L   1      -7.603  -0.130  -1.100  1.00  0.00    -0.0497  C
ATOM     41  C2  CHE L   1      -6.548   0.471  -0.155  1.00  0.00    +0.0048  C
ATOM     42  C3  CHE L   1      -7.283   1.436   0.793  1.00  0.00    -0.0497  C
ATOM     43 H32  CHE L   1      -7.143  -0.649  -1.947  1.00  0.00    +0.0245  H
ATOM     44 H33  CHE L   1      -8.237   0.655  -1.530  1.00  0.00    +0.0245  H
ATOM     45 H34  CHE L   1      -8.257  -0.833  -0.572  1.00  0.00    +0.0245  H
ATOM     46 H35  CHE L   1      -5.864   1.069  -0.768  1.00  0.00    +0.0457  H
ATOM     47 H36  CHE L   1      -6.588   2.073   1.346  1.00  0.00    +0.0245  H
ATOM     48 H37  CHE L   1      -7.906   0.893   1.512  1.00  0.00    +0.0245  H
ATOM     49 H38  CHE L   1      -7.938   2.112   0.231  1.00  0.00    +0.0245  H
ENDBRANCH 25 41
ENDBRANCH 22 28
ENDBRANCH 19 22
ENDBRANCH 1 19
BRANCH 4 50
ATOM     50 N16  CHE L   1       3.360   1.074  -1.080  1.00  0.00    -0.3478  N
ATOM     51 C17  CHE L   1       4.397   1.998  -1.076  1.00  0.00    +0.2739  C
ATOM     52 O18  CHE L   1       4.198   3.185  -1.321  1.00  0.00    -0.2658 OA
ATOM     53 H51  CHE L   1       3.559   0.114  -0.845  1.00  0.00    +0.1629 HD
BRANCH 51 54
ATOM     54 C19  CHE L   1       5.724   1.452  -0.754  1.00  0.00    +0.1701  A
ATOM     55 C20  CHE L   1       6.080   0.161  -0.272  1.00  0.00    +0.0132  A
ATOM     56 C21  CHE L   1       7.446   0.195  -0.137  1.00  0.00    +0.1411  A
ATOM     57 O25  CHE L   1       7.892   1.421  -0.511  1.00  0.00    -0.3586 OA
ATOM     58 N26  CHE L   1       6.826   2.209  -0.892  1.00  0.00    -0.0732 NA
ATOM     59 H52  CHE L   1       5.438  -0.674  -0.040  1.00  0.00    +0.0676  H
BRANCH 56 60
ATOM     60 C22  CHE L   1       8.383  -0.937   0.363  1.00  0.00    +0.0199  C
ATOM     61 C23  CHE L   1       8.006  -1.733   1.585  1.00  0.00    -0.0426  C
ATOM     62 C24  CHE L   1       7.989  -2.384   0.231  1.00  0.00    -0.0426  C
ATOM     63 H53  CHE L   1       9.438  -0.707   0.239  1.00  0.00    +0.0380  H
ATOM     64 H54  CHE L   1       7.058  -1.535   2.070  1.00  0.00    +0.0272  H
ATOM     65 H55  CHE L   1       8.799  -2.006   2.272  1.00  0.00    +0.0272  H
ATOM     66 H56  CHE L   1       7.030  -2.639  -0.203  1.00  0.00    +0.0272  H
ATOM     67 H57  CHE L   1       8.773  -3.099   0.005  1.00  0.00    +0.0272  H
ENDBRANCH 56 60
ENDBRANCH 51 54
ENDBRANCH 4 50
TORSDOF 7
