ROOT
ATOM      1  C6  664 L   1      -1.575   0.356  -0.507  1.00  0.00    +0.0137  C
ATOM      2  C7  664 L   1      -1.183   1.057   0.811  1.00  0.00    -0.0195  C
ATOM      3  C8  664 L   1      -0.004   0.398   1.529  1.00  0.00    +0.0219  C
ATOM      4  N9  664 L   1       1.040   0.039   0.580  1.00  0.00    -0.3490  N
ATOM      5 C18  664 L   1       0.659  -0.786  -0.572  1.00  0.00    +0.0219  C
ATOM      6 C19  664 L   1      -0.852  -0.986  -0.663  1.00  0.00    -0.0195  C
ATOM      7 H27  664 L   1      -1.194   0.990  -1.321  1.00  0.00    +0.0464  H
ATOM      8 H28  664 L   1      -2.018   1.116   1.517  1.00  0.00    +0.0297  H
ATOM      9 H29  664 L   1      -0.926   2.098   0.578  1.00  0.00    +0.0297  H
ATOM     10 H30  664 L   1      -0.340  -0.498   2.064  1.00  0.00    +0.0489  H
ATOM     11 H31  664 L   1       0.344   1.107   2.288  1.00  0.00    +0.0489  H
ATOM     12 H37  664 L   1       1.016  -0.301  -1.489  1.00  0.00    +0.0489  H
ATOM     13 H38  664 L   1       1.130  -1.775  -0.516  1.00  0.00    +0.0489  H
ATOM     14 H39  664 L   1      -1.095  -1.447  -1.629  1.00  0.00    +0.0297  H
ATOM     15 H40  664 L   1      -1.172  -1.692   0.115  1.00  0.00    +0.0297  H
ENDROOT
BRANCH 1 20
ATOM     16  O1  664 L   1      -5.753   1.850   0.479  1.00  0.00    -0.3905 OA
ATOM     17  C2  664 L   1      -5.220   1.117  -0.625  1.00  0.00    +0.0691  C
ATOM     18  C3  664 L   1      -5.206  -0.364  -0.269  1.00  0.00    -0.0128  C
ATOM     19  C4  664 L   1      -3.774  -0.612   0.180  1.00  0.00    +0.0016  C
ATOM     20  N5  664 L   1      -3.016   0.215  -0.757  1.00  0.00    -0.2968 NA
ATOM     21 C20  664 L   1      -3.747   1.482  -0.867  1.00  0.00    +0.0253  C
ATOM     22 H21  664 L   1      -5.777   2.786   0.217  1.00  0.00    +0.2098 HD
ATOM     23 H22  664 L   1      -5.850   1.304  -1.501  1.00  0.00    +0.0606  H
ATOM     24 H23  664 L   1      -5.926  -0.631   0.511  1.00  0.00    +0.0303  H
ATOM     25 H24  664 L   1      -5.419  -0.964  -1.163  1.00  0.00    +0.0303  H
ATOM     26 H25  664 L   1      -3.651  -0.296   1.220  1.00  0.00    +0.0427  H
ATOM     27 H26  664 L   1      -3.524  -1.674   0.103  1.00  0.00    +0.0427  H
ATOM     28 H41  664 L   1      -3.415   2.231  -0.139  1.00  0.00    +0.0452  H
ATOM     29 H42  664 L   1      -3.614   1.898  -1.872  1.00  0.00    +0.0452  H
ENDBRANCH 1 20
BRANCH 4 30
ATOM     30 C10  664 L   1       2.365   0.023   0.922  1.00  0.00    +0.1890  A
ATOM     31 N11  664 L   1       3.318  -0.450   0.143  1.00  0.00    -0.2063 NA
ATOM     32 C12  664 L   1       4.543  -0.326   0.775  1.00  0.00    +0.1435  A
ATOM     33 N16  664 L   1       4.611   0.203   1.995  1.00  0.00    -0.1919 NA
ATOM     34 S17  664 L   1       3.052   0.614   2.407  1.00  0.00    +0.0514  S
BRANCH 32 35
ATOM     35 C13  664 L   1       5.834  -0.827   0.055  1.00  0.00    +0.0197  C
ATOM     36 C14  664 L   1       7.016   0.098  -0.090  1.00  0.00    -0.0426  C
ATOM     37 C15  664 L   1       6.187  -0.249  -1.293  1.00  0.00    -0.0426  C
ATOM     38 H32  664 L   1       6.039  -1.880   0.214  1.00  0.00    +0.0380  H
ATOM     39 H33  664 L   1       8.005  -0.337  -0.006  1.00  0.00    +0.0272  H
ATOM     40 H34  664 L   1       6.937   1.102   0.313  1.00  0.00    +0.0272  H
ATOM     41 H35  664 L   1       6.610  -0.918  -2.032  1.00  0.00    +0.0272  H
ATOM     42 H36  664 L   1       5.545   0.524  -1.706  1.00  0.00    +0.0272  H
ENDBRANCH 32 35
ENDBRANCH 4 30
TORSDOF 3
