ROOT
ATOM      1 C27  WH0 L   1      -2.727   2.605   0.597  1.00  0.00    -0.0133  A
ATOM      2 C28  WH0 L   1      -3.704   3.262  -0.186  1.00  0.00    -0.0519  A
ATOM      3 C29  WH0 L   1      -4.049   4.596   0.057  1.00  0.00    -0.0374  A
ATOM      4 C30  WH0 L   1      -3.393   5.239   1.082  1.00  0.00    +0.0454  A
ATOM      5 C31  WH0 L   1      -2.424   4.613   1.862  1.00  0.00    -0.0145  A
ATOM      6 C32  WH0 L   1      -2.080   3.292   1.636  1.00  0.00    -0.0483  A
ATOM      7 C33  WH0 L   1      -1.899   5.582   2.879  1.00  0.00    +0.0535  C
ATOM      8 C34  WH0 L   1      -2.714   6.844   2.569  1.00  0.00    +0.2296  C
ATOM      9 O35  WH0 L   1      -2.643   7.917   3.144  1.00  0.00    -0.2725 OA
ATOM     10 N36  WH0 L   1      -3.557   6.547   1.504  1.00  0.00    -0.3256  N
ATOM     11 H62  WH0 L   1      -4.196   2.732  -1.000  1.00  0.00    +0.0624  H
ATOM     12 H63  WH0 L   1      -4.799   5.095  -0.545  1.00  0.00    +0.0638  H
ATOM     13 H64  WH0 L   1      -1.327   2.809   2.252  1.00  0.00    +0.0627  H
ATOM     14 H65  WH0 L   1      -0.837   5.784   2.723  1.00  0.00    +0.0410  H
ATOM     15 H66  WH0 L   1      -2.109   5.246   3.897  1.00  0.00    +0.0410  H
ATOM     16 H67  WH0 L   1      -4.197   7.222   1.114  1.00  0.00    +0.1686 HD
ENDROOT
BRANCH 1 25
ATOM     17 C12  WH0 L   1      -1.094   0.618   0.086  1.00  0.00    +0.1015  A
ATOM     18 N13  WH0 L   1      -1.204  -0.710  -0.077  1.00  0.00    -0.1627 NA
ATOM     19 N14  WH0 L   1      -2.535  -0.957  -0.012  1.00  0.00    -0.1987  N
ATOM     20 C15  WH0 L   1      -3.118  -2.256  -0.172  1.00  0.00    +0.2283  A
ATOM     21 N22  WH0 L   1      -4.418  -2.377  -0.001  1.00  0.00    -0.2207 NA
ATOM     22 C23  WH0 L   1      -5.148  -1.252   0.308  1.00  0.00    +0.0334  A
ATOM     23 C24  WH0 L   1      -4.654  -0.012   0.448  1.00  0.00    -0.0173  A
ATOM     24 C25  WH0 L   1      -3.266   0.178   0.270  1.00  0.00    +0.0803  A
ATOM     25 C26  WH0 L   1      -2.370   1.225   0.312  1.00  0.00    +0.0353  A
ATOM     26 H60  WH0 L   1      -6.214  -1.419   0.446  1.00  0.00    +0.0831  H
ATOM     27 H61  WH0 L   1      -5.304   0.818   0.704  1.00  0.00    +0.0654  H
BRANCH 17 30
ATOM     28  C9  WH0 L   1       2.571   1.289   0.682  1.00  0.00    -0.0115  A
ATOM     29 C10  WH0 L   1       1.301   0.696   0.725  1.00  0.00    -0.0466  A
ATOM     30 C11  WH0 L   1       0.221   1.254   0.022  1.00  0.00    +0.0032  A
ATOM     31 C37  WH0 L   1       0.422   2.410  -0.743  1.00  0.00    -0.0498  A
ATOM     32 C38  WH0 L   1       1.682   3.006  -0.795  1.00  0.00    -0.0256  A
ATOM     33 C39  WH0 L   1       2.740   2.446  -0.085  1.00  0.00    +0.1266  A
ATOM     34 F40  WH0 L   1       3.943   3.031  -0.151  1.00  0.00    -0.2052  F
ATOM     35 H51  WH0 L   1       1.143  -0.213   1.306  1.00  0.00    +0.0628  H
ATOM     36 H68  WH0 L   1      -0.394   2.849  -1.314  1.00  0.00    +0.0625  H
ATOM     37 H69  WH0 L   1       1.846   3.900  -1.388  1.00  0.00    +0.0646  H
BRANCH 28 38
ATOM     38  C8  WH0 L   1       3.729   0.686   1.431  1.00  0.00    -0.0234  C
ATOM     39 H49  WH0 L   1       4.227   1.484   1.998  1.00  0.00    +0.0315  H
ATOM     40 H50  WH0 L   1       3.362  -0.024   2.182  1.00  0.00    +0.0315  H
BRANCH 38 41
ATOM     41  C7  WH0 L   1       4.756   0.001   0.525  1.00  0.00    -0.0314  C
ATOM     42 H47  WH0 L   1       5.139   0.706  -0.223  1.00  0.00    +0.0285  H
ATOM     43 H48  WH0 L   1       5.619  -0.292   1.138  1.00  0.00    +0.0285  H
BRANCH 41 44
ATOM     44  C6  WH0 L   1       4.202  -1.240  -0.170  1.00  0.00    +0.0187  C
ATOM     45 H45  WH0 L   1       3.820  -1.956   0.566  1.00  0.00    +0.0486  H
ATOM     46 H46  WH0 L   1       3.380  -0.986  -0.848  1.00  0.00    +0.0486  H
BRANCH 44 49
ATOM     47  C3  WH0 L   1       5.090  -3.190  -1.368  1.00  0.00    +0.2443  C
ATOM     48  O4  WH0 L   1       4.170  -3.928  -1.037  1.00  0.00    -0.2683 OA
ATOM     49  N5  WH0 L   1       5.226  -1.883  -0.968  1.00  0.00    -0.3525  N
ATOM     50 H44  WH0 L   1       5.826  -1.291  -1.523  1.00  0.00    +0.1626 HD
BRANCH 47 52
ATOM     51  C1  WH0 L   1       7.377  -3.196  -2.396  1.00  0.00    -0.0936  C
ATOM     52  C2  WH0 L   1       6.125  -3.671  -2.321  1.00  0.00    -0.0047  C
ATOM     53 H41  WH0 L   1       7.743  -2.401  -1.753  1.00  0.00    +0.0536  H
ATOM     54 H42  WH0 L   1       8.087  -3.632  -3.095  1.00  0.00    +0.0536  H
ATOM     55 H43  WH0 L   1       5.815  -4.514  -2.933  1.00  0.00    +0.0666  H
ENDBRANCH 47 52
ENDBRANCH 44 49
ENDBRANCH 41 44
ENDBRANCH 38 41
ENDBRANCH 28 38
ENDBRANCH 17 30
BRANCH 20 56
ATOM     56 N16  WH0 L   1      -2.353  -3.381  -0.487  1.00  0.00    -0.3359  N
ATOM     57 C17  WH0 L   1      -1.034  -3.336  -1.140  1.00  0.00    +0.0449  C
ATOM     58 C18  WH0 L   1      -0.815  -4.576  -2.025  1.00  0.00    +0.0653  C
ATOM     59 O19  WH0 L   1      -0.916  -5.820  -1.321  1.00  0.00    -0.3763 OA
ATOM     60 C20  WH0 L   1      -1.845  -5.779  -0.229  1.00  0.00    +0.0653  C
ATOM     61 C21  WH0 L   1      -2.946  -4.724  -0.391  1.00  0.00    +0.0449  C
ATOM     62 H52  WH0 L   1      -0.260  -3.297  -0.366  1.00  0.00    +0.0511  H
ATOM     63 H53  WH0 L   1      -0.948  -2.461  -1.792  1.00  0.00    +0.0511  H
ATOM     64 H54  WH0 L   1       0.178  -4.538  -2.487  1.00  0.00    +0.0577  H
ATOM     65 H55  WH0 L   1      -1.548  -4.595  -2.842  1.00  0.00    +0.0577  H
ATOM     66 H56  WH0 L   1      -1.269  -5.592   0.686  1.00  0.00    +0.0577  H
ATOM     67 H57  WH0 L   1      -2.288  -6.775  -0.139  1.00  0.00    +0.0577  H
ATOM     68 H58  WH0 L   1      -3.526  -4.921  -1.299  1.00  0.00    +0.0511  H
ATOM     69 H59  WH0 L   1      -3.617  -4.790   0.473  1.00  0.00    +0.0511  H
ENDBRANCH 20 56
ENDBRANCH 1 25
TORSDOF 8
