ROOT
ATOM      1 C15  529 L   1      -1.007   0.944  -0.200  1.00  0.00    +0.0577  C
ATOM      2 C16  529 L   1      -1.867   1.985   0.532  1.00  0.00    -0.0069  C
ATOM      3 C17  529 L   1      -3.284   2.072  -0.018  1.00  0.00    +0.0496  C
ATOM      4 O18  529 L   1      -3.256   2.249  -1.433  1.00  0.00    -0.3796 OA
ATOM      5 C19  529 L   1      -2.690   1.117  -2.090  1.00  0.00    +0.0496  C
ATOM      6 C20  529 L   1      -1.221   0.981  -1.718  1.00  0.00    -0.0069  C
ATOM      7 H32  529 L   1       0.036   1.213  -0.001  1.00  0.00    +0.0546  H
ATOM      8 H33  529 L   1      -1.888   1.801   1.613  1.00  0.00    +0.0308  H
ATOM      9 H34  529 L   1      -1.393   2.964   0.382  1.00  0.00    +0.0308  H
ATOM     10 H35  529 L   1      -3.788   2.944   0.412  1.00  0.00    +0.0560  H
ATOM     11 H36  529 L   1      -3.891   1.198   0.236  1.00  0.00    +0.0560  H
ATOM     12 H37  529 L   1      -2.780   1.283  -3.168  1.00  0.00    +0.0560  H
ATOM     13 H38  529 L   1      -3.268   0.217  -1.853  1.00  0.00    +0.0560  H
ATOM     14 H39  529 L   1      -0.692   1.862  -2.105  1.00  0.00    +0.0308  H
ATOM     15 H40  529 L   1      -0.787   0.102  -2.209  1.00  0.00    +0.0308  H
ENDROOT
BRANCH 1 20
ATOM     16  C1  529 L   1      -3.399  -2.909   1.490  1.00  0.00    -0.0206  C
ATOM     17  C2  529 L   1      -2.233  -2.067   1.130  1.00  0.00    +0.0607  A
ATOM     18  C3  529 L   1      -0.873  -2.290   1.420  1.00  0.00    -0.0087  A
ATOM     19  C4  529 L   1      -0.189  -1.239   0.837  1.00  0.00    +0.1261  A
ATOM     20 N14  529 L   1      -1.168  -0.409   0.341  1.00  0.00    -0.2556  N
ATOM     21 N21  529 L   1      -2.404  -0.937   0.438  1.00  0.00    -0.1755 NA
ATOM     22 H22  529 L   1      -3.912  -3.259   0.589  1.00  0.00    +0.0293  H
ATOM     23 H23  529 L   1      -4.111  -2.339   2.096  1.00  0.00    +0.0293  H
ATOM     24 H24  529 L   1      -3.089  -3.786   2.067  1.00  0.00    +0.0293  H
ATOM     25 H25  529 L   1      -0.434  -3.120   1.957  1.00  0.00    +0.0659  H
BRANCH 19 26
ATOM     26  C5  529 L   1       1.234  -1.023   0.818  1.00  0.00    +0.2703  C
ATOM     27  O6  529 L   1       1.946  -1.136   1.811  1.00  0.00    -0.2659 OA
ATOM     28  N7  529 L   1       1.744  -0.727  -0.433  1.00  0.00    -0.3476  N
ATOM     29 H26  529 L   1       1.153  -0.903  -1.237  1.00  0.00    +0.1630 HD
BRANCH 28 30
ATOM     30  C8  529 L   1       3.150  -0.595  -0.656  1.00  0.00    +0.0385  C
ATOM     31  C9  529 L   1       3.682   0.430  -1.622  1.00  0.00    -0.0223  C
ATOM     32 C10  529 L   1       3.897   0.607  -0.140  1.00  0.00    +0.0417  C
ATOM     33 H27  529 L   1       3.668  -1.553  -0.631  1.00  0.00    +0.0527  H
ATOM     34 H28  529 L   1       4.536   0.157  -2.234  1.00  0.00    +0.0290  H
ATOM     35 H29  529 L   1       2.986   1.102  -2.111  1.00  0.00    +0.0290  H
ATOM     36 H30  529 L   1       3.334   1.384   0.363  1.00  0.00    +0.0376  H
BRANCH 32 37
ATOM     37 C11  529 L   1       5.230   0.431   0.494  1.00  0.00    +0.2440  C
ATOM     38 F12  529 L   1       5.968  -0.476  -0.197  1.00  0.00    -0.2089  F
ATOM     39 F13  529 L   1       5.904   1.608   0.427  1.00  0.00    -0.2089  F
ATOM     40 H31  529 L   1       5.159   0.117   1.539  1.00  0.00    +0.1021  H
ENDBRANCH 32 37
ENDBRANCH 28 30
ENDBRANCH 19 26
ENDBRANCH 1 20
TORSDOF 4
