ROOT
ATOM      1  C1  CHE L   1      -0.987   2.873   0.509  1.00  0.00    -0.0438  C
ATOM      2  C2  CHE L   1      -0.471   1.789  -0.438  1.00  0.00    +0.0394  C
ATOM      3  C3  CHE L   1       1.055   1.706  -0.325  1.00  0.00    -0.0116  C
ATOM      4  C4  CHE L   1       1.617   0.585  -1.207  1.00  0.00    +0.0335  C
ATOM      5 C16  CHE L   1       0.809  -0.714  -1.082  1.00  0.00    -0.0141  C
ATOM      6 C17  CHE L   1      -0.182  -0.665   0.074  1.00  0.00    +0.0313  C
ATOM      7 N18  CHE L   1      -1.105   0.483  -0.081  1.00  0.00    -0.2979 NA
ATOM      8 H29  CHE L   1      -0.557   3.846   0.250  1.00  0.00    +0.0250  H
ATOM      9 H30  CHE L   1      -2.075   2.971   0.466  1.00  0.00    +0.0250  H
ATOM     10 H31  CHE L   1      -0.723   2.650   1.549  1.00  0.00    +0.0250  H
ATOM     11 H32  CHE L   1      -0.723   2.049  -1.474  1.00  0.00    +0.0529  H
ATOM     12 H33  CHE L   1       1.352   1.541   0.720  1.00  0.00    +0.0305  H
ATOM     13 H34  CHE L   1       1.500   2.666  -0.612  1.00  0.00    +0.0305  H
ATOM     14 H35  CHE L   1       1.570   0.912  -2.254  1.00  0.00    +0.0524  H
ATOM     15 H43  CHE L   1       1.465  -1.585  -0.967  1.00  0.00    +0.0302  H
ATOM     16 H44  CHE L   1       0.258  -0.871  -2.017  1.00  0.00    +0.0302  H
ATOM     17 H45  CHE L   1      -0.735  -1.608   0.134  1.00  0.00    +0.0496  H
ATOM     18 H46  CHE L   1       0.340  -0.571   1.034  1.00  0.00    +0.0496  H
ENDROOT
BRANCH 4 19
ATOM     19  N5  CHE L   1       3.030   0.352  -0.907  1.00  0.00    -0.3478  N
ATOM     20  C6  CHE L   1       4.006   1.257  -1.308  1.00  0.00    +0.2739  C
ATOM     21  O7  CHE L   1       3.740   2.232  -2.003  1.00  0.00    -0.2658 OA
ATOM     22 H36  CHE L   1       3.260  -0.276  -0.149  1.00  0.00    +0.1629 HD
BRANCH 20 23
ATOM     23  C8  CHE L   1       5.355   0.966  -0.807  1.00  0.00    +0.1701  A
ATOM     24  C9  CHE L   1       5.901  -0.277  -0.385  1.00  0.00    +0.0132  A
ATOM     25 C10  CHE L   1       7.187   0.014  -0.009  1.00  0.00    +0.1411  A
ATOM     26 O14  CHE L   1       7.414   1.340  -0.194  1.00  0.00    -0.3586 OA
ATOM     27 N15  CHE L   1       6.277   1.938  -0.698  1.00  0.00    -0.0732 NA
ATOM     28 H37  CHE L   1       5.431  -1.247  -0.380  1.00  0.00    +0.0676  H
BRANCH 25 29
ATOM     29 C11  CHE L   1       8.255  -0.980   0.511  1.00  0.00    +0.0199  C
ATOM     30 C12  CHE L   1       7.870  -2.121   1.411  1.00  0.00    -0.0426  C
ATOM     31 C13  CHE L   1       8.609  -0.944   1.974  1.00  0.00    -0.0426  C
ATOM     32 H38  CHE L   1       9.074  -1.150  -0.185  1.00  0.00    +0.0380  H
ATOM     33 H39  CHE L   1       8.411  -3.054   1.304  1.00  0.00    +0.0272  H
ATOM     34 H40  CHE L   1       6.833  -2.243   1.701  1.00  0.00    +0.0272  H
ATOM     35 H41  CHE L   1       9.653  -1.074   2.243  1.00  0.00    +0.0272  H
ATOM     36 H42  CHE L   1       8.069  -0.260   2.622  1.00  0.00    +0.0272  H
ENDBRANCH 25 29
ENDBRANCH 20 23
ENDBRANCH 4 19
BRANCH 7 37
ATOM     37 S19  CHE L   1      -2.637   0.153  -0.771  1.00  0.00    +0.2327  S
ATOM     38 O20  CHE L   1      -3.231   1.404  -1.180  1.00  0.00    -0.2053 OA
ATOM     39 O21  CHE L   1      -2.462  -0.941  -1.701  1.00  0.00    -0.2053 OA
BRANCH 37 40
ATOM     40 C22  CHE L   1      -3.501  -0.448   0.678  1.00  0.00    +0.0727  C
ATOM     41 H47  CHE L   1      -3.367   0.300   1.468  1.00  0.00    +0.0447  H
ATOM     42 H48  CHE L   1      -2.986  -1.366   0.984  1.00  0.00    +0.0447  H
BRANCH 40 43
ATOM     43 C23  CHE L   1      -4.994  -0.747   0.491  1.00  0.00    -0.0131  C
ATOM     44 C24  CHE L   1      -5.870   0.519   0.503  1.00  0.00    -0.0469  C
ATOM     45 C25  CHE L   1      -7.215   0.302  -0.191  1.00  0.00    -0.0401  C
ATOM     46 C26  CHE L   1      -7.660  -1.154  -0.108  1.00  0.00    -0.0041  C
ATOM     47 N27  CHE L   1      -6.712  -2.076  -0.735  1.00  0.00    -0.3157 NA
ATOM     48 C28  CHE L   1      -5.319  -1.623  -0.724  1.00  0.00    -0.0003  C
ATOM     49 H49  CHE L   1      -5.281  -1.322   1.385  1.00  0.00    +0.0323  H
ATOM     50 H50  CHE L   1      -6.041   0.811   1.546  1.00  0.00    +0.0269  H
ATOM     51 H51  CHE L   1      -5.374   1.373   0.034  1.00  0.00    +0.0269  H
ATOM     52 H52  CHE L   1      -7.972   0.956   0.257  1.00  0.00    +0.0278  H
ATOM     53 H53  CHE L   1      -7.133   0.597  -1.244  1.00  0.00    +0.0278  H
ATOM     54 H54  CHE L   1      -7.793  -1.431   0.945  1.00  0.00    +0.0424  H
ATOM     55 H55  CHE L   1      -8.634  -1.272  -0.593  1.00  0.00    +0.0424  H
ATOM     56 H56  CHE L   1      -6.796  -2.995  -0.306  1.00  0.00    +0.1219 HD
ATOM     57 H57  CHE L   1      -4.666  -2.502  -0.748  1.00  0.00    +0.0427  H
ATOM     58 H58  CHE L   1      -5.141  -1.071  -1.653  1.00  0.00    +0.0427  H
ENDBRANCH 40 43
ENDBRANCH 37 40
ENDBRANCH 7 37
TORSDOF 6
