ROOT
ATOM      1  C1  CHE L   1      -4.520  -0.160  -2.705  1.00  0.00    -0.0391  C
ATOM      2  C2  CHE L   1      -5.139  -0.640  -1.418  1.00  0.00    -0.0427  A
ATOM      3  C3  CHE L   1      -6.164  -1.600  -1.475  1.00  0.00    -0.0583  A
ATOM      4  C4  CHE L   1      -6.765  -2.073  -0.309  1.00  0.00    -0.0615  A
ATOM      5  C5  CHE L   1      -6.350  -1.597   0.929  1.00  0.00    -0.0612  A
ATOM      6  C6  CHE L   1      -5.328  -0.650   1.002  1.00  0.00    -0.0538  A
ATOM      7  C7  CHE L   1      -4.705  -0.161  -0.161  1.00  0.00    -0.0149  A
ATOM      8 H27  CHE L   1      -3.494  -0.530  -2.794  1.00  0.00    +0.0278  H
ATOM      9 H28  CHE L   1      -4.522   0.934  -2.751  1.00  0.00    +0.0278  H
ATOM     10 H29  CHE L   1      -5.081  -0.518  -3.575  1.00  0.00    +0.0278  H
ATOM     11 H30  CHE L   1      -6.504  -1.984  -2.434  1.00  0.00    +0.0620  H
ATOM     12 H31  CHE L   1      -7.560  -2.813  -0.370  1.00  0.00    +0.0618  H
ATOM     13 H32  CHE L   1      -6.819  -1.964   1.839  1.00  0.00    +0.0618  H
ATOM     14 H33  CHE L   1      -5.014  -0.293   1.981  1.00  0.00    +0.0624  H
ENDROOT
BRANCH 7 15
ATOM     15  C8  CHE L   1      -3.627   0.828  -0.028  1.00  0.00    -0.0157  A
ATOM     16  C9  CHE L   1      -3.924   2.181   0.201  1.00  0.00    -0.0366  A
ATOM     17 C10  CHE L   1      -2.900   3.129   0.315  1.00  0.00    +0.0531  A
ATOM     18 C13  CHE L   1      -1.567   2.728   0.212  1.00  0.00    -0.0320  A
ATOM     19 C14  CHE L   1      -1.253   1.379   0.005  1.00  0.00    +0.0407  A
ATOM     20 C26  CHE L   1      -2.282   0.437  -0.125  1.00  0.00    -0.0416  A
ATOM     21 H34  CHE L   1      -4.965   2.495   0.277  1.00  0.00    +0.0636  H
ATOM     22 H35  CHE L   1      -0.764   3.461   0.294  1.00  0.00    +0.0638  H
ATOM     23 H51  CHE L   1      -2.054  -0.606  -0.334  1.00  0.00    +0.0631  H
BRANCH 17 24
ATOM     24 C11  CHE L   1      -3.223   4.508   0.538  1.00  0.00    +0.0992  C
ATOM     25 N12  CHE L   1      -3.492   5.621   0.725  1.00  0.00    -0.1909 NA
ENDBRANCH 17 24
BRANCH 19 26
ATOM     26 C15  CHE L   1       0.181   0.998  -0.104  1.00  0.00    +0.2521  C
ATOM     27 O16  CHE L   1       1.000   1.827  -0.484  1.00  0.00    -0.2676 OA
ATOM     28 N17  CHE L   1       0.507  -0.287   0.276  1.00  0.00    -0.3519  N
ATOM     29 H36  CHE L   1      -0.176  -0.856   0.757  1.00  0.00    +0.1626 HD
BRANCH 28 30
ATOM     30 C18  CHE L   1       1.883  -0.754   0.270  1.00  0.00    +0.0195  C
ATOM     31 H37  CHE L   1       2.360  -0.407  -0.653  1.00  0.00    +0.0486  H
ATOM     32 H38  CHE L   1       1.845  -1.848   0.247  1.00  0.00    +0.0486  H
BRANCH 30 33
ATOM     33 C19  CHE L   1       2.649  -0.268   1.499  1.00  0.00    -0.0227  C
ATOM     34 H39  CHE L   1       2.721   0.827   1.489  1.00  0.00    +0.0295  H
ATOM     35 H40  CHE L   1       2.080  -0.522   2.403  1.00  0.00    +0.0295  H
BRANCH 33 36
ATOM     36 C20  CHE L   1       4.044  -0.891   1.617  1.00  0.00    +0.0005  C
ATOM     37 H41  CHE L   1       3.917  -1.970   1.774  1.00  0.00    +0.0427  H
ATOM     38 H42  CHE L   1       4.529  -0.499   2.521  1.00  0.00    +0.0427  H
BRANCH 36 39
ATOM     39 N21  CHE L   1       4.890  -0.685   0.442  1.00  0.00    -0.3023 NA
ATOM     40 C22  CHE L   1       6.189  -1.347   0.572  1.00  0.00    -0.0011  C
ATOM     41 C23  CHE L   1       6.997  -0.734  -0.559  1.00  0.00    -0.0390  C
ATOM     42 C24  CHE L   1       6.391   0.649  -0.772  1.00  0.00    -0.0390  C
ATOM     43 C25  CHE L   1       5.211   0.723   0.187  1.00  0.00    -0.0011  C
ATOM     44 H43  CHE L   1       6.112  -2.434   0.468  1.00  0.00    +0.0426  H
ATOM     45 H44  CHE L   1       6.665  -1.121   1.535  1.00  0.00    +0.0426  H
ATOM     46 H45  CHE L   1       6.892  -1.328  -1.475  1.00  0.00    +0.0278  H
ATOM     47 H46  CHE L   1       8.062  -0.680  -0.315  1.00  0.00    +0.0278  H
ATOM     48 H47  CHE L   1       6.060   0.755  -1.811  1.00  0.00    +0.0278  H
ATOM     49 H48  CHE L   1       7.118   1.443  -0.568  1.00  0.00    +0.0278  H
ATOM     50 H49  CHE L   1       4.375   1.269  -0.260  1.00  0.00    +0.0426  H
ATOM     51 H50  CHE L   1       5.514   1.240   1.107  1.00  0.00    +0.0426  H
ENDBRANCH 36 39
ENDBRANCH 33 36
ENDBRANCH 30 33
ENDBRANCH 28 30
ENDBRANCH 19 26
ENDBRANCH 7 15
TORSDOF 7
