ROOT
ATOM      1  C7  EUB L   1       3.076   0.163   0.427  1.00  0.00    +0.0468  A
ATOM      2  C8  EUB L   1       3.820  -0.792  -0.248  1.00  0.00    -0.0378  A
ATOM      3  C9  EUB L   1       3.173  -1.742  -1.036  1.00  0.00    -0.0547  A
ATOM      4 C10  EUB L   1       1.767  -1.767  -1.179  1.00  0.00    -0.0230  A
ATOM      5 C11  EUB L   1       0.993  -0.811  -0.482  1.00  0.00    +0.0549  A
ATOM      6 C12  EUB L   1       1.680   0.139   0.308  1.00  0.00    -0.0139  A
ATOM      7 N13  EUB L   1      -0.451  -0.773  -0.515  1.00  0.00    -0.2793  N
ATOM      8 C14  EUB L   1      -1.178   0.446  -0.473  1.00  0.00    +0.2463  C
ATOM      9 O15  EUB L   1      -0.644   1.553  -0.356  1.00  0.00    -0.2709 OA
ATOM     10 C22  EUB L   1      -1.092  -2.026  -0.283  1.00  0.00    +0.0529  A
ATOM     11 C23  EUB L   1      -1.811  -2.236   0.903  1.00  0.00    -0.0375  A
ATOM     12 C24  EUB L   1      -2.475  -3.444   1.121  1.00  0.00    -0.0598  A
ATOM     13 C25  EUB L   1      -2.424  -4.448   0.158  1.00  0.00    -0.0614  A
ATOM     14 C26  EUB L   1      -1.703  -4.250  -1.020  1.00  0.00    -0.0566  A
ATOM     15 C27  EUB L   1      -1.033  -3.041  -1.244  1.00  0.00    -0.0231  A
ATOM     16 C28  EUB L   1      -0.226  -2.821  -2.489  1.00  0.00    -0.0217  C
ATOM     17 C29  EUB L   1       1.254  -2.826  -2.136  1.00  0.00    -0.0217  C
ATOM     18 H36  EUB L   1       4.904  -0.824  -0.191  1.00  0.00    +0.0638  H
ATOM     19 H37  EUB L   1       3.786  -2.472  -1.566  1.00  0.00    +0.0622  H
ATOM     20 H38  EUB L   1       1.113   0.866   0.885  1.00  0.00    +0.0659  H
ATOM     21 H51  EUB L   1      -1.838  -1.472   1.675  1.00  0.00    +0.0638  H
ATOM     22 H52  EUB L   1      -3.023  -3.604   2.046  1.00  0.00    +0.0618  H
ATOM     23 H53  EUB L   1      -2.937  -5.391   0.328  1.00  0.00    +0.0618  H
ATOM     24 H54  EUB L   1      -1.661  -5.049  -1.757  1.00  0.00    +0.0621  H
ATOM     25 H55  EUB L   1      -0.521  -1.881  -2.972  1.00  0.00    +0.0317  H
ATOM     26 H56  EUB L   1      -0.429  -3.614  -3.218  1.00  0.00    +0.0317  H
ATOM     27 H57  EUB L   1       1.518  -3.807  -1.717  1.00  0.00    +0.0317  H
ATOM     28 H58  EUB L   1       1.809  -2.721  -3.079  1.00  0.00    +0.0317  H
ENDROOT
BRANCH 1 31
ATOM     29  C4  EUB L   1       4.956   1.403   1.505  1.00  0.00    +0.4131  C
ATOM     30  O5  EUB L   1       5.932   0.788   1.102  1.00  0.00    -0.2233 OA
ATOM     31  N6  EUB L   1       3.638   1.163   1.239  1.00  0.00    -0.2917  N
ATOM     32 H35  EUB L   1       3.012   1.826   1.675  1.00  0.00    +0.1720 HD
BRANCH 29 33
ATOM     33  O3  EUB L   1       5.026   2.484   2.329  1.00  0.00    -0.4488 OA
BRANCH 33 35
ATOM     34  C1  EUB L   1       6.278   4.074   3.600  1.00  0.00    -0.0305  C
ATOM     35  C2  EUB L   1       6.360   2.865   2.690  1.00  0.00    +0.0915  C
ATOM     36 H30  EUB L   1       5.750   4.896   3.105  1.00  0.00    +0.0262  H
ATOM     37 H31  EUB L   1       5.713   3.834   4.508  1.00  0.00    +0.0262  H
ATOM     38 H32  EUB L   1       7.276   4.416   3.887  1.00  0.00    +0.0262  H
ATOM     39 H33  EUB L   1       6.928   3.120   1.788  1.00  0.00    +0.0695  H
ATOM     40 H34  EUB L   1       6.852   2.040   3.216  1.00  0.00    +0.0695  H
ENDBRANCH 33 35
ENDBRANCH 29 33
ENDBRANCH 1 31
BRANCH 8 41
ATOM     41 C16  EUB L   1      -2.716   0.307  -0.677  1.00  0.00    +0.0787  C
ATOM     42 H39  EUB L   1      -3.187   0.023   0.268  1.00  0.00    +0.0524  H
ATOM     43 H40  EUB L   1      -2.867  -0.512  -1.386  1.00  0.00    +0.0524  H
BRANCH 41 44
ATOM     44 N17  EUB L   1      -3.338   1.536  -1.234  1.00  0.00    -0.2944 NA
BRANCH 44 45
ATOM     45 C18  EUB L   1      -3.507   2.602  -0.230  1.00  0.00    -0.0035  C
ATOM     46 C19  EUB L   1      -4.551   2.358   0.858  1.00  0.00    -0.0523  C
ATOM     47 H41  EUB L   1      -3.774   3.528  -0.759  1.00  0.00    +0.0424  H
ATOM     48 H42  EUB L   1      -2.553   2.831   0.256  1.00  0.00    +0.0424  H
ATOM     49 H43  EUB L   1      -4.303   1.490   1.477  1.00  0.00    +0.0242  H
ATOM     50 H44  EUB L   1      -5.552   2.212   0.439  1.00  0.00    +0.0242  H
ATOM     51 H45  EUB L   1      -4.600   3.228   1.522  1.00  0.00    +0.0242  H
ENDBRANCH 44 45
BRANCH 44 52
ATOM     52 C20  EUB L   1      -4.591   1.256  -1.948  1.00  0.00    -0.0035  C
ATOM     53 C21  EUB L   1      -4.350   0.634  -3.320  1.00  0.00    -0.0523  C
ATOM     54 H46  EUB L   1      -5.254   0.612  -1.358  1.00  0.00    +0.0424  H
ATOM     55 H47  EUB L   1      -5.131   2.195  -2.125  1.00  0.00    +0.0424  H
ATOM     56 H48  EUB L   1      -5.295   0.567  -3.869  1.00  0.00    +0.0242  H
ATOM     57 H49  EUB L   1      -3.938  -0.377  -3.253  1.00  0.00    +0.0242  H
ATOM     58 H50  EUB L   1      -3.663   1.247  -3.915  1.00  0.00    +0.0242  H
ENDBRANCH 44 52
ENDBRANCH 41 44
ENDBRANCH 8 41
TORSDOF 7
