ROOT
ATOM      1 N14  WH0 L   1      -0.553   0.099   0.626  1.00  0.00    -0.2837  N
ATOM      2 C15  WH0 L   1      -0.068   0.914   1.649  1.00  0.00    +0.2395  C
ATOM      3 O16  WH0 L   1       0.334   0.521   2.742  1.00  0.00    -0.2717 OA
ATOM      4 C17  WH0 L   1      -0.149   2.387   1.311  1.00  0.00    +0.0758  C
ATOM      5 S18  WH0 L   1      -0.762   2.518  -0.376  1.00  0.00    -0.1088 SA
ATOM      6 C19  WH0 L   1      -1.335   0.781  -0.390  1.00  0.00    +0.2010  C
ATOM      7 C20  WH0 L   1      -1.193   0.229  -1.859  1.00  0.00    +0.2665  C
ATOM      8 O21  WH0 L   1      -0.175  -0.022  -2.488  1.00  0.00    -0.2689 OA
ATOM      9 N22  WH0 L   1      -2.486   0.049  -2.354  1.00  0.00    -0.3228  N
ATOM     10 C23  WH0 L   1      -3.443   0.338  -1.393  1.00  0.00    +0.0486  A
ATOM     11 C24  WH0 L   1      -4.810   0.221  -1.531  1.00  0.00    -0.0379  A
ATOM     12 C25  WH0 L   1      -5.597   0.531  -0.419  1.00  0.00    -0.0598  A
ATOM     13 C26  WH0 L   1      -5.006   0.943   0.789  1.00  0.00    -0.0613  A
ATOM     14 C27  WH0 L   1      -3.617   1.056   0.907  1.00  0.00    -0.0531  A
ATOM     15 C28  WH0 L   1      -2.839   0.752  -0.201  1.00  0.00    +0.0211  A
ATOM     16 H41  WH0 L   1      -0.847   2.873   1.998  1.00  0.00    +0.0474  H
ATOM     17 H42  WH0 L   1       0.836   2.849   1.397  1.00  0.00    +0.0474  H
ATOM     18 H43  WH0 L   1      -2.667  -0.301  -3.283  1.00  0.00    +0.1687 HD
ATOM     19 H44  WH0 L   1      -5.266  -0.103  -2.460  1.00  0.00    +0.0638  H
ATOM     20 H45  WH0 L   1      -6.680   0.453  -0.486  1.00  0.00    +0.0618  H
ATOM     21 H46  WH0 L   1      -5.640   1.177   1.642  1.00  0.00    +0.0618  H
ATOM     22 H47  WH0 L   1      -3.173   1.372   1.846  1.00  0.00    +0.0622  H
ENDROOT
BRANCH 1 28
ATOM     23  C8  WH0 L   1       0.903  -1.907   0.764  1.00  0.00    -0.0221  A
ATOM     24  C9  WH0 L   1       1.005  -3.314   0.773  1.00  0.00    -0.0566  A
ATOM     25 C10  WH0 L   1      -0.120  -4.125   0.644  1.00  0.00    -0.0614  A
ATOM     26 C11  WH0 L   1      -1.370  -3.544   0.498  1.00  0.00    -0.0598  A
ATOM     27 C12  WH0 L   1      -1.495  -2.153   0.491  1.00  0.00    -0.0378  A
ATOM     28 C13  WH0 L   1      -0.377  -1.314   0.636  1.00  0.00    +0.0500  A
ATOM     29 H37  WH0 L   1       1.978  -3.792   0.869  1.00  0.00    +0.0621  H
ATOM     30 H38  WH0 L   1      -0.016  -5.207   0.655  1.00  0.00    +0.0618  H
ATOM     31 H39  WH0 L   1      -2.254  -4.169   0.404  1.00  0.00    +0.0618  H
ATOM     32 H40  WH0 L   1      -2.502  -1.754   0.425  1.00  0.00    +0.0638  H
BRANCH 23 33
ATOM     33  C7  WH0 L   1       2.207  -1.130   0.792  1.00  0.00    -0.0082  C
ATOM     34 H35  WH0 L   1       3.029  -1.809   1.056  1.00  0.00    +0.0331  H
ATOM     35 H36  WH0 L   1       2.210  -0.395   1.599  1.00  0.00    +0.0331  H
BRANCH 33 36
ATOM     36  C6  WH0 L   1       2.539  -0.475  -0.552  1.00  0.00    +0.0224  C
ATOM     37 H33  WH0 L   1       2.547  -1.220  -1.356  1.00  0.00    +0.0489  H
ATOM     38 H34  WH0 L   1       1.803   0.290  -0.809  1.00  0.00    +0.0489  H
BRANCH 36 41
ATOM     39  C3  WH0 L   1       4.042   1.388   0.026  1.00  0.00    +0.2443  C
ATOM     40  O4  WH0 L   1       3.161   2.047   0.562  1.00  0.00    -0.2683 OA
ATOM     41  N5  WH0 L   1       3.848   0.154  -0.543  1.00  0.00    -0.3522  N
ATOM     42 H32  WH0 L   1       4.621  -0.347  -0.957  1.00  0.00    +0.1626 HD
BRANCH 39 44
ATOM     43  C1  WH0 L   1       5.815   3.027   0.458  1.00  0.00    -0.0936  C
ATOM     44  C2  WH0 L   1       5.450   1.851  -0.068  1.00  0.00    -0.0047  C
ATOM     45 H29  WH0 L   1       5.097   3.667   0.965  1.00  0.00    +0.0536  H
ATOM     46 H30  WH0 L   1       6.840   3.374   0.393  1.00  0.00    +0.0536  H
ATOM     47 H31  WH0 L   1       6.173   1.222  -0.571  1.00  0.00    +0.0666  H
ENDBRANCH 39 44
ENDBRANCH 36 41
ENDBRANCH 33 36
ENDBRANCH 23 33
ENDBRANCH 1 28
TORSDOF 5
