ROOT
ATOM      1  C3  CHE L   1       1.705  -2.132   0.391  1.00  0.00    +0.1619  A
ATOM      2  C4  CHE L   1       2.947  -1.516   0.590  1.00  0.00    -0.0102  A
ATOM      3  C5  CHE L   1       3.102  -0.203   0.176  1.00  0.00    -0.0054  A
ATOM      4  C6  CHE L   1       2.057   0.500  -0.424  1.00  0.00    +0.0736  A
ATOM      5  C7  CHE L   1       0.824  -0.091  -0.630  1.00  0.00    +0.0095  A
ATOM      6  C8  CHE L   1       0.640  -1.419  -0.227  1.00  0.00    +0.1639  A
ATOM      7 N18  CHE L   1       2.408   1.815  -0.766  1.00  0.00    -0.2338 NA
ATOM      8 C19  CHE L   1       3.652   1.968  -0.408  1.00  0.00    +0.1113  C
ATOM      9 N20  CHE L   1       4.334   3.135  -0.591  1.00  0.00    -0.3863  N
ATOM     10 C21  CHE L   1       4.289   0.717   0.252  1.00  0.00    +0.0494  C
ATOM     11 C22  CHE L   1       4.692   1.008   1.696  1.00  0.00    -0.0488  C
ATOM     12 C23  CHE L   1       5.465   0.209  -0.578  1.00  0.00    -0.0488  C
ATOM     13 H27  CHE L   1       3.782  -2.027   1.053  1.00  0.00    +0.0659  H
ATOM     14 H28  CHE L   1       0.045   0.504  -1.087  1.00  0.00    +0.0677  H
ATOM     15 H43  CHE L   1       3.722   3.917  -0.802  1.00  0.00    +0.1570 HD
ATOM     16 H44  CHE L   1       5.067   3.357   0.071  1.00  0.00    +0.1570 HD
ATOM     17 H45  CHE L   1       3.859   1.436   2.268  1.00  0.00    +0.0242  H
ATOM     18 H46  CHE L   1       5.517   1.727   1.741  1.00  0.00    +0.0242  H
ATOM     19 H47  CHE L   1       5.014   0.097   2.213  1.00  0.00    +0.0242  H
ATOM     20 H48  CHE L   1       5.180   0.051  -1.625  1.00  0.00    +0.0242  H
ATOM     21 H49  CHE L   1       5.846  -0.743  -0.191  1.00  0.00    +0.0242  H
ATOM     22 H50  CHE L   1       6.292   0.928  -0.574  1.00  0.00    +0.0242  H
ENDROOT
BRANCH 1 24
ATOM     23  C1  CHE L   1       2.453  -4.180   1.374  1.00  0.00    +0.0790  C
ATOM     24  O2  CHE L   1       1.420  -3.427   0.756  1.00  0.00    -0.4914 OA
ATOM     25 H24  CHE L   1       3.307  -4.306   0.701  1.00  0.00    +0.0660  H
ATOM     26 H25  CHE L   1       2.055  -5.175   1.595  1.00  0.00    +0.0660  H
ATOM     27 H26  CHE L   1       2.760  -3.727   2.323  1.00  0.00    +0.0660  H
ENDBRANCH 1 24
BRANCH 6 28
ATOM     28  O9  CHE L   1      -0.538  -2.114  -0.365  1.00  0.00    -0.4882 OA
BRANCH 28 29
ATOM     29 C10  CHE L   1      -1.578  -1.568  -1.174  1.00  0.00    +0.0909  C
ATOM     30 H29  CHE L   1      -2.123  -2.424  -1.589  1.00  0.00    +0.0697  H
ATOM     31 H30  CHE L   1      -1.190  -1.018  -2.039  1.00  0.00    +0.0697  H
BRANCH 29 32
ATOM     32 C11  CHE L   1      -2.539  -0.740  -0.322  1.00  0.00    -0.0058  C
ATOM     33 H31  CHE L   1      -1.988   0.066   0.173  1.00  0.00    +0.0310  H
ATOM     34 H32  CHE L   1      -2.927  -1.377   0.481  1.00  0.00    +0.0310  H
BRANCH 32 35
ATOM     35 C12  CHE L   1      -3.678  -0.179  -1.178  1.00  0.00    +0.0020  C
ATOM     36 H33  CHE L   1      -3.248   0.406  -2.003  1.00  0.00    +0.0428  H
ATOM     37 H34  CHE L   1      -4.202  -1.014  -1.660  1.00  0.00    +0.0428  H
BRANCH 35 38
ATOM     38 N13  CHE L   1      -4.675   0.653  -0.509  1.00  0.00    -0.3022 NA
ATOM     39 C14  CHE L   1      -4.172   1.897   0.063  1.00  0.00    -0.0011  C
ATOM     40 C15  CHE L   1      -5.366   2.402   0.861  1.00  0.00    -0.0390  C
ATOM     41 C16  CHE L   1      -6.194   1.159   1.176  1.00  0.00    -0.0390  C
ATOM     42 C17  CHE L   1      -5.423  -0.000   0.559  1.00  0.00    -0.0011  C
ATOM     43 H35  CHE L   1      -3.870   2.615  -0.705  1.00  0.00    +0.0426  H
ATOM     44 H36  CHE L   1      -3.327   1.734   0.742  1.00  0.00    +0.0426  H
ATOM     45 H37  CHE L   1      -5.049   2.919   1.773  1.00  0.00    +0.0278  H
ATOM     46 H38  CHE L   1      -5.963   3.104   0.267  1.00  0.00    +0.0278  H
ATOM     47 H39  CHE L   1      -7.188   1.251   0.722  1.00  0.00    +0.0278  H
ATOM     48 H40  CHE L   1      -6.329   1.024   2.254  1.00  0.00    +0.0278  H
ATOM     49 H41  CHE L   1      -4.769  -0.443   1.318  1.00  0.00    +0.0426  H
ATOM     50 H42  CHE L   1      -6.098  -0.775   0.182  1.00  0.00    +0.0426  H
ENDBRANCH 35 38
ENDBRANCH 32 35
ENDBRANCH 29 32
ENDBRANCH 28 29
ENDBRANCH 6 28
TORSDOF 6
