ROOT
ATOM      1  C8  370 L   1       0.857   0.537  -1.214  1.00  0.00    +0.2253  C
ATOM      2  O9  370 L   1       0.778  -0.291  -2.121  1.00  0.00    -0.2730 OA
ATOM      3 N10  370 L   1      -0.087   0.605  -0.214  1.00  0.00    -0.3387  N
ATOM      4 C11  370 L   1      -0.070   1.471   0.954  1.00  0.00    +0.0245  C
ATOM      5 C12  370 L   1      -1.455   1.311   1.566  1.00  0.00    +0.0048  C
ATOM      6 C13  370 L   1      -1.777  -0.161   1.277  1.00  0.00    +0.1554  C
ATOM      7 F14  370 L   1      -1.022  -0.896   2.163  1.00  0.00    -0.2349  F
ATOM      8 C21  370 L   1      -1.167  -0.374  -0.120  1.00  0.00    +0.0593  C
ATOM      9 H30  370 L   1       0.712   1.111   1.631  1.00  0.00    +0.0490  H
ATOM     10 H31  370 L   1       0.148   2.506   0.675  1.00  0.00    +0.0490  H
ATOM     11 H32  370 L   1      -2.155   1.992   1.068  1.00  0.00    +0.0317  H
ATOM     12 H33  370 L   1      -1.449   1.540   2.636  1.00  0.00    +0.0317  H
ATOM     13 H39  370 L   1      -1.861  -0.167  -0.941  1.00  0.00    +0.0523  H
ATOM     14 H40  370 L   1      -0.761  -1.384  -0.241  1.00  0.00    +0.0523  H
ENDROOT
BRANCH 1 15
ATOM     15  C7  370 L   1       1.981   1.555  -1.139  1.00  0.00    +0.0437  C
ATOM     16 H28  370 L   1       1.542   2.549  -1.272  1.00  0.00    +0.0378  H
ATOM     17 H29  370 L   1       2.444   1.505  -0.148  1.00  0.00    +0.0378  H
BRANCH 15 18
ATOM     18  C6  370 L   1       3.031   1.335  -2.222  1.00  0.00    +0.0268  C
ATOM     19 H26  370 L   1       3.734   2.175  -2.222  1.00  0.00    +0.0491  H
ATOM     20 H27  370 L   1       2.574   1.279  -3.216  1.00  0.00    +0.0491  H
BRANCH 18 23
ATOM     21  C3  370 L   1       4.802   0.030  -1.110  1.00  0.00    +0.2443  C
ATOM     22  O4  370 L   1       5.216   0.978  -0.456  1.00  0.00    -0.2683 OA
ATOM     23  N5  370 L   1       3.787   0.112  -2.028  1.00  0.00    -0.3520  N
ATOM     24 H25  370 L   1       3.384  -0.734  -2.415  1.00  0.00    +0.1626 HD
BRANCH 21 26
ATOM     25  C1  370 L   1       6.317  -1.606  -0.088  1.00  0.00    -0.0936  C
ATOM     26  C2  370 L   1       5.339  -1.347  -0.965  1.00  0.00    -0.0047  C
ATOM     27 H22  370 L   1       6.715  -2.608   0.022  1.00  0.00    +0.0536  H
ATOM     28 H23  370 L   1       6.741  -0.823   0.535  1.00  0.00    +0.0536  H
ATOM     29 H24  370 L   1       4.926  -2.133  -1.584  1.00  0.00    +0.0666  H
ENDBRANCH 21 26
ENDBRANCH 18 23
ENDBRANCH 15 18
ENDBRANCH 1 15
BRANCH 6 30
ATOM     30 C15  370 L   1      -3.248  -0.508   1.370  1.00  0.00    -0.0091  A
ATOM     31 C16  370 L   1      -4.223   0.156   0.606  1.00  0.00    -0.0555  A
ATOM     32 C17  370 L   1      -5.572  -0.191   0.711  1.00  0.00    -0.0614  A
ATOM     33 C18  370 L   1      -5.967  -1.204   1.581  1.00  0.00    -0.0617  A
ATOM     34 C19  370 L   1      -5.015  -1.873   2.345  1.00  0.00    -0.0614  A
ATOM     35 C20  370 L   1      -3.666  -1.527   2.241  1.00  0.00    -0.0555  A
ATOM     36 H34  370 L   1      -3.946   0.949  -0.086  1.00  0.00    +0.0621  H
ATOM     37 H35  370 L   1      -6.315   0.331   0.113  1.00  0.00    +0.0618  H
ATOM     38 H36  370 L   1      -7.017  -1.474   1.662  1.00  0.00    +0.0618  H
ATOM     39 H37  370 L   1      -5.320  -2.663   3.025  1.00  0.00    +0.0618  H
ATOM     40 H38  370 L   1      -2.937  -2.064   2.847  1.00  0.00    +0.0621  H
ENDBRANCH 6 30
TORSDOF 5
