ROOT
ATOM      1 C29  WH0 L   1       0.591   2.314  -1.422  1.00  0.00    -0.0133  A
ATOM      2 C30  WH0 L   1       0.234   2.007  -2.755  1.00  0.00    -0.0519  A
ATOM      3 C31  WH0 L   1      -0.606   2.849  -3.490  1.00  0.00    -0.0374  A
ATOM      4 C32  WH0 L   1      -1.067   3.983  -2.861  1.00  0.00    +0.0454  A
ATOM      5 C33  WH0 L   1      -0.728   4.304  -1.548  1.00  0.00    -0.0145  A
ATOM      6 C34  WH0 L   1       0.101   3.479  -0.810  1.00  0.00    -0.0483  A
ATOM      7 C35  WH0 L   1      -1.392   5.592  -1.164  1.00  0.00    +0.0535  C
ATOM      8 C36  WH0 L   1      -2.156   5.954  -2.443  1.00  0.00    +0.2296  C
ATOM      9 O37  WH0 L   1      -2.859   6.935  -2.617  1.00  0.00    -0.2725 OA
ATOM     10 N38  WH0 L   1      -1.906   4.957  -3.377  1.00  0.00    -0.3256  N
ATOM     11 H64  WH0 L   1       0.616   1.102  -3.227  1.00  0.00    +0.0624  H
ATOM     12 H65  WH0 L   1      -0.879   2.609  -4.511  1.00  0.00    +0.0638  H
ATOM     13 H66  WH0 L   1       0.357   3.725   0.217  1.00  0.00    +0.0627  H
ATOM     14 H67  WH0 L   1      -2.098   5.447  -0.342  1.00  0.00    +0.0410  H
ATOM     15 H68  WH0 L   1      -0.655   6.369  -0.944  1.00  0.00    +0.0410  H
ATOM     16 H69  WH0 L   1      -2.301   4.967  -4.306  1.00  0.00    +0.1686 HD
ENDROOT
BRANCH 1 25
ATOM     17 C13  WH0 L   1       1.307   0.012  -0.389  1.00  0.00    +0.1015  A
ATOM     18 N14  WH0 L   1       2.375  -0.456   0.278  1.00  0.00    -0.1627 NA
ATOM     19 N15  WH0 L   1       3.178   0.623   0.448  1.00  0.00    -0.1987  N
ATOM     20 C16  WH0 L   1       4.439   0.583   1.130  1.00  0.00    +0.2282  A
ATOM     21 N24  WH0 L   1       5.165   1.681   1.151  1.00  0.00    -0.2207 NA
ATOM     22 C25  WH0 L   1       4.670   2.810   0.538  1.00  0.00    +0.0334  A
ATOM     23 C26  WH0 L   1       3.490   2.904  -0.093  1.00  0.00    -0.0173  A
ATOM     24 C27  WH0 L   1       2.672   1.755  -0.152  1.00  0.00    +0.0803  A
ATOM     25 C28  WH0 L   1       1.447   1.406  -0.680  1.00  0.00    +0.0353  A
ATOM     26 H62  WH0 L   1       5.319   3.681   0.588  1.00  0.00    +0.0831  H
ATOM     27 H63  WH0 L   1       3.178   3.833  -0.559  1.00  0.00    +0.0654  H
BRANCH 17 30
ATOM     28 C10  WH0 L   1      -2.190  -1.348  -0.911  1.00  0.00    -0.0034  A
ATOM     29 C11  WH0 L   1      -1.131  -0.482  -0.583  1.00  0.00    -0.0458  A
ATOM     30 C12  WH0 L   1       0.201  -0.888  -0.723  1.00  0.00    +0.0032  A
ATOM     31 C39  WH0 L   1       0.467  -2.185  -1.176  1.00  0.00    -0.0490  A
ATOM     32 C40  WH0 L   1      -0.577  -3.055  -1.505  1.00  0.00    -0.0191  A
ATOM     33 C41  WH0 L   1      -1.906  -2.644  -1.380  1.00  0.00    +0.1233  A
ATOM     34 H51  WH0 L   1      -1.355   0.513  -0.205  1.00  0.00    +0.0628  H
ATOM     35 H70  WH0 L   1       1.497  -2.525  -1.278  1.00  0.00    +0.0625  H
ATOM     36 H71  WH0 L   1      -0.315  -4.050  -1.850  1.00  0.00    +0.0654  H
BRANCH 28 37
ATOM     37  C9  WH0 L   1      -3.615  -0.872  -0.723  1.00  0.00    -0.0067  C
ATOM     38 H49  WH0 L   1      -3.631   0.225  -0.671  1.00  0.00    +0.0331  H
ATOM     39 H50  WH0 L   1      -4.212  -1.125  -1.607  1.00  0.00    +0.0331  H
BRANCH 37 40
ATOM     40  C8  WH0 L   1      -4.249  -1.453   0.545  1.00  0.00    +0.0225  C
ATOM     41 H47  WH0 L   1      -3.592  -1.304   1.410  1.00  0.00    +0.0489  H
ATOM     42 H48  WH0 L   1      -4.418  -2.531   0.440  1.00  0.00    +0.0489  H
BRANCH 40 45
ATOM     43  C5  WH0 L   1      -6.680  -1.147   0.218  1.00  0.00    +0.2618  C
ATOM     44  O6  WH0 L   1      -6.743  -1.986  -0.672  1.00  0.00    -0.2669 OA
ATOM     45  N7  WH0 L   1      -5.514  -0.818   0.874  1.00  0.00    -0.3511  N
ATOM     46 H46  WH0 L   1      -5.492  -0.024   1.500  1.00  0.00    +0.1627 HD
BRANCH 43 48
ATOM     47  C1  WH0 L   1      -8.095  -0.057   1.925  1.00  0.00    -0.0760  C
ATOM     48  C2  WH0 L   1      -7.883  -0.370   0.634  1.00  0.00    +0.1085  C
ATOM     49 H44  WH0 L   1      -8.989   0.481   2.232  1.00  0.00    +0.0549  H
ATOM     50 H45  WH0 L   1      -7.415  -0.357   2.716  1.00  0.00    +0.0549  H
BRANCH 48 51
ATOM     51  C3  WH0 L   1      -8.841  -0.039  -0.366  1.00  0.00    +0.1040  C
ATOM     52  N4  WH0 L   1      -9.645   0.276  -1.142  1.00  0.00    -0.1907 NA
ENDBRANCH 48 51
ENDBRANCH 43 48
ENDBRANCH 40 45
ENDBRANCH 37 40
ENDBRANCH 28 37
BRANCH 33 53
ATOM     53 O42  WH0 L   1      -2.993  -3.422  -1.670  1.00  0.00    -0.4948 OA
ATOM     54 C43  WH0 L   1      -2.756  -4.708  -2.227  1.00  0.00    +0.0788  C
ATOM     55 H72  WH0 L   1      -2.204  -4.637  -3.170  1.00  0.00    +0.0660  H
ATOM     56 H73  WH0 L   1      -3.727  -5.163  -2.443  1.00  0.00    +0.0660  H
ATOM     57 H74  WH0 L   1      -2.237  -5.354  -1.512  1.00  0.00    +0.0660  H
ENDBRANCH 33 53
ENDBRANCH 17 30
BRANCH 20 58
ATOM     58 N17  WH0 L   1       4.907  -0.585   1.750  1.00  0.00    -0.3401  N
ATOM     59 C18  WH0 L   1       3.995  -1.601   2.292  1.00  0.00    +0.0237  C
ATOM     60 C19  WH0 L   1       4.608  -2.335   3.477  1.00  0.00    -0.0090  C
ATOM     61 C20  WH0 L   1       5.932  -2.983   3.095  1.00  0.00    +0.0585  C
ATOM     62 O21  WH0 L   1       6.634  -3.303   4.296  1.00  0.00    -0.3917 OA
ATOM     63 C22  WH0 L   1       6.796  -2.090   2.205  1.00  0.00    -0.0090  C
ATOM     64 C23  WH0 L   1       6.302  -0.646   2.199  1.00  0.00    +0.0237  C
ATOM     65 H52  WH0 L   1       3.750  -2.324   1.506  1.00  0.00    +0.0489  H
ATOM     66 H53  WH0 L   1       3.067  -1.136   2.644  1.00  0.00    +0.0489  H
ATOM     67 H54  WH0 L   1       4.751  -1.642   4.318  1.00  0.00    +0.0307  H
ATOM     68 H55  WH0 L   1       3.917  -3.104   3.846  1.00  0.00    +0.0307  H
ATOM     69 H56  WH0 L   1       5.740  -3.930   2.577  1.00  0.00    +0.0594  H
ATOM     70 H57  WH0 L   1       7.408  -3.838   4.049  1.00  0.00    +0.2098 HD
ATOM     71 H58  WH0 L   1       7.848  -2.120   2.512  1.00  0.00    +0.0307  H
ATOM     72 H59  WH0 L   1       6.748  -2.472   1.177  1.00  0.00    +0.0307  H
ATOM     73 H60  WH0 L   1       6.397  -0.194   3.194  1.00  0.00    +0.0489  H
ATOM     74 H61  WH0 L   1       6.950  -0.078   1.519  1.00  0.00    +0.0489  H
ENDBRANCH 20 58
ENDBRANCH 1 25
TORSDOF 9
