ROOT
ATOM      1  C6  MCU L   1      -3.417  -0.284  -0.033  1.00  0.00    -0.0130  A
ATOM      2  C7  MCU L   1      -3.873  -1.514   0.499  1.00  0.00    -0.0535  A
ATOM      3  C8  MCU L   1      -2.974  -2.555   0.773  1.00  0.00    -0.0550  A
ATOM      4  C9  MCU L   1      -1.620  -2.366   0.490  1.00  0.00    -0.0087  A
ATOM      5 C10  MCU L   1      -1.168  -1.184  -0.066  1.00  0.00    +0.0559  A
ATOM      6 C11  MCU L   1      -2.041  -0.118  -0.306  1.00  0.00    -0.0296  A
ATOM      7 N12  MCU L   1       0.246  -1.192  -0.230  1.00  0.00    -0.2627  N
ATOM      8 C25  MCU L   1       0.673  -2.454   0.280  1.00  0.00    +0.2434  C
ATOM      9 O26  MCU L   1       1.881  -2.814   0.302  1.00  0.00    -0.2713 OA
ATOM     10 C27  MCU L   1      -0.473  -3.304   0.764  1.00  0.00    +0.0711  C
ATOM     11 C28  MCU L   1      -0.339  -3.601   2.264  1.00  0.00    -0.0471  C
ATOM     12 C29  MCU L   1      -0.594  -4.589  -0.065  1.00  0.00    -0.0471  C
ATOM     13 H36  MCU L   1      -4.925  -1.670   0.703  1.00  0.00    +0.0624  H
ATOM     14 H37  MCU L   1      -3.324  -3.484   1.202  1.00  0.00    +0.0621  H
ATOM     15 H38  MCU L   1      -1.663   0.832  -0.657  1.00  0.00    +0.0644  H
ATOM     16 H49  MCU L   1      -1.223  -4.169   2.627  1.00  0.00    +0.0243  H
ATOM     17 H50  MCU L   1      -0.265  -2.656   2.845  1.00  0.00    +0.0243  H
ATOM     18 H51  MCU L   1       0.572  -4.207   2.458  1.00  0.00    +0.0243  H
ATOM     19 H52  MCU L   1      -1.483  -5.173   0.257  1.00  0.00    +0.0243  H
ATOM     20 H53  MCU L   1      -0.702  -4.349  -1.145  1.00  0.00    +0.0243  H
ATOM     21 H54  MCU L   1       0.310  -5.222   0.068  1.00  0.00    +0.0243  H
ENDROOT
BRANCH 1 26
ATOM     22  C1  MCU L   1      -7.051   4.060  -0.981  1.00  0.00    -0.0046  C
ATOM     23  C2  MCU L   1      -6.132   2.906  -0.756  1.00  0.00    +0.1259  A
ATOM     24  N3  MCU L   1      -5.118   2.663  -1.628  1.00  0.00    -0.2400 NA
ATOM     25  C4  MCU L   1      -4.243   1.644  -1.421  1.00  0.00    +0.0388  A
ATOM     26  C5  MCU L   1      -4.370   0.825  -0.289  1.00  0.00    +0.0184  A
ATOM     27 C30  MCU L   1      -5.418   1.103   0.600  1.00  0.00    +0.0388  A
ATOM     28 N31  MCU L   1      -6.267   2.135   0.355  1.00  0.00    -0.2400 NA
ATOM     29 H32  MCU L   1      -8.062   3.825  -0.585  1.00  0.00    +0.0308  H
ATOM     30 H33  MCU L   1      -7.137   4.277  -2.066  1.00  0.00    +0.0308  H
ATOM     31 H34  MCU L   1      -6.653   4.955  -0.459  1.00  0.00    +0.0308  H
ATOM     32 H35  MCU L   1      -3.459   1.470  -2.147  1.00  0.00    +0.0837  H
ATOM     33 H55  MCU L   1      -5.549   0.520   1.502  1.00  0.00    +0.0837  H
ENDBRANCH 1 26
BRANCH 7 34
ATOM     34 C13  MCU L   1       1.087  -0.211  -0.855  1.00  0.00    +0.1610  A
ATOM     35 C14  MCU L   1       0.685   0.466  -2.012  1.00  0.00    +0.0706  A
ATOM     36 N15  MCU L   1       1.526   1.363  -2.586  1.00  0.00    -0.2560 NA
ATOM     37 C16  MCU L   1       2.754   1.621  -2.065  1.00  0.00    +0.0698  A
ATOM     38 C17  MCU L   1       3.179   0.935  -0.911  1.00  0.00    +0.1503  A
ATOM     39 N24  MCU L   1       2.325   0.035  -0.350  1.00  0.00    -0.2093 NA
ATOM     40 H39  MCU L   1      -0.270   0.260  -2.476  1.00  0.00    +0.0867  H
ATOM     41 H40  MCU L   1       3.389   2.333  -2.571  1.00  0.00    +0.0867  H
BRANCH 38 42
ATOM     42 N18  MCU L   1       4.491   1.141  -0.327  1.00  0.00    -0.3503  N
ATOM     43 C19  MCU L   1       5.393   2.176  -0.863  1.00  0.00    +0.0435  C
ATOM     44 C20  MCU L   1       6.574   2.452   0.071  1.00  0.00    +0.0653  C
ATOM     45 O21  MCU L   1       7.144   1.248   0.532  1.00  0.00    -0.3763 OA
ATOM     46 C22  MCU L   1       6.224   0.606   1.385  1.00  0.00    +0.0653  C
ATOM     47 C23  MCU L   1       5.004   0.116   0.600  1.00  0.00    +0.0435  C
ATOM     48 H41  MCU L   1       4.841   3.133  -0.992  1.00  0.00    +0.0511  H
ATOM     49 H42  MCU L   1       5.776   1.846  -1.854  1.00  0.00    +0.0511  H
ATOM     50 H43  MCU L   1       7.347   3.015  -0.494  1.00  0.00    +0.0577  H
ATOM     51 H44  MCU L   1       6.261   3.107   0.917  1.00  0.00    +0.0577  H
ATOM     52 H45  MCU L   1       5.910   1.270   2.224  1.00  0.00    +0.0577  H
ATOM     53 H46  MCU L   1       6.724  -0.272   1.846  1.00  0.00    +0.0577  H
ATOM     54 H47  MCU L   1       4.220  -0.158   1.340  1.00  0.00    +0.0511  H
ATOM     55 H48  MCU L   1       5.278  -0.791   0.020  1.00  0.00    +0.0511  H
ENDBRANCH 38 42
ENDBRANCH 7 34
TORSDOF 3
