ROOT
ATOM      1 N17  SEL L   1       0.823  -1.439  -1.104  1.00  0.00    -0.2885 NA
ATOM      2 C18  SEL L   1       1.703  -2.414  -0.446  1.00  0.00    -0.0001  C
ATOM      3 C19  SEL L   1       2.581  -1.801   0.641  1.00  0.00    -0.0396  C
ATOM      4 C20  SEL L   1       3.445  -0.676   0.076  1.00  0.00    -0.0450  C
ATOM      5 C21  SEL L   1       2.623   0.396  -0.688  1.00  0.00    -0.0164  C
ATOM      6 C22  SEL L   1       3.584   1.254  -1.555  1.00  0.00    -0.0462  C
ATOM      7 C23  SEL L   1       4.611   2.045  -0.742  1.00  0.00    -0.0525  C
ATOM      8 C24  SEL L   1       4.056   2.609   0.564  1.00  0.00    -0.0530  C
ATOM      9 C25  SEL L   1       2.540   2.694   0.547  1.00  0.00    -0.0525  C
ATOM     10 C26  SEL L   1       1.872   1.336   0.300  1.00  0.00    -0.0462  C
ATOM     11 C27  SEL L   1       1.632  -0.334  -1.654  1.00  0.00    +0.0055  C
ATOM     12 H42  SEL L   1       1.148  -3.264  -0.036  1.00  0.00    +0.0427  H
ATOM     13 H43  SEL L   1       2.351  -2.860  -1.212  1.00  0.00    +0.0427  H
ATOM     14 H44  SEL L   1       3.234  -2.578   1.057  1.00  0.00    +0.0278  H
ATOM     15 H45  SEL L   1       1.968  -1.436   1.472  1.00  0.00    +0.0278  H
ATOM     16 H46  SEL L   1       4.021  -0.231   0.894  1.00  0.00    +0.0271  H
ATOM     17 H47  SEL L   1       4.179  -1.124  -0.607  1.00  0.00    +0.0271  H
ATOM     18 H48  SEL L   1       4.118   0.627  -2.280  1.00  0.00    +0.0271  H
ATOM     19 H49  SEL L   1       2.991   1.960  -2.152  1.00  0.00    +0.0271  H
ATOM     20 H50  SEL L   1       5.480   1.415  -0.518  1.00  0.00    +0.0265  H
ATOM     21 H51  SEL L   1       4.989   2.865  -1.365  1.00  0.00    +0.0265  H
ATOM     22 H52  SEL L   1       4.373   1.979   1.403  1.00  0.00    +0.0265  H
ATOM     23 H53  SEL L   1       4.487   3.599   0.749  1.00  0.00    +0.0265  H
ATOM     24 H54  SEL L   1       2.228   3.397  -0.237  1.00  0.00    +0.0265  H
ATOM     25 H55  SEL L   1       2.176   3.111   1.494  1.00  0.00    +0.0265  H
ATOM     26 H56  SEL L   1       0.865   1.556  -0.070  1.00  0.00    +0.0271  H
ATOM     27 H57  SEL L   1       1.737   0.841   1.269  1.00  0.00    +0.0271  H
ATOM     28 H58  SEL L   1       1.008   0.409  -2.162  1.00  0.00    +0.0432  H
ATOM     29 H59  SEL L   1       2.222  -0.775  -2.471  1.00  0.00    +0.0432  H
ENDROOT
BRANCH 1 30
ATOM     30  C6  SEL L   1      -0.369  -1.039  -0.312  1.00  0.00    +0.0976  C
ATOM     31 H32  SEL L   1      -0.009  -0.527   0.584  1.00  0.00    +0.0594  H
BRANCH 30 36
ATOM     32  F1  SEL L   1      -3.411  -5.493   1.444  1.00  0.00    -0.2055  F
ATOM     33  C2  SEL L   1      -2.691  -4.444   1.027  1.00  0.00    +0.1234  A
ATOM     34  C3  SEL L   1      -2.573  -4.191  -0.334  1.00  0.00    -0.0261  A
ATOM     35  C4  SEL L   1      -1.821  -3.099  -0.767  1.00  0.00    -0.0539  A
ATOM     36  C5  SEL L   1      -1.188  -2.250   0.162  1.00  0.00    -0.0227  A
ATOM     37 C28  SEL L   1      -1.316  -2.532   1.535  1.00  0.00    -0.0539  A
ATOM     38 C29  SEL L   1      -2.069  -3.627   1.964  1.00  0.00    -0.0261  A
ATOM     39 H30  SEL L   1      -3.063  -4.844  -1.049  1.00  0.00    +0.0646  H
ATOM     40 H31  SEL L   1      -1.725  -2.905  -1.836  1.00  0.00    +0.0622  H
ATOM     41 H60  SEL L   1      -0.826  -1.908   2.279  1.00  0.00    +0.0622  H
ATOM     42 H61  SEL L   1      -2.172  -3.853   3.020  1.00  0.00    +0.0646  H
ENDBRANCH 30 36
BRANCH 30 43
ATOM     43  C7  SEL L   1      -1.294  -0.094  -1.049  1.00  0.00    +0.1732  A
ATOM     44  N8  SEL L   1      -1.492  -0.007  -2.354  1.00  0.00    -0.1114 NA
ATOM     45  N9  SEL L   1      -2.418   0.981  -2.547  1.00  0.00    -0.0230 NA
ATOM     46 N10  SEL L   1      -2.811   1.492  -1.393  1.00  0.00    -0.0436 NA
ATOM     47 N11  SEL L   1      -2.130   0.818  -0.448  1.00  0.00    -0.2244  N
BRANCH 47 48
ATOM     48 C12  SEL L   1      -2.353   1.082   0.959  1.00  0.00    +0.0564  C
ATOM     49 C13  SEL L   1      -2.529   2.563   1.309  1.00  0.00    -0.0304  C
ATOM     50 C14  SEL L   1      -4.034   2.832   1.276  1.00  0.00    -0.0511  C
ATOM     51 C15  SEL L   1      -4.725   1.472   1.222  1.00  0.00    -0.0511  C
ATOM     52 C16  SEL L   1      -3.635   0.441   1.490  1.00  0.00    -0.0304  C
ATOM     53 H33  SEL L   1      -1.485   0.694   1.499  1.00  0.00    +0.0546  H
ATOM     54 H34  SEL L   1      -2.166   2.738   2.330  1.00  0.00    +0.0286  H
ATOM     55 H35  SEL L   1      -1.975   3.238   0.649  1.00  0.00    +0.0286  H
ATOM     56 H36  SEL L   1      -4.341   3.397   2.163  1.00  0.00    +0.0266  H
ATOM     57 H37  SEL L   1      -4.308   3.433   0.401  1.00  0.00    +0.0266  H
ATOM     58 H38  SEL L   1      -5.161   1.314   0.229  1.00  0.00    +0.0266  H
ATOM     59 H39  SEL L   1      -5.540   1.398   1.949  1.00  0.00    +0.0266  H
ATOM     60 H40  SEL L   1      -3.546   0.284   2.572  1.00  0.00    +0.0286  H
ATOM     61 H41  SEL L   1      -3.868  -0.524   1.028  1.00  0.00    +0.0286  H
ENDBRANCH 47 48
ENDBRANCH 30 43
ENDBRANCH 1 30
TORSDOF 4
