ROOT
ATOM      1 C14  952 L   1      -3.123  -0.120  -0.158  1.00  0.00    +0.2221  C
ATOM      2 C15  952 L   1      -4.179  -0.906   0.171  1.00  0.00    +0.1416  C
ATOM      3 C16  952 L   1      -4.160  -2.383   0.434  1.00  0.00    -0.0031  C
ATOM      4 O17  952 L   1      -5.477  -0.407   0.272  1.00  0.00    -0.4893 OA
ATOM      5 C18  952 L   1      -5.528   1.022   0.306  1.00  0.00    +0.1232  C
ATOM      6 C19  952 L   1      -4.632   1.577  -0.778  1.00  0.00    +0.1238  C
ATOM      7 O20  952 L   1      -3.272   1.225  -0.515  1.00  0.00    -0.4809 OA
ATOM      8 H33  952 L   1      -4.450  -2.589   1.472  1.00  0.00    +0.0309  H
ATOM      9 H34  952 L   1      -3.211  -2.879   0.244  1.00  0.00    +0.0309  H
ATOM     10 H35  952 L   1      -4.889  -2.865  -0.221  1.00  0.00    +0.0309  H
ATOM     11 H36  952 L   1      -6.565   1.328   0.143  1.00  0.00    +0.0731  H
ATOM     12 H37  952 L   1      -5.219   1.359   1.301  1.00  0.00    +0.0731  H
ATOM     13 H38  952 L   1      -4.696   2.667  -0.812  1.00  0.00    +0.0731  H
ATOM     14 H39  952 L   1      -4.909   1.185  -1.766  1.00  0.00    +0.0731  H
ENDROOT
BRANCH 1 16
ATOM     15 N11  952 L   1      -0.863   0.240  -0.866  1.00  0.00    -0.3491  N
ATOM     16 C12  952 L   1      -1.697  -0.627  -0.197  1.00  0.00    +0.2901  C
ATOM     17 O13  952 L   1      -1.320  -1.674   0.306  1.00  0.00    -0.2641 OA
ATOM     18 H32  952 L   1      -1.267   1.118  -1.175  1.00  0.00    +0.1627 HD
BRANCH 15 19
ATOM     19 C10  952 L   1       0.574   0.060  -0.942  1.00  0.00    +0.0226  C
ATOM     20 H30  952 L   1       0.815  -1.004  -0.872  1.00  0.00    +0.0489  H
ATOM     21 H31  952 L   1       0.877   0.409  -1.935  1.00  0.00    +0.0489  H
BRANCH 19 22
ATOM     22  C9  952 L   1       1.297   0.848   0.150  1.00  0.00    -0.0067  C
ATOM     23 H28  952 L   1       1.045   0.452   1.136  1.00  0.00    +0.0331  H
ATOM     24 H29  952 L   1       0.933   1.885   0.164  1.00  0.00    +0.0331  H
BRANCH 22 30
ATOM     25  C3  952 L   1       3.614  -0.164   0.468  1.00  0.00    +0.1233  A
ATOM     26  C4  952 L   1       4.992  -0.125   0.239  1.00  0.00    -0.0197  A
ATOM     27  C5  952 L   1       5.557   0.907  -0.517  1.00  0.00    -0.0583  A
ATOM     28  C6  952 L   1       4.750   1.909  -1.046  1.00  0.00    -0.0613  A
ATOM     29  C7  952 L   1       3.377   1.887  -0.817  1.00  0.00    -0.0551  A
ATOM     30  C8  952 L   1       2.795   0.854  -0.056  1.00  0.00    -0.0041  A
ATOM     31 H24  952 L   1       5.656  -0.895   0.623  1.00  0.00    +0.0654  H
ATOM     32 H25  952 L   1       6.627   0.919  -0.695  1.00  0.00    +0.0619  H
ATOM     33 H26  952 L   1       5.189   2.706  -1.638  1.00  0.00    +0.0618  H
ATOM     34 H27  952 L   1       2.757   2.675  -1.240  1.00  0.00    +0.0621  H
BRANCH 25 36
ATOM     35  C1  952 L   1       3.768  -2.154   1.778  1.00  0.00    +0.0788  C
ATOM     36  O2  952 L   1       2.969  -1.148   1.165  1.00  0.00    -0.4948 OA
ATOM     37 H21  952 L   1       4.292  -2.753   1.026  1.00  0.00    +0.0660  H
ATOM     38 H22  952 L   1       3.103  -2.821   2.328  1.00  0.00    +0.0660  H
ATOM     39 H23  952 L   1       4.468  -1.721   2.496  1.00  0.00    +0.0660  H
ENDBRANCH 25 36
ENDBRANCH 22 30
ENDBRANCH 19 22
ENDBRANCH 15 19
ENDBRANCH 1 16
TORSDOF 5
