ROOT
ATOM      1  N3  328 L   1      -1.521   0.008  -1.000  1.00  0.00    -0.2899 NA
ATOM      2  C4  328 L   1      -0.228   0.477  -1.559  1.00  0.00    +0.0173  C
ATOM      3  C5  328 L   1       0.639   1.322  -0.592  1.00  0.00    +0.0343  C
ATOM      4  N6  328 L   1       0.867   0.601   0.664  1.00  0.00    -0.3354  N
ATOM      5  C7  328 L   1       1.956  -0.257   0.763  1.00  0.00    +0.2504  C
ATOM      6  O8  328 L   1       1.874  -1.416   1.163  1.00  0.00    -0.2678 OA
ATOM      7 C14  328 L   1      -0.385   0.142   1.286  1.00  0.00    +0.0441  C
ATOM      8 C15  328 L   1      -1.235  -0.705   0.297  1.00  0.00    +0.0866  C
ATOM      9 H27  328 L   1       0.346  -0.415  -1.847  1.00  0.00    +0.0444  H
ATOM     10 H28  328 L   1      -0.377   1.025  -2.494  1.00  0.00    +0.0444  H
ATOM     11 H29  328 L   1       0.148   2.271  -0.350  1.00  0.00    +0.0501  H
ATOM     12 H30  328 L   1       1.581   1.552  -1.095  1.00  0.00    +0.0501  H
ATOM     13 H38  328 L   1      -0.153  -0.438   2.188  1.00  0.00    +0.0508  H
ATOM     14 H39  328 L   1      -0.929   1.036   1.617  1.00  0.00    +0.0508  H
ATOM     15 H40  328 L   1      -0.628  -1.583   0.033  1.00  0.00    +0.0561  H
ENDROOT
BRANCH 1 17
ATOM     16  C1  328 L   1      -2.925   1.734  -2.152  1.00  0.00    -0.0523  C
ATOM     17  C2  328 L   1      -2.494   1.106  -0.828  1.00  0.00    -0.0032  C
ATOM     18 H22  328 L   1      -2.124   2.324  -2.607  1.00  0.00    +0.0242  H
ATOM     19 H23  328 L   1      -3.248   0.970  -2.866  1.00  0.00    +0.0242  H
ATOM     20 H24  328 L   1      -3.770   2.411  -1.984  1.00  0.00    +0.0242  H
ATOM     21 H25  328 L   1      -3.413   0.719  -0.376  1.00  0.00    +0.0424  H
ATOM     22 H26  328 L   1      -2.122   1.892  -0.163  1.00  0.00    +0.0424  H
ENDBRANCH 1 17
BRANCH 5 23
ATOM     23  C9  328 L   1       3.275   0.326   0.431  1.00  0.00    +0.0129  C
ATOM     24 C10  328 L   1       4.286  -0.393  -0.073  1.00  0.00    -0.0757  C
ATOM     25 C11  328 L   1       5.525   0.425  -0.199  1.00  0.00    -0.0338  C
ATOM     26 C12  328 L   1       5.210   1.643   0.670  1.00  0.00    -0.0454  C
ATOM     27 C13  328 L   1       3.683   1.727   0.746  1.00  0.00    -0.0226  C
ATOM     28 H31  328 L   1       4.225  -1.441  -0.335  1.00  0.00    +0.0576  H
ATOM     29 H32  328 L   1       5.694   0.705  -1.244  1.00  0.00    +0.0308  H
ATOM     30 H33  328 L   1       6.406  -0.106   0.175  1.00  0.00    +0.0308  H
ATOM     31 H34  328 L   1       5.654   2.561   0.272  1.00  0.00    +0.0271  H
ATOM     32 H35  328 L   1       5.621   1.495   1.678  1.00  0.00    +0.0271  H
ATOM     33 H36  328 L   1       3.304   2.434   0.003  1.00  0.00    +0.0315  H
ATOM     34 H37  328 L   1       3.357   2.046   1.740  1.00  0.00    +0.0315  H
ENDBRANCH 5 23
BRANCH 8 35
ATOM     35 C16  328 L   1      -2.480  -1.238   0.966  1.00  0.00    +0.1284  A
ATOM     36 N17  328 L   1      -3.073  -0.731   2.034  1.00  0.00    -0.2389 NA
ATOM     37 C18  328 L   1      -4.156  -1.531   2.280  1.00  0.00    +0.0458  A
ATOM     38 C19  328 L   1      -4.240  -2.536   1.348  1.00  0.00    +0.0240  A
ATOM     39 N20  328 L   1      -3.176  -2.337   0.514  1.00  0.00    -0.3361  N
ATOM     40 C21  328 L   1      -2.859  -3.137  -0.645  1.00  0.00    +0.0130  C
ATOM     41 H41  328 L   1      -4.819  -1.340   3.114  1.00  0.00    +0.0845  H
ATOM     42 H42  328 L   1      -4.948  -3.342   1.216  1.00  0.00    +0.0825  H
ATOM     43 H43  328 L   1      -1.857  -3.556  -0.519  1.00  0.00    +0.0456  H
ATOM     44 H44  328 L   1      -2.907  -2.502  -1.533  1.00  0.00    +0.0456  H
ATOM     45 H45  328 L   1      -3.584  -3.949  -0.736  1.00  0.00    +0.0456  H
ENDBRANCH 8 35
TORSDOF 3
