ROOT
ATOM      1  C1  MCU L   1       6.721  -2.567  -0.452  1.00  0.00    -0.0397  C
ATOM      2  C2  MCU L   1       5.737  -1.484  -0.786  1.00  0.00    -0.0498  A
ATOM      3  C3  MCU L   1       6.160  -0.320  -1.440  1.00  0.00    -0.0569  A
ATOM      4  C4  MCU L   1       5.255   0.705  -1.721  1.00  0.00    -0.0375  A
ATOM      5  C5  MCU L   1       3.923   0.570  -1.336  1.00  0.00    +0.0492  A
ATOM      6  N6  MCU L   1       3.006   1.585  -1.618  1.00  0.00    -0.3218  N
ATOM      7  C7  MCU L   1       1.682   1.528  -1.280  1.00  0.00    +0.2543  A
ATOM      8  O8  MCU L   1       0.912   2.429  -1.607  1.00  0.00    -0.2675 OA
ATOM      9  C9  MCU L   1       1.203   0.317  -0.527  1.00  0.00    +0.0421  A
ATOM     10 C28  MCU L   1       2.079  -0.673  -0.271  1.00  0.00    -0.0424  A
ATOM     11 C29  MCU L   1       3.484  -0.577  -0.671  1.00  0.00    -0.0009  A
ATOM     12 C30  MCU L   1       4.395  -1.601  -0.392  1.00  0.00    -0.0497  A
ATOM     13 H31  MCU L   1       7.529  -2.602  -1.190  1.00  0.00    +0.0278  H
ATOM     14 H32  MCU L   1       7.153  -2.388   0.537  1.00  0.00    +0.0278  H
ATOM     15 H33  MCU L   1       6.236  -3.549  -0.456  1.00  0.00    +0.0278  H
ATOM     16 H34  MCU L   1       7.202  -0.204  -1.734  1.00  0.00    +0.0621  H
ATOM     17 H35  MCU L   1       5.601   1.599  -2.232  1.00  0.00    +0.0638  H
ATOM     18 H36  MCU L   1       3.303   2.418  -2.107  1.00  0.00    +0.1689 HD
ATOM     19 H59  MCU L   1       1.788  -1.570   0.256  1.00  0.00    +0.0629  H
ATOM     20 H60  MCU L   1       4.067  -2.493   0.137  1.00  0.00    +0.0627  H
ENDROOT
BRANCH 9 21
ATOM     21 C10  MCU L   1      -0.279   0.378  -0.171  1.00  0.00    +0.1027  C
ATOM     22 H37  MCU L   1      -0.763   0.783  -1.072  1.00  0.00    +0.0596  H
BRANCH 21 23
ATOM     23 C11  MCU L   1      -0.568   1.370   0.931  1.00  0.00    +0.1733  A
ATOM     24 N12  MCU L   1       0.170   1.623   1.999  1.00  0.00    -0.1114 NA
ATOM     25 N13  MCU L   1      -0.481   2.607   2.696  1.00  0.00    -0.0230 NA
ATOM     26 N14  MCU L   1      -1.600   2.962   2.084  1.00  0.00    -0.0436 NA
ATOM     27 N15  MCU L   1      -1.672   2.181   0.989  1.00  0.00    -0.2244  N
BRANCH 27 28
ATOM     28 C16  MCU L   1      -2.778   2.296   0.062  1.00  0.00    +0.0564  C
ATOM     29 C17  MCU L   1      -2.593   3.481  -0.901  1.00  0.00    -0.0304  C
ATOM     30 C18  MCU L   1      -3.937   4.198  -0.930  1.00  0.00    -0.0511  C
ATOM     31 C19  MCU L   1      -4.501   3.962   0.461  1.00  0.00    -0.0511  C
ATOM     32 C20  MCU L   1      -4.148   2.506   0.732  1.00  0.00    -0.0304  C
ATOM     33 H38  MCU L   1      -2.826   1.358  -0.501  1.00  0.00    +0.0546  H
ATOM     34 H39  MCU L   1      -2.302   3.144  -1.902  1.00  0.00    +0.0286  H
ATOM     35 H40  MCU L   1      -1.814   4.170  -0.552  1.00  0.00    +0.0286  H
ATOM     36 H41  MCU L   1      -4.590   3.744  -1.685  1.00  0.00    +0.0266  H
ATOM     37 H42  MCU L   1      -3.835   5.261  -1.163  1.00  0.00    +0.0266  H
ATOM     38 H43  MCU L   1      -4.008   4.617   1.189  1.00  0.00    +0.0266  H
ATOM     39 H44  MCU L   1      -5.578   4.143   0.509  1.00  0.00    +0.0266  H
ATOM     40 H45  MCU L   1      -4.171   2.266   1.800  1.00  0.00    +0.0286  H
ATOM     41 H46  MCU L   1      -4.890   1.864   0.240  1.00  0.00    +0.0286  H
ENDBRANCH 27 28
ENDBRANCH 21 23
BRANCH 21 42
ATOM     42 N21  MCU L   1      -1.019  -0.882   0.071  1.00  0.00    -0.2887 NA
ATOM     43 C22  MCU L   1      -1.132  -1.752  -1.101  1.00  0.00    -0.0001  C
ATOM     44 C23  MCU L   1      -1.554  -3.185  -0.753  1.00  0.00    -0.0399  C
ATOM     45 C24  MCU L   1      -2.565  -3.208   0.387  1.00  0.00    -0.0481  C
ATOM     46 C25  MCU L   1      -2.041  -2.463   1.631  1.00  0.00    -0.0310  C
ATOM     47 C26  MCU L   1      -1.731  -3.436   2.769  1.00  0.00    -0.0613  C
ATOM     48 C27  MCU L   1      -0.802  -1.594   1.324  1.00  0.00    +0.0024  C
ATOM     49 H47  MCU L   1      -0.193  -1.811  -1.663  1.00  0.00    +0.0427  H
ATOM     50 H48  MCU L   1      -1.879  -1.319  -1.776  1.00  0.00    +0.0427  H
ATOM     51 H49  MCU L   1      -1.978  -3.670  -1.640  1.00  0.00    +0.0278  H
ATOM     52 H50  MCU L   1      -0.672  -3.770  -0.464  1.00  0.00    +0.0278  H
ATOM     53 H51  MCU L   1      -2.841  -4.242   0.624  1.00  0.00    +0.0269  H
ATOM     54 H52  MCU L   1      -3.486  -2.717   0.045  1.00  0.00    +0.0269  H
ATOM     55 H53  MCU L   1      -2.847  -1.802   1.981  1.00  0.00    +0.0310  H
ATOM     56 H54  MCU L   1      -1.385  -2.898   3.657  1.00  0.00    +0.0233  H
ATOM     57 H55  MCU L   1      -0.954  -4.151   2.479  1.00  0.00    +0.0233  H
ATOM     58 H56  MCU L   1      -2.625  -4.003   3.049  1.00  0.00    +0.0233  H
ATOM     59 H57  MCU L   1      -0.662  -0.914   2.171  1.00  0.00    +0.0429  H
ATOM     60 H58  MCU L   1       0.094  -2.222   1.281  1.00  0.00    +0.0429  H
ENDBRANCH 21 42
ENDBRANCH 9 21
TORSDOF 4
