ROOT
ATOM      1 C10  WH0 L   1       4.119   0.157   0.584  1.00  0.00    -0.0437  A
ATOM      2 C11  WH0 L   1       3.321  -0.976   0.857  1.00  0.00    -0.0580  A
ATOM      3 C12  WH0 L   1       1.940  -0.961   0.626  1.00  0.00    -0.0507  A
ATOM      4 C13  WH0 L   1       1.370   0.195   0.115  1.00  0.00    +0.0442  A
ATOM      5 C14  WH0 L   1       2.165   1.309  -0.152  1.00  0.00    +0.0509  A
ATOM      6 C15  WH0 L   1       3.528   1.320   0.067  1.00  0.00    -0.0346  A
ATOM      7 N16  WH0 L   1       1.400   2.353  -0.646  1.00  0.00    -0.3210  N
ATOM      8 C17  WH0 L   1       0.059   1.995  -0.738  1.00  0.00    +0.2902  C
ATOM      9 O18  WH0 L   1      -0.831   2.726  -1.150  1.00  0.00    -0.2665 OA
ATOM     10 C19  WH0 L   1      -0.075   0.492  -0.227  1.00  0.00    +0.2804  C
ATOM     11 O20  WH0 L   1      -0.852   0.336   0.954  1.00  0.00    -0.3368 OA
ATOM     12 C21  WH0 L   1      -2.250   0.428   0.672  1.00  0.00    +0.0637  C
ATOM     13 C22  WH0 L   1      -2.671  -0.688  -0.304  1.00  0.00    +0.0644  C
ATOM     14 C23  WH0 L   1      -3.511  -1.746   0.419  1.00  0.00    +0.0637  C
ATOM     15 O24  WH0 L   1      -4.756  -1.209   0.855  1.00  0.00    -0.3368 OA
ATOM     16 C25  WH0 L   1      -5.504  -0.660  -0.222  1.00  0.00    +0.2804  C
ATOM     17 O26  WH0 L   1      -4.787   0.375  -0.878  1.00  0.00    -0.3368 OA
ATOM     18 C27  WH0 L   1      -3.549  -0.087  -1.410  1.00  0.00    +0.0637  C
ATOM     19 C28  WH0 L   1      -6.190  -1.741  -1.185  1.00  0.00    +0.2902  C
ATOM     20 O29  WH0 L   1      -5.628  -2.546  -1.915  1.00  0.00    -0.2665 OA
ATOM     21 N30  WH0 L   1      -7.568  -1.617  -1.047  1.00  0.00    -0.3210  N
ATOM     22 C31  WH0 L   1      -7.893  -0.623  -0.138  1.00  0.00    +0.0507  A
ATOM     23 C32  WH0 L   1      -9.162  -0.235   0.241  1.00  0.00    -0.0378  A
ATOM     24 C33  WH0 L   1      -9.268   0.796   1.178  1.00  0.00    -0.0598  A
ATOM     25 C34  WH0 L   1      -8.118   1.408   1.707  1.00  0.00    -0.0612  A
ATOM     26 C35  WH0 L   1      -6.842   0.998   1.308  1.00  0.00    -0.0510  A
ATOM     27 C36  WH0 L   1      -6.742  -0.027   0.379  1.00  0.00    +0.0441  A
ATOM     28 C37  WH0 L   1      -1.419  -1.341  -0.892  1.00  0.00    +0.0637  C
ATOM     29 O38  WH0 L   1      -0.481  -0.356  -1.303  1.00  0.00    -0.3368 OA
ATOM     30 H46  WH0 L   1       3.775  -1.880   1.259  1.00  0.00    +0.0620  H
ATOM     31 H47  WH0 L   1       1.333  -1.832   0.848  1.00  0.00    +0.0623  H
ATOM     32 H48  WH0 L   1       4.124   2.200  -0.153  1.00  0.00    +0.0641  H
ATOM     33 H49  WH0 L   1       1.744   3.262  -0.914  1.00  0.00    +0.1688 HD
ATOM     34 H50  WH0 L   1      -2.476   1.432   0.296  1.00  0.00    +0.0569  H
ATOM     35 H51  WH0 L   1      -2.772   0.344   1.631  1.00  0.00    +0.0569  H
ATOM     36 H52  WH0 L   1      -2.985  -2.113   1.308  1.00  0.00    +0.0569  H
ATOM     37 H53  WH0 L   1      -3.693  -2.621  -0.214  1.00  0.00    +0.0569  H
ATOM     38 H54  WH0 L   1      -3.054   0.768  -1.884  1.00  0.00    +0.0569  H
ATOM     39 H55  WH0 L   1      -3.745  -0.809  -2.210  1.00  0.00    +0.0569  H
ATOM     40 H56  WH0 L   1      -8.225  -2.190  -1.553  1.00  0.00    +0.1688 HD
ATOM     41 H57  WH0 L   1     -10.049  -0.705  -0.168  1.00  0.00    +0.0638  H
ATOM     42 H58  WH0 L   1     -10.250   1.133   1.502  1.00  0.00    +0.0618  H
ATOM     43 H59  WH0 L   1      -8.222   2.211   2.434  1.00  0.00    +0.0618  H
ATOM     44 H60  WH0 L   1      -5.951   1.468   1.712  1.00  0.00    +0.0623  H
ATOM     45 H61  WH0 L   1      -1.668  -1.952  -1.767  1.00  0.00    +0.0569  H
ATOM     46 H62  WH0 L   1      -0.937  -2.015  -0.172  1.00  0.00    +0.0569  H
ENDROOT
BRANCH 1 47
ATOM     47  C9  WH0 L   1       5.609   0.112   0.819  1.00  0.00    -0.0101  C
ATOM     48 H44  WH0 L   1       5.837  -0.594   1.628  1.00  0.00    +0.0330  H
ATOM     49 H45  WH0 L   1       5.947   1.090   1.183  1.00  0.00    +0.0330  H
BRANCH 47 50
ATOM     50  C8  WH0 L   1       6.369  -0.286  -0.448  1.00  0.00    +0.0224  C
ATOM     51 H42  WH0 L   1       6.161   0.421  -1.261  1.00  0.00    +0.0489  H
ATOM     52 H43  WH0 L   1       6.063  -1.281  -0.788  1.00  0.00    +0.0489  H
BRANCH 50 55
ATOM     53  C5  WH0 L   1       8.561   0.820  -0.212  1.00  0.00    +0.2618  C
ATOM     54  O6  WH0 L   1       8.085   1.937  -0.379  1.00  0.00    -0.2669 OA
ATOM     55  N7  WH0 L   1       7.806  -0.333  -0.237  1.00  0.00    -0.3511  N
ATOM     56 H41  WH0 L   1       8.213  -1.211   0.056  1.00  0.00    +0.1627 HD
BRANCH 53 58
ATOM     57  C1  WH0 L   1      10.690  -0.419  -0.412  1.00  0.00    -0.0760  C
ATOM     58  C2  WH0 L   1      10.008   0.629   0.087  1.00  0.00    +0.1085  C
ATOM     59 H39  WH0 L   1      11.753  -0.538  -0.218  1.00  0.00    +0.0549  H
ATOM     60 H40  WH0 L   1      10.228  -1.161  -1.054  1.00  0.00    +0.0549  H
BRANCH 58 61
ATOM     61  C3  WH0 L   1      10.666   1.631   0.855  1.00  0.00    +0.1040  C
ATOM     62  N4  WH0 L   1      11.247   2.406   1.496  1.00  0.00    -0.1907 NA
ENDBRANCH 58 61
ENDBRANCH 53 58
ENDBRANCH 50 55
ENDBRANCH 47 50
ENDBRANCH 1 47
TORSDOF 5
