ROOT
ATOM      1  C3  CHE L   1       6.159  -0.369   0.888  1.00  0.00    +0.0518  A
ATOM      2  C4  CHE L   1       5.519   0.872   0.818  1.00  0.00    -0.0438  A
ATOM      3  C5  CHE L   1       4.230   0.968   0.283  1.00  0.00    -0.0534  A
ATOM      4  C6  CHE L   1       3.562  -0.174  -0.179  1.00  0.00    -0.0252  A
ATOM      5 C18  CHE L   1       4.217  -1.411  -0.119  1.00  0.00    -0.0534  A
ATOM      6 C19  CHE L   1       5.505  -1.511   0.416  1.00  0.00    -0.0438  A
ATOM      7 H20  CHE L   1       6.018   1.772   1.173  1.00  0.00    +0.0631  H
ATOM      8 H21  CHE L   1       3.759   1.947   0.222  1.00  0.00    +0.0624  H
ATOM      9 H35  CHE L   1       3.723  -2.311  -0.480  1.00  0.00    +0.0624  H
ATOM     10 H36  CHE L   1       5.990  -2.484   0.460  1.00  0.00    +0.0631  H
ENDROOT
BRANCH 1 12
ATOM     11  N1  CHE L   1       8.549  -0.548   1.879  1.00  0.00    -0.1909 NA
ATOM     12  C2  CHE L   1       7.480  -0.469   1.436  1.00  0.00    +0.0992  C
ENDBRANCH 1 12
BRANCH 4 13
ATOM     13  C7  CHE L   1       2.221  -0.109  -0.775  1.00  0.00    -0.0573  C
ATOM     14  C8  CHE L   1       1.230   0.674  -0.318  1.00  0.00    -0.0697  C
ATOM     15 H22  CHE L   1       2.044  -0.772  -1.619  1.00  0.00    +0.0621  H
ATOM     16 H23  CHE L   1       1.394   1.314   0.546  1.00  0.00    +0.0585  H
BRANCH 14 17
ATOM     17  C9  CHE L   1      -0.136   0.732  -0.930  1.00  0.00    +0.0146  C
ATOM     18 H24  CHE L   1      -0.333   1.762  -1.250  1.00  0.00    +0.0468  H
ATOM     19 H25  CHE L   1      -0.183   0.093  -1.820  1.00  0.00    +0.0468  H
BRANCH 17 20
ATOM     20 N10  CHE L   1      -1.130   0.303   0.049  1.00  0.00    -0.3125 NA
ATOM     21 H26  CHE L   1      -1.101   0.928   0.854  1.00  0.00    +0.1222 HD
BRANCH 20 22
ATOM     22 C11  CHE L   1      -2.476   0.304  -0.527  1.00  0.00    -0.0019  C
ATOM     23 H27  CHE L   1      -2.732   1.313  -0.869  1.00  0.00    +0.0425  H
ATOM     24 H28  CHE L   1      -2.511  -0.368  -1.393  1.00  0.00    +0.0425  H
BRANCH 22 25
ATOM     25 C12  CHE L   1      -3.482  -0.175   0.522  1.00  0.00    -0.0148  C
ATOM     26 H29  CHE L   1      -3.177  -1.167   0.881  1.00  0.00    +0.0298  H
ATOM     27 H30  CHE L   1      -3.456   0.485   1.400  1.00  0.00    +0.0298  H
BRANCH 25 28
ATOM     28 C13  CHE L   1      -4.913  -0.256  -0.027  1.00  0.00    +0.1044  C
ATOM     29 N14  CHE L   1      -5.533   1.074  -0.221  1.00  0.00    -0.3184 NA
ATOM     30 H31  CHE L   1      -4.926  -0.772  -0.994  1.00  0.00    +0.0574  H
ATOM     31 H32  CHE L   1      -5.829   1.415   0.698  1.00  0.00    +0.1190 HD
ATOM     32 H33  CHE L   1      -4.856   1.743  -0.574  1.00  0.00    +0.1190 HD
BRANCH 28 33
ATOM     33 C15  CHE L   1      -5.759  -1.096   0.937  1.00  0.00    +0.3218  C
ATOM     34 O16  CHE L   1      -5.886  -2.310   0.918  1.00  0.00    -0.2493 OA
ATOM     35 O17  CHE L   1      -6.342  -0.364   1.916  1.00  0.00    -0.4795 OA
ATOM     36 H34  CHE L   1      -6.839  -1.032   2.433  1.00  0.00    +0.2951 HD
ENDBRANCH 28 33
ENDBRANCH 25 28
ENDBRANCH 22 25
ENDBRANCH 20 22
ENDBRANCH 17 20
ENDBRANCH 14 17
ENDBRANCH 4 13
TORSDOF 8
