ROOT
ATOM      1  C1  EUB L   1      -1.135  -2.687   1.197  1.00  0.00    -0.0393  C
ATOM      2  C2  EUB L   1      -1.704  -1.501   0.461  1.00  0.00    -0.0433  A
ATOM      3  C3  EUB L   1      -2.782  -0.817   1.048  1.00  0.00    -0.0167  A
ATOM      4  C4  EUB L   1      -3.353   0.302   0.445  1.00  0.00    +0.1218  A
ATOM      5 C10  EUB L   1      -2.843   0.747  -0.771  1.00  0.00    -0.0167  A
ATOM      6 C11  EUB L   1      -1.753   0.095  -1.383  1.00  0.00    -0.0433  A
ATOM      7 C12  EUB L   1      -1.258   0.635  -2.701  1.00  0.00    -0.0393  C
ATOM      8 C13  EUB L   1      -1.170  -1.041  -0.767  1.00  0.00    -0.0370  A
ATOM      9 H25  EUB L   1      -1.026  -3.547   0.530  1.00  0.00    +0.0278  H
ATOM     10 H26  EUB L   1      -0.167  -2.432   1.636  1.00  0.00    +0.0278  H
ATOM     11 H27  EUB L   1      -1.796  -3.004   2.011  1.00  0.00    +0.0278  H
ATOM     12 H28  EUB L   1      -3.190  -1.160   1.997  1.00  0.00    +0.0657  H
ATOM     13 H32  EUB L   1      -3.280   1.599  -1.280  1.00  0.00    +0.0657  H
ATOM     14 H33  EUB L   1      -1.769   1.563  -2.976  1.00  0.00    +0.0278  H
ATOM     15 H34  EUB L   1      -1.442  -0.091  -3.499  1.00  0.00    +0.0278  H
ATOM     16 H35  EUB L   1      -0.189   0.863  -2.646  1.00  0.00    +0.0278  H
ENDROOT
BRANCH 4 17
ATOM     17  O5  EUB L   1      -4.396   0.850   1.137  1.00  0.00    -0.4808 OA
BRANCH 17 18
ATOM     18  C6  EUB L   1      -4.896   2.110   0.716  1.00  0.00    +0.1857  C
ATOM     19 H29  EUB L   1      -5.416   2.536   1.582  1.00  0.00    +0.0815  H
ATOM     20 H30  EUB L   1      -4.084   2.799   0.459  1.00  0.00    +0.0815  H
BRANCH 18 21
ATOM     21  C7  EUB L   1      -5.916   2.052  -0.411  1.00  0.00    +0.3427  C
ATOM     22  O8  EUB L   1      -6.367   1.067  -0.971  1.00  0.00    -0.2472 OA
ATOM     23  O9  EUB L   1      -6.328   3.284  -0.785  1.00  0.00    -0.4783 OA
ATOM     24 H31  EUB L   1      -6.981   3.103  -1.494  1.00  0.00    +0.2952 HD
ENDBRANCH 18 21
ENDBRANCH 17 18
ENDBRANCH 4 17
BRANCH 8 25
ATOM     25 C14  EUB L   1       0.011  -1.757  -1.411  1.00  0.00    -0.0019  C
ATOM     26 H36  EUB L   1       0.137  -1.464  -2.459  1.00  0.00    +0.0362  H
ATOM     27 H37  EUB L   1      -0.236  -2.826  -1.462  1.00  0.00    +0.0362  H
BRANCH 25 28
ATOM     28 C15  EUB L   1       1.350  -1.564  -0.725  1.00  0.00    -0.0426  A
ATOM     29 C16  EUB L   1       2.220  -2.651  -0.585  1.00  0.00    -0.0548  A
ATOM     30 C17  EUB L   1       3.468  -2.487   0.016  1.00  0.00    -0.0196  A
ATOM     31 C18  EUB L   1       3.863  -1.230   0.473  1.00  0.00    +0.1203  A
ATOM     32 O19  EUB L   1       5.088  -1.087   1.061  1.00  0.00    -0.5065 OA
ATOM     33 C20  EUB L   1       3.028  -0.114   0.337  1.00  0.00    -0.0031  A
ATOM     34 C24  EUB L   1       1.773  -0.302  -0.274  1.00  0.00    -0.0514  A
ATOM     35 H38  EUB L   1       1.930  -3.637  -0.940  1.00  0.00    +0.0622  H
ATOM     36 H39  EUB L   1       4.119  -3.350   0.117  1.00  0.00    +0.0654  H
ATOM     37 H40  EUB L   1       5.527  -1.952   1.086  1.00  0.00    +0.2921 HD
ATOM     38 H48  EUB L   1       1.109   0.553  -0.391  1.00  0.00    +0.0624  H
BRANCH 33 39
ATOM     39 C21  EUB L   1       3.401   1.281   0.813  1.00  0.00    -0.0181  C
ATOM     40 C22  EUB L   1       4.619   1.844   0.076  1.00  0.00    -0.0585  C
ATOM     41 C23  EUB L   1       3.586   1.350   2.331  1.00  0.00    -0.0585  C
ATOM     42 H41  EUB L   1       2.565   1.954   0.576  1.00  0.00    +0.0345  H
ATOM     43 H42  EUB L   1       4.476   1.798  -1.010  1.00  0.00    +0.0235  H
ATOM     44 H43  EUB L   1       4.779   2.893   0.348  1.00  0.00    +0.0235  H
ATOM     45 H44  EUB L   1       5.539   1.301   0.314  1.00  0.00    +0.0235  H
ATOM     46 H45  EUB L   1       4.457   0.782   2.671  1.00  0.00    +0.0235  H
ATOM     47 H46  EUB L   1       3.725   2.388   2.652  1.00  0.00    +0.0235  H
ATOM     48 H47  EUB L   1       2.706   0.955   2.850  1.00  0.00    +0.0235  H
ENDBRANCH 33 39
ENDBRANCH 25 28
ENDBRANCH 8 25
TORSDOF 6
