ROOT
ATOM      1  C1  SEL L   1      -0.995   4.512  -1.244  1.00  0.00    +0.0145  C
ATOM      2  C2  SEL L   1      -0.340   3.192  -0.918  1.00  0.00    +0.2214  C
ATOM      3  O3  SEL L   1       0.812   2.980  -1.296  1.00  0.00    -0.2733 OA
ATOM      4  N4  SEL L   1      -1.075   2.265  -0.187  1.00  0.00    -0.3244  N
ATOM      5  C5  SEL L   1      -2.504   2.447   0.098  1.00  0.00    +0.1008  C
ATOM      6  C6  SEL L   1      -3.363   1.177  -0.002  1.00  0.00    +0.2474  C
ATOM      7  O7  SEL L   1      -4.532   1.272  -0.377  1.00  0.00    -0.2707 OA
ATOM      8  N8  SEL L   1      -2.757   0.017   0.508  1.00  0.00    -0.3084  N
ATOM      9 C15  SEL L   1      -1.450   0.177   1.145  1.00  0.00    +0.0515  C
ATOM     10 C16  SEL L   1      -0.457   0.981   0.256  1.00  0.00    +0.0813  C
ATOM     11 C17  SEL L   1      -0.031   0.103  -0.957  1.00  0.00    -0.0084  C
ATOM     12 C18  SEL L   1       1.489   0.034  -0.920  1.00  0.00    +0.0238  C
ATOM     13 N19  SEL L   1       1.844   0.326   0.453  1.00  0.00    -0.3359  N
ATOM     14 C20  SEL L   1       3.042   0.072   1.092  1.00  0.00    +0.2547  C
ATOM     15 O21  SEL L   1       3.236   0.326   2.278  1.00  0.00    -0.2674 OA
ATOM     16 C29  SEL L   1       0.845   1.167   1.080  1.00  0.00    +0.0466  C
ATOM     17 H30  SEL L   1      -0.230   5.221  -1.575  1.00  0.00    +0.0325  H
ATOM     18 H31  SEL L   1      -1.476   4.937  -0.359  1.00  0.00    +0.0325  H
ATOM     19 H32  SEL L   1      -1.718   4.380  -2.053  1.00  0.00    +0.0325  H
ATOM     20 H33  SEL L   1      -2.942   3.177  -0.587  1.00  0.00    +0.0587  H
ATOM     21 H34  SEL L   1      -2.590   2.840   1.118  1.00  0.00    +0.0587  H
ATOM     22 H40  SEL L   1      -1.624   0.702   2.094  1.00  0.00    +0.0516  H
ATOM     23 H41  SEL L   1      -0.994  -0.791   1.376  1.00  0.00    +0.0516  H
ATOM     24 H42  SEL L   1      -0.390   0.482  -1.920  1.00  0.00    +0.0306  H
ATOM     25 H43  SEL L   1      -0.423  -0.917  -0.860  1.00  0.00    +0.0306  H
ATOM     26 H44  SEL L   1       1.863  -0.949  -1.223  1.00  0.00    +0.0489  H
ATOM     27 H45  SEL L   1       1.939   0.790  -1.568  1.00  0.00    +0.0489  H
ATOM     28 H50  SEL L   1       0.736   0.880   2.133  1.00  0.00    +0.0512  H
ATOM     29 H51  SEL L   1       1.218   2.196   1.072  1.00  0.00    +0.0512  H
ENDROOT
BRANCH 8 30
ATOM     30  C9  SEL L   1      -3.433  -1.247   0.558  1.00  0.00    +0.0447  A
ATOM     31 C10  SEL L   1      -4.429  -1.575  -0.374  1.00  0.00    -0.0381  A
ATOM     32 C11  SEL L   1      -5.077  -2.816  -0.343  1.00  0.00    -0.0598  A
ATOM     33 C12  SEL L   1      -4.742  -3.756   0.624  1.00  0.00    -0.0616  A
ATOM     34 C13  SEL L   1      -3.760  -3.454   1.560  1.00  0.00    -0.0598  A
ATOM     35 C14  SEL L   1      -3.112  -2.213   1.526  1.00  0.00    -0.0381  A
ATOM     36 H35  SEL L   1      -4.710  -0.887  -1.167  1.00  0.00    +0.0638  H
ATOM     37 H36  SEL L   1      -5.844  -3.041  -1.081  1.00  0.00    +0.0618  H
ATOM     38 H37  SEL L   1      -5.248  -4.717   0.650  1.00  0.00    +0.0618  H
ATOM     39 H38  SEL L   1      -3.501  -4.180   2.327  1.00  0.00    +0.0618  H
ATOM     40 H39  SEL L   1      -2.385  -2.019   2.308  1.00  0.00    +0.0638  H
ENDBRANCH 8 30
BRANCH 14 41
ATOM     41 C22  SEL L   1       4.131  -0.571   0.326  1.00  0.00    +0.0393  A
ATOM     42 C23  SEL L   1       4.646  -1.790   0.783  1.00  0.00    -0.0467  A
ATOM     43 C24  SEL L   1       5.689  -2.402   0.087  1.00  0.00    -0.0257  A
ATOM     44 C25  SEL L   1       6.214  -1.784  -1.045  1.00  0.00    +0.1234  A
ATOM     45 F26  SEL L   1       7.215  -2.373  -1.711  1.00  0.00    -0.2055  F
ATOM     46 C27  SEL L   1       5.723  -0.560  -1.492  1.00  0.00    -0.0257  A
ATOM     47 C28  SEL L   1       4.680   0.057  -0.799  1.00  0.00    -0.0467  A
ATOM     48 H46  SEL L   1       4.239  -2.254   1.678  1.00  0.00    +0.0626  H
ATOM     49 H47  SEL L   1       6.100  -3.349   0.422  1.00  0.00    +0.0646  H
ATOM     50 H48  SEL L   1       6.162  -0.092  -2.367  1.00  0.00    +0.0646  H
ATOM     51 H49  SEL L   1       4.311   1.027  -1.126  1.00  0.00    +0.0626  H
ENDBRANCH 14 41
TORSDOF 2
