ROOT
ATOM      1  C1  MCU L   1      -2.030  -2.633  -2.448  1.00  0.00    -0.0362  C
ATOM      2  C2  MCU L   1      -0.897  -2.933  -1.505  1.00  0.00    -0.0075  A
ATOM      3  C3  MCU L   1      -0.162  -4.114  -1.644  1.00  0.00    -0.0540  A
ATOM      4  C4  MCU L   1       0.893  -4.382  -0.780  1.00  0.00    -0.0447  A
ATOM      5  C5  MCU L   1       1.220  -3.464   0.215  1.00  0.00    +0.0146  A
ATOM      6  N6  MCU L   1       0.514  -2.296   0.355  1.00  0.00    -0.2674  N
ATOM      7  C7  MCU L   1       0.870  -1.377   1.311  1.00  0.00    +0.2676  A
ATOM      8  O8  MCU L   1       1.842  -1.604   2.088  1.00  0.00    -0.2665 OA
ATOM      9  C9  MCU L   1       0.179  -0.158   1.421  1.00  0.00    +0.0838  A
ATOM     10 C24  MCU L   1      -0.943   0.052   0.599  1.00  0.00    +0.1445  A
ATOM     11 N31  MCU L   1      -1.254  -0.879  -0.338  1.00  0.00    -0.2114 NA
ATOM     12 C32  MCU L   1      -0.545  -2.028  -0.485  1.00  0.00    +0.1455  A
ATOM     13 H33  MCU L   1      -2.170  -3.447  -3.192  1.00  0.00    +0.0279  H
ATOM     14 H34  MCU L   1      -2.974  -2.516  -1.875  1.00  0.00    +0.0279  H
ATOM     15 H35  MCU L   1      -1.817  -1.692  -2.997  1.00  0.00    +0.0279  H
ATOM     16 H36  MCU L   1      -0.403  -4.828  -2.421  1.00  0.00    +0.0622  H
ATOM     17 H37  MCU L   1       1.465  -5.294  -0.887  1.00  0.00    +0.0632  H
ATOM     18 H38  MCU L   1       2.058  -3.696   0.862  1.00  0.00    +0.0814  H
ENDROOT
BRANCH 9 19
ATOM     19 C10  MCU L   1       0.657   0.865   2.373  1.00  0.00    -0.0169  C
ATOM     20 C11  MCU L   1       1.341   1.967   2.022  1.00  0.00    +0.1484  C
ATOM     21 H39  MCU L   1       0.497   0.656   3.425  1.00  0.00    +0.0646  H
BRANCH 20 22
ATOM     22 C12  MCU L   1       1.772   2.866   3.060  1.00  0.00    +0.1114  C
ATOM     23 N13  MCU L   1       2.121   3.589   3.895  1.00  0.00    -0.1902 NA
ENDBRANCH 20 22
BRANCH 20 24
ATOM     24 S14  MCU L   1       1.763   2.381   0.352  1.00  0.00    +0.2170  S
ATOM     25 O15  MCU L   1       2.917   3.345   0.361  1.00  0.00    -0.2163 OA
ATOM     26 O16  MCU L   1       0.588   3.061  -0.289  1.00  0.00    -0.2163 OA
BRANCH 24 27
ATOM     27 C17  MCU L   1       2.252   0.975  -0.593  1.00  0.00    +0.0721  A
ATOM     28 C18  MCU L   1       3.369   0.225  -0.200  1.00  0.00    -0.0418  A
ATOM     29 C19  MCU L   1       3.732  -0.921  -0.915  1.00  0.00    -0.0422  A
ATOM     30 C20  MCU L   1       2.985  -1.318  -2.030  1.00  0.00    +0.0410  A
ATOM     31 CL21 MCU L   1       3.424  -2.769  -2.911  1.00  0.00    -0.0835 Cl
ATOM     32 C22  MCU L   1       1.882  -0.561  -2.437  1.00  0.00    -0.0422  A
ATOM     33 C23  MCU L   1       1.521   0.586  -1.725  1.00  0.00    -0.0418  A
ATOM     34 H40  MCU L   1       3.942   0.515   0.673  1.00  0.00    +0.0631  H
ATOM     35 H41  MCU L   1       4.584  -1.504  -0.595  1.00  0.00    +0.0632  H
ATOM     36 H42  MCU L   1       1.298  -0.866  -3.296  1.00  0.00    +0.0632  H
ATOM     37 H43  MCU L   1       0.661   1.156  -2.049  1.00  0.00    +0.0631  H
ENDBRANCH 24 27
ENDBRANCH 20 24
ENDBRANCH 9 19
BRANCH 10 38
ATOM     38 N25  MCU L   1      -1.774   1.223   0.724  1.00  0.00    -0.3508  N
ATOM     39 C26  MCU L   1      -2.502   1.453   1.976  1.00  0.00    +0.0435  C
ATOM     40 C27  MCU L   1      -2.917   2.924   2.063  1.00  0.00    +0.0653  C
ATOM     41 O28  MCU L   1      -3.659   3.296   0.917  1.00  0.00    -0.3763 OA
ATOM     42 C29  MCU L   1      -2.830   3.233  -0.228  1.00  0.00    +0.0653  C
ATOM     43 C30  MCU L   1      -2.361   1.795  -0.492  1.00  0.00    +0.0435  C
ATOM     44 H44  MCU L   1      -1.888   1.195   2.862  1.00  0.00    +0.0511  H
ATOM     45 H45  MCU L   1      -3.411   0.813   1.991  1.00  0.00    +0.0511  H
ATOM     46 H46  MCU L   1      -2.023   3.576   2.196  1.00  0.00    +0.0577  H
ATOM     47 H47  MCU L   1      -3.559   3.062   2.959  1.00  0.00    +0.0577  H
ATOM     48 H48  MCU L   1      -3.420   3.573  -1.107  1.00  0.00    +0.0577  H
ATOM     49 H49  MCU L   1      -1.965   3.925  -0.131  1.00  0.00    +0.0577  H
ATOM     50 H50  MCU L   1      -1.614   1.800  -1.316  1.00  0.00    +0.0511  H
ATOM     51 H51  MCU L   1      -3.229   1.175  -0.809  1.00  0.00    +0.0511  H
ENDBRANCH 10 38
TORSDOF 5
