ROOT
ATOM      1  C3  158 L   1       4.389   0.744  -1.192  1.00  0.00    +0.1236  A
ATOM      2  C4  158 L   1       4.176  -0.529  -0.661  1.00  0.00    -0.0192  A
ATOM      3  C5  158 L   1       2.992  -0.816   0.029  1.00  0.00    -0.0476  A
ATOM      4  C6  158 L   1       2.017   0.170   0.200  1.00  0.00    +0.0174  A
ATOM      5  C7  158 L   1       2.238   1.448  -0.324  1.00  0.00    +0.1316  A
ATOM      6  C8  158 L   1       3.412   1.729  -1.023  1.00  0.00    +0.0224  A
ATOM      7  O9  158 L   1       1.323   2.464  -0.234  1.00  0.00    -0.4865 OA
ATOM      8 C10  158 L   1       0.310   2.321   0.780  1.00  0.00    +0.1197  C
ATOM      9 C11  158 L   1      -0.053   0.910   1.117  1.00  0.00    +0.0544  C
ATOM     10 C21  158 L   1       0.762  -0.125   0.879  1.00  0.00    -0.0395  C
ATOM     11 H25  158 L   1       4.908  -1.322  -0.768  1.00  0.00    +0.0654  H
ATOM     12 H26  158 L   1       2.843  -1.816   0.430  1.00  0.00    +0.0626  H
ATOM     13 H27  158 L   1       3.568   2.721  -1.439  1.00  0.00    +0.0691  H
ATOM     14 H28  158 L   1       0.654   2.850   1.677  1.00  0.00    +0.0749  H
ATOM     15 H29  158 L   1      -0.572   2.850   0.403  1.00  0.00    +0.0749  H
ATOM     16 H41  158 L   1       0.532  -1.140   1.178  1.00  0.00    +0.0630  H
ENDROOT
BRANCH 1 18
ATOM     17  C1  158 L   1       6.495   0.171  -2.136  1.00  0.00    +0.0788  C
ATOM     18  O2  158 L   1       5.494   1.149  -1.889  1.00  0.00    -0.4950 OA
ATOM     19 H22  158 L   1       7.292   0.647  -2.716  1.00  0.00    +0.0660  H
ATOM     20 H23  158 L   1       6.099  -0.657  -2.734  1.00  0.00    +0.0660  H
ATOM     21 H24  158 L   1       6.934  -0.190  -1.201  1.00  0.00    +0.0660  H
ENDBRANCH 1 18
BRANCH 9 22
ATOM     22 C12  158 L   1      -1.333   0.721   1.838  1.00  0.00    +0.2539  C
ATOM     23 O13  158 L   1      -1.517   1.338   2.884  1.00  0.00    -0.2676 OA
ATOM     24 N14  158 L   1      -2.270  -0.133   1.277  1.00  0.00    -0.3370  N
ATOM     25 C15  158 L   1      -3.495  -0.393   2.030  1.00  0.00    +0.0216  C
ATOM     26 C16  158 L   1      -4.104  -1.741   1.665  1.00  0.00    -0.0338  C
ATOM     27 C17  158 L   1      -4.405  -1.874   0.169  1.00  0.00    -0.0345  C
ATOM     28 C18  158 L   1      -3.625  -0.869  -0.692  1.00  0.00    +0.0227  C
ATOM     29 N19  158 L   1      -3.600  -1.327  -2.084  1.00  0.00    -0.3258 NA
ATOM     30 C20  158 L   1      -2.220  -0.620  -0.109  1.00  0.00    +0.0366  C
ATOM     31 H30  158 L   1      -4.197   0.421   1.814  1.00  0.00    +0.0489  H
ATOM     32 H31  158 L   1      -3.281  -0.364   3.105  1.00  0.00    +0.0489  H
ATOM     33 H32  158 L   1      -3.400  -2.534   1.951  1.00  0.00    +0.0283  H
ATOM     34 H33  158 L   1      -5.019  -1.914   2.244  1.00  0.00    +0.0283  H
ATOM     35 H34  158 L   1      -4.185  -2.906  -0.133  1.00  0.00    +0.0281  H
ATOM     36 H35  158 L   1      -5.479  -1.732  -0.004  1.00  0.00    +0.0281  H
ATOM     37 H36  158 L   1      -4.171   0.084  -0.676  1.00  0.00    +0.0476  H
ATOM     38 H37  158 L   1      -3.083  -2.202  -2.158  1.00  0.00    +0.1185 HD
ATOM     39 H38  158 L   1      -3.100  -0.651  -2.662  1.00  0.00    +0.1185 HD
ATOM     40 H39  158 L   1      -1.687   0.104  -0.734  1.00  0.00    +0.0504  H
ATOM     41 H40  158 L   1      -1.644  -1.553  -0.103  1.00  0.00    +0.0504  H
ENDBRANCH 9 22
TORSDOF 2
