ROOT
ATOM      1  C8  WH0 L   1      -2.086  -1.269   1.064  1.00  0.00    -0.0323  A
ATOM      2  C9  WH0 L   1      -0.802  -1.223   1.656  1.00  0.00    -0.0101  A
ATOM      3 C32  WH0 L   1      -0.561  -1.838   2.910  1.00  0.00    -0.0517  A
ATOM      4 C33  WH0 L   1      -1.573  -2.513   3.594  1.00  0.00    -0.0374  A
ATOM      5 C34  WH0 L   1      -2.810  -2.555   2.997  1.00  0.00    +0.0457  A
ATOM      6 C35  WH0 L   1      -3.078  -1.952   1.767  1.00  0.00    -0.0112  A
ATOM      7 C36  WH0 L   1      -4.525  -2.185   1.421  1.00  0.00    +0.0538  C
ATOM      8 C37  WH0 L   1      -5.023  -3.002   2.616  1.00  0.00    +0.2296  C
ATOM      9 O38  WH0 L   1      -6.149  -3.437   2.786  1.00  0.00    -0.2725 OA
ATOM     10 N39  WH0 L   1      -3.953  -3.166   3.485  1.00  0.00    -0.3256  N
ATOM     11 H61  WH0 L   1       0.432  -1.792   3.354  1.00  0.00    +0.0624  H
ATOM     12 H62  WH0 L   1      -1.382  -2.983   4.551  1.00  0.00    +0.0638  H
ATOM     13 H63  WH0 L   1      -4.624  -2.779   0.510  1.00  0.00    +0.0410  H
ATOM     14 H64  WH0 L   1      -5.078  -1.245   1.364  1.00  0.00    +0.0410  H
ATOM     15 H65  WH0 L   1      -4.031  -3.670   4.355  1.00  0.00    +0.1686 HD
ENDROOT
BRANCH 1 16
ATOM     16  C7  WH0 L   1      -2.424  -0.574  -0.233  1.00  0.00    -0.0093  C
ATOM     17 H45  WH0 L   1      -3.220  -1.121  -0.754  1.00  0.00    +0.0331  H
ATOM     18 H46  WH0 L   1      -1.578  -0.607  -0.927  1.00  0.00    +0.0331  H
BRANCH 16 19
ATOM     19  C6  WH0 L   1      -2.863   0.872  -0.002  1.00  0.00    +0.0221  C
ATOM     20 H43  WH0 L   1      -3.755   0.903   0.633  1.00  0.00    +0.0489  H
ATOM     21 H44  WH0 L   1      -2.083   1.445   0.512  1.00  0.00    +0.0489  H
BRANCH 19 24
ATOM     22  O1  WH0 L   1      -5.192   2.337  -0.674  1.00  0.00    -0.2720 OA
ATOM     23  C2  WH0 L   1      -4.245   2.321  -1.460  1.00  0.00    +0.2356  C
ATOM     24  N5  WH0 L   1      -3.114   1.555  -1.259  1.00  0.00    -0.3547  N
ATOM     25 H42  WH0 L   1      -2.308   1.790  -1.829  1.00  0.00    +0.1623 HD
BRANCH 23 26
ATOM     26  C3  WH0 L   1      -4.295   3.076  -2.775  1.00  0.00    +0.1010  C
ATOM     27 CL4  WH0 L   1      -2.695   3.735  -3.200  1.00  0.00    -0.1154 Cl
ATOM     28 H40  WH0 L   1      -4.987   3.916  -2.687  1.00  0.00    +0.0527  H
ATOM     29 H41  WH0 L   1      -4.624   2.403  -3.571  1.00  0.00    +0.0527  H
ENDBRANCH 23 26
ENDBRANCH 19 24
ENDBRANCH 16 19
ENDBRANCH 1 16
BRANCH 2 30
ATOM     30 C10  WH0 L   1       0.321  -0.570   1.006  1.00  0.00    +0.0356  A
ATOM     31 C11  WH0 L   1       1.102  -0.948  -0.132  1.00  0.00    +0.1015  A
ATOM     32 N19  WH0 L   1       2.017  -0.006  -0.419  1.00  0.00    -0.1627 NA
ATOM     33 N20  WH0 L   1       1.870   0.933   0.548  1.00  0.00    -0.1987  N
ATOM     34 C21  WH0 L   1       2.662   2.123   0.634  1.00  0.00    +0.2283  A
ATOM     35 N28  WH0 L   1       2.360   3.002   1.567  1.00  0.00    -0.2207 NA
ATOM     36 C29  WH0 L   1       1.320   2.718   2.425  1.00  0.00    +0.0334  A
ATOM     37 C30  WH0 L   1       0.563   1.611   2.398  1.00  0.00    -0.0173  A
ATOM     38 C31  WH0 L   1       0.832   0.645   1.404  1.00  0.00    +0.0803  A
ATOM     39 H59  WH0 L   1       1.128   3.479   3.178  1.00  0.00    +0.0831  H
ATOM     40 H60  WH0 L   1      -0.242   1.465   3.111  1.00  0.00    +0.0654  H
BRANCH 31 41
ATOM     41 C12  WH0 L   1       0.990  -2.144  -0.974  1.00  0.00    +0.0029  A
ATOM     42 C13  WH0 L   1       0.675  -3.398  -0.429  1.00  0.00    -0.0498  A
ATOM     43 C14  WH0 L   1       0.560  -4.520  -1.255  1.00  0.00    -0.0258  A
ATOM     44 C15  WH0 L   1       0.765  -4.392  -2.623  1.00  0.00    +0.1234  A
ATOM     45 F16  WH0 L   1       0.654  -5.470  -3.410  1.00  0.00    -0.2055  F
ATOM     46 C17  WH0 L   1       1.089  -3.165  -3.184  1.00  0.00    -0.0258  A
ATOM     47 C18  WH0 L   1       1.203  -2.042  -2.360  1.00  0.00    -0.0498  A
ATOM     48 H47  WH0 L   1       0.530  -3.524   0.640  1.00  0.00    +0.0625  H
ATOM     49 H48  WH0 L   1       0.319  -5.493  -0.838  1.00  0.00    +0.0646  H
ATOM     50 H49  WH0 L   1       1.253  -3.085  -4.253  1.00  0.00    +0.0646  H
ATOM     51 H50  WH0 L   1       1.462  -1.084  -2.803  1.00  0.00    +0.0625  H
ENDBRANCH 31 41
BRANCH 34 52
ATOM     52 N22  WH0 L   1       3.715   2.373  -0.246  1.00  0.00    -0.3359  N
ATOM     53 C23  WH0 L   1       4.306   3.717  -0.329  1.00  0.00    +0.0449  C
ATOM     54 C24  WH0 L   1       5.015   3.898  -1.678  1.00  0.00    +0.0653  C
ATOM     55 O25  WH0 L   1       6.076   2.960  -1.910  1.00  0.00    -0.3763 OA
ATOM     56 C26  WH0 L   1       5.931   1.747  -1.162  1.00  0.00    +0.0653  C
ATOM     57 C27  WH0 L   1       4.469   1.322  -0.946  1.00  0.00    +0.0449  C
ATOM     58 H51  WH0 L   1       5.018   3.847   0.495  1.00  0.00    +0.0511  H
ATOM     59 H52  WH0 L   1       3.531   4.487  -0.241  1.00  0.00    +0.0511  H
ATOM     60 H53  WH0 L   1       5.444   4.902  -1.748  1.00  0.00    +0.0577  H
ATOM     61 H54  WH0 L   1       4.298   3.791  -2.500  1.00  0.00    +0.0577  H
ATOM     62 H55  WH0 L   1       6.434   1.887  -0.197  1.00  0.00    +0.0577  H
ATOM     63 H56  WH0 L   1       6.474   0.962  -1.697  1.00  0.00    +0.0577  H
ATOM     64 H57  WH0 L   1       3.996   1.134  -1.916  1.00  0.00    +0.0511  H
ATOM     65 H58  WH0 L   1       4.486   0.396  -0.363  1.00  0.00    +0.0511  H
ENDBRANCH 34 52
ENDBRANCH 2 30
TORSDOF 7
