ROOT
ATOM      1 N13  WH0 L   1      -1.520   1.318   0.909  1.00  0.00    -0.2839  N
ATOM      2 C14  WH0 L   1      -1.855   2.482   1.652  1.00  0.00    +0.2395  C
ATOM      3 O15  WH0 L   1      -1.425   3.623   1.335  1.00  0.00    -0.2717 OA
ATOM      4 C16  WH0 L   1      -2.766   2.287   2.803  1.00  0.00    +0.0758  C
ATOM      5 S17  WH0 L   1      -2.988   0.488   3.011  1.00  0.00    -0.1088 SA
ATOM      6 C18  WH0 L   1      -2.153   0.106   1.427  1.00  0.00    +0.2010  C
ATOM      7 C19  WH0 L   1      -1.181  -1.033   1.585  1.00  0.00    +0.2665  C
ATOM      8 O20  WH0 L   1      -0.162  -1.003   2.325  1.00  0.00    -0.2689 OA
ATOM      9 N21  WH0 L   1      -1.527  -2.162   0.791  1.00  0.00    -0.3228  N
ATOM     10 C22  WH0 L   1      -2.713  -1.780   0.115  1.00  0.00    +0.0486  A
ATOM     11 C23  WH0 L   1      -3.427  -2.552  -0.800  1.00  0.00    -0.0379  A
ATOM     12 C24  WH0 L   1      -4.577  -1.997  -1.384  1.00  0.00    -0.0598  A
ATOM     13 C25  WH0 L   1      -4.988  -0.692  -1.048  1.00  0.00    -0.0613  A
ATOM     14 C26  WH0 L   1      -4.251   0.070  -0.126  1.00  0.00    -0.0531  A
ATOM     15 C27  WH0 L   1      -3.111  -0.499   0.446  1.00  0.00    +0.0211  A
ATOM     16 H40  WH0 L   1      -2.322   2.719   3.724  1.00  0.00    +0.0474  H
ATOM     17 H41  WH0 L   1      -3.747   2.761   2.592  1.00  0.00    +0.0474  H
ATOM     18 H42  WH0 L   1      -1.010  -3.065   0.710  1.00  0.00    +0.1687 HD
ATOM     19 H43  WH0 L   1      -3.103  -3.553  -1.055  1.00  0.00    +0.0638  H
ATOM     20 H44  WH0 L   1      -5.150  -2.575  -2.097  1.00  0.00    +0.0618  H
ATOM     21 H45  WH0 L   1      -5.874  -0.272  -1.505  1.00  0.00    +0.0618  H
ATOM     22 H46  WH0 L   1      -4.557   1.075   0.132  1.00  0.00    +0.0622  H
ENDROOT
BRANCH 1 27
ATOM     23  C8  WH0 L   1       1.808   1.713  -0.779  1.00  0.00    -0.0438  A
ATOM     24  C9  WH0 L   1       1.507   1.246  -2.068  1.00  0.00    -0.0584  A
ATOM     25 C10  WH0 L   1       0.211   0.827  -2.380  1.00  0.00    -0.0596  A
ATOM     26 C11  WH0 L   1      -0.791   0.861  -1.408  1.00  0.00    -0.0380  A
ATOM     27 C12  WH0 L   1      -0.505   1.319  -0.113  1.00  0.00    +0.0471  A
ATOM     28 C28  WH0 L   1       0.795   1.750   0.193  1.00  0.00    -0.0348  A
ATOM     29 H37  WH0 L   1       2.274   1.202  -2.830  1.00  0.00    +0.0620  H
ATOM     30 H38  WH0 L   1      -0.016   0.472  -3.377  1.00  0.00    +0.0618  H
ATOM     31 H39  WH0 L   1      -1.789   0.541  -1.672  1.00  0.00    +0.0638  H
ATOM     32 H47  WH0 L   1       1.023   2.090   1.197  1.00  0.00    +0.0641  H
BRANCH 23 33
ATOM     33  C7  WH0 L   1       3.215   2.120  -0.421  1.00  0.00    -0.0101  C
ATOM     34 H35  WH0 L   1       3.818   2.307  -1.336  1.00  0.00    +0.0330  H
ATOM     35 H36  WH0 L   1       3.183   3.076   0.147  1.00  0.00    +0.0330  H
BRANCH 33 36
ATOM     36  C6  WH0 L   1       3.908   1.054   0.439  1.00  0.00    +0.0223  C
ATOM     37 H33  WH0 L   1       4.911   1.428   0.739  1.00  0.00    +0.0489  H
ATOM     38 H34  WH0 L   1       3.314   0.881   1.364  1.00  0.00    +0.0489  H
BRANCH 36 41
ATOM     39  C3  WH0 L   1       4.564  -1.383   0.369  1.00  0.00    +0.2443  C
ATOM     40  O4  WH0 L   1       5.095  -1.286   1.508  1.00  0.00    -0.2683 OA
ATOM     41  N5  WH0 L   1       4.064  -0.207  -0.286  1.00  0.00    -0.3522  N
ATOM     42 H32  WH0 L   1       3.843  -0.243  -1.306  1.00  0.00    +0.1626 HD
BRANCH 39 44
ATOM     43  C1  WH0 L   1       3.689  -3.004  -1.284  1.00  0.00    -0.0936  C
ATOM     44  C2  WH0 L   1       4.495  -2.715  -0.264  1.00  0.00    -0.0047  C
ATOM     45 H29  WH0 L   1       3.675  -4.007  -1.689  1.00  0.00    +0.0536  H
ATOM     46 H30  WH0 L   1       3.015  -2.275  -1.711  1.00  0.00    +0.0536  H
ATOM     47 H31  WH0 L   1       5.100  -3.511   0.154  1.00  0.00    +0.0666  H
ENDBRANCH 39 44
ENDBRANCH 36 41
ENDBRANCH 33 36
ENDBRANCH 23 33
ENDBRANCH 1 27
TORSDOF 5
