ROOT
ATOM      1 C17  CHE L   1       5.465  -1.870  -0.635  1.00  0.00    +0.1351  A
ATOM      2 C18  CHE L   1       6.666  -2.446  -0.557  1.00  0.00    +0.0341  A
ATOM      3 C19  CHE L   1       7.689  -1.814   0.285  1.00  0.00    +0.2590  A
ATOM      4 O20  CHE L   1       8.805  -2.338   0.357  1.00  0.00    -0.2672 OA
ATOM      5 N21  CHE L   1       7.300  -0.652   0.938  1.00  0.00    -0.2682  N
ATOM      6 C22  CHE L   1       8.219   0.012   1.744  1.00  0.00    +0.0146  A
ATOM      7 C23  CHE L   1       7.897   1.132   2.405  1.00  0.00    -0.0450  A
ATOM      8 C24  CHE L   1       6.567   1.672   2.297  1.00  0.00    -0.0569  A
ATOM      9 C25  CHE L   1       5.649   1.070   1.532  1.00  0.00    -0.0187  A
ATOM     10 C26  CHE L   1       6.003  -0.169   0.784  1.00  0.00    +0.1410  A
ATOM     11 N27  CHE L   1       5.095  -0.725   0.043  1.00  0.00    -0.2242 NA
ATOM     12 H48  CHE L   1       6.942  -3.352  -1.088  1.00  0.00    +0.0695  H
ATOM     13 H49  CHE L   1       9.217  -0.419   1.814  1.00  0.00    +0.0814  H
ATOM     14 H50  CHE L   1       8.622   1.642   3.031  1.00  0.00    +0.0632  H
ATOM     15 H51  CHE L   1       6.325   2.568   2.856  1.00  0.00    +0.0619  H
ATOM     16 H52  CHE L   1       4.636   1.442   1.432  1.00  0.00    +0.0654  H
ENDROOT
BRANCH 1 18
ATOM     17 N14  CHE L   1       3.195  -2.019  -1.371  1.00  0.00    -0.3452  N
ATOM     18 C15  CHE L   1       4.447  -2.552  -1.515  1.00  0.00    +0.2709  C
ATOM     19 O16  CHE L   1       4.719  -3.480  -2.267  1.00  0.00    -0.2659 OA
ATOM     20 H47  CHE L   1       3.079  -1.273  -0.691  1.00  0.00    +0.1631 HD
BRANCH 17 21
ATOM     21 C13  CHE L   1       2.054  -2.541  -2.077  1.00  0.00    +0.0623  C
ATOM     22 H45  CHE L   1       1.998  -3.623  -1.919  1.00  0.00    +0.0552  H
ATOM     23 H46  CHE L   1       2.199  -2.360  -3.148  1.00  0.00    +0.0552  H
BRANCH 21 29
ATOM     24  C7  CHE L   1      -2.780   0.559  -0.321  1.00  0.00    -0.0170  A
ATOM     25  C8  CHE L   1      -2.978  -0.661   0.470  1.00  0.00    -0.0525  A
ATOM     26  C9  CHE L   1      -2.115  -1.695   0.413  1.00  0.00    -0.0185  A
ATOM     27 C10  CHE L   1      -0.974  -1.617  -0.431  1.00  0.00    +0.1379  A
ATOM     28 N11  CHE L   1       0.003  -2.471  -0.656  1.00  0.00    -0.2310 NA
ATOM     29 C12  CHE L   1       0.825  -1.859  -1.581  1.00  0.00    +0.0791  A
ATOM     30 C28  CHE L   1       0.340  -0.604  -1.899  1.00  0.00    +0.0342  A
ATOM     31 N29  CHE L   1      -0.810  -0.449  -1.166  1.00  0.00    -0.3060  N
ATOM     32 C30  CHE L   1      -1.689   0.629  -1.111  1.00  0.00    +0.0156  A
ATOM     33 H43  CHE L   1      -3.851  -0.719   1.114  1.00  0.00    +0.0622  H
ATOM     34 H44  CHE L   1      -2.265  -2.597   0.996  1.00  0.00    +0.0654  H
ATOM     35 H53  CHE L   1       0.706   0.166  -2.560  1.00  0.00    +0.0832  H
ATOM     36 H54  CHE L   1      -1.458   1.488  -1.730  1.00  0.00    +0.0816  H
BRANCH 24 37
ATOM     37  C6  CHE L   1      -3.784   1.675  -0.191  1.00  0.00    +0.0226  C
ATOM     38 H41  CHE L   1      -3.345   2.611  -0.562  1.00  0.00    +0.0474  H
ATOM     39 H42  CHE L   1      -4.010   1.828   0.872  1.00  0.00    +0.0474  H
BRANCH 37 40
ATOM     40  N5  CHE L   1      -4.990   1.360  -0.954  1.00  0.00    -0.3120 NA
ATOM     41 H40  CHE L   1      -5.399   0.494  -0.609  1.00  0.00    +0.1222 HD
BRANCH 40 42
ATOM     42  C4  CHE L   1      -5.985   2.430  -0.925  1.00  0.00    -0.0038  C
ATOM     43 H38  CHE L   1      -6.762   2.177  -1.659  1.00  0.00    +0.0424  H
ATOM     44 H39  CHE L   1      -5.537   3.365  -1.290  1.00  0.00    +0.0424  H
BRANCH 42 45
ATOM     45  C3  CHE L   1      -6.649   2.684   0.437  1.00  0.00    -0.0407  C
ATOM     46 H36  CHE L   1      -5.915   3.110   1.129  1.00  0.00    +0.0277  H
ATOM     47 H37  CHE L   1      -7.418   3.457   0.302  1.00  0.00    +0.0277  H
BRANCH 45 49
ATOM     48  C1  CHE L   1      -8.386   0.822   0.262  1.00  0.00    -0.0652  C
ATOM     49  C2  CHE L   1      -7.294   1.462   1.102  1.00  0.00    -0.0548  C
ATOM     50 H31  CHE L   1      -8.838  -0.014   0.804  1.00  0.00    +0.0230  H
ATOM     51 H32  CHE L   1      -9.177   1.547   0.031  1.00  0.00    +0.0230  H
ATOM     52 H33  CHE L   1      -7.992   0.429  -0.682  1.00  0.00    +0.0230  H
ATOM     53 H34  CHE L   1      -6.529   0.709   1.347  1.00  0.00    +0.0263  H
ATOM     54 H35  CHE L   1      -7.730   1.782   2.061  1.00  0.00    +0.0263  H
ENDBRANCH 45 49
ENDBRANCH 42 45
ENDBRANCH 40 42
ENDBRANCH 37 40
ENDBRANCH 24 37
ENDBRANCH 21 29
ENDBRANCH 17 21
ENDBRANCH 1 18
TORSDOF 8
