ROOT
ATOM      1  N8  CHE L   1       3.909   0.594  -1.153  1.00  0.00    -0.3335  N
ATOM      2  C9  CHE L   1       3.860  -0.835  -1.415  1.00  0.00    +0.0258  C
ATOM      3 C10  CHE L   1       2.529  -1.236  -2.030  1.00  0.00    -0.0084  C
ATOM      4 C11  CHE L   1       1.390  -0.770  -1.154  1.00  0.00    -0.0187  A
ATOM      5 C12  CHE L   1       1.543   0.450  -0.428  1.00  0.00    +0.0497  A
ATOM      6 C13  CHE L   1       0.518   0.909   0.434  1.00  0.00    +0.0076  A
ATOM      7 C14  CHE L   1       0.619   2.161   1.256  1.00  0.00    -0.0354  C
ATOM      8 C15  CHE L   1      -0.639   0.145   0.489  1.00  0.00    +0.1712  A
ATOM      9 C16  CHE L   1      -0.804  -1.013  -0.236  1.00  0.00    +0.1780  A
ATOM     10 C17  CHE L   1       0.184  -1.502  -1.076  1.00  0.00    +0.0666  A
ATOM     11 O23  CHE L   1      -2.036  -1.570  -0.041  1.00  0.00    -0.4468 OA
ATOM     12 C24  CHE L   1      -2.626  -0.671   0.925  1.00  0.00    +0.2539  C
ATOM     13 C25  CHE L   1      -2.827  -1.451   2.231  1.00  0.00    +0.0131  C
ATOM     14 O35  CHE L   1      -1.748   0.443   1.230  1.00  0.00    -0.4472 OA
ATOM     15 C36  CHE L   1       2.802   1.254  -0.626  1.00  0.00    +0.2555  C
ATOM     16 O37  CHE L   1       2.823   2.450  -0.355  1.00  0.00    -0.2674 OA
ATOM     17 H50  CHE L   1       4.031  -1.358  -0.466  1.00  0.00    +0.0492  H
ATOM     18 H51  CHE L   1       4.657  -1.104  -2.116  1.00  0.00    +0.0492  H
ATOM     19 H52  CHE L   1       2.532  -2.324  -2.146  1.00  0.00    +0.0331  H
ATOM     20 H53  CHE L   1       2.412  -0.783  -3.022  1.00  0.00    +0.0331  H
ATOM     21 H54  CHE L   1       1.562   2.184   1.812  1.00  0.00    +0.0279  H
ATOM     22 H55  CHE L   1       0.537   3.045   0.616  1.00  0.00    +0.0279  H
ATOM     23 H56  CHE L   1      -0.176   2.224   2.005  1.00  0.00    +0.0279  H
ATOM     24 H60  CHE L   1      -3.322  -0.833   2.988  1.00  0.00    +0.0305  H
ATOM     25 H61  CHE L   1      -3.405  -2.367   2.076  1.00  0.00    +0.0305  H
ATOM     26 H62  CHE L   1      -1.860  -1.755   2.648  1.00  0.00    +0.0305  H
ENDROOT
BRANCH 1 27
ATOM     27  C7  CHE L   1       5.210   1.268  -1.203  1.00  0.00    +0.0519  C
ATOM     28 H48  CHE L   1       5.730   0.951  -2.115  1.00  0.00    +0.0540  H
ATOM     29 H49  CHE L   1       5.052   2.343  -1.329  1.00  0.00    +0.0540  H
BRANCH 27 35
ATOM     30  C1  CHE L   1       8.556  -0.261   3.324  1.00  0.00    -0.0244  C
ATOM     31  C2  CHE L   1       7.678   0.218   2.210  1.00  0.00    +0.0162  A
ATOM     32  C3  CHE L   1       6.936   1.331   2.270  1.00  0.00    -0.0393  A
ATOM     33  C4  CHE L   1       6.102   1.746   1.150  1.00  0.00    -0.0388  A
ATOM     34  C5  CHE L   1       5.379   3.046   1.372  1.00  0.00    -0.0392  C
ATOM     35  C6  CHE L   1       6.025   0.983   0.033  1.00  0.00    +0.0391  A
ATOM     36 C38  CHE L   1       6.893  -0.241  -0.042  1.00  0.00    +0.2540  A
ATOM     37 O39  CHE L   1       6.943  -0.956  -1.039  1.00  0.00    -0.2675 OA
ATOM     38 N40  CHE L   1       7.646  -0.537   1.066  1.00  0.00    -0.3262  N
ATOM     39 H41  CHE L   1       8.533   0.420   4.182  1.00  0.00    +0.0292  H
ATOM     40 H42  CHE L   1       8.231  -1.248   3.670  1.00  0.00    +0.0292  H
ATOM     41 H43  CHE L   1       9.595  -0.337   2.987  1.00  0.00    +0.0292  H
ATOM     42 H44  CHE L   1       6.939   1.949   3.165  1.00  0.00    +0.0637  H
ATOM     43 H45  CHE L   1       4.973   3.478   0.456  1.00  0.00    +0.0278  H
ATOM     44 H46  CHE L   1       4.555   2.907   2.082  1.00  0.00    +0.0278  H
ATOM     45 H47  CHE L   1       6.061   3.800   1.783  1.00  0.00    +0.0278  H
ATOM     46 H79  CHE L   1       8.215  -1.372   0.992  1.00  0.00    +0.1686 HD
ENDBRANCH 27 35
ENDBRANCH 1 27
BRANCH 10 47
ATOM     47 C18  CHE L   1      -0.053  -2.707  -1.849  1.00  0.00    +0.1387  A
ATOM     48 C19  CHE L   1      -0.166  -2.978  -3.198  1.00  0.00    -0.0158  A
ATOM     49 C20  CHE L   1      -0.387  -4.373  -3.308  1.00  0.00    -0.0233  A
ATOM     50 C21  CHE L   1      -0.391  -4.862  -2.023  1.00  0.00    +0.0926  A
ATOM     51 O22  CHE L   1      -0.186  -3.859  -1.130  1.00  0.00    -0.4628 OA
ATOM     52 H57  CHE L   1      -0.105  -2.255  -3.999  1.00  0.00    +0.0655  H
ATOM     53 H58  CHE L   1      -0.530  -4.950  -4.211  1.00  0.00    +0.0649  H
ATOM     54 H59  CHE L   1      -0.523  -5.846  -1.594  1.00  0.00    +0.1029  H
ENDBRANCH 10 47
BRANCH 12 55
ATOM     55 C26  CHE L   1      -3.972  -0.115   0.375  1.00  0.00    +0.0362  C
ATOM     56 C27  CHE L   1      -3.783   0.743  -0.889  1.00  0.00    -0.0417  C
ATOM     57 C28  CHE L   1      -5.088   1.314  -1.465  1.00  0.00    -0.0369  C
ATOM     58 C29  CHE L   1      -6.385   0.677  -0.909  1.00  0.00    +0.0099  C
ATOM     59 C33  CHE L   1      -6.116  -0.841  -0.874  1.00  0.00    -0.0369  C
ATOM     60 C34  CHE L   1      -5.013  -1.229   0.119  1.00  0.00    -0.0417  C
ATOM     61 H63  CHE L   1      -4.367   0.558   1.148  1.00  0.00    +0.0376  H
ATOM     62 H64  CHE L   1      -3.302   0.138  -1.670  1.00  0.00    +0.0271  H
ATOM     63 H65  CHE L   1      -3.099   1.576  -0.689  1.00  0.00    +0.0271  H
ATOM     64 H66  CHE L   1      -5.068   1.147  -2.551  1.00  0.00    +0.0280  H
ATOM     65 H67  CHE L   1      -5.091   2.405  -1.372  1.00  0.00    +0.0280  H
ATOM     66 H68  CHE L   1      -7.182   0.875  -1.637  1.00  0.00    +0.0462  H
ATOM     67 H75  CHE L   1      -5.806  -1.162  -1.879  1.00  0.00    +0.0280  H
ATOM     68 H76  CHE L   1      -7.024  -1.418  -0.666  1.00  0.00    +0.0280  H
ATOM     69 H77  CHE L   1      -4.532  -2.142  -0.251  1.00  0.00    +0.0271  H
ATOM     70 H78  CHE L   1      -5.478  -1.497   1.076  1.00  0.00    +0.0271  H
BRANCH 58 71
ATOM     71 N30  CHE L   1      -6.821   1.190   0.418  1.00  0.00    -0.3054 NA
ATOM     72 C31  CHE L   1      -8.115   0.622   0.819  1.00  0.00    -0.0128  C
ATOM     73 C32  CHE L   1      -6.922   2.653   0.455  1.00  0.00    -0.0128  C
ATOM     74 H69  CHE L   1      -8.430   1.027   1.788  1.00  0.00    +0.0391  H
ATOM     75 H70  CHE L   1      -8.055  -0.461   0.963  1.00  0.00    +0.0391  H
ATOM     76 H71  CHE L   1      -8.902   0.837   0.087  1.00  0.00    +0.0391  H
ATOM     77 H72  CHE L   1      -7.542   3.045  -0.360  1.00  0.00    +0.0391  H
ATOM     78 H73  CHE L   1      -7.353   2.993   1.404  1.00  0.00    +0.0391  H
ATOM     79 H74  CHE L   1      -5.933   3.119   0.411  1.00  0.00    +0.0391  H
ENDBRANCH 58 71
ENDBRANCH 12 55
TORSDOF 5
