ROOT
ATOM      1 C11  CHE L   1       0.079  -0.678   0.787  1.00  0.00    +0.0671  A
ATOM      2 C12  CHE L   1      -0.704   0.228   0.073  1.00  0.00    +0.0293  A
ATOM      3 C13  CHE L   1      -0.437   1.686  -0.117  1.00  0.00    -0.0235  C
ATOM      4 N14  CHE L   1      -1.798  -0.456  -0.429  1.00  0.00    -0.3403  N
ATOM      5 C23  CHE L   1      -1.693  -1.806  -0.105  1.00  0.00    +0.0503  A
ATOM      6 C24  CHE L   1      -2.514  -2.906  -0.424  1.00  0.00    -0.0376  A
ATOM      7 C25  CHE L   1      -2.190  -4.163   0.096  1.00  0.00    -0.0598  A
ATOM      8 C26  CHE L   1      -1.085  -4.327   0.919  1.00  0.00    -0.0611  A
ATOM      9 C27  CHE L   1      -0.268  -3.236   1.226  1.00  0.00    -0.0518  A
ATOM     10 C28  CHE L   1      -0.554  -1.957   0.691  1.00  0.00    +0.0125  A
ATOM     11 H42  CHE L   1      -0.846   2.077  -1.048  1.00  0.00    +0.0292  H
ATOM     12 H43  CHE L   1      -0.857   2.256   0.719  1.00  0.00    +0.0292  H
ATOM     13 H44  CHE L   1       0.639   1.884  -0.154  1.00  0.00    +0.0292  H
ATOM     14 H58  CHE L   1      -3.391  -2.805  -1.054  1.00  0.00    +0.0638  H
ATOM     15 H59  CHE L   1      -2.820  -5.018  -0.138  1.00  0.00    +0.0618  H
ATOM     16 H60  CHE L   1      -0.858  -5.306   1.334  1.00  0.00    +0.0618  H
ATOM     17 H61  CHE L   1       0.579  -3.381   1.891  1.00  0.00    +0.0624  H
ENDROOT
BRANCH 1 19
ATOM     18  N8  CHE L   1       2.308  -1.271   1.374  1.00  0.00    -0.3478  N
ATOM     19  C9  CHE L   1       1.316  -0.325   1.487  1.00  0.00    +0.2546  C
ATOM     20 O10  CHE L   1       1.465   0.743   2.071  1.00  0.00    -0.2675 OA
ATOM     21 H41  CHE L   1       2.145  -2.043   0.745  1.00  0.00    +0.1630 HD
BRANCH 18 22
ATOM     22  C7  CHE L   1       3.651  -1.041   1.869  1.00  0.00    +0.0491  C
ATOM     23 H39  CHE L   1       4.122  -2.019   2.016  1.00  0.00    +0.0538  H
ATOM     24 H40  CHE L   1       3.562  -0.567   2.851  1.00  0.00    +0.0538  H
BRANCH 22 30
ATOM     25  C1  CHE L   1       6.718   2.590  -1.498  1.00  0.00    -0.0244  C
ATOM     26  C2  CHE L   1       5.943   1.579  -0.711  1.00  0.00    +0.0162  A
ATOM     27  C3  CHE L   1       5.372   0.492  -1.250  1.00  0.00    -0.0393  A
ATOM     28  C4  CHE L   1       4.621  -0.449  -0.430  1.00  0.00    -0.0388  A
ATOM     29  C5  CHE L   1       4.091  -1.641  -1.178  1.00  0.00    -0.0392  C
ATOM     30  C6  CHE L   1       4.457  -0.223   0.896  1.00  0.00    +0.0389  A
ATOM     31 C29  CHE L   1       5.163   0.957   1.504  1.00  0.00    +0.2540  A
ATOM     32 O30  CHE L   1       5.187   1.164   2.713  1.00  0.00    -0.2675 OA
ATOM     33 N31  CHE L   1       5.830   1.788   0.640  1.00  0.00    -0.3262  N
ATOM     34 H32  CHE L   1       7.749   2.649  -1.133  1.00  0.00    +0.0292  H
ATOM     35 H33  CHE L   1       6.260   3.581  -1.404  1.00  0.00    +0.0292  H
ATOM     36 H34  CHE L   1       6.755   2.338  -2.563  1.00  0.00    +0.0292  H
ATOM     37 H35  CHE L   1       5.448   0.301  -2.318  1.00  0.00    +0.0637  H
ATOM     38 H36  CHE L   1       4.847  -2.033  -1.870  1.00  0.00    +0.0278  H
ATOM     39 H37  CHE L   1       3.203  -1.366  -1.758  1.00  0.00    +0.0278  H
ATOM     40 H38  CHE L   1       3.835  -2.472  -0.515  1.00  0.00    +0.0278  H
ATOM     41 H62  CHE L   1       6.278   2.585   1.074  1.00  0.00    +0.1686 HD
ENDBRANCH 22 30
ENDBRANCH 18 22
ENDBRANCH 1 19
BRANCH 4 42
ATOM     42 C15  CHE L   1      -2.937   0.102  -1.180  1.00  0.00    +0.0349  C
ATOM     43 C16  CHE L   1      -2.526   0.414  -2.626  1.00  0.00    -0.0440  C
ATOM     44 H45  CHE L   1      -3.670  -0.708  -1.251  1.00  0.00    +0.0528  H
ATOM     45 H46  CHE L   1      -1.941   1.333  -2.704  1.00  0.00    +0.0250  H
ATOM     46 H47  CHE L   1      -1.927  -0.400  -3.049  1.00  0.00    +0.0250  H
ATOM     47 H48  CHE L   1      -3.406   0.532  -3.267  1.00  0.00    +0.0250  H
BRANCH 42 48
ATOM     48 C17  CHE L   1      -3.684   1.268  -0.464  1.00  0.00    -0.0163  C
ATOM     49 C18  CHE L   1      -4.150   0.899   0.963  1.00  0.00    -0.0247  C
ATOM     50 C19  CHE L   1      -5.600   0.434   0.972  1.00  0.00    +0.0480  C
ATOM     51 O20  CHE L   1      -6.509   1.426   0.494  1.00  0.00    -0.3797 OA
ATOM     52 C21  CHE L   1      -5.952   2.378  -0.410  1.00  0.00    +0.0480  C
ATOM     53 C22  CHE L   1      -4.887   1.759  -1.301  1.00  0.00    -0.0247  C
ATOM     54 H49  CHE L   1      -3.002   2.118  -0.362  1.00  0.00    +0.0322  H
ATOM     55 H50  CHE L   1      -4.072   1.797   1.590  1.00  0.00    +0.0291  H
ATOM     56 H51  CHE L   1      -3.512   0.143   1.430  1.00  0.00    +0.0291  H
ATOM     57 H52  CHE L   1      -5.722  -0.464   0.356  1.00  0.00    +0.0560  H
ATOM     58 H53  CHE L   1      -5.907   0.171   1.989  1.00  0.00    +0.0560  H
ATOM     59 H54  CHE L   1      -6.772   2.772  -1.018  1.00  0.00    +0.0560  H
ATOM     60 H55  CHE L   1      -5.545   3.216   0.168  1.00  0.00    +0.0560  H
ATOM     61 H56  CHE L   1      -5.337   0.916  -1.840  1.00  0.00    +0.0291  H
ATOM     62 H57  CHE L   1      -4.550   2.486  -2.048  1.00  0.00    +0.0291  H
ENDBRANCH 42 48
ENDBRANCH 4 42
TORSDOF 5
