ROOT
ATOM      1  C9  CHE L   1       1.351   0.812   1.141  1.00  0.00    +0.0335  C
ATOM      2 C10  CHE L   1       0.362   1.359   0.107  1.00  0.00    -0.0141  C
ATOM      3 C11  CHE L   1      -1.057   1.422   0.657  1.00  0.00    +0.0329  C
ATOM      4 N12  CHE L   1      -1.498   0.112   1.227  1.00  0.00    -0.2815 NA
ATOM      5 C23  CHE L   1      -0.565  -0.318   2.317  1.00  0.00    +0.0410  C
ATOM      6 C24  CHE L   1      -1.033  -1.549   3.081  1.00  0.00    -0.0438  C
ATOM      7 C25  CHE L   1       0.852  -0.493   1.768  1.00  0.00    -0.0115  C
ATOM      8 H35  CHE L   1       1.461   1.558   1.939  1.00  0.00    +0.0524  H
ATOM      9 H36  CHE L   1       0.667   2.365  -0.207  1.00  0.00    +0.0302  H
ATOM     10 H37  CHE L   1       0.395   0.747  -0.801  1.00  0.00    +0.0302  H
ATOM     11 H38  CHE L   1      -1.745   1.769  -0.119  1.00  0.00    +0.0496  H
ATOM     12 H39  CHE L   1      -1.115   2.173   1.455  1.00  0.00    +0.0496  H
ATOM     13 H51  CHE L   1      -0.554   0.499   3.053  1.00  0.00    +0.0529  H
ATOM     14 H52  CHE L   1      -2.084  -1.460   3.372  1.00  0.00    +0.0250  H
ATOM     15 H53  CHE L   1      -0.444  -1.669   3.998  1.00  0.00    +0.0250  H
ATOM     16 H54  CHE L   1      -0.904  -2.468   2.501  1.00  0.00    +0.0250  H
ATOM     17 H55  CHE L   1       1.532  -0.789   2.577  1.00  0.00    +0.0305  H
ATOM     18 H56  CHE L   1       0.884  -1.305   1.031  1.00  0.00    +0.0305  H
ENDROOT
BRANCH 1 21
ATOM     19  C6  CHE L   1       3.521   1.681   0.316  1.00  0.00    +0.2739  C
ATOM     20  O7  CHE L   1       3.263   2.812   0.722  1.00  0.00    -0.2658 OA
ATOM     21  N8  CHE L   1       2.667   0.610   0.544  1.00  0.00    -0.3478  N
ATOM     22 H34  CHE L   1       2.787  -0.212  -0.034  1.00  0.00    +0.1629 HD
BRANCH 19 25
ATOM     23  C3  CHE L   1       6.420   0.346  -1.471  1.00  0.00    +0.1378  A
ATOM     24  C4  CHE L   1       5.317   0.081  -0.699  1.00  0.00    +0.0129  A
ATOM     25  C5  CHE L   1       4.727   1.354  -0.456  1.00  0.00    +0.1701  A
ATOM     26 N26  CHE L   1       5.451   2.318  -1.051  1.00  0.00    -0.0732 NA
ATOM     27 O27  CHE L   1       6.497   1.683  -1.690  1.00  0.00    -0.3589 OA
ATOM     28 H33  CHE L   1       4.998  -0.886  -0.344  1.00  0.00    +0.0676  H
BRANCH 23 30
ATOM     29  C1  CHE L   1       8.707  -0.569  -1.175  1.00  0.00    -0.0583  C
ATOM     30  C2  CHE L   1       7.485  -0.487  -2.074  1.00  0.00    +0.0054  C
ATOM     31 H28  CHE L   1       9.478  -1.194  -1.636  1.00  0.00    +0.0234  H
ATOM     32 H29  CHE L   1       9.135   0.425  -0.998  1.00  0.00    +0.0234  H
ATOM     33 H30  CHE L   1       8.455  -1.004  -0.202  1.00  0.00    +0.0234  H
ATOM     34 H31  CHE L   1       7.773  -0.075  -3.047  1.00  0.00    +0.0342  H
ATOM     35 H32  CHE L   1       7.102  -1.498  -2.258  1.00  0.00    +0.0342  H
ENDBRANCH 23 30
ENDBRANCH 19 25
ENDBRANCH 1 21
BRANCH 4 36
ATOM     36 S13  CHE L   1      -2.057  -1.037   0.110  1.00  0.00    +0.3197  S
ATOM     37 O14  CHE L   1      -1.004  -1.288  -0.847  1.00  0.00    -0.1824 OA
ATOM     38 O15  CHE L   1      -2.700  -2.129   0.801  1.00  0.00    -0.1824 OA
BRANCH 36 39
ATOM     39 N16  CHE L   1      -3.276  -0.151  -0.654  1.00  0.00    -0.2843 NA
ATOM     40 C17  CHE L   1      -3.641  -0.660  -2.004  1.00  0.00    +0.0321  C
ATOM     41 C18  CHE L   1      -4.940  -0.023  -2.482  1.00  0.00    -0.0193  C
ATOM     42 C19  CHE L   1      -6.105  -0.442  -1.577  1.00  0.00    +0.0081  C
ATOM     43 N20  CHE L   1      -7.188   0.537  -1.691  1.00  0.00    -0.3271 NA
ATOM     44 C21  CHE L   1      -5.663  -0.611  -0.118  1.00  0.00    -0.0193  C
ATOM     45 C22  CHE L   1      -4.438   0.234   0.201  1.00  0.00    +0.0321  C
ATOM     46 H40  CHE L   1      -3.742  -1.751  -1.989  1.00  0.00    +0.0496  H
ATOM     47 H41  CHE L   1      -2.838  -0.398  -2.702  1.00  0.00    +0.0496  H
ATOM     48 H42  CHE L   1      -4.822   1.071  -2.487  1.00  0.00    +0.0297  H
ATOM     49 H43  CHE L   1      -5.150  -0.319  -3.516  1.00  0.00    +0.0297  H
ATOM     50 H44  CHE L   1      -6.496  -1.406  -1.925  1.00  0.00    +0.0459  H
ATOM     51 H45  CHE L   1      -7.480   0.621  -2.664  1.00  0.00    +0.1185 HD
ATOM     52 H46  CHE L   1      -8.006   0.206  -1.178  1.00  0.00    +0.1185 HD
ATOM     53 H47  CHE L   1      -5.426  -1.669   0.058  1.00  0.00    +0.0297  H
ATOM     54 H48  CHE L   1      -6.478  -0.370   0.576  1.00  0.00    +0.0297  H
ATOM     55 H49  CHE L   1      -4.645   1.298   0.037  1.00  0.00    +0.0496  H
ATOM     56 H50  CHE L   1      -4.194   0.134   1.265  1.00  0.00    +0.0496  H
ENDBRANCH 36 39
ENDBRANCH 4 36
TORSDOF 5
