ROOT
ATOM      1  C8  SEL L   1      -3.303   0.388   0.546  1.00  0.00    -0.0139  A
ATOM      2  C9  SEL L   1      -3.027   1.728   0.232  1.00  0.00    -0.0503  A
ATOM      3 C10  SEL L   1      -1.738   2.131  -0.137  1.00  0.00    -0.0157  A
ATOM      4 C11  SEL L   1      -0.709   1.192  -0.214  1.00  0.00    +0.1621  A
ATOM      5 C12  SEL L   1      -0.980  -0.145   0.096  1.00  0.00    +0.1626  A
ATOM      6 C13  SEL L   1      -2.259  -0.544   0.487  1.00  0.00    -0.0086  A
ATOM      7 O14  SEL L   1       0.017  -1.087   0.063  1.00  0.00    -0.4860 OA
ATOM      8 C15  SEL L   1       0.085  -1.685  -1.243  1.00  0.00    +0.1130  C
ATOM      9 C16  SEL L   1       1.259  -2.661  -1.268  1.00  0.00    +0.0818  C
ATOM     10 O17  SEL L   1       2.475  -1.947  -1.519  1.00  0.00    -0.3742 OA
ATOM     11 C18  SEL L   1       3.643  -2.706  -1.183  1.00  0.00    +0.0711  C
ATOM     12 C19  SEL L   1       4.034  -2.489   0.281  1.00  0.00    +0.0711  C
ATOM     13 O20  SEL L   1       4.642  -1.200   0.414  1.00  0.00    -0.3752 OA
ATOM     14 C21  SEL L   1       4.731  -0.787   1.781  1.00  0.00    +0.0711  C
ATOM     15 C22  SEL L   1       5.363   0.606   1.855  1.00  0.00    +0.0711  C
ATOM     16 O23  SEL L   1       4.432   1.664   1.600  1.00  0.00    -0.3752 OA
ATOM     17 C24  SEL L   1       4.007   1.723   0.235  1.00  0.00    +0.0711  C
ATOM     18 C25  SEL L   1       3.251   3.031  -0.000  1.00  0.00    +0.0711  C
ATOM     19 O26  SEL L   1       3.024   3.330  -1.379  1.00  0.00    -0.3742 OA
ATOM     20 C27  SEL L   1       2.180   2.414  -2.086  1.00  0.00    +0.0818  C
ATOM     21 C28  SEL L   1       0.726   2.440  -1.610  1.00  0.00    +0.1130  C
ATOM     22 O29  SEL L   1       0.584   1.519  -0.522  1.00  0.00    -0.4860 OA
ATOM     23 H37  SEL L   1      -3.819   2.472   0.289  1.00  0.00    +0.0625  H
ATOM     24 H38  SEL L   1      -1.556   3.183  -0.331  1.00  0.00    +0.0655  H
ATOM     25 H39  SEL L   1      -2.440  -1.584   0.748  1.00  0.00    +0.0661  H
ATOM     26 H40  SEL L   1      -0.843  -2.240  -1.427  1.00  0.00    +0.0720  H
ATOM     27 H41  SEL L   1       0.217  -0.914  -2.013  1.00  0.00    +0.0720  H
ATOM     28 H42  SEL L   1       1.319  -3.204  -0.318  1.00  0.00    +0.0594  H
ATOM     29 H43  SEL L   1       1.126  -3.378  -2.086  1.00  0.00    +0.0594  H
ATOM     30 H44  SEL L   1       3.473  -3.768  -1.392  1.00  0.00    +0.0583  H
ATOM     31 H45  SEL L   1       4.447  -2.352  -1.837  1.00  0.00    +0.0583  H
ATOM     32 H46  SEL L   1       4.768  -3.242   0.586  1.00  0.00    +0.0583  H
ATOM     33 H47  SEL L   1       3.153  -2.553   0.929  1.00  0.00    +0.0583  H
ATOM     34 H48  SEL L   1       3.729  -0.770   2.225  1.00  0.00    +0.0583  H
ATOM     35 H49  SEL L   1       5.362  -1.504   2.317  1.00  0.00    +0.0583  H
ATOM     36 H50  SEL L   1       5.727   0.769   2.875  1.00  0.00    +0.0583  H
ATOM     37 H51  SEL L   1       6.217   0.698   1.175  1.00  0.00    +0.0583  H
ATOM     38 H52  SEL L   1       3.345   0.879   0.023  1.00  0.00    +0.0583  H
ATOM     39 H53  SEL L   1       4.870   1.669  -0.439  1.00  0.00    +0.0583  H
ATOM     40 H54  SEL L   1       2.313   3.055   0.564  1.00  0.00    +0.0583  H
ATOM     41 H55  SEL L   1       3.849   3.858   0.402  1.00  0.00    +0.0583  H
ATOM     42 H56  SEL L   1       2.606   1.406  -2.056  1.00  0.00    +0.0594  H
ATOM     43 H57  SEL L   1       2.205   2.747  -3.129  1.00  0.00    +0.0594  H
ATOM     44 H58  SEL L   1       0.459   3.451  -1.285  1.00  0.00    +0.0720  H
ATOM     45 H59  SEL L   1       0.080   2.124  -2.439  1.00  0.00    +0.0720  H
ENDROOT
BRANCH 1 52
ATOM     46  C1  SEL L   1      -5.230  -0.759  -1.423  1.00  0.00    -0.0391  C
ATOM     47  C2  SEL L   1      -5.581  -0.567   0.029  1.00  0.00    -0.0427  A
ATOM     48  C3  SEL L   1      -6.855  -0.952   0.480  1.00  0.00    -0.0583  A
ATOM     49  C4  SEL L   1      -7.217  -0.796   1.818  1.00  0.00    -0.0615  A
ATOM     50  C5  SEL L   1      -6.311  -0.255   2.724  1.00  0.00    -0.0612  A
ATOM     51  C6  SEL L   1      -5.041   0.127   2.292  1.00  0.00    -0.0538  A
ATOM     52  C7  SEL L   1      -4.655  -0.023   0.947  1.00  0.00    -0.0149  A
ATOM     53 H30  SEL L   1      -4.889   0.183  -1.865  1.00  0.00    +0.0278  H
ATOM     54 H31  SEL L   1      -6.098  -1.092  -2.003  1.00  0.00    +0.0278  H
ATOM     55 H32  SEL L   1      -4.449  -1.519  -1.527  1.00  0.00    +0.0278  H
ATOM     56 H33  SEL L   1      -7.578  -1.378  -0.213  1.00  0.00    +0.0620  H
ATOM     57 H34  SEL L   1      -8.207  -1.097   2.152  1.00  0.00    +0.0618  H
ATOM     58 H35  SEL L   1      -6.589  -0.133   3.768  1.00  0.00    +0.0618  H
ATOM     59 H36  SEL L   1      -4.340   0.543   3.014  1.00  0.00    +0.0624  H
ENDBRANCH 1 52
TORSDOF 1
