ROOT
ATOM      1  C1  685 L   1      -0.798   1.266  -1.479  1.00  0.00    -0.0495  C
ATOM      2  C2  685 L   1      -1.131  -0.101  -0.870  1.00  0.00    +0.0083  C
ATOM      3  C3  685 L   1      -2.356  -0.746  -1.524  1.00  0.00    -0.0368  C
ATOM      4  C4  685 L   1      -3.633   0.042  -1.280  1.00  0.00    -0.0373  C
ATOM      5  C5  685 L   1      -3.698   0.633   0.132  1.00  0.00    +0.0716  C
ATOM      6  C9  685 L   1      -2.663   0.016   1.108  1.00  0.00    +0.0212  C
ATOM      7 C10  685 L   1      -2.707   0.796   2.439  1.00  0.00    -0.0487  C
ATOM      8 N11  685 L   1      -1.269   0.056   0.593  1.00  0.00    -0.2889 NA
ATOM      9 H22  685 L   1       0.148   1.648  -1.078  1.00  0.00    +0.0245  H
ATOM     10 H23  685 L   1      -1.569   2.016  -1.278  1.00  0.00    +0.0245  H
ATOM     11 H24  685 L   1      -0.685   1.185  -2.566  1.00  0.00    +0.0245  H
ATOM     12 H25  685 L   1      -0.282  -0.750  -1.120  1.00  0.00    +0.0460  H
ATOM     13 H26  685 L   1      -2.480  -1.763  -1.128  1.00  0.00    +0.0280  H
ATOM     14 H27  685 L   1      -2.197  -0.858  -2.604  1.00  0.00    +0.0280  H
ATOM     15 H28  685 L   1      -4.492  -0.606  -1.497  1.00  0.00    +0.0274  H
ATOM     16 H29  685 L   1      -3.698   0.864  -2.005  1.00  0.00    +0.0274  H
ATOM     17 H30  685 L   1      -3.516   1.715   0.078  1.00  0.00    +0.0429  H
ATOM     18 H32  685 L   1      -2.948  -1.028   1.304  1.00  0.00    +0.0468  H
ATOM     19 H33  685 L   1      -3.712   0.794   2.873  1.00  0.00    +0.0245  H
ATOM     20 H34  685 L   1      -2.411   1.841   2.293  1.00  0.00    +0.0245  H
ATOM     21 H35  685 L   1      -2.046   0.368   3.198  1.00  0.00    +0.0245  H
ENDROOT
BRANCH 5 22
ATOM     22  C6  685 L   1      -5.105   0.434   0.651  1.00  0.00    +0.3093  C
ATOM     23  O7  685 L   1      -5.524  -0.514   1.294  1.00  0.00    -0.2506 OA
ATOM     24  O8  685 L   1      -5.933   1.435   0.292  1.00  0.00    -0.4804 OA
ATOM     25 H31  685 L   1      -6.800   1.179   0.671  1.00  0.00    +0.2951 HD
ENDBRANCH 5 22
BRANCH 8 26
ATOM     26 C12  685 L   1      -0.396  -0.911   1.311  1.00  0.00    +0.0630  C
ATOM     27 H36  685 L   1      -0.521  -1.924   0.905  1.00  0.00    +0.0508  H
ATOM     28 H37  685 L   1      -0.661  -0.981   2.371  1.00  0.00    +0.0508  H
BRANCH 26 29
ATOM     29 C13  685 L   1       1.039  -0.491   1.264  1.00  0.00    +0.1885  A
ATOM     30 N14  685 L   1       1.565   0.439   2.123  1.00  0.00    -0.1116 NA
ATOM     31 N15  685 L   1       2.844   0.565   1.801  1.00  0.00    -0.0456 NA
ATOM     32 N16  685 L   1       3.040  -0.300   0.787  1.00  0.00    -0.1577  N
ATOM     33 N21  685 L   1       1.944  -0.994   0.407  1.00  0.00    -0.1338 NA
BRANCH 32 34
ATOM     34 C17  685 L   1       4.312  -0.379   0.060  1.00  0.00    +0.0764  C
ATOM     35 C18  685 L   1       5.501  -0.047   0.985  1.00  0.00    -0.0385  C
ATOM     36 C19  685 L   1       4.535  -1.799  -0.501  1.00  0.00    -0.0385  C
ATOM     37 C20  685 L   1       4.281   0.625  -1.104  1.00  0.00    -0.0385  C
ATOM     38 H38  685 L   1       5.527  -0.717   1.852  1.00  0.00    +0.0253  H
ATOM     39 H39  685 L   1       6.455  -0.147   0.455  1.00  0.00    +0.0253  H
ATOM     40 H40  685 L   1       5.447   0.981   1.362  1.00  0.00    +0.0253  H
ATOM     41 H41  685 L   1       5.503  -1.876  -1.009  1.00  0.00    +0.0253  H
ATOM     42 H42  685 L   1       4.516  -2.547   0.300  1.00  0.00    +0.0253  H
ATOM     43 H43  685 L   1       3.763  -2.074  -1.229  1.00  0.00    +0.0253  H
ATOM     44 H44  685 L   1       3.458   0.408  -1.796  1.00  0.00    +0.0253  H
ATOM     45 H45  685 L   1       4.140   1.650  -0.742  1.00  0.00    +0.0253  H
ATOM     46 H46  685 L   1       5.215   0.598  -1.677  1.00  0.00    +0.0253  H
ENDBRANCH 32 34
ENDBRANCH 26 29
ENDBRANCH 8 26
TORSDOF 4
