ROOT
ATOM      1  C1  MCU L   1       7.339  -1.529  -1.099  1.00  0.00    -0.0397  C
ATOM      2  C2  MCU L   1       6.103  -1.446  -0.251  1.00  0.00    -0.0495  A
ATOM      3  C3  MCU L   1       6.089  -1.992   1.040  1.00  0.00    -0.0539  A
ATOM      4  C4  MCU L   1       4.932  -1.951   1.836  1.00  0.00    -0.0262  A
ATOM      5  C5  MCU L   1       4.967  -2.543   3.217  1.00  0.00    -0.0377  C
ATOM      6  C6  MCU L   1       3.775  -1.358   1.308  1.00  0.00    +0.0521  A
ATOM      7  N7  MCU L   1       2.597  -1.269   2.064  1.00  0.00    -0.3216  N
ATOM      8  C8  MCU L   1       1.440  -0.685   1.624  1.00  0.00    +0.2543  A
ATOM      9  O9  MCU L   1       0.487  -0.544   2.385  1.00  0.00    -0.2675 OA
ATOM     10 C10  MCU L   1       1.409  -0.191   0.213  1.00  0.00    +0.0421  A
ATOM     11 C33  MCU L   1       2.543  -0.233  -0.515  1.00  0.00    -0.0423  A
ATOM     12 C34  MCU L   1       3.772  -0.825   0.012  1.00  0.00    -0.0006  A
ATOM     13 C35  MCU L   1       4.933  -0.874  -0.764  1.00  0.00    -0.0497  A
ATOM     14 H36  MCU L   1       7.413  -0.663  -1.765  1.00  0.00    +0.0278  H
ATOM     15 H37  MCU L   1       7.315  -2.441  -1.704  1.00  0.00    +0.0278  H
ATOM     16 H38  MCU L   1       8.240  -1.539  -0.478  1.00  0.00    +0.0278  H
ATOM     17 H39  MCU L   1       6.995  -2.454   1.430  1.00  0.00    +0.0623  H
ATOM     18 H40  MCU L   1       4.762  -1.772   3.966  1.00  0.00    +0.0278  H
ATOM     19 H41  MCU L   1       5.948  -2.974   3.447  1.00  0.00    +0.0278  H
ATOM     20 H42  MCU L   1       4.228  -3.346   3.305  1.00  0.00    +0.0278  H
ATOM     21 H43  MCU L   1       2.573  -1.613   3.014  1.00  0.00    +0.1689 HD
ATOM     22 H72  MCU L   1       2.570   0.150  -1.532  1.00  0.00    +0.0629  H
ATOM     23 H73  MCU L   1       4.931  -0.470  -1.775  1.00  0.00    +0.0627  H
ENDROOT
BRANCH 10 24
ATOM     24 C11  MCU L   1       0.093   0.411  -0.259  1.00  0.00    +0.1027  C
ATOM     25 H44  MCU L   1      -0.428   0.727   0.652  1.00  0.00    +0.0596  H
BRANCH 24 26
ATOM     26 C12  MCU L   1       0.246   1.676  -1.075  1.00  0.00    +0.1733  A
ATOM     27 N13  MCU L   1       0.526   1.789  -2.362  1.00  0.00    -0.1114 NA
ATOM     28 N14  MCU L   1       0.538   3.127  -2.645  1.00  0.00    -0.0230 NA
ATOM     29 N15  MCU L   1       0.286   3.842  -1.561  1.00  0.00    -0.0436 NA
ATOM     30 N16  MCU L   1       0.139   2.949  -0.566  1.00  0.00    -0.2244  N
BRANCH 30 31
ATOM     31 C17  MCU L   1      -0.150   3.377   0.783  1.00  0.00    +0.0564  C
ATOM     32 C18  MCU L   1       0.466   4.721   1.205  1.00  0.00    -0.0304  C
ATOM     33 C19  MCU L   1      -0.503   5.252   2.249  1.00  0.00    -0.0511  C
ATOM     34 C20  MCU L   1      -1.858   4.899   1.660  1.00  0.00    -0.0511  C
ATOM     35 C21  MCU L   1      -1.660   3.513   1.051  1.00  0.00    -0.0304  C
ATOM     36 H45  MCU L   1       0.261   2.613   1.454  1.00  0.00    +0.0546  H
ATOM     37 H46  MCU L   1       1.477   4.598   1.607  1.00  0.00    +0.0286  H
ATOM     38 H47  MCU L   1       0.528   5.434   0.374  1.00  0.00    +0.0286  H
ATOM     39 H48  MCU L   1      -0.355   4.736   3.206  1.00  0.00    +0.0266  H
ATOM     40 H49  MCU L   1      -0.389   6.327   2.415  1.00  0.00    +0.0266  H
ATOM     41 H50  MCU L   1      -2.121   5.615   0.871  1.00  0.00    +0.0266  H
ATOM     42 H51  MCU L   1      -2.656   4.914   2.408  1.00  0.00    +0.0266  H
ATOM     43 H52  MCU L   1      -2.278   3.388   0.155  1.00  0.00    +0.0286  H
ATOM     44 H53  MCU L   1      -1.972   2.743   1.769  1.00  0.00    +0.0286  H
ENDBRANCH 30 31
ENDBRANCH 24 26
BRANCH 24 45
ATOM     45 N22  MCU L   1      -0.818  -0.612  -0.852  1.00  0.00    -0.2884 NA
ATOM     46 C23  MCU L   1      -0.372  -1.178  -2.130  1.00  0.00    -0.0001  C
ATOM     47 C24  MCU L   1      -1.255  -2.358  -2.538  1.00  0.00    -0.0396  C
ATOM     48 C25  MCU L   1      -2.734  -1.977  -2.572  1.00  0.00    -0.0450  C
ATOM     49 C26  MCU L   1      -3.205  -1.270  -1.276  1.00  0.00    -0.0164  C
ATOM     50 C27  MCU L   1      -3.253  -2.265  -0.076  1.00  0.00    -0.0462  C
ATOM     51 C28  MCU L   1      -4.610  -2.951   0.057  1.00  0.00    -0.0525  C
ATOM     52 C29  MCU L   1      -5.726  -1.943   0.330  1.00  0.00    -0.0530  C
ATOM     53 C30  MCU L   1      -5.453  -0.564  -0.269  1.00  0.00    -0.0525  C
ATOM     54 C31  MCU L   1      -4.616  -0.667  -1.539  1.00  0.00    -0.0462  C
ATOM     55 C32  MCU L   1      -2.203  -0.124  -0.959  1.00  0.00    +0.0055  C
ATOM     56 H54  MCU L   1      -0.394  -0.434  -2.934  1.00  0.00    +0.0427  H
ATOM     57 H55  MCU L   1       0.654  -1.554  -2.060  1.00  0.00    +0.0427  H
ATOM     58 H56  MCU L   1      -1.094  -3.196  -1.850  1.00  0.00    +0.0278  H
ATOM     59 H57  MCU L   1      -0.951  -2.714  -3.530  1.00  0.00    +0.0278  H
ATOM     60 H58  MCU L   1      -3.337  -2.872  -2.765  1.00  0.00    +0.0271  H
ATOM     61 H59  MCU L   1      -2.893  -1.305  -3.427  1.00  0.00    +0.0271  H
ATOM     62 H60  MCU L   1      -2.474  -3.030  -0.158  1.00  0.00    +0.0271  H
ATOM     63 H61  MCU L   1      -3.051  -1.735   0.864  1.00  0.00    +0.0271  H
ATOM     64 H62  MCU L   1      -4.832  -3.504  -0.864  1.00  0.00    +0.0265  H
ATOM     65 H63  MCU L   1      -4.582  -3.692   0.864  1.00  0.00    +0.0265  H
ATOM     66 H64  MCU L   1      -6.665  -2.343  -0.072  1.00  0.00    +0.0265  H
ATOM     67 H65  MCU L   1      -5.878  -1.836   1.410  1.00  0.00    +0.0265  H
ATOM     68 H66  MCU L   1      -4.931   0.060   0.467  1.00  0.00    +0.0265  H
ATOM     69 H67  MCU L   1      -6.405  -0.063  -0.481  1.00  0.00    +0.0265  H
ATOM     70 H68  MCU L   1      -4.531   0.323  -2.003  1.00  0.00    +0.0271  H
ATOM     71 H69  MCU L   1      -5.165  -1.289  -2.259  1.00  0.00    +0.0271  H
ATOM     72 H70  MCU L   1      -2.508   0.350  -0.017  1.00  0.00    +0.0432  H
ATOM     73 H71  MCU L   1      -2.271   0.654  -1.732  1.00  0.00    +0.0432  H
ENDBRANCH 24 45
ENDBRANCH 10 24
TORSDOF 4
