ROOT
ATOM      1  C1  CHE L   1      -7.883  -2.374   0.673  1.00  0.00    -0.0591  A
ATOM      2  C2  CHE L   1      -6.690  -1.902   1.224  1.00  0.00    -0.0502  A
ATOM      3  C3  CHE L   1      -6.036  -0.765   0.698  1.00  0.00    +0.0315  A
ATOM      4 C26  CHE L   1      -6.622  -0.112  -0.416  1.00  0.00    +0.0302  A
ATOM      5 C27  CHE L   1      -6.334   1.009  -1.243  1.00  0.00    +0.0576  A
ATOM      6 N28  CHE L   1      -7.252   1.216  -2.196  1.00  0.00    -0.1812 NA
ATOM      7 N29  CHE L   1      -8.135   0.225  -1.988  1.00  0.00    -0.2769  N
ATOM      8 C30  CHE L   1      -7.817  -0.608  -0.940  1.00  0.00    +0.0664  A
ATOM      9 C31  CHE L   1      -8.474  -1.732  -0.422  1.00  0.00    -0.0363  A
ATOM     10 H32  CHE L   1      -8.361  -3.253   1.106  1.00  0.00    +0.0618  H
ATOM     11 H33  CHE L   1      -6.260  -2.424   2.081  1.00  0.00    +0.0625  H
ATOM     12 H53  CHE L   1      -5.489   1.683  -1.183  1.00  0.00    +0.0854  H
ATOM     13 H54  CHE L   1      -8.942   0.169  -2.601  1.00  0.00    +0.1889 HD
ATOM     14 H55  CHE L   1      -9.403  -2.096  -0.849  1.00  0.00    +0.0639  H
ENDROOT
BRANCH 3 15
ATOM     15  C4  CHE L   1      -4.799  -0.277   1.297  1.00  0.00    +0.1820  A
ATOM     16  N5  CHE L   1      -4.234  -0.888   2.400  1.00  0.00    -0.2148 NA
ATOM     17  C6  CHE L   1      -3.169  -0.164   2.654  1.00  0.00    +0.1154  A
ATOM     18  N7  CHE L   1      -3.069   0.829   1.736  1.00  0.00    -0.2455  N
ATOM     19 N25  CHE L   1      -4.101   0.788   0.871  1.00  0.00    -0.1494 NA
ATOM     20 H34  CHE L   1      -2.460  -0.311   3.459  1.00  0.00    +0.1044  H
BRANCH 18 21
ATOM     21  C8  CHE L   1      -2.056   1.867   1.671  1.00  0.00    +0.0867  C
ATOM     22 H35  CHE L   1      -1.725   2.070   2.696  1.00  0.00    +0.0575  H
ATOM     23 H36  CHE L   1      -2.534   2.774   1.282  1.00  0.00    +0.0575  H
BRANCH 21 24
ATOM     24  C9  CHE L   1      -0.891   1.473   0.828  1.00  0.00    +0.0814  A
ATOM     25 C10  CHE L   1      -0.374   0.224   0.532  1.00  0.00    +0.0343  A
ATOM     26 N11  CHE L   1       0.704   0.443  -0.289  1.00  0.00    -0.3060  N
ATOM     27 C12  CHE L   1       1.564  -0.479  -0.883  1.00  0.00    +0.0156  A
ATOM     28 C13  CHE L   1       2.572  -0.038  -1.662  1.00  0.00    -0.0170  A
ATOM     29 C21  CHE L   1       2.707   1.413  -1.855  1.00  0.00    -0.0525  A
ATOM     30 C22  CHE L   1       1.868   2.293  -1.271  1.00  0.00    -0.0185  A
ATOM     31 C23  CHE L   1       0.813   1.819  -0.445  1.00  0.00    +0.1379  A
ATOM     32 N24  CHE L   1      -0.120   2.454   0.232  1.00  0.00    -0.2309 NA
ATOM     33 H37  CHE L   1      -0.680  -0.776   0.807  1.00  0.00    +0.0832  H
ATOM     34 H38  CHE L   1       1.378  -1.530  -0.684  1.00  0.00    +0.0816  H
ATOM     35 H51  CHE L   1       3.522   1.769  -2.481  1.00  0.00    +0.0622  H
ATOM     36 H52  CHE L   1       1.976   3.363  -1.415  1.00  0.00    +0.0654  H
BRANCH 28 37
ATOM     37 C14  CHE L   1       3.553  -0.956  -2.352  1.00  0.00    +0.0226  C
ATOM     38 H39  CHE L   1       3.325  -2.016  -2.148  1.00  0.00    +0.0474  H
ATOM     39 H40  CHE L   1       3.422  -0.824  -3.438  1.00  0.00    +0.0474  H
BRANCH 37 40
ATOM     40 N15  CHE L   1       4.955  -0.665  -2.023  1.00  0.00    -0.3117 NA
ATOM     41 H41  CHE L   1       5.553  -1.168  -2.678  1.00  0.00    +0.1223 HD
BRANCH 40 42
ATOM     42 C16  CHE L   1       5.311  -1.070  -0.654  1.00  0.00    -0.0010  C
ATOM     43 H42  CHE L   1       5.246  -2.165  -0.557  1.00  0.00    +0.0427  H
ATOM     44 H43  CHE L   1       4.620  -0.630   0.076  1.00  0.00    +0.0427  H
BRANCH 42 45
ATOM     45 C17  CHE L   1       6.732  -0.610  -0.341  1.00  0.00    -0.0285  C
ATOM     46 C18  CHE L   1       6.950   0.918  -0.163  1.00  0.00    -0.0490  C
ATOM     47 C19  CHE L   1       7.950   0.573   0.960  1.00  0.00    -0.0525  C
ATOM     48 C20  CHE L   1       7.185  -0.755   1.138  1.00  0.00    -0.0490  C
ATOM     49 H44  CHE L   1       7.464  -1.056  -1.031  1.00  0.00    +0.0313  H
ATOM     50 H45  CHE L   1       7.371   1.441  -1.025  1.00  0.00    +0.0268  H
ATOM     51 H46  CHE L   1       6.068   1.468   0.189  1.00  0.00    +0.0268  H
ATOM     52 H47  CHE L   1       8.981   0.443   0.613  1.00  0.00    +0.0265  H
ATOM     53 H48  CHE L   1       7.945   1.246   1.820  1.00  0.00    +0.0265  H
ATOM     54 H49  CHE L   1       6.371  -0.698   1.870  1.00  0.00    +0.0268  H
ATOM     55 H50  CHE L   1       7.806  -1.627   1.362  1.00  0.00    +0.0268  H
ENDBRANCH 42 45
ENDBRANCH 40 42
ENDBRANCH 37 40
ENDBRANCH 28 37
ENDBRANCH 21 24
ENDBRANCH 18 21
ENDBRANCH 3 15
TORSDOF 7
