ROOT
ATOM      1  C3  888 L   1      -4.480  -0.062  -0.788  1.00  0.00    +0.2469  C
ATOM      2  O4  888 L   1      -4.776  -1.044  -1.466  1.00  0.00    -0.2681 OA
ATOM      3  N5  888 L   1      -3.295   0.648  -0.939  1.00  0.00    -0.3370  N
ATOM      4  C6  888 L   1      -2.694   1.462   0.112  1.00  0.00    +0.0231  C
ATOM      5  C7  888 L   1      -1.667   0.682   0.929  1.00  0.00    -0.0175  C
ATOM      6  C8  888 L   1      -0.343   0.494   0.188  1.00  0.00    +0.0231  C
ATOM      7  N9  888 L   1      -0.294  -0.594  -0.797  1.00  0.00    -0.3365  N
ATOM      8 C10  888 L   1       0.818  -1.436  -0.941  1.00  0.00    +0.2546  C
ATOM      9 O11  888 L   1       0.784  -2.510  -1.537  1.00  0.00    -0.2674 OA
ATOM     10 C20  888 L   1      -1.498  -0.973  -1.554  1.00  0.00    +0.0391  C
ATOM     11 C21  888 L   1      -2.389   0.195  -1.996  1.00  0.00    +0.0391  C
ATOM     12 H25  888 L   1      -2.242   2.343  -0.359  1.00  0.00    +0.0489  H
ATOM     13 H26  888 L   1      -3.457   1.835   0.798  1.00  0.00    +0.0489  H
ATOM     14 H27  888 L   1      -1.457   1.270   1.832  1.00  0.00    +0.0299  H
ATOM     15 H28  888 L   1      -2.071  -0.282   1.260  1.00  0.00    +0.0299  H
ATOM     16 H29  888 L   1      -0.062   1.416  -0.335  1.00  0.00    +0.0489  H
ATOM     17 H30  888 L   1       0.422   0.312   0.950  1.00  0.00    +0.0489  H
ATOM     18 H38  888 L   1      -1.179  -1.505  -2.458  1.00  0.00    +0.0506  H
ATOM     19 H39  888 L   1      -2.053  -1.691  -0.939  1.00  0.00    +0.0506  H
ATOM     20 H40  888 L   1      -2.998  -0.132  -2.848  1.00  0.00    +0.0506  H
ATOM     21 H41  888 L   1      -1.793   1.048  -2.341  1.00  0.00    +0.0506  H
ENDROOT
BRANCH 1 23
ATOM     22  C1  888 L   1      -5.998   1.591   0.224  1.00  0.00    -0.0936  C
ATOM     23  C2  888 L   1      -5.436   0.376   0.256  1.00  0.00    -0.0045  C
ATOM     24 H22  888 L   1      -6.748   1.872   0.955  1.00  0.00    +0.0536  H
ATOM     25 H23  888 L   1      -5.738   2.317  -0.541  1.00  0.00    +0.0536  H
ATOM     26 H24  888 L   1      -5.741  -0.383   0.967  1.00  0.00    +0.0666  H
ENDBRANCH 1 23
BRANCH 8 27
ATOM     27 C12  888 L   1       2.119  -1.027  -0.365  1.00  0.00    +0.0394  A
ATOM     28 C13  888 L   1       2.699   0.199  -0.703  1.00  0.00    -0.0460  A
ATOM     29 C14  888 L   1       3.937   0.547  -0.158  1.00  0.00    -0.0192  A
ATOM     30 C15  888 L   1       4.608  -0.325   0.706  1.00  0.00    +0.1201  A
ATOM     31 C18  888 L   1       4.034  -1.560   1.019  1.00  0.00    -0.0192  A
ATOM     32 C19  888 L   1       2.794  -1.914   0.478  1.00  0.00    -0.0460  A
ATOM     33 H31  888 L   1       2.204   0.873  -1.396  1.00  0.00    +0.0626  H
ATOM     34 H32  888 L   1       4.391   1.501  -0.417  1.00  0.00    +0.0654  H
ATOM     35 H36  888 L   1       4.526  -2.272   1.673  1.00  0.00    +0.0654  H
ATOM     36 H37  888 L   1       2.356  -2.883   0.709  1.00  0.00    +0.0626  H
BRANCH 30 37
ATOM     37 O16  888 L   1       5.808   0.143   1.166  1.00  0.00    -0.4951 OA
ATOM     38 C17  888 L   1       6.562  -0.730   1.998  1.00  0.00    +0.0788  C
ATOM     39 H33  888 L   1       7.494  -0.220   2.259  1.00  0.00    +0.0660  H
ATOM     40 H34  888 L   1       6.029  -0.945   2.930  1.00  0.00    +0.0660  H
ATOM     41 H35  888 L   1       6.824  -1.652   1.469  1.00  0.00    +0.0660  H
ENDBRANCH 30 37
ENDBRANCH 8 27
TORSDOF 3
