ROOT
ATOM      1 C27  WH0 L   1      -0.611   2.742  -0.069  1.00  0.00    -0.0133  A
ATOM      2 C28  WH0 L   1      -1.019   3.596  -1.119  1.00  0.00    -0.0519  A
ATOM      3 C29  WH0 L   1      -0.383   4.832  -1.322  1.00  0.00    -0.0374  A
ATOM      4 C30  WH0 L   1       0.656   5.185  -0.464  1.00  0.00    +0.0454  A
ATOM      5 C31  WH0 L   1       1.059   4.358   0.566  1.00  0.00    -0.0145  A
ATOM      6 C32  WH0 L   1       0.432   3.133   0.792  1.00  0.00    -0.0483  A
ATOM      7 C33  WH0 L   1       2.192   4.971   1.323  1.00  0.00    +0.0535  C
ATOM      8 C34  WH0 L   1       2.350   6.252   0.555  1.00  0.00    +0.2296  C
ATOM      9 O35  WH0 L   1       3.221   7.127   0.813  1.00  0.00    -0.2725 OA
ATOM     10 N36  WH0 L   1       1.418   6.377  -0.516  1.00  0.00    -0.3256  N
ATOM     11 H63  WH0 L   1      -1.829   3.303  -1.776  1.00  0.00    +0.0624  H
ATOM     12 H64  WH0 L   1      -0.691   5.492  -2.124  1.00  0.00    +0.0638  H
ATOM     13 H65  WH0 L   1       0.748   2.503   1.614  1.00  0.00    +0.0627  H
ATOM     14 H66  WH0 L   1       1.906   5.172   2.377  1.00  0.00    +0.0410  H
ATOM     15 H67  WH0 L   1       3.107   4.345   1.248  1.00  0.00    +0.0410  H
ATOM     16 H68  WH0 L   1       1.316   7.174  -1.184  1.00  0.00    +0.1686 HD
ENDROOT
BRANCH 1 25
ATOM     17 C11  WH0 L   1      -0.979   0.215  -0.409  1.00  0.00    +0.1015  A
ATOM     18 N12  WH0 L   1      -1.982  -0.663  -0.172  1.00  0.00    -0.1627 NA
ATOM     19 N13  WH0 L   1      -2.908  -0.010   0.512  1.00  0.00    -0.1987  N
ATOM     20 C14  WH0 L   1      -4.109  -0.489   0.936  1.00  0.00    +0.2282  A
ATOM     21 N22  WH0 L   1      -4.976   0.381   1.531  1.00  0.00    -0.2207 NA
ATOM     22 C23  WH0 L   1      -4.649   1.695   1.715  1.00  0.00    +0.0334  A
ATOM     23 C24  WH0 L   1      -3.404   2.182   1.293  1.00  0.00    -0.0173  A
ATOM     24 C25  WH0 L   1      -2.546   1.268   0.689  1.00  0.00    +0.0803  A
ATOM     25 C26  WH0 L   1      -1.299   1.460   0.137  1.00  0.00    +0.0353  A
ATOM     26 H61  WH0 L   1      -5.360   2.362   2.186  1.00  0.00    +0.0831  H
ATOM     27 H62  WH0 L   1      -3.129   3.222   1.423  1.00  0.00    +0.0654  H
BRANCH 17 30
ATOM     28  C8  WH0 L   1       2.639  -0.091  -1.495  1.00  0.00    -0.0099  A
ATOM     29  C9  WH0 L   1       1.497   0.220  -0.738  1.00  0.00    -0.0465  A
ATOM     30 C10  WH0 L   1       0.217  -0.118  -1.202  1.00  0.00    +0.0032  A
ATOM     31 C37  WH0 L   1       0.085  -0.809  -2.416  1.00  0.00    -0.0498  A
ATOM     32 C38  WH0 L   1       1.216  -1.123  -3.174  1.00  0.00    -0.0256  A
ATOM     33 C39  WH0 L   1       2.490  -0.767  -2.720  1.00  0.00    +0.1266  A
ATOM     34 F40  WH0 L   1       3.578  -1.093  -3.463  1.00  0.00    -0.2052  F
ATOM     35 H49  WH0 L   1       1.610   0.695   0.229  1.00  0.00    +0.0628  H
ATOM     36 H69  WH0 L   1      -0.895  -1.091  -2.783  1.00  0.00    +0.0625  H
ATOM     37 H70  WH0 L   1       1.104  -1.649  -4.114  1.00  0.00    +0.0646  H
BRANCH 28 38
ATOM     38  C7  WH0 L   1       4.008   0.223  -0.946  1.00  0.00    -0.0074  C
ATOM     39 H47  WH0 L   1       3.943   1.079  -0.236  1.00  0.00    +0.0331  H
ATOM     40 H48  WH0 L   1       4.690   0.527  -1.770  1.00  0.00    +0.0331  H
BRANCH 38 41
ATOM     41  C6  WH0 L   1       4.585  -0.998  -0.222  1.00  0.00    +0.0224  C
ATOM     42 H45  WH0 L   1       4.722  -1.829  -0.951  1.00  0.00    +0.0489  H
ATOM     43 H46  WH0 L   1       3.876  -1.332   0.569  1.00  0.00    +0.0489  H
BRANCH 41 46
ATOM     44  C3  WH0 L   1       6.605  -1.671   1.133  1.00  0.00    +0.2443  C
ATOM     45  O4  WH0 L   1       6.121  -2.824   1.295  1.00  0.00    -0.2683 OA
ATOM     46  N5  WH0 L   1       5.873  -0.683   0.395  1.00  0.00    -0.3522  N
ATOM     47 H44  WH0 L   1       6.272   0.282   0.311  1.00  0.00    +0.1626 HD
BRANCH 44 49
ATOM     48  C1  WH0 L   1       8.636  -2.192   2.429  1.00  0.00    -0.0936  C
ATOM     49  C2  WH0 L   1       7.923  -1.330   1.704  1.00  0.00    -0.0047  C
ATOM     50 H41  WH0 L   1       8.273  -3.189   2.641  1.00  0.00    +0.0536  H
ATOM     51 H42  WH0 L   1       9.600  -1.896   2.824  1.00  0.00    +0.0536  H
ATOM     52 H43  WH0 L   1       8.332  -0.344   1.523  1.00  0.00    +0.0666  H
ENDBRANCH 44 49
ENDBRANCH 41 46
ENDBRANCH 38 41
ENDBRANCH 28 38
ENDBRANCH 17 30
BRANCH 20 53
ATOM     53 N15  WH0 L   1      -4.477  -1.865   0.743  1.00  0.00    -0.3402  N
ATOM     54 C16  WH0 L   1      -5.857  -2.216   0.397  1.00  0.00    +0.0228  C
ATOM     55 C17  WH0 L   1      -5.861  -3.343  -0.641  1.00  0.00    -0.0199  C
ATOM     56 C18  WH0 L   1      -5.007  -4.533  -0.173  1.00  0.00    +0.0080  C
ATOM     57 N19  WH0 L   1      -4.991  -5.567  -1.209  1.00  0.00    -0.3271 NA
ATOM     58 C20  WH0 L   1      -3.573  -4.075   0.173  1.00  0.00    -0.0199  C
ATOM     59 C21  WH0 L   1      -3.599  -2.947   1.209  1.00  0.00    +0.0228  C
ATOM     60 H50  WH0 L   1      -6.393  -1.339  -0.023  1.00  0.00    +0.0489  H
ATOM     61 H51  WH0 L   1      -6.395  -2.545   1.313  1.00  0.00    +0.0489  H
ATOM     62 H52  WH0 L   1      -5.464  -2.948  -1.601  1.00  0.00    +0.0297  H
ATOM     63 H53  WH0 L   1      -6.906  -3.679  -0.814  1.00  0.00    +0.0297  H
ATOM     64 H54  WH0 L   1      -5.473  -4.963   0.742  1.00  0.00    +0.0459  H
ATOM     65 H55  WH0 L   1      -4.484  -5.208  -2.050  1.00  0.00    +0.1185 HD
ATOM     66 H56  WH0 L   1      -4.456  -6.392  -0.852  1.00  0.00    +0.1185 HD
ATOM     67 H57  WH0 L   1      -3.055  -3.712  -0.742  1.00  0.00    +0.0297  H
ATOM     68 H58  WH0 L   1      -2.992  -4.929   0.582  1.00  0.00    +0.0297  H
ATOM     69 H59  WH0 L   1      -2.562  -2.588   1.390  1.00  0.00    +0.0489  H
ATOM     70 H60  WH0 L   1      -3.987  -3.338   2.175  1.00  0.00    +0.0489  H
ENDBRANCH 20 53
ENDBRANCH 1 25
TORSDOF 7
