ROOT
ATOM      1 CL1  CHE L   1       8.096   0.788   3.967  1.00  0.00    -0.0813 Cl
ATOM      2  C2  CHE L   1       7.153   0.674   2.538  1.00  0.00    +0.0663  A
ATOM      3  C3  CHE L   1       6.689  -0.561   2.087  1.00  0.00    -0.0407  A
ATOM      4  C4  CHE L   1       5.921  -0.653   0.923  1.00  0.00    -0.0503  A
ATOM      5  C5  CHE L   1       5.590   0.491   0.168  1.00  0.00    +0.0144  A
ATOM      6 C28  CHE L   1       6.060   1.746   0.624  1.00  0.00    +0.0302  A
ATOM      7 C29  CHE L   1       5.976   3.102   0.213  1.00  0.00    +0.0576  A
ATOM      8 N30  CHE L   1       6.619   3.940   1.032  1.00  0.00    -0.1811 NA
ATOM      9 N31  CHE L   1       7.124   3.127   1.972  1.00  0.00    -0.2755  N
ATOM     10 C32  CHE L   1       6.823   1.804   1.790  1.00  0.00    +0.0846  A
ATOM     11 H33  CHE L   1       6.926  -1.466   2.643  1.00  0.00    +0.0633  H
ATOM     12 H34  CHE L   1       5.587  -1.639   0.608  1.00  0.00    +0.0625  H
ATOM     13 H54  CHE L   1       5.469   3.511  -0.652  1.00  0.00    +0.0854  H
ATOM     14 H55  CHE L   1       7.670   3.535   2.723  1.00  0.00    +0.1890 HD
ENDROOT
BRANCH 5 15
ATOM     15  C6  CHE L   1       4.793   0.415  -1.043  1.00  0.00    +0.1132  A
ATOM     16  C7  CHE L   1       4.093  -0.679  -1.503  1.00  0.00    +0.0538  A
ATOM     17  N8  CHE L   1       3.503  -0.238  -2.654  1.00  0.00    -0.2452  N
ATOM     18 N26  CHE L   1       3.832   1.041  -2.911  1.00  0.00    -0.0648 NA
ATOM     19 N27  CHE L   1       4.619   1.452  -1.925  1.00  0.00    -0.1295 NA
ATOM     20 H35  CHE L   1       3.942  -1.682  -1.133  1.00  0.00    +0.0849  H
BRANCH 17 21
ATOM     21  C9  CHE L   1       2.661  -0.982  -3.569  1.00  0.00    +0.0867  C
ATOM     22 H36  CHE L   1       3.165  -1.933  -3.775  1.00  0.00    +0.0575  H
ATOM     23 H37  CHE L   1       2.589  -0.423  -4.509  1.00  0.00    +0.0575  H
BRANCH 21 24
ATOM     24 C10  CHE L   1       1.316  -1.203  -2.975  1.00  0.00    +0.0814  A
ATOM     25 C11  CHE L   1       0.268  -0.312  -2.837  1.00  0.00    +0.0343  A
ATOM     26 N12  CHE L   1      -0.739  -1.009  -2.219  1.00  0.00    -0.3060  N
ATOM     27 C13  CHE L   1      -2.008  -0.580  -1.841  1.00  0.00    +0.0156  A
ATOM     28 C14  CHE L   1      -2.849  -1.445  -1.237  1.00  0.00    -0.0170  A
ATOM     29 C22  CHE L   1      -2.378  -2.816  -1.014  1.00  0.00    -0.0525  A
ATOM     30 C23  CHE L   1      -1.147  -3.219  -1.385  1.00  0.00    -0.0185  A
ATOM     31 C24  CHE L   1      -0.265  -2.299  -2.017  1.00  0.00    +0.1379  A
ATOM     32 N25  CHE L   1       0.966  -2.437  -2.465  1.00  0.00    -0.2309 NA
ATOM     33 H38  CHE L   1       0.164   0.730  -3.108  1.00  0.00    +0.0832  H
ATOM     34 H39  CHE L   1      -2.263   0.450  -2.054  1.00  0.00    +0.0816  H
ATOM     35 H52  CHE L   1      -3.055  -3.509  -0.521  1.00  0.00    +0.0622  H
ATOM     36 H53  CHE L   1      -0.804  -4.232  -1.210  1.00  0.00    +0.0654  H
BRANCH 28 37
ATOM     37 C15  CHE L   1      -4.248  -1.083  -0.806  1.00  0.00    +0.0226  C
ATOM     38 H40  CHE L   1      -4.953  -1.741  -1.330  1.00  0.00    +0.0474  H
ATOM     39 H41  CHE L   1      -4.474  -0.056  -1.114  1.00  0.00    +0.0474  H
BRANCH 37 40
ATOM     40 N16  CHE L   1      -4.399  -1.227   0.640  1.00  0.00    -0.3117 NA
ATOM     41 H42  CHE L   1      -3.762  -0.591   1.117  1.00  0.00    +0.1223 HD
BRANCH 40 42
ATOM     42 C17  CHE L   1      -5.770  -1.011   1.104  1.00  0.00    -0.0010  C
ATOM     43 H43  CHE L   1      -5.824  -1.371   2.139  1.00  0.00    +0.0427  H
ATOM     44 H44  CHE L   1      -6.468  -1.632   0.531  1.00  0.00    +0.0427  H
BRANCH 42 45
ATOM     45 C18  CHE L   1      -6.192   0.452   1.046  1.00  0.00    -0.0285  C
ATOM     46 C19  CHE L   1      -7.498   0.802   1.810  1.00  0.00    -0.0490  C
ATOM     47 C20  CHE L   1      -6.839   2.148   2.174  1.00  0.00    -0.0525  C
ATOM     48 C21  CHE L   1      -5.478   1.444   2.005  1.00  0.00    -0.0490  C
ATOM     49 H45  CHE L   1      -6.231   0.829   0.014  1.00  0.00    +0.0313  H
ATOM     50 H46  CHE L   1      -8.402   0.869   1.198  1.00  0.00    +0.0268  H
ATOM     51 H47  CHE L   1      -7.705   0.167   2.679  1.00  0.00    +0.0268  H
ATOM     52 H48  CHE L   1      -7.021   2.941   1.440  1.00  0.00    +0.0265  H
ATOM     53 H49  CHE L   1      -7.057   2.529   3.174  1.00  0.00    +0.0265  H
ATOM     54 H50  CHE L   1      -5.100   0.992   2.930  1.00  0.00    +0.0268  H
ATOM     55 H51  CHE L   1      -4.686   2.050   1.556  1.00  0.00    +0.0268  H
ENDBRANCH 42 45
ENDBRANCH 40 42
ENDBRANCH 37 40
ENDBRANCH 28 37
ENDBRANCH 21 24
ENDBRANCH 17 21
ENDBRANCH 5 15
TORSDOF 7
