ROOT
ATOM      1  C8  WH0 L   1       3.934  -0.055  -0.724  1.00  0.00    -0.0219  A
ATOM      2  C9  WH0 L   1       3.810  -1.136  -1.616  1.00  0.00    -0.0565  A
ATOM      3 C10  WH0 L   1       2.544  -1.635  -1.959  1.00  0.00    -0.0609  A
ATOM      4 C11  WH0 L   1       1.383  -1.072  -1.411  1.00  0.00    -0.0510  A
ATOM      5 C12  WH0 L   1       1.502  -0.002  -0.512  1.00  0.00    +0.0444  A
ATOM      6 C13  WH0 L   1       2.758   0.483  -0.177  1.00  0.00    +0.0539  A
ATOM      7 N14  WH0 L   1       2.680   1.537   0.763  1.00  0.00    -0.3207  N
ATOM      8 C15  WH0 L   1       1.294   1.704   1.017  1.00  0.00    +0.2902  C
ATOM      9 O16  WH0 L   1       0.855   2.563   1.827  1.00  0.00    -0.2665 OA
ATOM     10 C17  WH0 L   1       0.418   0.767   0.236  1.00  0.00    +0.2804  C
ATOM     11 O18  WH0 L   1      -0.294  -0.015   1.189  1.00  0.00    -0.3368 OA
ATOM     12 C19  WH0 L   1      -1.348  -0.764   0.623  1.00  0.00    +0.0637  C
ATOM     13 C20  WH0 L   1      -2.299   0.116  -0.203  1.00  0.00    +0.0644  C
ATOM     14 C21  WH0 L   1      -3.051   1.127   0.703  1.00  0.00    +0.0637  C
ATOM     15 O22  WH0 L   1      -4.320   0.629   1.072  1.00  0.00    -0.3368 OA
ATOM     16 C23  WH0 L   1      -5.155   0.467  -0.072  1.00  0.00    +0.2804  C
ATOM     17 O24  WH0 L   1      -4.494  -0.011  -1.243  1.00  0.00    -0.3368 OA
ATOM     18 C25  WH0 L   1      -3.348  -0.767  -0.915  1.00  0.00    +0.0637  C
ATOM     19 C26  WH0 L   1      -5.893   1.745  -0.398  1.00  0.00    +0.2902  C
ATOM     20 O27  WH0 L   1      -5.340   2.807  -0.787  1.00  0.00    -0.2665 OA
ATOM     21 N28  WH0 L   1      -7.305   1.624  -0.275  1.00  0.00    -0.3210  N
ATOM     22 C29  WH0 L   1      -7.518   0.290   0.136  1.00  0.00    +0.0507  A
ATOM     23 C30  WH0 L   1      -8.753  -0.292   0.420  1.00  0.00    -0.0378  A
ATOM     24 C31  WH0 L   1      -8.776  -1.624   0.863  1.00  0.00    -0.0598  A
ATOM     25 C32  WH0 L   1      -7.574  -2.338   1.026  1.00  0.00    -0.0612  A
ATOM     26 C33  WH0 L   1      -6.341  -1.729   0.739  1.00  0.00    -0.0510  A
ATOM     27 C34  WH0 L   1      -6.334  -0.409   0.274  1.00  0.00    +0.0441  A
ATOM     28 C35  WH0 L   1      -1.429   0.855  -1.230  1.00  0.00    +0.0637  C
ATOM     29 O36  WH0 L   1      -0.398   1.580  -0.600  1.00  0.00    -0.3368 OA
ATOM     30 H45  WH0 L   1       4.692  -1.595  -2.046  1.00  0.00    +0.0621  H
ATOM     31 H46  WH0 L   1       2.463  -2.465  -2.649  1.00  0.00    +0.0618  H
ATOM     32 H47  WH0 L   1       0.428  -1.484  -1.694  1.00  0.00    +0.0623  H
ATOM     33 H48  WH0 L   1       3.463   2.064   1.209  1.00  0.00    +0.1688 HD
ATOM     34 H49  WH0 L   1      -0.947  -1.607   0.026  1.00  0.00    +0.0569  H
ATOM     35 H50  WH0 L   1      -1.919  -1.231   1.455  1.00  0.00    +0.0569  H
ATOM     36 H51  WH0 L   1      -2.474   1.331   1.630  1.00  0.00    +0.0569  H
ATOM     37 H52  WH0 L   1      -3.157   2.118   0.210  1.00  0.00    +0.0569  H
ATOM     38 H53  WH0 L   1      -3.629  -1.637  -0.286  1.00  0.00    +0.0569  H
ATOM     39 H54  WH0 L   1      -2.929  -1.200  -1.849  1.00  0.00    +0.0569  H
ATOM     40 H55  WH0 L   1      -8.024   2.360  -0.450  1.00  0.00    +0.1688 HD
ATOM     41 H56  WH0 L   1      -9.671   0.270   0.309  1.00  0.00    +0.0638  H
ATOM     42 H57  WH0 L   1      -9.721  -2.100   1.092  1.00  0.00    +0.0618  H
ATOM     43 H58  WH0 L   1      -7.599  -3.359   1.383  1.00  0.00    +0.0618  H
ATOM     44 H59  WH0 L   1      -5.423  -2.276   0.895  1.00  0.00    +0.0623  H
ATOM     45 H60  WH0 L   1      -1.008   0.168  -1.991  1.00  0.00    +0.0569  H
ATOM     46 H61  WH0 L   1      -2.059   1.571  -1.801  1.00  0.00    +0.0569  H
ENDROOT
BRANCH 1 47
ATOM     47  C7  WH0 L   1       5.298   0.454  -0.333  1.00  0.00    -0.0082  C
ATOM     48 H43  WH0 L   1       6.026   0.233  -1.143  1.00  0.00    +0.0331  H
ATOM     49 H44  WH0 L   1       5.274   1.559  -0.219  1.00  0.00    +0.0331  H
BRANCH 47 50
ATOM     50  C6  WH0 L   1       5.763  -0.194   0.973  1.00  0.00    +0.0224  C
ATOM     51 H41  WH0 L   1       5.800  -1.300   0.868  1.00  0.00    +0.0489  H
ATOM     52 H42  WH0 L   1       5.038   0.048   1.781  1.00  0.00    +0.0489  H
BRANCH 50 55
ATOM     53  C3  WH0 L   1       8.288  -0.116   0.704  1.00  0.00    +0.2443  C
ATOM     54  O4  WH0 L   1       8.240  -0.977  -0.218  1.00  0.00    -0.2683 OA
ATOM     55  N5  WH0 L   1       7.081   0.311   1.353  1.00  0.00    -0.3522  N
ATOM     56 H40  WH0 L   1       7.146   0.968   2.163  1.00  0.00    +0.1626 HD
BRANCH 53 58
ATOM     57  C1  WH0 L   1      10.736   0.096   0.567  1.00  0.00    -0.0936  C
ATOM     58  C2  WH0 L   1       9.581   0.452   1.126  1.00  0.00    -0.0047  C
ATOM     59 H37  WH0 L   1      11.661   0.541   0.910  1.00  0.00    +0.0536  H
ATOM     60 H38  WH0 L   1      10.778  -0.635  -0.231  1.00  0.00    +0.0536  H
ATOM     61 H39  WH0 L   1       9.594   1.188   1.921  1.00  0.00    +0.0666  H
ENDBRANCH 53 58
ENDBRANCH 50 55
ENDBRANCH 47 50
ENDBRANCH 1 47
TORSDOF 4
