ROOT
ATOM      1  C8  WH0 L   1       1.416   0.192  -0.249  1.00  0.00    -0.0437  A
ATOM      2  C9  WH0 L   1       0.638   1.224   0.327  1.00  0.00    -0.0580  A
ATOM      3 C10  WH0 L   1      -0.604   0.956   0.912  1.00  0.00    -0.0528  A
ATOM      4 C11  WH0 L   1      -1.056  -0.353   0.915  1.00  0.00    +0.0212  A
ATOM      5 C12  WH0 L   1      -0.282  -1.370   0.348  1.00  0.00    +0.0488  A
ATOM      6 C13  WH0 L   1       0.946  -1.130  -0.234  1.00  0.00    -0.0347  A
ATOM      7 N14  WH0 L   1      -0.939  -2.591   0.434  1.00  0.00    -0.3228  N
ATOM      8 C15  WH0 L   1      -2.191  -2.454   1.038  1.00  0.00    +0.2665  C
ATOM      9 O16  WH0 L   1      -3.003  -3.355   1.185  1.00  0.00    -0.2689 OA
ATOM     10 C17  WH0 L   1      -2.323  -0.950   1.480  1.00  0.00    +0.2010  C
ATOM     11 S18  WH0 L   1      -2.237  -0.930   3.311  1.00  0.00    -0.1088 SA
ATOM     12 C19  WH0 L   1      -4.021  -0.965   3.448  1.00  0.00    +0.0758  C
ATOM     13 C20  WH0 L   1      -4.568  -0.415   2.148  1.00  0.00    +0.2395  C
ATOM     14 O21  WH0 L   1      -5.755  -0.113   2.056  1.00  0.00    -0.2717 OA
ATOM     15 N22  WH0 L   1      -3.598  -0.340   1.131  1.00  0.00    -0.2840  N
ATOM     16 H37  WH0 L   1       1.004   2.250   0.322  1.00  0.00    +0.0620  H
ATOM     17 H38  WH0 L   1      -1.192   1.756   1.352  1.00  0.00    +0.0622  H
ATOM     18 H39  WH0 L   1       1.528  -1.937  -0.667  1.00  0.00    +0.0641  H
ATOM     19 H40  WH0 L   1      -0.600  -3.471   0.071  1.00  0.00    +0.1687 HD
ATOM     20 H41  WH0 L   1      -4.344  -0.336   4.281  1.00  0.00    +0.0474  H
ATOM     21 H42  WH0 L   1      -4.378  -1.988   3.588  1.00  0.00    +0.0474  H
ENDROOT
BRANCH 1 22
ATOM     22  C7  WH0 L   1       2.761   0.510  -0.858  1.00  0.00    -0.0101  C
ATOM     23 H35  WH0 L   1       2.888  -0.075  -1.779  1.00  0.00    +0.0330  H
ATOM     24 H36  WH0 L   1       2.786   1.561  -1.173  1.00  0.00    +0.0330  H
BRANCH 22 25
ATOM     25  C6  WH0 L   1       3.910   0.225   0.108  1.00  0.00    +0.0223  C
ATOM     26 H33  WH0 L   1       3.808   0.822   1.022  1.00  0.00    +0.0489  H
ATOM     27 H34  WH0 L   1       3.911  -0.830   0.406  1.00  0.00    +0.0489  H
BRANCH 25 30
ATOM     28  C3  WH0 L   1       6.340  -0.080  -0.086  1.00  0.00    +0.2443  C
ATOM     29  O4  WH0 L   1       6.375  -1.032   0.684  1.00  0.00    -0.2683 OA
ATOM     30  N5  WH0 L   1       5.194   0.564  -0.479  1.00  0.00    -0.3522  N
ATOM     31 H32  WH0 L   1       5.294   1.478  -0.898  1.00  0.00    +0.1626 HD
BRANCH 28 33
ATOM     32  C1  WH0 L   1       7.732   1.169  -1.761  1.00  0.00    -0.0936  C
ATOM     33  C2  WH0 L   1       7.605   0.496  -0.609  1.00  0.00    -0.0047  C
ATOM     34 H29  WH0 L   1       6.899   1.354  -2.430  1.00  0.00    +0.0536  H
ATOM     35 H30  WH0 L   1       8.709   1.522  -2.078  1.00  0.00    +0.0536  H
ATOM     36 H31  WH0 L   1       8.477   0.273  -0.001  1.00  0.00    +0.0666  H
ENDBRANCH 28 33
ENDBRANCH 25 30
ENDBRANCH 22 25
ENDBRANCH 1 22
BRANCH 15 37
ATOM     37 C23  WH0 L   1      -3.913   0.151  -0.180  1.00  0.00    +0.0468  A
ATOM     38 C24  WH0 L   1      -3.258  -0.302  -1.334  1.00  0.00    -0.0380  A
ATOM     39 C25  WH0 L   1      -3.566   0.213  -2.600  1.00  0.00    -0.0598  A
ATOM     40 C26  WH0 L   1      -4.540   1.194  -2.740  1.00  0.00    -0.0616  A
ATOM     41 C27  WH0 L   1      -5.207   1.657  -1.614  1.00  0.00    -0.0598  A
ATOM     42 C28  WH0 L   1      -4.895   1.141  -0.351  1.00  0.00    -0.0380  A
ATOM     43 H43  WH0 L   1      -2.520  -1.094  -1.308  1.00  0.00    +0.0638  H
ATOM     44 H44  WH0 L   1      -3.049  -0.166  -3.478  1.00  0.00    +0.0618  H
ATOM     45 H45  WH0 L   1      -4.783   1.590  -3.722  1.00  0.00    +0.0618  H
ATOM     46 H46  WH0 L   1      -5.972   2.423  -1.709  1.00  0.00    +0.0618  H
ATOM     47 H47  WH0 L   1      -5.429   1.559   0.499  1.00  0.00    +0.0638  H
ENDBRANCH 15 37
TORSDOF 5
