ROOT
ATOM      1  C1  170 L   1      -1.352   2.705  -1.348  1.00  0.00    -0.0124  C
ATOM      2  N2  170 L   1      -1.864   1.430  -0.844  1.00  0.00    -0.2997 NA
ATOM      3  C3  170 L   1      -3.072   1.674  -0.036  1.00  0.00    -0.0010  C
ATOM      4  C4  170 L   1      -3.704   0.371   0.448  1.00  0.00    -0.0391  C
ATOM      5  C5  170 L   1      -2.696  -0.490   1.205  1.00  0.00    -0.0345  C
ATOM      6  C6  170 L   1      -1.414  -0.725   0.369  1.00  0.00    +0.0863  C
ATOM      7 C10  170 L   1      -0.370  -1.466   1.232  1.00  0.00    -0.0180  C
ATOM      8 C11  170 L   1       0.985  -1.584   0.534  1.00  0.00    +0.0198  C
ATOM      9 N12  170 L   1       1.462  -0.243   0.163  1.00  0.00    -0.3667  N
ATOM     10 C20  170 L   1       0.552   0.510  -0.725  1.00  0.00    +0.0353  C
ATOM     11 C21  170 L   1      -0.851   0.664  -0.062  1.00  0.00    +0.0434  C
ATOM     12 H22  170 L   1      -0.569   2.547  -2.097  1.00  0.00    +0.0391  H
ATOM     13 H23  170 L   1      -0.954   3.336  -0.545  1.00  0.00    +0.0391  H
ATOM     14 H24  170 L   1      -2.142   3.265  -1.862  1.00  0.00    +0.0391  H
ATOM     15 H25  170 L   1      -2.838   2.311   0.827  1.00  0.00    +0.0426  H
ATOM     16 H26  170 L   1      -3.820   2.206  -0.637  1.00  0.00    +0.0426  H
ATOM     17 H27  170 L   1      -4.554   0.598   1.101  1.00  0.00    +0.0278  H
ATOM     18 H28  170 L   1      -4.105  -0.185  -0.408  1.00  0.00    +0.0278  H
ATOM     19 H29  170 L   1      -3.170  -1.435   1.496  1.00  0.00    +0.0277  H
ATOM     20 H30  170 L   1      -2.436   0.020   2.142  1.00  0.00    +0.0277  H
ATOM     21 H32  170 L   1      -0.725  -2.472   1.491  1.00  0.00    +0.0293  H
ATOM     22 H33  170 L   1      -0.231  -0.929   2.180  1.00  0.00    +0.0293  H
ATOM     23 H34  170 L   1       0.914  -2.217  -0.359  1.00  0.00    +0.0488  H
ATOM     24 H35  170 L   1       1.666  -2.092   1.225  1.00  0.00    +0.0488  H
ATOM     25 H39  170 L   1       0.483   0.037  -1.709  1.00  0.00    +0.0503  H
ATOM     26 H40  170 L   1       0.972   1.513  -0.870  1.00  0.00    +0.0503  H
ATOM     27 H41  170 L   1      -0.664   1.235   0.863  1.00  0.00    +0.0491  H
ENDROOT
BRANCH 6 28
ATOM     28  C7  170 L   1      -1.724  -1.621  -0.835  1.00  0.00    +0.3126  C
ATOM     29  O8  170 L   1      -1.271  -1.545  -1.965  1.00  0.00    -0.2503 OA
ATOM     30  O9  170 L   1      -2.535  -2.658  -0.534  1.00  0.00    -0.4802 OA
ATOM     31 H31  170 L   1      -2.628  -3.132  -1.387  1.00  0.00    +0.2951 HD
ENDBRANCH 6 28
BRANCH 9 32
ATOM     32 C13  170 L   1       2.844  -0.204  -0.123  1.00  0.00    +0.0765  A
ATOM     33 C14  170 L   1       3.352   0.168  -1.375  1.00  0.00    -0.0175  A
ATOM     34 C15  170 L   1       4.728   0.190  -1.584  1.00  0.00    +0.0297  A
ATOM     35 N16  170 L   1       5.643  -0.122  -0.643  1.00  0.00    -0.2603 NA
ATOM     36 C17  170 L   1       5.149  -0.468   0.566  1.00  0.00    +0.0648  A
ATOM     37 C18  170 L   1       3.795  -0.521   0.862  1.00  0.00    +0.1644  A
ATOM     38 F19  170 L   1       3.417  -0.854   2.107  1.00  0.00    -0.2017  F
ATOM     39 H36  170 L   1       2.705   0.423  -2.205  1.00  0.00    +0.0654  H
ATOM     40 H37  170 L   1       5.137   0.467  -2.552  1.00  0.00    +0.0830  H
ATOM     41 H38  170 L   1       5.885  -0.707   1.326  1.00  0.00    +0.0859  H
ENDBRANCH 9 32
TORSDOF 2
