ROOT
ATOM      1  N5  CHE L   1       1.716  -0.415  -1.006  1.00  0.00    -0.3011 NA
ATOM      2  C6  CHE L   1       1.404  -1.766  -0.540  1.00  0.00    -0.0007  C
ATOM      3  C7  CHE L   1      -0.079  -1.906  -0.201  1.00  0.00    -0.0342  C
ATOM      4  C8  CHE L   1      -0.461  -0.998   0.982  1.00  0.00    -0.0045  C
ATOM      5 C17  CHE L   1       0.383   0.292   0.994  1.00  0.00    -0.0342  C
ATOM      6 C18  CHE L   1       0.928   0.653  -0.389  1.00  0.00    -0.0007  C
ATOM      7 H27  CHE L   1       1.660  -2.485  -1.326  1.00  0.00    +0.0427  H
ATOM      8 H28  CHE L   1       1.989  -2.035   0.347  1.00  0.00    +0.0427  H
ATOM      9 H29  CHE L   1      -0.678  -1.673  -1.091  1.00  0.00    +0.0281  H
ATOM     10 H30  CHE L   1      -0.305  -2.949   0.056  1.00  0.00    +0.0281  H
ATOM     11 H31  CHE L   1      -0.236  -1.541   1.910  1.00  0.00    +0.0334  H
ATOM     12 H39  CHE L   1      -0.191   1.133   1.401  1.00  0.00    +0.0281  H
ATOM     13 H40  CHE L   1       1.229   0.149   1.679  1.00  0.00    +0.0281  H
ATOM     14 H41  CHE L   1       1.494   1.591  -0.328  1.00  0.00    +0.0427  H
ATOM     15 H42  CHE L   1       0.085   0.872  -1.056  1.00  0.00    +0.0427  H
ENDROOT
BRANCH 1 16
ATOM     16  C4  CHE L   1       3.157  -0.146  -1.101  1.00  0.00    +0.0114  C
ATOM     17 H25  CHE L   1       3.629  -0.955  -1.673  1.00  0.00    +0.0439  H
ATOM     18 H26  CHE L   1       3.292   0.755  -1.715  1.00  0.00    +0.0439  H
BRANCH 16 19
ATOM     19  C3  CHE L   1       3.916   0.042   0.234  1.00  0.00    +0.0084  C
ATOM     20 H23  CHE L   1       3.821  -0.862   0.844  1.00  0.00    +0.0436  H
ATOM     21 H24  CHE L   1       3.480   0.877   0.794  1.00  0.00    +0.0436  H
BRANCH 19 23
ATOM     22  C1  CHE L   1       6.055   0.511   1.245  1.00  0.00    -0.0157  C
ATOM     23  N2  CHE L   1       5.341   0.311  -0.009  1.00  0.00    -0.3178 NA
ATOM     24 H19  CHE L   1       7.112   0.701   1.035  1.00  0.00    +0.0388  H
ATOM     25 H20  CHE L   1       6.000  -0.380   1.878  1.00  0.00    +0.0388  H
ATOM     26 H21  CHE L   1       5.662   1.370   1.799  1.00  0.00    +0.0388  H
ATOM     27 H22  CHE L   1       5.432   1.147  -0.586  1.00  0.00    +0.1217 HD
ENDBRANCH 19 23
ENDBRANCH 16 19
ENDBRANCH 1 16
BRANCH 4 28
ATOM     28  C9  CHE L   1      -1.971  -0.708   0.998  1.00  0.00    +0.0925  C
ATOM     29 H32  CHE L   1      -2.519  -1.659   0.974  1.00  0.00    +0.0699  H
ATOM     30 H33  CHE L   1      -2.218  -0.171   1.922  1.00  0.00    +0.0699  H
BRANCH 28 31
ATOM     31 O10  CHE L   1      -2.322   0.089  -0.131  1.00  0.00    -0.4917 OA
BRANCH 31 32
ATOM     32 C11  CHE L   1      -3.638   0.433  -0.272  1.00  0.00    +0.1205  A
ATOM     33 C12  CHE L   1      -3.922   1.193  -1.410  1.00  0.00    -0.0199  A
ATOM     34 C13  CHE L   1      -5.225   1.614  -1.678  1.00  0.00    -0.0583  A
ATOM     35 C14  CHE L   1      -6.256   1.276  -0.804  1.00  0.00    -0.0615  A
ATOM     36 C15  CHE L   1      -5.980   0.519   0.333  1.00  0.00    -0.0583  A
ATOM     37 C16  CHE L   1      -4.674   0.097   0.600  1.00  0.00    -0.0199  A
ATOM     38 H34  CHE L   1      -3.119   1.456  -2.094  1.00  0.00    +0.0654  H
ATOM     39 H35  CHE L   1      -5.433   2.203  -2.567  1.00  0.00    +0.0619  H
ATOM     40 H36  CHE L   1      -7.272   1.602  -1.009  1.00  0.00    +0.0618  H
ATOM     41 H37  CHE L   1      -6.785   0.255   1.015  1.00  0.00    +0.0619  H
ATOM     42 H38  CHE L   1      -4.501  -0.490   1.495  1.00  0.00    +0.0654  H
ENDBRANCH 31 32
ENDBRANCH 28 31
ENDBRANCH 4 28
TORSDOF 6
