ROOT
ATOM      1 C16  697 L   1       3.064   0.292  -0.440  1.00  0.00    +0.0296  C
ATOM      2 C17  697 L   1       4.434   0.592   0.187  1.00  0.00    -0.0326  C
ATOM      3 C18  697 L   1       5.577   0.278  -0.773  1.00  0.00    -0.0512  C
ATOM      4 C19  697 L   1       5.409   1.004  -2.104  1.00  0.00    -0.0529  C
ATOM      5 C20  697 L   1       4.054   0.702  -2.737  1.00  0.00    -0.0512  C
ATOM      6 C21  697 L   1       2.904   1.013  -1.784  1.00  0.00    -0.0326  C
ATOM      7 H34  697 L   1       2.987  -0.791  -0.608  1.00  0.00    +0.0522  H
ATOM      8 H35  697 L   1       4.485   1.649   0.482  1.00  0.00    +0.0285  H
ATOM      9 H36  697 L   1       4.568   0.009   1.106  1.00  0.00    +0.0285  H
ATOM     10 H37  697 L   1       6.532   0.562  -0.315  1.00  0.00    +0.0266  H
ATOM     11 H38  697 L   1       5.618  -0.806  -0.951  1.00  0.00    +0.0266  H
ATOM     12 H39  697 L   1       5.508   2.086  -1.945  1.00  0.00    +0.0265  H
ATOM     13 H40  697 L   1       6.211   0.706  -2.789  1.00  0.00    +0.0265  H
ATOM     14 H41  697 L   1       4.013  -0.356  -3.026  1.00  0.00    +0.0266  H
ATOM     15 H42  697 L   1       3.939   1.289  -3.655  1.00  0.00    +0.0266  H
ATOM     16 H43  697 L   1       2.852   2.100  -1.622  1.00  0.00    +0.0285  H
ATOM     17 H44  697 L   1       1.953   0.727  -2.251  1.00  0.00    +0.0285  H
ENDROOT
BRANCH 1 20
ATOM     18  O1  697 L   1       2.148  -1.186   1.803  1.00  0.00    -0.2728 OA
ATOM     19  C2  697 L   1       1.622  -0.109   1.548  1.00  0.00    +0.2287  C
ATOM     20 N15  697 L   1       1.988   0.672   0.465  1.00  0.00    -0.3529  N
ATOM     21 H33  697 L   1       1.526   1.566   0.318  1.00  0.00    +0.1626 HD
BRANCH 19 22
ATOM     22  C3  697 L   1       0.525   0.477   2.407  1.00  0.00    +0.0892  C
ATOM     23 H22  697 L   1       0.745   0.237   3.454  1.00  0.00    +0.0441  H
ATOM     24 H23  697 L   1       0.534   1.571   2.331  1.00  0.00    +0.0441  H
BRANCH 22 25
ATOM     25  C4  697 L   1      -0.791  -0.046   1.988  1.00  0.00    +0.1807  A
ATOM     26  N5  697 L   1      -1.465  -0.963   2.692  1.00  0.00    -0.0608 NA
ATOM     27  O6  697 L   1      -2.637  -1.137   1.957  1.00  0.00    -0.3377 OA
ATOM     28  C7  697 L   1      -2.559  -0.283   0.895  1.00  0.00    +0.2306  A
ATOM     29 N14  697 L   1      -1.452   0.425   0.878  1.00  0.00    -0.1954 NA
BRANCH 28 30
ATOM     30  C8  697 L   1      -3.700  -0.278  -0.059  1.00  0.00    +0.0423  C
ATOM     31  C9  697 L   1      -3.897  -1.649  -0.705  1.00  0.00    -0.0181  C
ATOM     32 C10  697 L   1      -5.049  -1.613  -1.706  1.00  0.00    +0.0484  C
ATOM     33 O11  697 L   1      -6.033  -0.622  -1.398  1.00  0.00    -0.3797 OA
ATOM     34 C12  697 L   1      -6.228  -0.454   0.002  1.00  0.00    +0.0484  C
ATOM     35 C13  697 L   1      -4.996   0.203   0.615  1.00  0.00    -0.0181  C
ATOM     36 H24  697 L   1      -3.452   0.433  -0.861  1.00  0.00    +0.0398  H
ATOM     37 H25  697 L   1      -4.131  -2.392   0.069  1.00  0.00    +0.0295  H
ATOM     38 H26  697 L   1      -2.984  -2.005  -1.197  1.00  0.00    +0.0295  H
ATOM     39 H27  697 L   1      -4.670  -1.382  -2.710  1.00  0.00    +0.0560  H
ATOM     40 H28  697 L   1      -5.538  -2.595  -1.756  1.00  0.00    +0.0560  H
ATOM     41 H29  697 L   1      -6.439  -1.426   0.470  1.00  0.00    +0.0560  H
ATOM     42 H30  697 L   1      -7.109   0.179   0.157  1.00  0.00    +0.0560  H
ATOM     43 H31  697 L   1      -5.061   1.292   0.481  1.00  0.00    +0.0295  H
ATOM     44 H32  697 L   1      -5.003   0.030   1.699  1.00  0.00    +0.0295  H
ENDBRANCH 28 30
ENDBRANCH 22 25
ENDBRANCH 19 22
ENDBRANCH 1 20
TORSDOF 4
