ROOT
ATOM      1  C7  221 L   1       2.389  -0.408   0.116  1.00  0.00    +0.0408  C
ATOM      2  C8  221 L   1       1.384  -0.283   1.271  1.00  0.00    -0.0141  C
ATOM      3  C9  221 L   1       0.050   0.291   0.813  1.00  0.00    +0.0262  C
ATOM      4 N10  221 L   1      -0.538  -0.494  -0.268  1.00  0.00    -0.3080  N
ATOM      5 C11  221 L   1      -1.895  -0.482  -0.546  1.00  0.00    +0.4119  C
ATOM      6 O12  221 L   1      -2.411  -1.161  -1.424  1.00  0.00    -0.2235 OA
ATOM      7 C18  221 L   1       0.354  -1.291  -1.101  1.00  0.00    +0.0262  C
ATOM      8 C19  221 L   1       1.715  -0.623  -1.245  1.00  0.00    -0.0141  C
ATOM      9 H24  221 L   1       3.031  -1.267   0.349  1.00  0.00    +0.0530  H
ATOM     10 H25  221 L   1       1.202  -1.285   1.681  1.00  0.00    +0.0302  H
ATOM     11 H26  221 L   1       1.793   0.320   2.091  1.00  0.00    +0.0302  H
ATOM     12 H27  221 L   1      -0.642   0.331   1.661  1.00  0.00    +0.0490  H
ATOM     13 H28  221 L   1       0.176   1.315   0.442  1.00  0.00    +0.0490  H
ATOM     14 H38  221 L   1       0.455  -2.274  -0.626  1.00  0.00    +0.0490  H
ATOM     15 H39  221 L   1      -0.090  -1.449  -2.089  1.00  0.00    +0.0490  H
ATOM     16 H40  221 L   1       1.585   0.334  -1.767  1.00  0.00    +0.0302  H
ATOM     17 H41  221 L   1       2.359  -1.238  -1.885  1.00  0.00    +0.0302  H
ENDROOT
BRANCH 1 18
ATOM     18  N6  221 L   1       3.218   0.821   0.086  1.00  0.00    -0.3078 NA
ATOM     19 H23  221 L   1       2.780   1.637  -0.346  1.00  0.00    +0.1726 HD
BRANCH 18 20
ATOM     20  S3  221 L   1       4.821   0.703  -0.440  1.00  0.00    +0.2518  S
ATOM     21  O4  221 L   1       5.252   2.076  -0.592  1.00  0.00    -0.2009 OA
ATOM     22  O5  221 L   1       4.825  -0.197  -1.574  1.00  0.00    -0.2009 OA
BRANCH 20 24
ATOM     23  C1  221 L   1       5.981  -1.295   0.928  1.00  0.00    -0.0860  C
ATOM     24  C2  221 L   1       5.680   0.010   0.897  1.00  0.00    +0.0432  C
ATOM     25 H20  221 L   1       6.526  -1.716   1.767  1.00  0.00    +0.0542  H
ATOM     26 H21  221 L   1       5.708  -1.969   0.120  1.00  0.00    +0.0542  H
ATOM     27 H22  221 L   1       5.962   0.685   1.692  1.00  0.00    +0.0752  H
ENDBRANCH 20 24
ENDBRANCH 18 20
ENDBRANCH 1 18
BRANCH 5 28
ATOM     28 O13  221 L   1      -2.571   0.373   0.263  1.00  0.00    -0.4429 OA
BRANCH 28 29
ATOM     29 C14  221 L   1      -4.006   0.546   0.139  1.00  0.00    +0.1070  C
ATOM     30 C15  221 L   1      -4.382   1.121  -1.231  1.00  0.00    -0.0253  C
ATOM     31 C16  221 L   1      -4.366   1.578   1.219  1.00  0.00    -0.0253  C
ATOM     32 C17  221 L   1      -4.754  -0.757   0.440  1.00  0.00    -0.0253  C
ATOM     33 H29  221 L   1      -4.213   0.402  -2.038  1.00  0.00    +0.0268  H
ATOM     34 H30  221 L   1      -3.772   2.002  -1.463  1.00  0.00    +0.0268  H
ATOM     35 H31  221 L   1      -5.438   1.410  -1.266  1.00  0.00    +0.0268  H
ATOM     36 H32  221 L   1      -4.077   1.218   2.213  1.00  0.00    +0.0268  H
ATOM     37 H33  221 L   1      -5.438   1.799   1.229  1.00  0.00    +0.0268  H
ATOM     38 H34  221 L   1      -3.820   2.515   1.059  1.00  0.00    +0.0268  H
ATOM     39 H35  221 L   1      -5.834  -0.589   0.513  1.00  0.00    +0.0268  H
ATOM     40 H36  221 L   1      -4.405  -1.197   1.382  1.00  0.00    +0.0268  H
ATOM     41 H37  221 L   1      -4.593  -1.511  -0.336  1.00  0.00    +0.0268  H
ENDBRANCH 28 29
ENDBRANCH 5 28
TORSDOF 5
