ROOT
ATOM      1 C10  CHE L   1      -1.592  -1.308  -0.003  1.00  0.00    +0.0440  A
ATOM      2 C11  CHE L   1      -1.938  -2.671   0.029  1.00  0.00    -0.0361  A
ATOM      3 C12  CHE L   1      -3.272  -3.097  -0.063  1.00  0.00    -0.0336  A
ATOM      4 C13  CHE L   1      -4.308  -2.178  -0.195  1.00  0.00    +0.0780  A
ATOM      5 N14  CHE L   1      -5.626  -2.645  -0.284  1.00  0.00    -0.2370 NA
ATOM      6 C15  CHE L   1      -6.561  -1.765  -0.413  1.00  0.00    +0.0990  A
ATOM      7 N16  CHE L   1      -6.363  -0.407  -0.469  1.00  0.00    -0.3019  N
ATOM      8 C17  CHE L   1      -7.486   0.496  -0.610  1.00  0.00    +0.0161  C
ATOM      9 C18  CHE L   1      -5.090   0.141  -0.378  1.00  0.00    +0.2614  A
ATOM     10 O19  CHE L   1      -4.862   1.347  -0.407  1.00  0.00    -0.2670 OA
ATOM     11 C20  CHE L   1      -3.984  -0.826  -0.236  1.00  0.00    +0.0668  A
ATOM     12 C21  CHE L   1      -2.653  -0.393  -0.146  1.00  0.00    -0.0238  A
ATOM     13 H38  CHE L   1      -1.189  -3.449   0.137  1.00  0.00    +0.0639  H
ATOM     14 H39  CHE L   1      -3.503  -4.159  -0.030  1.00  0.00    +0.0640  H
ATOM     15 H40  CHE L   1      -7.613  -2.084  -0.488  1.00  0.00    +0.1030  H
ATOM     16 H41  CHE L   1      -8.429  -0.048  -0.698  1.00  0.00    +0.0457  H
ATOM     17 H42  CHE L   1      -7.525   1.152   0.265  1.00  0.00    +0.0457  H
ATOM     18 H43  CHE L   1      -7.337   1.115  -1.501  1.00  0.00    +0.0457  H
ATOM     19 H44  CHE L   1      -2.459   0.676  -0.201  1.00  0.00    +0.0646  H
ENDROOT
BRANCH 1 20
ATOM     20  N9  CHE L   1      -0.254  -0.837   0.081  1.00  0.00    -0.3269  N
BRANCH 20 21
ATOM     21  C8  CHE L   1       0.821  -1.837   0.292  1.00  0.00    +0.0855  C
ATOM     22 H36  CHE L   1       0.711  -2.310   1.276  1.00  0.00    +0.0629  H
ATOM     23 H37  CHE L   1       0.731  -2.627  -0.464  1.00  0.00    +0.0629  H
BRANCH 21 25
ATOM     24  C6  CHE L   1       3.297  -0.842   0.062  1.00  0.00    -0.0615  C
ATOM     25  C7  CHE L   1       2.193  -1.305   0.163  1.00  0.00    -0.0751  C
BRANCH 24 30
ATOM     26  C1  CHE L   1       8.402   1.509  -0.359  1.00  0.00    -0.0046  C
ATOM     27  C2  CHE L   1       7.041   0.893  -0.271  1.00  0.00    +0.1260  A
ATOM     28  N3  CHE L   1       6.031   1.663   0.181  1.00  0.00    -0.2394 NA
ATOM     29  C4  CHE L   1       4.821   1.068   0.275  1.00  0.00    +0.0465  A
ATOM     30  C5  CHE L   1       4.587  -0.249  -0.052  1.00  0.00    +0.0611  A
ATOM     31 C30  CHE L   1       5.688  -0.946  -0.496  1.00  0.00    +0.0465  A
ATOM     32 N31  CHE L   1       6.922  -0.407  -0.610  1.00  0.00    -0.2394 NA
ATOM     33 H32  CHE L   1       8.937   1.130  -1.235  1.00  0.00    +0.0308  H
ATOM     34 H33  CHE L   1       8.976   1.263   0.540  1.00  0.00    +0.0308  H
ATOM     35 H34  CHE L   1       8.330   2.598  -0.443  1.00  0.00    +0.0308  H
ATOM     36 H35  CHE L   1       4.023   1.711   0.636  1.00  0.00    +0.0843  H
ATOM     37 H48  CHE L   1       5.619  -1.992  -0.782  1.00  0.00    +0.0843  H
ENDBRANCH 24 30
ENDBRANCH 21 25
ENDBRANCH 20 21
BRANCH 20 38
ATOM     38 C22  CHE L   1       0.069   0.475   0.544  1.00  0.00    +0.0801  A
ATOM     39 C23  CHE L   1       0.025   0.831   1.910  1.00  0.00    +0.0659  A
ATOM     40 CL24 CHE L   1      -0.439  -0.300   3.138  1.00  0.00    -0.0814 Cl
ATOM     41 C25  CHE L   1       0.358   2.124   2.330  1.00  0.00    -0.0413  A
ATOM     42 C26  CHE L   1       0.739   3.091   1.400  1.00  0.00    -0.0589  A
ATOM     43 C27  CHE L   1       0.785   2.767   0.047  1.00  0.00    -0.0413  A
ATOM     44 C28  CHE L   1       0.454   1.476  -0.379  1.00  0.00    +0.0659  A
ATOM     45 CL29 CHE L   1       0.538   1.151  -2.078  1.00  0.00    -0.0814 Cl
ATOM     46 H45  CHE L   1       0.318   2.386   3.385  1.00  0.00    +0.0633  H
ATOM     47 H46  CHE L   1       0.993   4.096   1.730  1.00  0.00    +0.0618  H
ATOM     48 H47  CHE L   1       1.077   3.525  -0.677  1.00  0.00    +0.0633  H
ENDBRANCH 20 38
ENDBRANCH 1 20
TORSDOF 5
