ROOT
ATOM      1  C1  CHE L   1      -2.537  -4.570  -2.667  1.00  0.00    +0.0324  C
ATOM      2  N2  CHE L   1      -2.620  -3.515  -1.689  1.00  0.00    -0.2493  N
ATOM      3  N3  CHE L   1      -3.764  -3.345  -0.989  1.00  0.00    -0.1773 NA
ATOM      4  C4  CHE L   1      -3.485  -2.303  -0.197  1.00  0.00    +0.0622  A
ATOM      5  C5  CHE L   1      -2.182  -1.799  -0.385  1.00  0.00    +0.0806  A
ATOM      6  C6  CHE L   1      -1.355  -0.788   0.107  1.00  0.00    +0.1433  A
ATOM      7 N14  CHE L   1      -0.100  -0.695  -0.393  1.00  0.00    -0.1948 NA
ATOM      8 C15  CHE L   1       0.321  -1.550  -1.346  1.00  0.00    +0.2278  A
ATOM      9 N26  CHE L   1      -0.404  -2.545  -1.872  1.00  0.00    -0.1929 NA
ATOM     10 C27  CHE L   1      -1.641  -2.619  -1.358  1.00  0.00    +0.1653  A
ATOM     11 H28  CHE L   1      -1.566  -4.542  -3.167  1.00  0.00    +0.0473  H
ATOM     12 H29  CHE L   1      -3.334  -4.423  -3.400  1.00  0.00    +0.0473  H
ATOM     13 H30  CHE L   1      -2.663  -5.526  -2.152  1.00  0.00    +0.0473  H
ATOM     14 H31  CHE L   1      -4.251  -1.960   0.485  1.00  0.00    +0.0856  H
ENDROOT
BRANCH 6 15
ATOM     15  N7  CHE L   1      -1.687   0.169   1.078  1.00  0.00    -0.3662  N
ATOM     16 H32  CHE L   1      -0.934   0.855   1.071  1.00  0.00    +0.1613 HD
BRANCH 15 17
ATOM     17  C8  CHE L   1      -2.991   0.662   1.362  1.00  0.00    +0.0308  C
ATOM     18  C9  CHE L   1      -2.969   1.914   2.269  1.00  0.00    -0.0169  C
ATOM     19 C10  CHE L   1      -4.057   2.533   1.353  1.00  0.00    +0.0499  C
ATOM     20 C13  CHE L   1      -3.567   1.563   0.247  1.00  0.00    -0.0169  C
ATOM     21 H33  CHE L   1      -3.673  -0.112   1.729  1.00  0.00    +0.0523  H
ATOM     22 H34  CHE L   1      -3.252   1.739   3.312  1.00  0.00    +0.0297  H
ATOM     23 H35  CHE L   1      -2.030   2.482   2.261  1.00  0.00    +0.0297  H
ATOM     24 H36  CHE L   1      -3.861   3.585   1.112  1.00  0.00    +0.0455  H
ATOM     25 H37  CHE L   1      -2.820   2.014  -0.419  1.00  0.00    +0.0297  H
ATOM     26 H38  CHE L   1      -4.341   1.100  -0.374  1.00  0.00    +0.0297  H
BRANCH 19 27
ATOM     27 C11  CHE L   1      -5.425   2.337   1.792  1.00  0.00    +0.0660  C
ATOM     28 N12  CHE L   1      -6.517   2.171   2.146  1.00  0.00    -0.1963 NA
ENDBRANCH 19 27
ENDBRANCH 15 17
ENDBRANCH 6 15
BRANCH 8 29
ATOM     29 N16  CHE L   1       1.606  -1.438  -1.851  1.00  0.00    -0.3521  N
ATOM     30 H39  CHE L   1       1.824  -2.312  -2.313  1.00  0.00    +0.1626 HD
BRANCH 29 31
ATOM     31 C17  CHE L   1       2.620  -0.939  -0.926  1.00  0.00    +0.0376  C
ATOM     32 H40  CHE L   1       3.574  -1.408  -1.201  1.00  0.00    +0.0505  H
ATOM     33 H41  CHE L   1       2.418  -1.270   0.102  1.00  0.00    +0.0505  H
BRANCH 31 34
ATOM     34 C18  CHE L   1       2.776   0.611  -0.993  1.00  0.00    +0.0480  C
ATOM     35 N19  CHE L   1       3.317   1.075  -2.286  1.00  0.00    -0.3222 NA
ATOM     36 H42  CHE L   1       1.780   1.060  -0.904  1.00  0.00    +0.0525  H
ATOM     37 H43  CHE L   1       4.245   0.685  -2.426  1.00  0.00    +0.1188 HD
ATOM     38 H44  CHE L   1       3.432   2.086  -2.243  1.00  0.00    +0.1188 HD
BRANCH 34 39
ATOM     39 C20  CHE L   1       3.641   1.135   0.145  1.00  0.00    -0.0290  A
ATOM     40 C21  CHE L   1       4.957   0.686   0.342  1.00  0.00    -0.0570  A
ATOM     41 C22  CHE L   1       5.731   1.187   1.392  1.00  0.00    -0.0615  A
ATOM     42 C23  CHE L   1       5.203   2.145   2.254  1.00  0.00    -0.0617  A
ATOM     43 C24  CHE L   1       3.902   2.606   2.067  1.00  0.00    -0.0615  A
ATOM     44 C25  CHE L   1       3.126   2.107   1.019  1.00  0.00    -0.0570  A
ATOM     45 H45  CHE L   1       5.396  -0.055  -0.321  1.00  0.00    +0.0621  H
ATOM     46 H46  CHE L   1       6.748   0.832   1.535  1.00  0.00    +0.0618  H
ATOM     47 H47  CHE L   1       5.806   2.535   3.070  1.00  0.00    +0.0618  H
ATOM     48 H48  CHE L   1       3.490   3.357   2.737  1.00  0.00    +0.0618  H
ATOM     49 H49  CHE L   1       2.114   2.482   0.887  1.00  0.00    +0.0621  H
ENDBRANCH 34 39
ENDBRANCH 31 34
ENDBRANCH 29 31
ENDBRANCH 8 29
TORSDOF 7
