ROOT
ATOM      1  C9  CHE L   1       1.541   0.062   0.773  1.00  0.00    +0.0933  A
ATOM      2 C10  CHE L   1       0.879   0.122   1.981  1.00  0.00    +0.0372  A
ATOM      3 N11  CHE L   1      -0.444   0.286   1.660  1.00  0.00    -0.3059  N
ATOM      4 C12  CHE L   1      -1.549   0.392   2.490  1.00  0.00    +0.0131  A
ATOM      5 C13  CHE L   1      -2.765   0.554   1.941  1.00  0.00    -0.0218  A
ATOM      6 C14  CHE L   1      -2.927   0.624   0.477  1.00  0.00    +0.0428  A
ATOM      7 C21  CHE L   1      -1.816   0.508  -0.294  1.00  0.00    +0.0044  A
ATOM      8 C22  CHE L   1      -0.523   0.334   0.278  1.00  0.00    +0.1402  A
ATOM      9 N23  CHE L   1       0.665   0.206  -0.277  1.00  0.00    -0.2276 NA
ATOM     10 H34  CHE L   1       1.218   0.051   3.004  1.00  0.00    +0.0835  H
ATOM     11 H35  CHE L   1      -1.384   0.335   3.558  1.00  0.00    +0.0814  H
ATOM     12 H36  CHE L   1      -3.636   0.625   2.580  1.00  0.00    +0.0653  H
ATOM     13 H45  CHE L   1      -1.862   0.551  -1.373  1.00  0.00    +0.0675  H
ENDROOT
BRANCH 1 17
ATOM     14  C3  CHE L   1       5.778  -0.398   0.350  1.00  0.00    +0.1375  A
ATOM     15  C4  CHE L   1       4.907  -1.255  -0.329  1.00  0.00    +0.0235  A
ATOM     16  C5  CHE L   1       3.519  -1.095  -0.211  1.00  0.00    +0.1328  A
ATOM     17  C8  CHE L   1       2.973  -0.103   0.615  1.00  0.00    +0.0447  A
ATOM     18 C24  CHE L   1       3.846   0.755   1.295  1.00  0.00    -0.0315  A
ATOM     19 C25  CHE L   1       5.231   0.610   1.160  1.00  0.00    +0.0603  A
ATOM     20 BR26 CHE L   1       6.340   1.822   2.118  1.00  0.00    -0.0465 Br
ATOM     21 H30  CHE L   1       5.270  -2.066  -0.950  1.00  0.00    +0.0691  H
ATOM     22 H46  CHE L   1       3.445   1.547   1.925  1.00  0.00    +0.0637  H
BRANCH 14 24
ATOM     23  C1  CHE L   1       7.714  -1.490  -0.526  1.00  0.00    +0.0788  C
ATOM     24  O2  CHE L   1       7.144  -0.473   0.288  1.00  0.00    -0.4939 OA
ATOM     25 H27  CHE L   1       7.442  -2.486  -0.162  1.00  0.00    +0.0660  H
ATOM     26 H28  CHE L   1       8.802  -1.399  -0.462  1.00  0.00    +0.0660  H
ATOM     27 H29  CHE L   1       7.430  -1.360  -1.576  1.00  0.00    +0.0660  H
ENDBRANCH 14 24
BRANCH 16 28
ATOM     28  O6  CHE L   1       2.715  -2.007  -0.850  1.00  0.00    -0.4943 OA
ATOM     29  C7  CHE L   1       2.510  -1.616  -2.208  1.00  0.00    +0.0788  C
ATOM     30 H31  CHE L   1       1.663  -2.189  -2.597  1.00  0.00    +0.0660  H
ATOM     31 H32  CHE L   1       2.277  -0.551  -2.310  1.00  0.00    +0.0660  H
ATOM     32 H33  CHE L   1       3.392  -1.864  -2.809  1.00  0.00    +0.0660  H
ENDBRANCH 16 28
ENDBRANCH 1 17
BRANCH 6 33
ATOM     33 N15  CHE L   1      -4.212   0.794  -0.042  1.00  0.00    -0.3679  N
ATOM     34 C16  CHE L   1      -4.531   0.842  -1.473  1.00  0.00    +0.0211  C
ATOM     35 C17  CHE L   1      -6.052   0.755  -1.533  1.00  0.00    -0.0075  C
ATOM     36 C18  CHE L   1      -6.482   1.533  -0.305  1.00  0.00    +0.0743  C
ATOM     37 O19  CHE L   1      -6.477   2.933  -0.584  1.00  0.00    -0.3900 OA
ATOM     38 C20  CHE L   1      -5.408   1.172   0.735  1.00  0.00    +0.0447  C
ATOM     39 H37  CHE L   1      -4.177   1.786  -1.903  1.00  0.00    +0.0488  H
ATOM     40 H38  CHE L   1      -4.084   0.008  -2.025  1.00  0.00    +0.0488  H
ATOM     41 H39  CHE L   1      -6.439   1.164  -2.471  1.00  0.00    +0.0308  H
ATOM     42 H40  CHE L   1      -6.367  -0.292  -1.444  1.00  0.00    +0.0308  H
ATOM     43 H41  CHE L   1      -7.486   1.266   0.041  1.00  0.00    +0.0611  H
ATOM     44 H42  CHE L   1      -7.141   3.099  -1.274  1.00  0.00    +0.2099 HD
ATOM     45 H43  CHE L   1      -5.202   2.022   1.395  1.00  0.00    +0.0513  H
ATOM     46 H44  CHE L   1      -5.734   0.309   1.326  1.00  0.00    +0.0513  H
ENDBRANCH 6 33
TORSDOF 4
