ROOT
ATOM      1 C29  WH0 L   1      -1.944   2.139  -0.212  1.00  0.00    -0.0133  A
ATOM      2 C30  WH0 L   1      -1.104   2.620  -1.242  1.00  0.00    -0.0519  A
ATOM      3 C31  WH0 L   1      -0.815   3.983  -1.359  1.00  0.00    -0.0374  A
ATOM      4 C32  WH0 L   1      -1.382   4.829  -0.432  1.00  0.00    +0.0454  A
ATOM      5 C33  WH0 L   1      -2.214   4.375   0.589  1.00  0.00    -0.0145  A
ATOM      6 C34  WH0 L   1      -2.507   3.029   0.716  1.00  0.00    -0.0483  A
ATOM      7 C35  WH0 L   1      -2.659   5.539   1.423  1.00  0.00    +0.0535  C
ATOM      8 C36  WH0 L   1      -1.959   6.715   0.732  1.00  0.00    +0.2296  C
ATOM      9 O37  WH0 L   1      -2.016   7.890   1.056  1.00  0.00    -0.2725 OA
ATOM     10 N38  WH0 L   1      -1.238   6.203  -0.340  1.00  0.00    -0.3256  N
ATOM     11 H60  WH0 L   1      -0.670   1.925  -1.960  1.00  0.00    +0.0624  H
ATOM     12 H61  WH0 L   1      -0.170   4.349  -2.149  1.00  0.00    +0.0638  H
ATOM     13 H62  WH0 L   1      -3.146   2.674   1.520  1.00  0.00    +0.0627  H
ATOM     14 H63  WH0 L   1      -3.742   5.674   1.371  1.00  0.00    +0.0410  H
ATOM     15 H64  WH0 L   1      -2.303   5.451   2.452  1.00  0.00    +0.0410  H
ATOM     16 H65  WH0 L   1      -0.690   6.784  -0.956  1.00  0.00    +0.1686 HD
ENDROOT
BRANCH 1 25
ATOM     17 C14  WH0 L   1      -1.306  -0.387   0.072  1.00  0.00    +0.1015  A
ATOM     18 N15  WH0 L   1      -1.968  -1.555   0.074  1.00  0.00    -0.1627 NA
ATOM     19 N16  WH0 L   1      -3.271  -1.219  -0.098  1.00  0.00    -0.1987  N
ATOM     20 C17  WH0 L   1      -4.349  -2.163  -0.128  1.00  0.00    +0.2283  A
ATOM     21 N24  WH0 L   1      -5.573  -1.701  -0.280  1.00  0.00    -0.2207 NA
ATOM     22 C25  WH0 L   1      -5.750  -0.344  -0.432  1.00  0.00    +0.0334  A
ATOM     23 C26  WH0 L   1      -4.777   0.579  -0.412  1.00  0.00    -0.0173  A
ATOM     24 C27  WH0 L   1      -3.450   0.143  -0.214  1.00  0.00    +0.0803  A
ATOM     25 C28  WH0 L   1      -2.201   0.715  -0.104  1.00  0.00    +0.0353  A
ATOM     26 H58  WH0 L   1      -6.781  -0.030  -0.583  1.00  0.00    +0.0831  H
ATOM     27 H59  WH0 L   1      -5.002   1.632  -0.547  1.00  0.00    +0.0654  H
BRANCH 17 31
ATOM     28 C10  WH0 L   1       2.955  -0.308   0.493  1.00  0.00    -0.0457  A
ATOM     29 C11  WH0 L   1       2.338  -1.251  -0.338  1.00  0.00    -0.0579  A
ATOM     30 C12  WH0 L   1       0.946  -1.281  -0.462  1.00  0.00    -0.0522  A
ATOM     31 C13  WH0 L   1       0.149  -0.361   0.232  1.00  0.00    +0.0027  A
ATOM     32 C39  WH0 L   1       0.768   0.575   1.070  1.00  0.00    -0.0522  A
ATOM     33 C40  WH0 L   1       2.159   0.604   1.197  1.00  0.00    -0.0579  A
ATOM     34 H48  WH0 L   1       2.936  -1.970  -0.895  1.00  0.00    +0.0620  H
ATOM     35 H49  WH0 L   1       0.485  -2.024  -1.110  1.00  0.00    +0.0624  H
ATOM     36 H66  WH0 L   1       0.174   1.284   1.641  1.00  0.00    +0.0624  H
ATOM     37 H67  WH0 L   1       2.615   1.342   1.854  1.00  0.00    +0.0620  H
BRANCH 28 38
ATOM     38  C9  WH0 L   1       4.459  -0.259   0.602  1.00  0.00    -0.0102  C
ATOM     39 H46  WH0 L   1       4.744   0.062   1.612  1.00  0.00    +0.0330  H
ATOM     40 H47  WH0 L   1       4.869  -1.271   0.490  1.00  0.00    +0.0330  H
BRANCH 38 41
ATOM     41  C8  WH0 L   1       5.066   0.686  -0.439  1.00  0.00    +0.0224  C
ATOM     42 H44  WH0 L   1       4.822   0.348  -1.454  1.00  0.00    +0.0489  H
ATOM     43 H45  WH0 L   1       4.668   1.700  -0.321  1.00  0.00    +0.0489  H
BRANCH 41 46
ATOM     44  C5  WH0 L   1       7.339  -0.193  -0.824  1.00  0.00    +0.2618  C
ATOM     45  O6  WH0 L   1       6.928  -1.183  -1.417  1.00  0.00    -0.2669 OA
ATOM     46  N7  WH0 L   1       6.510   0.785  -0.317  1.00  0.00    -0.3511  N
ATOM     47 H43  WH0 L   1       6.886   1.499   0.293  1.00  0.00    +0.1627 HD
BRANCH 44 49
ATOM     48  C1  WH0 L   1       9.350   1.228  -0.619  1.00  0.00    -0.0760  C
ATOM     49  C2  WH0 L   1       8.793   0.005  -0.558  1.00  0.00    +0.1085  C
ATOM     50 H41  WH0 L   1      10.416   1.367  -0.456  1.00  0.00    +0.0549  H
ATOM     51 H42  WH0 L   1       8.778   2.116  -0.867  1.00  0.00    +0.0549  H
BRANCH 49 52
ATOM     52  C3  WH0 L   1       9.588  -1.150  -0.313  1.00  0.00    +0.1040  C
ATOM     53  N4  WH0 L   1      10.278  -2.054  -0.082  1.00  0.00    -0.1907 NA
ENDBRANCH 49 52
ENDBRANCH 44 49
ENDBRANCH 41 46
ENDBRANCH 38 41
ENDBRANCH 28 38
ENDBRANCH 17 31
BRANCH 20 54
ATOM     54 N18  WH0 L   1      -4.145  -3.538   0.017  1.00  0.00    -0.3359  N
ATOM     55 C19  WH0 L   1      -5.283  -4.427   0.295  1.00  0.00    +0.0449  C
ATOM     56 C20  WH0 L   1      -4.813  -5.648   1.098  1.00  0.00    +0.0653  C
ATOM     57 O21  WH0 L   1      -3.822  -6.439   0.428  1.00  0.00    -0.3763 OA
ATOM     58 C22  WH0 L   1      -3.060  -5.696  -0.531  1.00  0.00    +0.0653  C
ATOM     59 C23  WH0 L   1      -2.855  -4.219  -0.157  1.00  0.00    +0.0449  C
ATOM     60 H50  WH0 L   1      -6.052  -3.911   0.879  1.00  0.00    +0.0511  H
ATOM     61 H51  WH0 L   1      -5.726  -4.744  -0.656  1.00  0.00    +0.0511  H
ATOM     62 H52  WH0 L   1      -4.386  -5.330   2.056  1.00  0.00    +0.0577  H
ATOM     63 H53  WH0 L   1      -5.661  -6.303   1.320  1.00  0.00    +0.0577  H
ATOM     64 H54  WH0 L   1      -2.091  -6.194  -0.637  1.00  0.00    +0.0577  H
ATOM     65 H55  WH0 L   1      -3.573  -5.776  -1.497  1.00  0.00    +0.0577  H
ATOM     66 H56  WH0 L   1      -2.290  -4.155   0.780  1.00  0.00    +0.0511  H
ATOM     67 H57  WH0 L   1      -2.278  -3.762  -0.968  1.00  0.00    +0.0511  H
ENDBRANCH 20 54
ENDBRANCH 1 25
TORSDOF 8
