ROOT
ATOM      1  C3  CHE L   1       4.080   1.183   0.023  1.00  0.00    +0.1589  A
ATOM      2  C4  CHE L   1       2.869   0.963   0.686  1.00  0.00    +0.0250  A
ATOM      3  C5  CHE L   1       2.223  -0.278   0.594  1.00  0.00    +0.1293  A
ATOM      4 C24  CHE L   1       2.798  -1.323  -0.156  1.00  0.00    +0.0142  A
ATOM      5 C25  CHE L   1       4.031  -1.112  -0.799  1.00  0.00    +0.0005  A
ATOM      6 C26  CHE L   1       4.644   0.140  -0.717  1.00  0.00    +0.1685  A
ATOM      7 F27  CHE L   1       5.808   0.337  -1.359  1.00  0.00    -0.2014  F
ATOM      8 C28  CHE L   1       4.666  -2.205  -1.620  1.00  0.00    -0.0118  C
ATOM      9 C29  CHE L   1       4.085  -3.583  -1.295  1.00  0.00    +0.0003  C
ATOM     10 N30  CHE L   1       2.623  -3.542  -1.305  1.00  0.00    -0.3116 NA
ATOM     11 C31  CHE L   1       2.128  -2.680  -0.223  1.00  0.00    +0.0251  C
ATOM     12 H35  CHE L   1       2.440   1.752   1.289  1.00  0.00    +0.0692  H
ATOM     13 H50  CHE L   1       4.506  -1.976  -2.681  1.00  0.00    +0.0326  H
ATOM     14 H51  CHE L   1       5.747  -2.229  -1.438  1.00  0.00    +0.0326  H
ATOM     15 H52  CHE L   1       4.433  -4.304  -2.044  1.00  0.00    +0.0427  H
ATOM     16 H53  CHE L   1       4.447  -3.936  -0.321  1.00  0.00    +0.0427  H
ATOM     17 H54  CHE L   1       2.253  -4.481  -1.170  1.00  0.00    +0.1223 HD
ATOM     18 H55  CHE L   1       2.267  -3.186   0.741  1.00  0.00    +0.0475  H
ATOM     19 H56  CHE L   1       1.052  -2.551  -0.383  1.00  0.00    +0.0475  H
ENDROOT
BRANCH 1 21
ATOM     20  C1  CHE L   1       4.257   3.444   0.768  1.00  0.00    +0.0789  C
ATOM     21  O2  CHE L   1       4.793   2.352   0.034  1.00  0.00    -0.4921 OA
ATOM     22 H32  CHE L   1       4.940   4.291   0.656  1.00  0.00    +0.0660  H
ATOM     23 H33  CHE L   1       3.283   3.747   0.371  1.00  0.00    +0.0660  H
ATOM     24 H34  CHE L   1       4.193   3.206   1.835  1.00  0.00    +0.0660  H
ENDBRANCH 1 21
BRANCH 3 25
ATOM     25  O6  CHE L   1       1.051  -0.583   1.237  1.00  0.00    -0.4857 OA
BRANCH 25 26
ATOM     26  C7  CHE L   1       0.147   0.481   1.538  1.00  0.00    +0.1304  C
ATOM     27  C8  CHE L   1      -0.502   1.092   0.297  1.00  0.00    +0.0102  C
ATOM     28  C9  CHE L   1      -1.837   1.672   0.799  1.00  0.00    +0.0677  C
ATOM     29 C20  CHE L   1      -2.112   1.000   2.159  1.00  0.00    +0.1053  C
ATOM     30 O21  CHE L   1      -1.891   1.957   3.210  1.00  0.00    -0.3870 OA
ATOM     31 C22  CHE L   1      -1.063  -0.108   2.273  1.00  0.00    +0.1197  C
ATOM     32 O23  CHE L   1      -0.770  -0.384   3.646  1.00  0.00    -0.3855 OA
ATOM     33 H36  CHE L   1       0.623   1.226   2.186  1.00  0.00    +0.0761  H
ATOM     34 H37  CHE L   1       0.127   1.875  -0.141  1.00  0.00    +0.0323  H
ATOM     35 H38  CHE L   1      -0.635   0.334  -0.484  1.00  0.00    +0.0323  H
ATOM     36 H39  CHE L   1      -1.702   2.751   0.957  1.00  0.00    +0.0556  H
ATOM     37 H46  CHE L   1      -3.130   0.619   2.286  1.00  0.00    +0.0641  H
ATOM     38 H47  CHE L   1      -1.689   1.411   4.000  1.00  0.00    +0.2100 HD
ATOM     39 H48  CHE L   1      -1.396  -1.040   1.803  1.00  0.00    +0.0657  H
ATOM     40 H49  CHE L   1      -0.037  -1.029   3.639  1.00  0.00    +0.2101 HD
BRANCH 28 41
ATOM     41 N10  CHE L   1      -2.918   1.536  -0.163  1.00  0.00    -0.3261  N
ATOM     42 C11  CHE L   1      -3.527   2.588  -0.804  1.00  0.00    +0.0076  A
ATOM     43 C12  CHE L   1      -4.491   2.074  -1.645  1.00  0.00    -0.0331  A
ATOM     44 C13  CHE L   1      -4.470   0.659  -1.513  1.00  0.00    +0.0399  A
ATOM     45 C14  CHE L   1      -5.171  -0.422  -2.070  1.00  0.00    +0.0506  A
ATOM     46 C15  CHE L   1      -6.260  -0.301  -3.089  1.00  0.00    -0.0216  C
ATOM     47 N16  CHE L   1      -4.835  -1.680  -1.674  1.00  0.00    -0.2399 NA
ATOM     48 C17  CHE L   1      -3.854  -1.829  -0.764  1.00  0.00    +0.1185  A
ATOM     49 N18  CHE L   1      -3.128  -0.871  -0.165  1.00  0.00    -0.2177 NA
ATOM     50 C19  CHE L   1      -3.482   0.356  -0.585  1.00  0.00    +0.1445  A
ATOM     51 H40  CHE L   1      -3.230   3.612  -0.613  1.00  0.00    +0.0810  H
ATOM     52 H41  CHE L   1      -5.140   2.658  -2.285  1.00  0.00    +0.0640  H
ATOM     53 H42  CHE L   1      -7.151  -0.838  -2.749  1.00  0.00    +0.0293  H
ATOM     54 H43  CHE L   1      -6.538   0.742  -3.265  1.00  0.00    +0.0293  H
ATOM     55 H44  CHE L   1      -5.930  -0.735  -4.038  1.00  0.00    +0.0293  H
ATOM     56 H45  CHE L   1      -3.623  -2.852  -0.481  1.00  0.00    +0.1047  H
ENDBRANCH 28 41
ENDBRANCH 25 26
ENDBRANCH 3 25
TORSDOF 4
