ROOT
ATOM      1  C1  SEL L   1      -0.946  -4.168   1.175  1.00  0.00    -0.0471  C
ATOM      2  C2  SEL L   1      -0.823  -3.113   0.074  1.00  0.00    +0.0711  C
ATOM      3  C3  SEL L   1      -0.798  -3.753  -1.315  1.00  0.00    -0.0471  C
ATOM      4  C4  SEL L   1       0.466  -2.291   0.287  1.00  0.00    +0.2434  C
ATOM      5  O5  SEL L   1       1.588  -2.779   0.269  1.00  0.00    -0.2713 OA
ATOM      6  N6  SEL L   1       0.071  -0.966   0.554  1.00  0.00    -0.2627  N
ATOM      7 C19  SEL L   1      -1.326  -0.817   0.453  1.00  0.00    +0.0559  A
ATOM      8 C20  SEL L   1      -2.124   0.321   0.486  1.00  0.00    -0.0297  A
ATOM      9 C21  SEL L   1      -3.521   0.202   0.337  1.00  0.00    -0.0159  A
ATOM     10 C29  SEL L   1      -4.077  -1.078   0.128  1.00  0.00    -0.0536  A
ATOM     11 C30  SEL L   1      -3.271  -2.215   0.043  1.00  0.00    -0.0550  A
ATOM     12 C31  SEL L   1      -1.901  -2.064   0.193  1.00  0.00    -0.0087  A
ATOM     13 H32  SEL L   1      -0.118  -4.885   1.128  1.00  0.00    +0.0243  H
ATOM     14 H33  SEL L   1      -1.882  -4.731   1.090  1.00  0.00    +0.0243  H
ATOM     15 H34  SEL L   1      -0.922  -3.712   2.172  1.00  0.00    +0.0243  H
ATOM     16 H35  SEL L   1      -0.676  -2.998  -2.101  1.00  0.00    +0.0243  H
ATOM     17 H36  SEL L   1      -1.724  -4.301  -1.522  1.00  0.00    +0.0243  H
ATOM     18 H37  SEL L   1       0.037  -4.457  -1.410  1.00  0.00    +0.0243  H
ATOM     19 H48  SEL L   1      -1.699   1.315   0.573  1.00  0.00    +0.0644  H
ATOM     20 H53  SEL L   1      -5.154  -1.191   0.018  1.00  0.00    +0.0624  H
ATOM     21 H54  SEL L   1      -3.715  -3.188  -0.148  1.00  0.00    +0.0621  H
ENDROOT
BRANCH 6 22
ATOM     22  C7  SEL L   1       0.990   0.062   0.853  1.00  0.00    +0.1610  A
ATOM     23  C8  SEL L   1       0.682   1.117   1.707  1.00  0.00    +0.0706  A
ATOM     24  N9  SEL L   1       1.544   2.115   2.017  1.00  0.00    -0.2560 NA
ATOM     25 C10  SEL L   1       2.770   1.993   1.452  1.00  0.00    +0.0698  A
ATOM     26 C11  SEL L   1       3.139   0.946   0.604  1.00  0.00    +0.1503  A
ATOM     27 N18  SEL L   1       2.235  -0.020   0.324  1.00  0.00    -0.2093 NA
ATOM     28 H38  SEL L   1      -0.262   1.178   2.235  1.00  0.00    +0.0867  H
ATOM     29 H39  SEL L   1       3.479   2.763   1.732  1.00  0.00    +0.0867  H
BRANCH 26 30
ATOM     30 N12  SEL L   1       4.442   0.859   0.078  1.00  0.00    -0.3503  N
ATOM     31 C13  SEL L   1       4.685  -0.422  -0.631  1.00  0.00    +0.0435  C
ATOM     32 C14  SEL L   1       6.144  -0.480  -1.109  1.00  0.00    +0.0653  C
ATOM     33 O15  SEL L   1       6.466   0.641  -1.951  1.00  0.00    -0.3763 OA
ATOM     34 C16  SEL L   1       6.271   1.869  -1.234  1.00  0.00    +0.0653  C
ATOM     35 C17  SEL L   1       4.818   2.022  -0.754  1.00  0.00    +0.0435  C
ATOM     36 H40  SEL L   1       4.502  -1.275   0.034  1.00  0.00    +0.0511  H
ATOM     37 H41  SEL L   1       4.026  -0.499  -1.506  1.00  0.00    +0.0511  H
ATOM     38 H42  SEL L   1       6.838  -0.497  -0.260  1.00  0.00    +0.0577  H
ATOM     39 H43  SEL L   1       6.309  -1.391  -1.693  1.00  0.00    +0.0577  H
ATOM     40 H44  SEL L   1       6.526   2.692  -1.910  1.00  0.00    +0.0577  H
ATOM     41 H45  SEL L   1       6.969   1.903  -0.389  1.00  0.00    +0.0577  H
ATOM     42 H46  SEL L   1       4.152   2.080  -1.625  1.00  0.00    +0.0511  H
ATOM     43 H47  SEL L   1       4.738   2.960  -0.194  1.00  0.00    +0.0511  H
ENDBRANCH 26 30
ENDBRANCH 6 22
BRANCH 9 44
ATOM     44 C22  SEL L   1      -4.383   1.395   0.382  1.00  0.00    -0.0176  A
ATOM     45 C23  SEL L   1      -5.260   1.693  -0.677  1.00  0.00    -0.0513  A
ATOM     46 C24  SEL L   1      -6.077   2.827  -0.636  1.00  0.00    -0.0259  A
ATOM     47 C25  SEL L   1      -6.022   3.670   0.466  1.00  0.00    +0.1234  A
ATOM     48 F26  SEL L   1      -6.804   4.756   0.506  1.00  0.00    -0.2055  F
ATOM     49 C27  SEL L   1      -5.167   3.402   1.526  1.00  0.00    -0.0259  A
ATOM     50 C28  SEL L   1      -4.350   2.269   1.484  1.00  0.00    -0.0513  A
ATOM     51 H49  SEL L   1      -5.304   1.046  -1.551  1.00  0.00    +0.0624  H
ATOM     52 H50  SEL L   1      -6.750   3.056  -1.456  1.00  0.00    +0.0646  H
ATOM     53 H51  SEL L   1      -5.141   4.073   2.379  1.00  0.00    +0.0646  H
ATOM     54 H52  SEL L   1      -3.693   2.066   2.328  1.00  0.00    +0.0624  H
ENDBRANCH 9 44
TORSDOF 3
