ROOT
ATOM      1  N1  CHE L   1      -1.579  -0.820   3.874  1.00  0.00    -0.3696  N
ATOM      2  C2  CHE L   1      -1.580  -0.810   2.514  1.00  0.00    +0.1988  C
ATOM      3  N3  CHE L   1      -0.477  -1.089   1.899  1.00  0.00    -0.2146 NA
ATOM      4  C4  CHE L   1      -0.489  -1.101   0.421  1.00  0.00    +0.1973  C
ATOM      5 C13  CHE L   1      -1.819  -0.754  -0.096  1.00  0.00    +0.1115  A
ATOM      6 N14  CHE L   1      -2.259  -0.655  -1.382  1.00  0.00    -0.3429  N
ATOM      7 C15  CHE L   1      -3.596  -0.344  -1.309  1.00  0.00    +0.0960  A
ATOM      8 N16  CHE L   1      -4.015  -0.235  -0.061  1.00  0.00    -0.2185 NA
ATOM      9 C17  CHE L   1      -2.903  -0.476   0.675  1.00  0.00    +0.1590  A
ATOM     10 N18  CHE L   1      -2.804  -0.484   2.002  1.00  0.00    -0.3097  N
ATOM     11 H19  CHE L   1      -2.013  -0.007   4.290  1.00  0.00    +0.1587 HD
ATOM     12 H20  CHE L   1      -0.629  -0.928   4.216  1.00  0.00    +0.1587 HD
ATOM     13 H21  CHE L   1      -0.245  -2.122   0.097  1.00  0.00    +0.0923  H
ATOM     14 H26  CHE L   1      -1.704  -0.767  -2.221  1.00  0.00    +0.1667 HD
ATOM     15 H27  CHE L   1      -4.201  -0.204  -2.195  1.00  0.00    +0.1027  H
ATOM     16 H28  CHE L   1      -3.621  -0.443   2.591  1.00  0.00    +0.1702 HD
ENDROOT
BRANCH 4 17
ATOM     17  O5  CHE L   1       0.405  -0.203  -0.232  1.00  0.00    -0.3442 OA
BRANCH 17 18
ATOM     18  C6  CHE L   1       1.745  -0.397   0.203  1.00  0.00    +0.0818  C
ATOM     19 H22  CHE L   1       2.030  -1.451   0.116  1.00  0.00    +0.0616  H
ATOM     20 H23  CHE L   1       1.851  -0.087   1.250  1.00  0.00    +0.0616  H
BRANCH 18 21
ATOM     21  C7  CHE L   1       2.589   0.483  -0.663  1.00  0.00    +0.0165  A
ATOM     22  C8  CHE L   1       2.676   1.864  -0.647  1.00  0.00    -0.0482  A
ATOM     23  C9  CHE L   1       3.585   2.365  -1.627  1.00  0.00    -0.0403  A
ATOM     24 C10  CHE L   1       4.137   1.343  -2.357  1.00  0.00    +0.0552  A
ATOM     25 BR11 CHE L   1       5.395   1.613  -3.770  1.00  0.00    -0.0426 Br
ATOM     26 S12  CHE L   1       3.608  -0.190  -1.867  1.00  0.00    -0.0841  S
ATOM     27 H24  CHE L   1       2.105   2.483   0.037  1.00  0.00    +0.0627  H
ATOM     28 H25  CHE L   1       3.805   3.414  -1.783  1.00  0.00    +0.0634  H
ENDBRANCH 18 21
ENDBRANCH 17 18
ENDBRANCH 4 17
TORSDOF 3
