ROOT
ATOM      1  C7  238 L   1      -0.668  -0.233   0.142  1.00  0.00    +0.0637  C
ATOM      2  C8  238 L   1      -0.973  -1.649   0.643  1.00  0.00    +0.0018  C
ATOM      3  C9  238 L   1      -2.275  -1.775   1.420  1.00  0.00    +0.0013  C
ATOM      4 N10  238 L   1      -2.614  -3.186   1.231  1.00  0.00    -0.3153 NA
ATOM      5 C11  238 L   1      -2.255  -3.531  -0.151  1.00  0.00    +0.0007  C
ATOM      6 C12  238 L   1      -1.257  -2.473  -0.610  1.00  0.00    -0.0046  C
ATOM      7 C13  238 L   1      -1.848  -1.447  -1.576  1.00  0.00    +0.0278  C
ATOM      8 N14  238 L   1      -1.343  -0.145  -1.160  1.00  0.00    -0.3169  N
ATOM      9 C15  238 L   1      -2.031   0.979  -1.597  1.00  0.00    +0.3213  C
ATOM     10 O16  238 L   1      -3.018   0.895  -2.328  1.00  0.00    -0.2471 OA
ATOM     11 N17  238 L   1      -1.592   2.199  -1.099  1.00  0.00    -0.3305  N
ATOM     12 C18  238 L   1      -0.258   2.642  -1.468  1.00  0.00    +0.0111  C
ATOM     13 C19  238 L   1      -2.582   3.259  -1.044  1.00  0.00    +0.0111  C
ATOM     14 H27  238 L   1      -1.102   0.515   0.818  1.00  0.00    +0.0579  H
ATOM     15 H28  238 L   1      -0.156  -2.087   1.232  1.00  0.00    +0.0340  H
ATOM     16 H29  238 L   1      -3.069  -1.134   1.020  1.00  0.00    +0.0428  H
ATOM     17 H30  238 L   1      -2.141  -1.536   2.479  1.00  0.00    +0.0428  H
ATOM     18 H31  238 L   1      -3.605  -3.351   1.403  1.00  0.00    +0.1220 HD
ATOM     19 H32  238 L   1      -3.143  -3.572  -0.792  1.00  0.00    +0.0427  H
ATOM     20 H33  238 L   1      -1.796  -4.524  -0.157  1.00  0.00    +0.0427  H
ATOM     21 H34  238 L   1      -0.342  -2.915  -1.019  1.00  0.00    +0.0334  H
ATOM     22 H35  238 L   1      -1.543  -1.634  -2.611  1.00  0.00    +0.0492  H
ATOM     23 H36  238 L   1      -2.944  -1.438  -1.544  1.00  0.00    +0.0492  H
ATOM     24 H37  238 L   1      -0.334   3.367  -2.285  1.00  0.00    +0.0453  H
ATOM     25 H38  238 L   1       0.359   1.822  -1.835  1.00  0.00    +0.0453  H
ATOM     26 H39  238 L   1       0.208   3.120  -0.603  1.00  0.00    +0.0453  H
ATOM     27 H40  238 L   1      -2.754   3.656  -2.049  1.00  0.00    +0.0453  H
ATOM     28 H41  238 L   1      -2.225   4.053  -0.382  1.00  0.00    +0.0453  H
ATOM     29 H42  238 L   1      -3.526   2.866  -0.653  1.00  0.00    +0.0453  H
ENDROOT
BRANCH 1 33
ATOM     30  C3  238 L   1       3.638   0.362   0.048  1.00  0.00    +0.1201  A
ATOM     31  C4  238 L   1       2.873   0.843   1.110  1.00  0.00    -0.0196  A
ATOM     32  C5  238 L   1       1.487   0.649   1.123  1.00  0.00    -0.0531  A
ATOM     33  C6  238 L   1       0.838  -0.022   0.074  1.00  0.00    -0.0244  A
ATOM     34 C20  238 L   1       1.620  -0.509  -0.983  1.00  0.00    -0.0531  A
ATOM     35 C21  238 L   1       3.003  -0.314  -0.995  1.00  0.00    -0.0196  A
ATOM     36 H25  238 L   1       3.322   1.371   1.945  1.00  0.00    +0.0654  H
ATOM     37 H26  238 L   1       0.913   1.031   1.966  1.00  0.00    +0.0622  H
ATOM     38 H43  238 L   1       1.159  -1.035  -1.816  1.00  0.00    +0.0622  H
ATOM     39 H44  238 L   1       3.592  -0.693  -1.827  1.00  0.00    +0.0654  H
BRANCH 30 41
ATOM     40  C1  238 L   1       5.689   1.144   0.960  1.00  0.00    +0.0788  C
ATOM     41  O2  238 L   1       4.993   0.484  -0.089  1.00  0.00    -0.4951 OA
ATOM     42 H22  238 L   1       5.577   0.607   1.908  1.00  0.00    +0.0660  H
ATOM     43 H23  238 L   1       6.753   1.150   0.704  1.00  0.00    +0.0660  H
ATOM     44 H24  238 L   1       5.364   2.186   1.055  1.00  0.00    +0.0660  H
ENDBRANCH 30 41
ENDBRANCH 1 33
TORSDOF 2
