ROOT
ATOM      1  N6  959 L   1      -1.424   0.232   0.853  1.00  0.00    -0.2907 NA
ATOM      2  C7  959 L   1      -1.937  -0.055   2.206  1.00  0.00    +0.0230  C
ATOM      3  C8  959 L   1      -1.954   1.205   3.085  1.00  0.00    +0.0604  C
ATOM      4  O9  959 L   1      -2.830   2.225   2.594  1.00  0.00    -0.3772 OA
ATOM      5 C10  959 L   1      -3.036   2.153   1.178  1.00  0.00    +0.0604  C
ATOM      6 C11  959 L   1      -1.823   1.592   0.418  1.00  0.00    +0.0230  C
ATOM      7 H25  959 L   1      -1.296  -0.800   2.689  1.00  0.00    +0.0449  H
ATOM      8 H26  959 L   1      -2.958  -0.452   2.158  1.00  0.00    +0.0449  H
ATOM      9 H27  959 L   1      -2.284   0.954   4.098  1.00  0.00    +0.0572  H
ATOM     10 H28  959 L   1      -0.947   1.632   3.168  1.00  0.00    +0.0572  H
ATOM     11 H29  959 L   1      -3.927   1.542   0.992  1.00  0.00    +0.0572  H
ATOM     12 H30  959 L   1      -3.261   3.166   0.833  1.00  0.00    +0.0572  H
ATOM     13 H31  959 L   1      -0.965   2.246   0.614  1.00  0.00    +0.0449  H
ATOM     14 H32  959 L   1      -2.018   1.655  -0.657  1.00  0.00    +0.0449  H
ENDROOT
BRANCH 1 15
ATOM     15  C5  959 L   1      -1.616  -0.835  -0.169  1.00  0.00    +0.0394  C
ATOM     16 C12  959 L   1      -1.408  -2.276   0.364  1.00  0.00    -0.0328  C
ATOM     17 C13  959 L   1      -2.086  -3.190  -0.660  1.00  0.00    -0.0513  C
ATOM     18 C14  959 L   1      -3.113  -2.323  -1.387  1.00  0.00    -0.0513  C
ATOM     19 C15  959 L   1      -3.050  -0.947  -0.725  1.00  0.00    -0.0328  C
ATOM     20 H33  959 L   1      -1.917  -2.439   1.323  1.00  0.00    +0.0284  H
ATOM     21 H34  959 L   1      -0.353  -2.537   0.510  1.00  0.00    +0.0284  H
ATOM     22 H35  959 L   1      -1.355  -3.596  -1.369  1.00  0.00    +0.0266  H
ATOM     23 H36  959 L   1      -2.562  -4.043  -0.162  1.00  0.00    +0.0266  H
ATOM     24 H37  959 L   1      -4.119  -2.749  -1.328  1.00  0.00    +0.0266  H
ATOM     25 H38  959 L   1      -2.854  -2.247  -2.448  1.00  0.00    +0.0266  H
ATOM     26 H39  959 L   1      -3.791  -0.911   0.082  1.00  0.00    +0.0284  H
ATOM     27 H40  959 L   1      -3.304  -0.156  -1.437  1.00  0.00    +0.0284  H
BRANCH 15 28
ATOM     28  C4  959 L   1      -0.598  -0.588  -1.341  1.00  0.00    +0.0369  C
ATOM     29 H23  959 L   1      -0.510  -1.445  -2.016  1.00  0.00    +0.0504  H
ATOM     30 H24  959 L   1      -0.908   0.263  -1.959  1.00  0.00    +0.0504  H
BRANCH 28 33
ATOM     31  O1  959 L   1       1.761  -0.350  -2.883  1.00  0.00    -0.2643 OA
ATOM     32  C2  959 L   1       1.794  -0.110  -1.683  1.00  0.00    +0.2865  C
ATOM     33  N3  959 L   1       0.728  -0.281  -0.835  1.00  0.00    -0.3477  N
ATOM     34 H22  959 L   1       0.750   0.169   0.074  1.00  0.00    +0.1628 HD
BRANCH 32 35
ATOM     35 C16  959 L   1       3.011   0.458  -1.018  1.00  0.00    +0.1802  C
ATOM     36 C17  959 L   1       3.494  -0.144   0.086  1.00  0.00    -0.0367  C
ATOM     37 C18  959 L   1       4.758   0.300   0.750  1.00  0.00    -0.0278  C
ATOM     38 C19  959 L   1       5.516   1.303  -0.114  1.00  0.00    -0.0151  C
ATOM     39 C20  959 L   1       4.531   2.251  -0.779  1.00  0.00    +0.0901  C
ATOM     40 O21  959 L   1       3.606   1.553  -1.617  1.00  0.00    -0.4869 OA
ATOM     41 H41  959 L   1       2.994  -1.014   0.504  1.00  0.00    +0.0610  H
ATOM     42 H42  959 L   1       5.398  -0.567   0.948  1.00  0.00    +0.0310  H
ATOM     43 H43  959 L   1       4.507   0.748   1.718  1.00  0.00    +0.0310  H
ATOM     44 H44  959 L   1       6.243   1.854   0.492  1.00  0.00    +0.0301  H
ATOM     45 H45  959 L   1       6.073   0.758  -0.887  1.00  0.00    +0.0301  H
ATOM     46 H46  959 L   1       5.069   2.969  -1.409  1.00  0.00    +0.0696  H
ATOM     47 H47  959 L   1       3.970   2.827  -0.031  1.00  0.00    +0.0696  H
ENDBRANCH 32 35
ENDBRANCH 28 33
ENDBRANCH 15 28
ENDBRANCH 1 15
TORSDOF 4
