ROOT
ATOM      1  C8  159 L   1       0.473   0.873  -1.079  1.00  0.00    +0.2593  C
ATOM      2  O9  159 L   1      -0.141   1.774  -1.646  1.00  0.00    -0.2672 OA
ATOM      3 N10  159 L   1      -0.127  -0.354  -0.770  1.00  0.00    -0.3378  N
ATOM      4 C11  159 L   1       0.237  -1.140   0.410  1.00  0.00    +0.0215  C
ATOM      5 C12  159 L   1      -0.694  -0.792   1.571  1.00  0.00    -0.0349  C
ATOM      6 C13  159 L   1      -2.166  -0.958   1.178  1.00  0.00    -0.0458  C
ATOM      7 C14  159 L   1      -2.501  -0.187  -0.116  1.00  0.00    -0.0107  C
ATOM      8 C18  159 L   1      -1.499  -0.568  -1.219  1.00  0.00    +0.0254  C
ATOM      9 H29  159 L   1       1.267  -0.964   0.722  1.00  0.00    +0.0489  H
ATOM     10 H30  159 L   1       0.145  -2.199   0.146  1.00  0.00    +0.0489  H
ATOM     11 H31  159 L   1      -0.523   0.247   1.880  1.00  0.00    +0.0282  H
ATOM     12 H32  159 L   1      -0.467  -1.429   2.433  1.00  0.00    +0.0282  H
ATOM     13 H33  159 L   1      -2.795  -0.611   2.005  1.00  0.00    +0.0269  H
ATOM     14 H34  159 L   1      -2.381  -2.026   1.040  1.00  0.00    +0.0269  H
ATOM     15 H35  159 L   1      -2.393   0.887   0.091  1.00  0.00    +0.0330  H
ATOM     16 H42  159 L   1      -1.596  -1.628  -1.484  1.00  0.00    +0.0492  H
ATOM     17 H43  159 L   1      -1.693   0.010  -2.130  1.00  0.00    +0.0492  H
ENDROOT
BRANCH 1 22
ATOM     18  N3  159 L   1       4.045   0.872  -0.456  1.00  0.00    -0.2523  N
ATOM     19  N4  159 L   1       3.755   2.054   0.133  1.00  0.00    -0.1744 NA
ATOM     20  C5  159 L   1       2.432   2.191  -0.047  1.00  0.00    +0.0738  A
ATOM     21  C6  159 L   1       1.742   3.416   0.431  1.00  0.00    -0.0198  C
ATOM     22  C7  159 L   1       1.858   1.066  -0.701  1.00  0.00    +0.0981  A
ATOM     23 C19  159 L   1       2.940   0.261  -0.970  1.00  0.00    +0.1397  A
ATOM     24 CL20 159 L   1       3.065  -1.223  -1.800  1.00  0.00    -0.0615 Cl
ATOM     25 H26  159 L   1       1.717   4.169  -0.365  1.00  0.00    +0.0293  H
ATOM     26 H27  159 L   1       0.712   3.196   0.730  1.00  0.00    +0.0293  H
ATOM     27 H28  159 L   1       2.253   3.847   1.297  1.00  0.00    +0.0293  H
BRANCH 18 29
ATOM     28  C1  159 L   1       5.756  -0.474   0.701  1.00  0.00    -0.0454  C
ATOM     29  C2  159 L   1       5.426   0.428  -0.475  1.00  0.00    +0.0404  C
ATOM     30 H21  159 L   1       5.145  -1.382   0.688  1.00  0.00    +0.0247  H
ATOM     31 H22  159 L   1       5.573   0.036   1.653  1.00  0.00    +0.0247  H
ATOM     32 H23  159 L   1       6.808  -0.770   0.670  1.00  0.00    +0.0247  H
ATOM     33 H24  159 L   1       5.614  -0.080  -1.426  1.00  0.00    +0.0506  H
ATOM     34 H25  159 L   1       6.062   1.321  -0.456  1.00  0.00    +0.0506  H
ENDBRANCH 18 29
ENDBRANCH 1 22
BRANCH 7 35
ATOM     35 C15  159 L   1      -3.934  -0.459  -0.603  1.00  0.00    +0.0001  C
ATOM     36 H36  159 L   1      -4.052  -1.531  -0.802  1.00  0.00    +0.0427  H
ATOM     37 H37  159 L   1      -4.101   0.074  -1.548  1.00  0.00    +0.0427  H
BRANCH 35 38
ATOM     38 N16  159 L   1      -4.924  -0.028   0.385  1.00  0.00    -0.3187 NA
ATOM     39 C17  159 L   1      -6.279  -0.310  -0.073  1.00  0.00    -0.0158  C
ATOM     40 H38  159 L   1      -4.829   0.976   0.544  1.00  0.00    +0.1216 HD
ATOM     41 H39  159 L   1      -6.996   0.018   0.686  1.00  0.00    +0.0388  H
ATOM     42 H40  159 L   1      -6.507   0.221  -1.003  1.00  0.00    +0.0388  H
ATOM     43 H41  159 L   1      -6.428  -1.383  -0.228  1.00  0.00    +0.0388  H
ENDBRANCH 35 38
ENDBRANCH 7 35
TORSDOF 4
