ROOT
ATOM      1  C1  183 L   1      -1.761   2.406  -1.470  1.00  0.00    -0.0560  C
ATOM      2  C2  183 L   1      -1.910   0.957  -0.999  1.00  0.00    +0.0073  C
ATOM      3  C3  183 L   1      -1.717  -0.002  -2.178  1.00  0.00    -0.0560  C
ATOM      4  C4  183 L   1      -1.180   0.706   0.402  1.00  0.00    +0.0207  C
ATOM      5 C16  183 L   1      -2.365  -0.244   0.720  1.00  0.00    +0.0019  C
ATOM      6 C17  183 L   1      -3.200  -0.414   1.977  1.00  0.00    -0.0443  C
ATOM      7 C18  183 L   1      -4.525  -1.086   1.541  1.00  0.00    -0.0291  C
ATOM      8 C19  183 L   1      -5.257  -0.347   0.396  1.00  0.00    +0.0481  C
ATOM      9 O20  183 L   1      -4.370   0.031  -0.674  1.00  0.00    -0.3756 OA
ATOM     10 C21  183 L   1      -3.206   0.709  -0.173  1.00  0.00    +0.0694  C
ATOM     11 H22  183 L   1      -0.754   2.584  -1.862  1.00  0.00    +0.0236  H
ATOM     12 H23  183 L   1      -1.928   3.119  -0.655  1.00  0.00    +0.0236  H
ATOM     13 H24  183 L   1      -2.481   2.636  -2.262  1.00  0.00    +0.0236  H
ATOM     14 H25  183 L   1      -1.839  -1.052  -1.894  1.00  0.00    +0.0236  H
ATOM     15 H26  183 L   1      -0.717   0.110  -2.612  1.00  0.00    +0.0236  H
ATOM     16 H27  183 L   1      -2.447   0.206  -2.968  1.00  0.00    +0.0236  H
ATOM     17 H28  183 L   1      -1.098   1.589   1.048  1.00  0.00    +0.0470  H
ATOM     18 H40  183 L   1      -2.224  -1.247   0.283  1.00  0.00    +0.0341  H
ATOM     19 H41  183 L   1      -2.680  -1.048   2.702  1.00  0.00    +0.0270  H
ATOM     20 H42  183 L   1      -3.403   0.548   2.462  1.00  0.00    +0.0270  H
ATOM     21 H43  183 L   1      -4.290  -2.099   1.189  1.00  0.00    +0.0287  H
ATOM     22 H44  183 L   1      -5.194  -1.192   2.402  1.00  0.00    +0.0287  H
ATOM     23 H45  183 L   1      -5.733   0.563   0.780  1.00  0.00    +0.0560  H
ATOM     24 H46  183 L   1      -6.041  -0.985  -0.023  1.00  0.00    +0.0560  H
ATOM     25 H47  183 L   1      -3.525   1.630   0.342  1.00  0.00    +0.0605  H
ENDROOT
BRANCH 4 26
ATOM     26  N5  183 L   1       0.054  -0.051   0.185  1.00  0.00    -0.3056 NA
ATOM     27 H29  183 L   1      -0.081  -0.971  -0.242  1.00  0.00    +0.1226 HD
BRANCH 26 28
ATOM     28  C6  183 L   1       0.735  -0.259   1.469  1.00  0.00    +0.0568  C
ATOM     29 H30  183 L   1       0.955   0.703   1.948  1.00  0.00    +0.0505  H
ATOM     30 H31  183 L   1       0.093  -0.828   2.152  1.00  0.00    +0.0505  H
BRANCH 28 31
ATOM     31  C7  183 L   1       2.010  -1.004   1.275  1.00  0.00    +0.1474  A
ATOM     32  N8  183 L   1       2.299  -2.205   1.736  1.00  0.00    -0.1330 NA
ATOM     33  N9  183 L   1       3.574  -2.530   1.330  1.00  0.00    -0.1343 NA
ATOM     34 C10  183 L   1       4.039  -1.525   0.623  1.00  0.00    +0.1335  A
ATOM     35 N11  183 L   1       3.088  -0.542   0.570  1.00  0.00    -0.3137  N
ATOM     36 C12  183 L   1       3.222   0.690  -0.175  1.00  0.00    +0.0261  C
ATOM     37 C13  183 L   1       4.679   0.989  -0.538  1.00  0.00    -0.0345  C
ATOM     38 C14  183 L   1       5.380  -0.267  -1.063  1.00  0.00    -0.0446  C
ATOM     39 C15  183 L   1       5.374  -1.380  -0.011  1.00  0.00    +0.0075  C
ATOM     40 H32  183 L   1       2.623   0.576  -1.085  1.00  0.00    +0.0493  H
ATOM     41 H33  183 L   1       2.807   1.506   0.425  1.00  0.00    +0.0493  H
ATOM     42 H34  183 L   1       5.212   1.355   0.349  1.00  0.00    +0.0282  H
ATOM     43 H35  183 L   1       4.716   1.786  -1.289  1.00  0.00    +0.0282  H
ATOM     44 H36  183 L   1       4.868  -0.614  -1.970  1.00  0.00    +0.0270  H
ATOM     45 H37  183 L   1       6.412  -0.033  -1.347  1.00  0.00    +0.0270  H
ATOM     46 H38  183 L   1       6.108  -1.149   0.771  1.00  0.00    +0.0344  H
ATOM     47 H39  183 L   1       5.677  -2.327  -0.472  1.00  0.00    +0.0344  H
ENDBRANCH 28 31
ENDBRANCH 26 28
ENDBRANCH 4 26
TORSDOF 3
