ROOT
ATOM      1 N21  CHE L   1      -3.354   1.446   0.210  1.00  0.00    -0.3262  N
ATOM      2 C22  CHE L   1      -2.282   2.297   0.086  1.00  0.00    +0.0076  A
ATOM      3 C23  CHE L   1      -2.654   3.333  -0.748  1.00  0.00    -0.0334  A
ATOM      4 C24  CHE L   1      -3.982   3.083  -1.179  1.00  0.00    +0.0370  A
ATOM      5 C25  CHE L   1      -4.907   3.698  -2.019  1.00  0.00    +0.0400  A
ATOM      6 N26  CHE L   1      -6.117   3.125  -2.216  1.00  0.00    -0.2430 NA
ATOM      7 C27  CHE L   1      -6.376   1.964  -1.582  1.00  0.00    +0.1182  A
ATOM      8 N28  CHE L   1      -5.569   1.273  -0.756  1.00  0.00    -0.2177 NA
ATOM      9 C29  CHE L   1      -4.386   1.897  -0.583  1.00  0.00    +0.1442  A
ATOM     10 H51  CHE L   1      -1.341   2.119   0.590  1.00  0.00    +0.0810  H
ATOM     11 H52  CHE L   1      -2.026   4.169  -1.032  1.00  0.00    +0.0640  H
ATOM     12 H53  CHE L   1      -4.713   4.626  -2.542  1.00  0.00    +0.0837  H
ATOM     13 H54  CHE L   1      -7.357   1.534  -1.758  1.00  0.00    +0.1047  H
ENDROOT
BRANCH 1 16
ATOM     14 C18  CHE L   1      -1.718  -1.263   2.008  1.00  0.00    +0.0072  C
ATOM     15 C19  CHE L   1      -2.502   0.058   2.184  1.00  0.00    -0.0227  C
ATOM     16 C20  CHE L   1      -3.421   0.191   0.947  1.00  0.00    +0.0646  C
ATOM     17 C30  CHE L   1      -3.060  -0.996   0.037  1.00  0.00    +0.1020  C
ATOM     18 O31  CHE L   1      -4.125  -1.465  -0.783  1.00  0.00    -0.3872 OA
ATOM     19 C32  CHE L   1      -2.593  -2.060   1.035  1.00  0.00    +0.0875  C
ATOM     20 O33  CHE L   1      -3.714  -2.578   1.763  1.00  0.00    -0.3888 OA
ATOM     21 H47  CHE L   1      -1.663  -1.772   2.978  1.00  0.00    +0.0344  H
ATOM     22 H48  CHE L   1      -3.138  -0.025   3.076  1.00  0.00    +0.0290  H
ATOM     23 H49  CHE L   1      -1.842   0.911   2.365  1.00  0.00    +0.0290  H
ATOM     24 H50  CHE L   1      -4.460   0.103   1.293  1.00  0.00    +0.0555  H
ATOM     25 H55  CHE L   1      -2.236  -0.731  -0.636  1.00  0.00    +0.0640  H
ATOM     26 H56  CHE L   1      -4.820  -0.775  -0.800  1.00  0.00    +0.2100 HD
ATOM     27 H57  CHE L   1      -2.096  -2.900   0.542  1.00  0.00    +0.0623  H
ATOM     28 H58  CHE L   1      -3.390  -3.328   2.294  1.00  0.00    +0.2099 HD
BRANCH 14 29
ATOM     29 C17  CHE L   1      -0.294  -0.994   1.487  1.00  0.00    +0.0274  C
ATOM     30 H45  CHE L   1       0.267  -0.446   2.256  1.00  0.00    +0.0492  H
ATOM     31 H46  CHE L   1      -0.311  -0.348   0.602  1.00  0.00    +0.0492  H
BRANCH 29 35
ATOM     32  C1  CHE L   1       1.776  -4.185   1.905  1.00  0.00    +0.0145  C
ATOM     33  C2  CHE L   1       0.930  -2.981   2.235  1.00  0.00    +0.2211  C
ATOM     34  O3  CHE L   1       0.669  -2.713   3.408  1.00  0.00    -0.2733 OA
ATOM     35  N4  CHE L   1       0.452  -2.216   1.177  1.00  0.00    -0.3312  N
ATOM     36 H34  CHE L   1       2.085  -4.675   2.834  1.00  0.00    +0.0325  H
ATOM     37 H35  CHE L   1       2.678  -3.885   1.367  1.00  0.00    +0.0325  H
ATOM     38 H36  CHE L   1       1.197  -4.903   1.322  1.00  0.00    +0.0325  H
BRANCH 35 39
ATOM     39  C5  CHE L   1       0.842  -2.430  -0.217  1.00  0.00    +0.0831  C
ATOM     40 H37  CHE L   1       0.988  -3.496  -0.407  1.00  0.00    +0.0626  H
ATOM     41 H38  CHE L   1       0.017  -2.110  -0.861  1.00  0.00    +0.0626  H
BRANCH 39 42
ATOM     42  C6  CHE L   1       2.071  -1.692  -0.531  1.00  0.00    -0.0755  C
ATOM     43  C7  CHE L   1       3.082  -1.093  -0.783  1.00  0.00    -0.0645  C
BRANCH 43 44
ATOM     44  C8  CHE L   1       4.287  -0.380  -1.077  1.00  0.00    +0.0257  A
ATOM     45  C9  CHE L   1       5.361  -1.043  -1.677  1.00  0.00    -0.0463  A
ATOM     46 C10  CHE L   1       6.531  -0.346  -1.983  1.00  0.00    -0.0599  A
ATOM     47 C11  CHE L   1       6.632   1.013  -1.681  1.00  0.00    -0.0494  A
ATOM     48 C12  CHE L   1       5.565   1.678  -1.063  1.00  0.00    +0.0399  A
ATOM     49 C16  CHE L   1       4.386   0.980  -0.770  1.00  0.00    -0.0340  A
ATOM     50 H39  CHE L   1       5.290  -2.101  -1.921  1.00  0.00    +0.0630  H
ATOM     51 H40  CHE L   1       7.364  -0.859  -2.460  1.00  0.00    +0.0618  H
ATOM     52 H41  CHE L   1       7.545   1.554  -1.927  1.00  0.00    +0.0625  H
ATOM     53 H44  CHE L   1       3.533   1.491  -0.332  1.00  0.00    +0.0637  H
BRANCH 48 54
ATOM     54 C13  CHE L   1       5.720   3.125  -0.760  1.00  0.00    +0.2495  C
ATOM     55 N14  CHE L   1       4.952   3.645   0.250  1.00  0.00    -0.3659  N
ATOM     56 O15  CHE L   1       6.526   3.825  -1.358  1.00  0.00    -0.2678 OA
ATOM     57 H42  CHE L   1       5.179   4.595   0.525  1.00  0.00    +0.1589 HD
ATOM     58 H43  CHE L   1       4.523   3.058   0.950  1.00  0.00    +0.1589 HD
ENDBRANCH 48 54
ENDBRANCH 43 44
ENDBRANCH 39 42
ENDBRANCH 35 39
ENDBRANCH 29 35
ENDBRANCH 14 29
ENDBRANCH 1 16
TORSDOF 7
