ROOT
ATOM      1 C14  CHE L   1       4.992  -1.273   0.192  1.00  0.00    +0.1351  A
ATOM      2 C15  CHE L   1       5.551  -1.490   1.384  1.00  0.00    +0.0341  A
ATOM      3 C16  CHE L   1       6.540  -0.524   1.876  1.00  0.00    +0.2590  A
ATOM      4 O17  CHE L   1       7.060  -0.716   2.974  1.00  0.00    -0.2672 OA
ATOM      5 N18  CHE L   1       6.806   0.549   1.037  1.00  0.00    -0.2682  N
ATOM      6 C19  CHE L   1       7.733   1.507   1.434  1.00  0.00    +0.0146  A
ATOM      7 C20  CHE L   1       8.029   2.563   0.666  1.00  0.00    -0.0450  A
ATOM      8 C21  CHE L   1       7.381   2.729  -0.607  1.00  0.00    -0.0569  A
ATOM      9 C22  CHE L   1       6.482   1.833  -1.032  1.00  0.00    -0.0187  A
ATOM     10 C23  CHE L   1       6.148   0.654  -0.184  1.00  0.00    +0.1410  A
ATOM     11 N24  CHE L   1       5.274  -0.200  -0.622  1.00  0.00    -0.2242 NA
ATOM     12 H42  CHE L   1       5.319  -2.337   2.017  1.00  0.00    +0.0695  H
ATOM     13 H43  CHE L   1       8.210   1.361   2.400  1.00  0.00    +0.0814  H
ATOM     14 H44  CHE L   1       8.754   3.304   0.986  1.00  0.00    +0.0632  H
ATOM     15 H45  CHE L   1       7.637   3.594  -1.210  1.00  0.00    +0.0619  H
ATOM     16 H46  CHE L   1       5.973   1.924  -1.984  1.00  0.00    +0.0654  H
ENDROOT
BRANCH 1 18
ATOM     17 N11  CHE L   1       3.473  -1.999  -1.514  1.00  0.00    -0.3452  N
ATOM     18 C12  CHE L   1       3.975  -2.289  -0.270  1.00  0.00    +0.2709  C
ATOM     19 O13  CHE L   1       3.634  -3.251   0.408  1.00  0.00    -0.2659 OA
ATOM     20 H41  CHE L   1       3.718  -1.092  -1.899  1.00  0.00    +0.1631 HD
BRANCH 17 21
ATOM     21 C10  CHE L   1       2.324  -2.676  -2.059  1.00  0.00    +0.0623  C
ATOM     22 H39  CHE L   1       2.247  -3.691  -1.656  1.00  0.00    +0.0552  H
ATOM     23 H40  CHE L   1       2.458  -2.739  -3.143  1.00  0.00    +0.0552  H
BRANCH 21 29
ATOM     24  C4  CHE L   1      -2.574   0.327  -0.329  1.00  0.00    -0.0168  A
ATOM     25  C5  CHE L   1      -2.224   1.110  -1.518  1.00  0.00    -0.0525  A
ATOM     26  C6  CHE L   1      -1.157   0.808  -2.284  1.00  0.00    -0.0185  A
ATOM     27  C7  CHE L   1      -0.333  -0.299  -1.941  1.00  0.00    +0.1379  A
ATOM     28  N8  CHE L   1       0.749  -0.791  -2.508  1.00  0.00    -0.2310 NA
ATOM     29  C9  CHE L   1       1.112  -1.875  -1.733  1.00  0.00    +0.0791  A
ATOM     30 C25  CHE L   1       0.233  -2.028  -0.679  1.00  0.00    +0.0342  A
ATOM     31 N26  CHE L   1      -0.689  -1.024  -0.810  1.00  0.00    -0.3060  N
ATOM     32 C27  CHE L   1      -1.786  -0.721  -0.010  1.00  0.00    +0.0156  A
ATOM     33 H37  CHE L   1      -2.867   1.946  -1.780  1.00  0.00    +0.0622  H
ATOM     34 H38  CHE L   1      -0.909   1.386  -3.166  1.00  0.00    +0.0654  H
ATOM     35 H47  CHE L   1       0.202  -2.741   0.134  1.00  0.00    +0.0832  H
ATOM     36 H48  CHE L   1      -1.957  -1.357   0.850  1.00  0.00    +0.0816  H
BRANCH 24 37
ATOM     37  C3  CHE L   1      -3.775   0.746   0.488  1.00  0.00    +0.0251  C
ATOM     38 H35  CHE L   1      -3.865   0.113   1.380  1.00  0.00    +0.0476  H
ATOM     39 H36  CHE L   1      -3.568   1.761   0.854  1.00  0.00    +0.0476  H
BRANCH 37 41
ATOM     40  C1  CHE L   1      -5.473  -0.605  -0.617  1.00  0.00    -0.0124  C
ATOM     41  N2  CHE L   1      -5.028   0.745  -0.278  1.00  0.00    -0.3009 NA
ATOM     42 H32  CHE L   1      -4.748  -1.105  -1.268  1.00  0.00    +0.0391  H
ATOM     43 H33  CHE L   1      -5.620  -1.234   0.268  1.00  0.00    +0.0391  H
ATOM     44 H34  CHE L   1      -6.413  -0.575  -1.180  1.00  0.00    +0.0391  H
BRANCH 41 45
ATOM     45 C28  CHE L   1      -6.085   1.540   0.357  1.00  0.00    +0.0018  C
ATOM     46 H49  CHE L   1      -5.728   2.569   0.488  1.00  0.00    +0.0429  H
ATOM     47 H50  CHE L   1      -6.929   1.622  -0.341  1.00  0.00    +0.0429  H
BRANCH 45 48
ATOM     48 C29  CHE L   1      -6.560   1.029   1.686  1.00  0.00    -0.0282  C
ATOM     49 C30  CHE L   1      -7.707   0.053   1.790  1.00  0.00    -0.0488  C
ATOM     50 C31  CHE L   1      -7.899   1.480   2.218  1.00  0.00    -0.0488  C
ATOM     51 H51  CHE L   1      -5.763   0.964   2.417  1.00  0.00    +0.0313  H
ATOM     52 H52  CHE L   1      -8.201  -0.272   0.882  1.00  0.00    +0.0268  H
ATOM     53 H53  CHE L   1      -7.654  -0.708   2.561  1.00  0.00    +0.0268  H
ATOM     54 H54  CHE L   1      -7.981   1.685   3.280  1.00  0.00    +0.0268  H
ATOM     55 H55  CHE L   1      -8.522   2.115   1.597  1.00  0.00    +0.0268  H
ENDBRANCH 45 48
ENDBRANCH 41 45
ENDBRANCH 37 41
ENDBRANCH 24 37
ENDBRANCH 21 29
ENDBRANCH 17 21
ENDBRANCH 1 18
TORSDOF 7
