ROOT
ATOM      1 N11  LIG L   1      -1.978   2.498  -9.712  1.00  0.00    -0.3327  N
ATOM      2 C12  LIG L   1      -2.888   1.679  -9.098  1.00  0.00    +0.0262  A
ATOM      3 C13  LIG L   1      -4.299   1.422  -9.466  1.00  0.00    -0.0236  C
ATOM      4 C14  LIG L   1      -2.301   1.077  -7.998  1.00  0.00    +0.0280  A
ATOM      5 C15  LIG L   1      -2.743   0.174  -7.031  1.00  0.00    +0.0580  A
ATOM      6 N16  LIG L   1      -1.914  -0.252  -6.038  1.00  0.00    -0.1710 NA
ATOM      7 N17  LIG L   1      -0.665   0.183  -5.967  1.00  0.00    -0.1962  N
ATOM      8 C24  LIG L   1      -0.229   1.053  -6.893  1.00  0.00    +0.2814  A
ATOM      9 O25  LIG L   1       0.958   1.450  -6.805  1.00  0.00    -0.2651 OA
ATOM     10 C26  LIG L   1      -1.032   1.514  -7.920  1.00  0.00    +0.0731  A
ATOM     11 C27  LIG L   1      -0.815   2.406  -8.988  1.00  0.00    +0.0586  A
ATOM     12 H46  LIG L   1      -4.713   0.552  -8.947  1.00  0.00    +0.0292  H
ATOM     13 H47  LIG L   1      -4.928   2.278  -9.203  1.00  0.00    +0.0292  H
ATOM     14 H48  LIG L   1      -4.399   1.206 -10.532  1.00  0.00    +0.0292  H
ATOM     15 H49  LIG L   1      -3.767  -0.228  -7.025  1.00  0.00    +0.0854  H
ENDROOT
BRANCH 1 16
ATOM     16  C3  LIG L   1      -2.179   3.338 -10.860  1.00  0.00    +0.1122  C
ATOM     17 H37  LIG L   1      -1.509   4.187 -10.644  1.00  0.00    +0.0626  H
BRANCH 16 19
ATOM     18  C1  LIG L   1      -2.447   1.858 -12.927  1.00  0.00    -0.0629  C
ATOM     19  C2  LIG L   1      -1.632   2.839 -12.167  1.00  0.00    -0.0262  C
ATOM     20 H32  LIG L   1      -1.800   1.293 -13.610  1.00  0.00    +0.0231  H
ATOM     21 H33  LIG L   1      -2.938   1.124 -12.284  1.00  0.00    +0.0231  H
ATOM     22 H34  LIG L   1      -3.187   2.339 -13.571  1.00  0.00    +0.0231  H
ATOM     23 H35  LIG L   1      -1.457   3.698 -12.830  1.00  0.00    +0.0287  H
ATOM     24 H36  LIG L   1      -0.644   2.402 -12.007  1.00  0.00    +0.0287  H
ENDBRANCH 16 19
BRANCH 16 25
ATOM     25  C4  LIG L   1      -3.461   4.042 -10.951  1.00  0.00    +0.2439  C
ATOM     26  O5  LIG L   1      -3.600   5.212 -10.415  1.00  0.00    -0.2710 OA
ATOM     27  N6  LIG L   1      -4.634   3.571 -11.594  1.00  0.00    -0.3521  N
ATOM     28 H38  LIG L   1      -4.565   2.999 -12.423  1.00  0.00    +0.1624 HD
BRANCH 27 29
ATOM     29  C7  LIG L   1      -5.794   4.477 -11.544  1.00  0.00    +0.0415  C
ATOM     30 H39  LIG L   1      -5.518   5.411 -12.045  1.00  0.00    +0.0509  H
ATOM     31 H40  LIG L   1      -6.063   4.672 -10.502  1.00  0.00    +0.0509  H
BRANCH 29 32
ATOM     32  C8  LIG L   1      -6.909   3.767 -12.288  1.00  0.00    +0.0647  C
ATOM     33 H41  LIG L   1      -7.806   4.396 -12.287  1.00  0.00    +0.0577  H
ATOM     34 H42  LIG L   1      -7.145   2.812 -11.801  1.00  0.00    +0.0577  H
BRANCH 32 35
ATOM     35  O9  LIG L   1      -6.454   3.556 -13.587  1.00  0.00    -0.3812 OA
ATOM     36 C10  LIG L   1      -7.422   2.900 -14.356  1.00  0.00    +0.0365  C
ATOM     37 H43  LIG L   1      -8.338   3.495 -14.431  1.00  0.00    +0.0523  H
ATOM     38 H44  LIG L   1      -7.654   1.914 -13.941  1.00  0.00    +0.0523  H
ATOM     39 H45  LIG L   1      -7.028   2.757 -15.367  1.00  0.00    +0.0523  H
ENDBRANCH 32 35
ENDBRANCH 29 32
ENDBRANCH 27 29
ENDBRANCH 16 25
ENDBRANCH 1 16
BRANCH 7 40
ATOM     40 C18  LIG L   1       0.231  -0.249  -4.932  1.00  0.00    +0.0692  A
ATOM     41 C19  LIG L   1       0.900  -1.466  -5.097  1.00  0.00    -0.0361  A
ATOM     42 C20  LIG L   1       1.777  -1.949  -4.147  1.00  0.00    -0.0598  A
ATOM     43 C21  LIG L   1       1.984  -1.198  -3.015  1.00  0.00    -0.0616  A
ATOM     44 C22  LIG L   1       1.315   0.007  -2.863  1.00  0.00    -0.0598  A
ATOM     45 C23  LIG L   1       0.437   0.496  -3.809  1.00  0.00    -0.0361  A
ATOM     46 H50  LIG L   1       0.725  -2.046  -6.001  1.00  0.00    +0.0639  H
ATOM     47 H51  LIG L   1       2.290  -2.893  -4.294  1.00  0.00    +0.0618  H
ATOM     48 H52  LIG L   1       2.670  -1.541  -2.246  1.00  0.00    +0.0618  H
ATOM     49 H53  LIG L   1       1.494   0.594  -1.964  1.00  0.00    +0.0618  H
ATOM     50 H54  LIG L   1      -0.066   1.446  -3.662  1.00  0.00    +0.0639  H
ENDBRANCH 7 40
BRANCH 11 51
ATOM     51 C28  LIG L   1       0.472   3.086  -9.135  1.00  0.00    +0.0885  C
ATOM     52 H55  LIG L   1       0.480   3.830  -9.937  1.00  0.00    +0.0625  H
ATOM     53 H56  LIG L   1       0.723   3.631  -8.218  1.00  0.00    +0.0625  H
BRANCH 51 54
ATOM     54 O29  LIG L   1       1.515   2.140  -9.375  1.00  0.00    -0.3740 OA
BRANCH 54 55
ATOM     55 C30  LIG L   1       1.573   1.608 -10.687  1.00  0.00    +0.0453  C
ATOM     56 C31  LIG L   1       2.810   0.737 -10.792  1.00  0.00    -0.0416  C
ATOM     57 H57  LIG L   1       1.634   2.421 -11.419  1.00  0.00    +0.0557  H
ATOM     58 H58  LIG L   1       0.687   0.997 -10.883  1.00  0.00    +0.0557  H
ATOM     59 H59  LIG L   1       3.712   1.321 -10.581  1.00  0.00    +0.0252  H
ATOM     60 H60  LIG L   1       2.896   0.301 -11.791  1.00  0.00    +0.0252  H
ATOM     61 H61  LIG L   1       2.775  -0.072 -10.054  1.00  0.00    +0.0252  H
ENDBRANCH 54 55
ENDBRANCH 51 54
ENDBRANCH 11 51
TORSDOF 10
