ROOT
ATOM      1  C9  CHE L   1      -2.107   1.831   0.222  1.00  0.00    +0.0335  C
ATOM      2 C10  CHE L   1      -0.906   1.058   0.762  1.00  0.00    -0.0141  C
ATOM      3 C11  CHE L   1       0.376   1.848   0.545  1.00  0.00    +0.0316  C
ATOM      4 N12  CHE L   1       0.566   2.104  -0.925  1.00  0.00    -0.2941 NA
ATOM      5 C26  CHE L   1      -0.560   2.979  -1.430  1.00  0.00    +0.0397  C
ATOM      6 C27  CHE L   1      -0.442   3.347  -2.908  1.00  0.00    -0.0438  C
ATOM      7 C28  CHE L   1      -1.880   2.209  -1.241  1.00  0.00    -0.0115  C
ATOM      8 H38  CHE L   1      -2.227   2.752   0.807  1.00  0.00    +0.0524  H
ATOM      9 H39  CHE L   1      -0.832   0.084   0.263  1.00  0.00    +0.0302  H
ATOM     10 H40  CHE L   1      -1.031   0.854   1.832  1.00  0.00    +0.0302  H
ATOM     11 H41  CHE L   1       1.200   1.256   0.949  1.00  0.00    +0.0496  H
ATOM     12 H42  CHE L   1       0.342   2.797   1.092  1.00  0.00    +0.0496  H
ATOM     13 H55  CHE L   1      -0.592   3.903  -0.838  1.00  0.00    +0.0529  H
ATOM     14 H56  CHE L   1      -0.232   2.469  -3.528  1.00  0.00    +0.0250  H
ATOM     15 H57  CHE L   1       0.345   4.090  -3.070  1.00  0.00    +0.0250  H
ATOM     16 H58  CHE L   1      -1.369   3.803  -3.273  1.00  0.00    +0.0250  H
ATOM     17 H59  CHE L   1      -1.870   1.300  -1.858  1.00  0.00    +0.0305  H
ATOM     18 H60  CHE L   1      -2.725   2.813  -1.593  1.00  0.00    +0.0305  H
ENDROOT
BRANCH 1 21
ATOM     19  C6  CHE L   1      -3.984   0.969   1.589  1.00  0.00    +0.2739  C
ATOM     20  O7  CHE L   1      -3.625   1.638   2.555  1.00  0.00    -0.2658 OA
ATOM     21  N8  CHE L   1      -3.332   1.053   0.365  1.00  0.00    -0.3478  N
ATOM     22 H37  CHE L   1      -3.514   0.336  -0.323  1.00  0.00    +0.1629 HD
BRANCH 19 25
ATOM     23  C3  CHE L   1      -6.722  -1.429   1.180  1.00  0.00    +0.1378  A
ATOM     24  C4  CHE L   1      -5.764  -0.656   0.569  1.00  0.00    +0.0129  A
ATOM     25  C5  CHE L   1      -5.101   0.013   1.638  1.00  0.00    +0.1701  A
ATOM     26 N29  CHE L   1      -5.639  -0.354   2.814  1.00  0.00    -0.0732 NA
ATOM     27 O30  CHE L   1      -6.644  -1.253   2.524  1.00  0.00    -0.3589 OA
ATOM     28 H36  CHE L   1      -5.583  -0.581  -0.493  1.00  0.00    +0.0676  H
BRANCH 23 30
ATOM     29  C1  CHE L   1      -7.191  -3.729   0.377  1.00  0.00    -0.0583  C
ATOM     30  C2  CHE L   1      -7.766  -2.359   0.694  1.00  0.00    +0.0054  C
ATOM     31 H31  CHE L   1      -6.453  -3.668  -0.432  1.00  0.00    +0.0234  H
ATOM     32 H32  CHE L   1      -6.695  -4.168   1.251  1.00  0.00    +0.0234  H
ATOM     33 H33  CHE L   1      -7.987  -4.410   0.055  1.00  0.00    +0.0234  H
ATOM     34 H34  CHE L   1      -8.557  -2.459   1.446  1.00  0.00    +0.0342  H
ATOM     35 H35  CHE L   1      -8.236  -1.945  -0.206  1.00  0.00    +0.0342  H
ENDBRANCH 23 30
ENDBRANCH 19 25
ENDBRANCH 1 21
BRANCH 4 36
ATOM     36 S13  CHE L   1       2.170   2.645  -1.295  1.00  0.00    +0.2614  S
ATOM     37 O14  CHE L   1       2.430   3.796  -0.456  1.00  0.00    -0.2001 OA
ATOM     38 O15  CHE L   1       2.342   2.703  -2.730  1.00  0.00    -0.2001 OA
BRANCH 36 39
ATOM     39 C16  CHE L   1       3.184   1.296  -0.737  1.00  0.00    +0.0867  A
ATOM     40 C17  CHE L   1       3.068   0.058  -1.368  1.00  0.00    -0.0415  A
ATOM     41 C18  CHE L   1       3.853  -1.012  -0.932  1.00  0.00    -0.0556  A
ATOM     42 C19  CHE L   1       4.763  -0.871   0.139  1.00  0.00    -0.0281  A
ATOM     43 C24  CHE L   1       4.870   0.400   0.737  1.00  0.00    -0.0556  A
ATOM     44 C25  CHE L   1       4.090   1.478   0.305  1.00  0.00    -0.0415  A
ATOM     45 H43  CHE L   1       2.373  -0.078  -2.194  1.00  0.00    +0.0631  H
ATOM     46 H44  CHE L   1       3.750  -1.964  -1.447  1.00  0.00    +0.0621  H
ATOM     47 H53  CHE L   1       5.563   0.581   1.557  1.00  0.00    +0.0621  H
ATOM     48 H54  CHE L   1       4.198   2.447   0.789  1.00  0.00    +0.0631  H
BRANCH 42 49
ATOM     49 C20  CHE L   1       5.616  -2.067   0.589  1.00  0.00    +0.0363  C
ATOM     50 C21  CHE L   1       4.732  -3.301   0.865  1.00  0.00    -0.0431  C
ATOM     51 C22  CHE L   1       6.454  -1.809   1.858  1.00  0.00    -0.0431  C
ATOM     52 N23  CHE L   1       6.575  -2.411  -0.472  1.00  0.00    -0.3215 NA
ATOM     53 H45  CHE L   1       4.233  -3.671  -0.037  1.00  0.00    +0.0251  H
ATOM     54 H46  CHE L   1       5.322  -4.136   1.262  1.00  0.00    +0.0251  H
ATOM     55 H47  CHE L   1       3.950  -3.069   1.598  1.00  0.00    +0.0251  H
ATOM     56 H48  CHE L   1       7.176  -0.997   1.717  1.00  0.00    +0.0251  H
ATOM     57 H49  CHE L   1       5.817  -1.549   2.711  1.00  0.00    +0.0251  H
ATOM     58 H50  CHE L   1       7.031  -2.699   2.143  1.00  0.00    +0.0251  H
ATOM     59 H51  CHE L   1       7.107  -1.577  -0.720  1.00  0.00    +0.1190 HD
ATOM     60 H52  CHE L   1       6.074  -2.688  -1.315  1.00  0.00    +0.1190 HD
ENDBRANCH 42 49
ENDBRANCH 36 39
ENDBRANCH 4 36
TORSDOF 6
