ROOT
ATOM      1 C31  WH0 L   1       0.723   2.257  -0.814  1.00  0.00    -0.0133  A
ATOM      2 C32  WH0 L   1       1.123   2.625  -2.120  1.00  0.00    -0.0519  A
ATOM      3 C33  WH0 L   1       2.025   3.683  -2.315  1.00  0.00    -0.0374  A
ATOM      4 C34  WH0 L   1       2.498   4.363  -1.195  1.00  0.00    +0.0454  A
ATOM      5 C35  WH0 L   1       2.099   4.022   0.081  1.00  0.00    -0.0145  A
ATOM      6 C36  WH0 L   1       1.209   2.972   0.300  1.00  0.00    -0.0483  A
ATOM      7 C37  WH0 L   1       2.735   4.921   1.091  1.00  0.00    +0.0535  C
ATOM      8 C38  WH0 L   1       3.542   5.798   0.180  1.00  0.00    +0.2296  C
ATOM      9 O39  WH0 L   1       4.277   6.740   0.575  1.00  0.00    -0.2725 OA
ATOM     10 N40  WH0 L   1       3.395   5.457  -1.195  1.00  0.00    -0.3256  N
ATOM     11 H68  WH0 L   1       0.738   2.090  -2.979  1.00  0.00    +0.0624  H
ATOM     12 H69  WH0 L   1       2.341   3.964  -3.311  1.00  0.00    +0.0638  H
ATOM     13 H70  WH0 L   1       0.898   2.720   1.306  1.00  0.00    +0.0627  H
ATOM     14 H71  WH0 L   1       3.393   4.346   1.778  1.00  0.00    +0.0410  H
ATOM     15 H72  WH0 L   1       1.970   5.511   1.638  1.00  0.00    +0.0410  H
ATOM     16 H73  WH0 L   1       3.843   5.918  -2.018  1.00  0.00    +0.1686 HD
ENDROOT
BRANCH 1 24
ATOM     17  C9  WH0 L   1       0.912  -0.965  -1.454  1.00  0.00    -0.0030  A
ATOM     18 C10  WH0 L   1       0.608  -2.315  -1.734  1.00  0.00    +0.0366  A
ATOM     19 N11  WH0 L   1      -0.615  -2.836  -1.434  1.00  0.00    -0.2204 NA
ATOM     20 C12  WH0 L   1      -1.596  -2.071  -0.887  1.00  0.00    +0.2282  A
ATOM     21 N20  WH0 L   1      -1.337  -0.757  -0.656  1.00  0.00    -0.1984  N
ATOM     22 N21  WH0 L   1      -2.168   0.115  -0.112  1.00  0.00    -0.1627 NA
ATOM     23 C22  WH0 L   1      -1.538   1.306  -0.084  1.00  0.00    +0.1015  A
ATOM     24 C30  WH0 L   1      -0.253   1.171  -0.620  1.00  0.00    +0.0356  A
ATOM     25 C41  WH0 L   1      -0.155  -0.182  -0.951  1.00  0.00    +0.0835  A
ATOM     26 H52  WH0 L   1       1.344  -2.967  -2.180  1.00  0.00    +0.0834  H
BRANCH 17 27
ATOM     27  C8  WH0 L   1       2.315  -0.438  -1.705  1.00  0.00    -0.0226  C
ATOM     28 H50  WH0 L   1       2.471   0.545  -1.236  1.00  0.00    +0.0315  H
ATOM     29 H51  WH0 L   1       2.454  -0.315  -2.801  1.00  0.00    +0.0315  H
BRANCH 27 30
ATOM     30  C7  WH0 L   1       3.434  -1.340  -1.154  1.00  0.00    -0.0314  C
ATOM     31 H48  WH0 L   1       3.415  -2.339  -1.634  1.00  0.00    +0.0285  H
ATOM     32 H49  WH0 L   1       4.408  -0.879  -1.426  1.00  0.00    +0.0285  H
BRANCH 30 33
ATOM     33  C6  WH0 L   1       3.364  -1.489   0.371  1.00  0.00    +0.0187  C
ATOM     34 H46  WH0 L   1       3.432  -0.493   0.862  1.00  0.00    +0.0486  H
ATOM     35 H47  WH0 L   1       2.391  -1.944   0.655  1.00  0.00    +0.0486  H
BRANCH 33 38
ATOM     36  C3  WH0 L   1       5.812  -1.916   0.897  1.00  0.00    +0.2443  C
ATOM     37  O4  WH0 L   1       6.087  -0.698   0.722  1.00  0.00    -0.2683 OA
ATOM     38  N5  WH0 L   1       4.444  -2.353   0.847  1.00  0.00    -0.3525  N
ATOM     39 H45  WH0 L   1       4.181  -3.284   1.240  1.00  0.00    +0.1626 HD
BRANCH 36 41
ATOM     40  C1  WH0 L   1       6.806  -4.176   1.071  1.00  0.00    -0.0936  C
ATOM     41  C2  WH0 L   1       6.919  -2.852   1.177  1.00  0.00    -0.0047  C
ATOM     42 H42  WH0 L   1       5.889  -4.652   0.756  1.00  0.00    +0.0536  H
ATOM     43 H43  WH0 L   1       7.664  -4.804   1.272  1.00  0.00    +0.0536  H
ATOM     44 H44  WH0 L   1       7.884  -2.440   1.441  1.00  0.00    +0.0666  H
ENDBRANCH 36 41
ENDBRANCH 33 38
ENDBRANCH 30 33
ENDBRANCH 27 30
ENDBRANCH 17 27
BRANCH 20 45
ATOM     45 N13  WH0 L   1      -2.873  -2.656  -0.577  1.00  0.00    -0.3402  N
ATOM     46 C14  WH0 L   1      -2.907  -3.930   0.154  1.00  0.00    +0.0228  C
ATOM     47 C15  WH0 L   1      -4.345  -4.385   0.420  1.00  0.00    -0.0199  C
ATOM     48 C16  WH0 L   1      -5.161  -4.347  -0.881  1.00  0.00    +0.0080  C
ATOM     49 N17  WH0 L   1      -6.537  -4.772  -0.614  1.00  0.00    -0.3271 NA
ATOM     50 C18  WH0 L   1      -5.121  -2.953  -1.574  1.00  0.00    -0.0199  C
ATOM     51 C19  WH0 L   1      -4.121  -1.972  -0.942  1.00  0.00    +0.0228  C
ATOM     52 H53  WH0 L   1      -2.375  -3.817   1.124  1.00  0.00    +0.0489  H
ATOM     53 H54  WH0 L   1      -2.385  -4.711  -0.442  1.00  0.00    +0.0489  H
ATOM     54 H55  WH0 L   1      -4.810  -3.720   1.180  1.00  0.00    +0.0297  H
ATOM     55 H56  WH0 L   1      -4.335  -5.418   0.828  1.00  0.00    +0.0297  H
ATOM     56 H57  WH0 L   1      -4.704  -5.091  -1.574  1.00  0.00    +0.0459  H
ATOM     57 H58  WH0 L   1      -7.045  -4.845  -1.525  1.00  0.00    +0.1185 HD
ATOM     58 H59  WH0 L   1      -7.020  -4.041  -0.044  1.00  0.00    +0.1185 HD
ATOM     59 H60  WH0 L   1      -6.125  -2.473  -1.563  1.00  0.00    +0.0297  H
ATOM     60 H61  WH0 L   1      -4.852  -3.096  -2.644  1.00  0.00    +0.0297  H
ATOM     61 H62  WH0 L   1      -3.925  -1.151  -1.668  1.00  0.00    +0.0489  H
ATOM     62 H63  WH0 L   1      -4.567  -1.521  -0.029  1.00  0.00    +0.0489  H
ENDBRANCH 20 45
BRANCH 23 63
ATOM     63 C23  WH0 L   1      -2.178   2.535   0.436  1.00  0.00    +0.0029  A
ATOM     64 C24  WH0 L   1      -3.031   2.452   1.550  1.00  0.00    -0.0498  A
ATOM     65 C25  WH0 L   1      -3.643   3.601   2.058  1.00  0.00    -0.0258  A
ATOM     66 C26  WH0 L   1      -3.420   4.841   1.454  1.00  0.00    +0.1234  A
ATOM     67 F27  WH0 L   1      -4.013   5.955   1.949  1.00  0.00    -0.2055  F
ATOM     68 C28  WH0 L   1      -2.595   4.929   0.330  1.00  0.00    -0.0258  A
ATOM     69 C29  WH0 L   1      -1.983   3.782  -0.184  1.00  0.00    -0.0498  A
ATOM     70 H64  WH0 L   1      -3.209   1.500   2.036  1.00  0.00    +0.0625  H
ATOM     71 H65  WH0 L   1      -4.289   3.529   2.924  1.00  0.00    +0.0646  H
ATOM     72 H66  WH0 L   1      -2.435   5.887  -0.150  1.00  0.00    +0.0646  H
ATOM     73 H67  WH0 L   1      -1.379   3.872  -1.076  1.00  0.00    +0.0625  H
ENDBRANCH 23 63
ENDBRANCH 1 24
TORSDOF 8
