ROOT
ATOM      1 N17  WH0 L   1      -1.449   0.834  -0.165  1.00  0.00    -0.2837  N
ATOM      2 C18  WH0 L   1      -0.876   2.116   0.050  1.00  0.00    +0.2395  C
ATOM      3 O19  WH0 L   1       0.029   2.309   0.906  1.00  0.00    -0.2717 OA
ATOM      4 C20  WH0 L   1      -1.447   3.226  -0.749  1.00  0.00    +0.0758  C
ATOM      5 S21  WH0 L   1      -2.689   2.491  -1.870  1.00  0.00    -0.1088 SA
ATOM      6 C22  WH0 L   1      -2.662   0.894  -0.978  1.00  0.00    +0.2010  C
ATOM      7 C23  WH0 L   1      -2.804  -0.276  -1.916  1.00  0.00    +0.2665  C
ATOM      8 O24  WH0 L   1      -2.025  -0.526  -2.873  1.00  0.00    -0.2689 OA
ATOM      9 N25  WH0 L   1      -3.956  -1.065  -1.637  1.00  0.00    -0.3228  N
ATOM     10 C26  WH0 L   1      -4.590  -0.410  -0.553  1.00  0.00    +0.0486  A
ATOM     11 C27  WH0 L   1      -5.774  -0.804   0.070  1.00  0.00    -0.0379  A
ATOM     12 C28  WH0 L   1      -6.258  -0.024   1.133  1.00  0.00    -0.0598  A
ATOM     13 C29  WH0 L   1      -5.559   1.127   1.548  1.00  0.00    -0.0613  A
ATOM     14 C30  WH0 L   1      -4.370   1.506   0.904  1.00  0.00    -0.0531  A
ATOM     15 C31  WH0 L   1      -3.901   0.716  -0.149  1.00  0.00    +0.0211  A
ATOM     16 H45  WH0 L   1      -1.939   3.960  -0.077  1.00  0.00    +0.0474  H
ATOM     17 H46  WH0 L   1      -0.651   3.722  -1.342  1.00  0.00    +0.0474  H
ATOM     18 H47  WH0 L   1      -4.282  -1.916  -2.146  1.00  0.00    +0.1687 HD
ATOM     19 H48  WH0 L   1      -6.305  -1.689  -0.255  1.00  0.00    +0.0638  H
ATOM     20 H49  WH0 L   1      -7.174  -0.308   1.635  1.00  0.00    +0.0618  H
ATOM     21 H50  WH0 L   1      -5.940   1.722   2.368  1.00  0.00    +0.0618  H
ATOM     22 H51  WH0 L   1      -3.826   2.386   1.222  1.00  0.00    +0.0622  H
ENDROOT
BRANCH 1 28
ATOM     23 C11  WH0 L   1       0.116  -1.095  -0.023  1.00  0.00    -0.0237  A
ATOM     24 C12  WH0 L   1       0.482  -2.299   0.606  1.00  0.00    -0.0566  A
ATOM     25 C13  WH0 L   1      -0.192  -2.741   1.746  1.00  0.00    -0.0614  A
ATOM     26 C14  WH0 L   1      -1.243  -1.992   2.271  1.00  0.00    -0.0598  A
ATOM     27 C15  WH0 L   1      -1.635  -0.806   1.650  1.00  0.00    -0.0378  A
ATOM     28 C16  WH0 L   1      -0.976  -0.354   0.496  1.00  0.00    +0.0500  A
ATOM     29 H41  WH0 L   1       1.295  -2.897   0.213  1.00  0.00    +0.0621  H
ATOM     30 H42  WH0 L   1       0.105  -3.666   2.224  1.00  0.00    +0.0618  H
ATOM     31 H43  WH0 L   1      -1.760  -2.334   3.159  1.00  0.00    +0.0618  H
ATOM     32 H44  WH0 L   1      -2.454  -0.239   2.069  1.00  0.00    +0.0638  H
BRANCH 23 33
ATOM     33 C10  WH0 L   1       0.895  -0.636  -1.238  1.00  0.00    -0.0241  C
ATOM     34 H39  WH0 L   1       0.261   0.008  -1.880  1.00  0.00    +0.0314  H
ATOM     35 H40  WH0 L   1       1.173  -1.512  -1.863  1.00  0.00    +0.0314  H
BRANCH 33 36
ATOM     36  C9  WH0 L   1       2.158   0.163  -0.875  1.00  0.00    -0.0314  C
ATOM     37 H37  WH0 L   1       2.558   0.612  -1.810  1.00  0.00    +0.0285  H
ATOM     38 H38  WH0 L   1       1.901   0.994  -0.188  1.00  0.00    +0.0285  H
BRANCH 36 39
ATOM     39  C8  WH0 L   1       3.256  -0.701  -0.239  1.00  0.00    +0.0187  C
ATOM     40 H35  WH0 L   1       2.919  -1.059   0.756  1.00  0.00    +0.0486  H
ATOM     41 H36  WH0 L   1       3.462  -1.579  -0.890  1.00  0.00    +0.0486  H
BRANCH 39 44
ATOM     42  C5  WH0 L   1       5.664  -0.532   0.507  1.00  0.00    +0.2618  C
ATOM     43  O6  WH0 L   1       5.630  -1.743   0.863  1.00  0.00    -0.2669 OA
ATOM     44  N7  WH0 L   1       4.489   0.067  -0.066  1.00  0.00    -0.3514  N
ATOM     45 H34  WH0 L   1       4.512   1.069  -0.360  1.00  0.00    +0.1626 HD
BRANCH 42 47
ATOM     46  C1  WH0 L   1       8.007  -0.299   1.218  1.00  0.00    -0.0760  C
ATOM     47  C2  WH0 L   1       6.912   0.252   0.686  1.00  0.00    +0.1085  C
ATOM     48 H32  WH0 L   1       8.022  -1.334   1.536  1.00  0.00    +0.0549  H
ATOM     49 H33  WH0 L   1       8.915   0.279   1.346  1.00  0.00    +0.0549  H
BRANCH 47 50
ATOM     50  C3  WH0 L   1       6.966   1.637   0.284  1.00  0.00    +0.1040  C
ATOM     51  N4  WH0 L   1       7.009   2.748  -0.038  1.00  0.00    -0.1907 NA
ENDBRANCH 47 50
ENDBRANCH 42 47
ENDBRANCH 39 44
ENDBRANCH 36 39
ENDBRANCH 33 36
ENDBRANCH 23 33
ENDBRANCH 1 28
TORSDOF 7
