ROOT
ATOM      1 N12  CHE L   1       1.176  -0.512   1.244  1.00  0.00    -0.2954  N
ATOM      2 C13  CHE L   1       2.067  -1.527   1.557  1.00  0.00    +0.1016  A
ATOM      3 N14  CHE L   1       3.063  -1.633   0.712  1.00  0.00    -0.2354 NA
ATOM      4 C15  CHE L   1       2.882  -0.607  -0.169  1.00  0.00    +0.0893  A
ATOM      5 C16  CHE L   1       3.681  -0.243  -1.264  1.00  0.00    -0.0342  A
ATOM      6 C17  CHE L   1       3.328   0.879  -2.019  1.00  0.00    -0.0596  A
ATOM      7 C18  CHE L   1       2.207   1.633  -1.682  1.00  0.00    -0.0597  A
ATOM      8 C19  CHE L   1       1.396   1.282  -0.595  1.00  0.00    -0.0357  A
ATOM      9 C20  CHE L   1       1.741   0.134   0.141  1.00  0.00    +0.0734  A
ATOM     10 H27  CHE L   1       1.917  -2.186   2.402  1.00  0.00    +0.1032  H
ATOM     11 H28  CHE L   1       4.564  -0.824  -1.506  1.00  0.00    +0.0639  H
ATOM     12 H29  CHE L   1       3.945   1.172  -2.866  1.00  0.00    +0.0618  H
ATOM     13 H30  CHE L   1       1.960   2.516  -2.268  1.00  0.00    +0.0618  H
ATOM     14 H31  CHE L   1       0.550   1.910  -0.339  1.00  0.00    +0.0639  H
ENDROOT
BRANCH 1 16
ATOM     15  C1  CHE L   1      -0.431  -0.785   3.074  1.00  0.00    -0.0709  C
ATOM     16  C2  CHE L   1      -0.038  -0.243   1.904  1.00  0.00    +0.0882  C
ATOM     17 H21  CHE L   1      -1.382  -0.517   3.531  1.00  0.00    +0.0556  H
ATOM     18 H22  CHE L   1       0.178  -1.480   3.642  1.00  0.00    +0.0556  H
BRANCH 16 19
ATOM     19  C3  CHE L   1      -1.057   0.694   1.350  1.00  0.00    +0.2091  C
ATOM     20  O4  CHE L   1      -1.251   1.784   1.880  1.00  0.00    -0.2851 OA
BRANCH 19 21
ATOM     21  C5  CHE L   1      -1.847   0.272   0.153  1.00  0.00    +0.0238  A
ATOM     22  C6  CHE L   1      -2.688   1.224  -0.446  1.00  0.00    -0.0495  A
ATOM     23  C7  CHE L   1      -3.447   0.894  -1.571  1.00  0.00    -0.0427  A
ATOM     24  C8  CHE L   1      -3.373  -0.392  -2.101  1.00  0.00    +0.0410  A
ATOM     25 CL9  CHE L   1      -4.306  -0.802  -3.486  1.00  0.00    -0.0835 Cl
ATOM     26 C10  CHE L   1      -2.548  -1.349  -1.513  1.00  0.00    -0.0427  A
ATOM     27 C11  CHE L   1      -1.787  -1.021  -0.386  1.00  0.00    -0.0495  A
ATOM     28 H23  CHE L   1      -2.754   2.232  -0.038  1.00  0.00    +0.0625  H
ATOM     29 H24  CHE L   1      -4.092   1.642  -2.025  1.00  0.00    +0.0632  H
ATOM     30 H25  CHE L   1      -2.492  -2.353  -1.927  1.00  0.00    +0.0632  H
ATOM     31 H26  CHE L   1      -1.162  -1.796   0.049  1.00  0.00    +0.0625  H
ENDBRANCH 19 21
ENDBRANCH 16 19
ENDBRANCH 1 16
TORSDOF 3
