ROOT
ATOM      1  C3  CHE L   1      -0.186   1.817   0.505  1.00  0.00    +0.1623  A
ATOM      2  C4  CHE L   1      -1.426   1.328   0.082  1.00  0.00    -0.0052  A
ATOM      3  C5  CHE L   1      -1.558   0.052  -0.519  1.00  0.00    +0.0271  A
ATOM      4  C6  CHE L   1      -2.801  -0.481  -0.974  1.00  0.00    +0.0476  A
ATOM      5 C14  CHE L   1      -2.808  -1.778  -1.486  1.00  0.00    -0.0021  A
ATOM      6 C15  CHE L   1      -1.614  -2.474  -1.576  1.00  0.00    +0.1427  A
ATOM      7 N18  CHE L   1      -0.422  -1.974  -1.185  1.00  0.00    -0.2361 NA
ATOM      8 C19  CHE L   1      -0.399  -0.742  -0.662  1.00  0.00    +0.0781  A
ATOM      9 C20  CHE L   1       0.827  -0.246  -0.241  1.00  0.00    +0.0098  A
ATOM     10 C21  CHE L   1       0.954   1.019   0.340  1.00  0.00    +0.1639  A
ATOM     11 H34  CHE L   1      -2.319   1.924   0.229  1.00  0.00    +0.0662  H
ATOM     12 H46  CHE L   1      -3.716  -2.252  -1.838  1.00  0.00    +0.0667  H
ATOM     13 H47  CHE L   1       1.692  -0.885  -0.385  1.00  0.00    +0.0677  H
ENDROOT
BRANCH 1 15
ATOM     14  C1  CHE L   1      -1.122   3.871   1.297  1.00  0.00    +0.0790  C
ATOM     15  O2  CHE L   1       0.012   3.043   1.088  1.00  0.00    -0.4914 OA
ATOM     16 H31  CHE L   1      -0.778   4.798   1.766  1.00  0.00    +0.0660  H
ATOM     17 H32  CHE L   1      -1.598   4.137   0.348  1.00  0.00    +0.0660  H
ATOM     18 H33  CHE L   1      -1.835   3.398   1.980  1.00  0.00    +0.0660  H
ENDBRANCH 1 15
BRANCH 4 19
ATOM     19  N7  CHE L   1      -3.971   0.290  -0.845  1.00  0.00    -0.3810  N
ATOM     20 H35  CHE L   1      -3.798   1.227  -1.206  1.00  0.00    +0.1599 HD
BRANCH 19 21
ATOM     21  C8  CHE L   1      -5.315  -0.208  -1.189  1.00  0.00    +0.0294  C
ATOM     22  C9  CHE L   1      -6.277   0.986  -1.359  1.00  0.00    -0.0201  C
ATOM     23 C10  CHE L   1      -7.083   1.241  -0.092  1.00  0.00    -0.0022  C
ATOM     24 N11  CHE L   1      -7.932   0.103   0.258  1.00  0.00    -0.3158 NA
ATOM     25 C12  CHE L   1      -7.333  -1.199  -0.030  1.00  0.00    -0.0022  C
ATOM     26 C13  CHE L   1      -5.811  -1.168  -0.094  1.00  0.00    -0.0201  C
ATOM     27 H36  CHE L   1      -5.280  -0.717  -2.160  1.00  0.00    +0.0522  H
ATOM     28 H37  CHE L   1      -5.745   1.898  -1.653  1.00  0.00    +0.0297  H
ATOM     29 H38  CHE L   1      -6.974   0.766  -2.179  1.00  0.00    +0.0297  H
ATOM     30 H39  CHE L   1      -6.405   1.470   0.740  1.00  0.00    +0.0425  H
ATOM     31 H40  CHE L   1      -7.721   2.120  -0.231  1.00  0.00    +0.0425  H
ATOM     32 H41  CHE L   1      -8.183   0.163   1.245  1.00  0.00    +0.1219 HD
ATOM     33 H42  CHE L   1      -7.657  -1.918   0.730  1.00  0.00    +0.0425  H
ATOM     34 H43  CHE L   1      -7.730  -1.561  -0.986  1.00  0.00    +0.0425  H
ATOM     35 H44  CHE L   1      -5.412  -0.877   0.888  1.00  0.00    +0.0297  H
ATOM     36 H45  CHE L   1      -5.438  -2.181  -0.282  1.00  0.00    +0.0297  H
ENDBRANCH 19 21
ENDBRANCH 4 19
BRANCH 6 37
ATOM     37 C16  CHE L   1      -1.588  -3.806  -2.114  1.00  0.00    +0.1192  C
ATOM     38 N17  CHE L   1      -1.615  -4.880  -2.556  1.00  0.00    -0.1893 NA
ENDBRANCH 6 37
BRANCH 10 39
ATOM     39 O22  CHE L   1       2.140   1.559   0.772  1.00  0.00    -0.4882 OA
BRANCH 39 40
ATOM     40 C23  CHE L   1       3.292   0.712   0.786  1.00  0.00    +0.0909  C
ATOM     41 H48  CHE L   1       3.551   0.440  -0.242  1.00  0.00    +0.0697  H
ATOM     42 H49  CHE L   1       3.087  -0.185   1.384  1.00  0.00    +0.0697  H
BRANCH 40 43
ATOM     43 C24  CHE L   1       4.437   1.494   1.415  1.00  0.00    -0.0058  C
ATOM     44 H50  CHE L   1       4.714   2.322   0.750  1.00  0.00    +0.0310  H
ATOM     45 H51  CHE L   1       4.079   1.973   2.336  1.00  0.00    +0.0310  H
BRANCH 43 46
ATOM     46 C25  CHE L   1       5.675   0.659   1.756  1.00  0.00    +0.0020  C
ATOM     47 H52  CHE L   1       5.430  -0.096   2.514  1.00  0.00    +0.0428  H
ATOM     48 H53  CHE L   1       6.375   1.352   2.243  1.00  0.00    +0.0428  H
BRANCH 46 49
ATOM     49 N26  CHE L   1       6.322   0.064   0.583  1.00  0.00    -0.3022 NA
ATOM     50 C27  CHE L   1       5.896  -1.314   0.312  1.00  0.00    -0.0011  C
ATOM     51 C28  CHE L   1       6.960  -1.825  -0.650  1.00  0.00    -0.0390  C
ATOM     52 C29  CHE L   1       8.195  -0.984  -0.358  1.00  0.00    -0.0390  C
ATOM     53 C30  CHE L   1       7.775  -0.046   0.762  1.00  0.00    -0.0011  C
ATOM     54 H54  CHE L   1       5.903  -1.927   1.223  1.00  0.00    +0.0426  H
ATOM     55 H55  CHE L   1       4.902  -1.378  -0.139  1.00  0.00    +0.0426  H
ATOM     56 H56  CHE L   1       6.648  -1.679  -1.691  1.00  0.00    +0.0278  H
ATOM     57 H57  CHE L   1       7.152  -2.893  -0.505  1.00  0.00    +0.0278  H
ATOM     58 H58  CHE L   1       8.479  -0.419  -1.254  1.00  0.00    +0.0278  H
ATOM     59 H59  CHE L   1       9.050  -1.603  -0.067  1.00  0.00    +0.0278  H
ATOM     60 H60  CHE L   1       8.029  -0.490   1.734  1.00  0.00    +0.0426  H
ATOM     61 H61  CHE L   1       8.276   0.925   0.682  1.00  0.00    +0.0426  H
ENDBRANCH 46 49
ENDBRANCH 43 46
ENDBRANCH 40 43
ENDBRANCH 39 40
ENDBRANCH 10 39
TORSDOF 9
