ROOT
ATOM      1 C13  WH0 L   1      -2.639  -1.628  -0.460  1.00  0.00    -0.0133  A
ATOM      2 C14  WH0 L   1      -3.153  -2.643   0.379  1.00  0.00    -0.0519  A
ATOM      3 C15  WH0 L   1      -3.770  -3.777  -0.159  1.00  0.00    -0.0374  A
ATOM      4 C16  WH0 L   1      -3.856  -3.856  -1.533  1.00  0.00    +0.0454  A
ATOM      5 C17  WH0 L   1      -3.357  -2.865  -2.375  1.00  0.00    -0.0145  A
ATOM      6 C18  WH0 L   1      -2.743  -1.740  -1.857  1.00  0.00    -0.0483  A
ATOM      7 C19  WH0 L   1      -3.610  -3.250  -3.802  1.00  0.00    +0.0535  C
ATOM      8 C20  WH0 L   1      -4.307  -4.607  -3.649  1.00  0.00    +0.2296  C
ATOM      9 O21  WH0 L   1      -4.702  -5.329  -4.549  1.00  0.00    -0.2725 OA
ATOM     10 N22  WH0 L   1      -4.413  -4.873  -2.289  1.00  0.00    -0.3256  N
ATOM     11 H52  WH0 L   1      -3.065  -2.552   1.461  1.00  0.00    +0.0624  H
ATOM     12 H53  WH0 L   1      -4.160  -4.556   0.486  1.00  0.00    +0.0638  H
ATOM     13 H54  WH0 L   1      -2.358  -0.964  -2.513  1.00  0.00    +0.0627  H
ATOM     14 H55  WH0 L   1      -2.676  -3.374  -4.356  1.00  0.00    +0.0410  H
ATOM     15 H56  WH0 L   1      -4.288  -2.544  -4.289  1.00  0.00    +0.0410  H
ATOM     16 H57  WH0 L   1      -4.834  -5.717  -1.929  1.00  0.00    +0.1686 HD
ENDROOT
BRANCH 1 20
ATOM     17  C9  WH0 L   1       1.664  -0.175  -0.456  1.00  0.00    +0.0472  A
ATOM     18 C10  WH0 L   1       0.462  -0.761  -0.619  1.00  0.00    -0.0141  A
ATOM     19 C11  WH0 L   1      -0.664  -0.182   0.004  1.00  0.00    +0.0806  A
ATOM     20 C12  WH0 L   1      -2.008  -0.463   0.128  1.00  0.00    +0.0353  A
ATOM     21 C23  WH0 L   1      -2.521   0.557   0.990  1.00  0.00    +0.1015  A
ATOM     22 N31  WH0 L   1      -1.549   1.411   1.356  1.00  0.00    -0.1627 NA
ATOM     23 N32  WH0 L   1      -0.435   0.964   0.727  1.00  0.00    -0.1987  N
ATOM     24 C33  WH0 L   1       0.852   1.575   0.848  1.00  0.00    +0.2286  A
ATOM     25 N40  WH0 L   1       1.874   0.989   0.264  1.00  0.00    -0.2173 NA
ATOM     26 H51  WH0 L   1       0.351  -1.674  -1.195  1.00  0.00    +0.0657  H
BRANCH 17 27
ATOM     27  C8  WH0 L   1       2.904  -0.768  -1.088  1.00  0.00    -0.0086  C
ATOM     28 H49  WH0 L   1       3.436   0.024  -1.631  1.00  0.00    +0.0329  H
ATOM     29 H50  WH0 L   1       2.632  -1.523  -1.836  1.00  0.00    +0.0329  H
BRANCH 27 30
ATOM     30  C7  WH0 L   1       3.820  -1.402  -0.035  1.00  0.00    -0.0301  C
ATOM     31 H47  WH0 L   1       4.113  -0.653   0.712  1.00  0.00    +0.0286  H
ATOM     32 H48  WH0 L   1       3.270  -2.187   0.499  1.00  0.00    +0.0286  H
BRANCH 30 33
ATOM     33  C6  WH0 L   1       5.068  -2.018  -0.657  1.00  0.00    +0.0187  C
ATOM     34 H45  WH0 L   1       5.640  -2.549   0.112  1.00  0.00    +0.0486  H
ATOM     35 H46  WH0 L   1       4.799  -2.747  -1.430  1.00  0.00    +0.0486  H
BRANCH 33 38
ATOM     36  C3  WH0 L   1       6.904  -1.356  -2.141  1.00  0.00    +0.2443  C
ATOM     37  O4  WH0 L   1       7.043  -2.475  -2.619  1.00  0.00    -0.2683 OA
ATOM     38  N5  WH0 L   1       5.947  -1.015  -1.220  1.00  0.00    -0.3525  N
ATOM     39 H44  WH0 L   1       6.077  -0.158  -0.701  1.00  0.00    +0.1626 HD
BRANCH 36 41
ATOM     40  C1  WH0 L   1       7.577   1.038  -2.467  1.00  0.00    -0.0936  C
ATOM     41  C2  WH0 L   1       7.855  -0.272  -2.499  1.00  0.00    -0.0047  C
ATOM     42 H41  WH0 L   1       6.609   1.427  -2.173  1.00  0.00    +0.0536  H
ATOM     43 H42  WH0 L   1       8.325   1.761  -2.781  1.00  0.00    +0.0536  H
ATOM     44 H43  WH0 L   1       8.813  -0.627  -2.866  1.00  0.00    +0.0666  H
ENDBRANCH 36 41
ENDBRANCH 33 38
ENDBRANCH 30 33
ENDBRANCH 27 30
ENDBRANCH 17 27
BRANCH 21 45
ATOM     45 C24  WH0 L   1      -3.888   0.750   1.487  1.00  0.00    +0.0029  A
ATOM     46 C25  WH0 L   1      -4.095   1.257   2.782  1.00  0.00    -0.0498  A
ATOM     47 C26  WH0 L   1      -5.387   1.454   3.274  1.00  0.00    -0.0258  A
ATOM     48 C27  WH0 L   1      -6.477   1.147   2.469  1.00  0.00    +0.1234  A
ATOM     49 F28  WH0 L   1      -7.717   1.335   2.938  1.00  0.00    -0.2055  F
ATOM     50 C29  WH0 L   1      -6.299   0.649   1.184  1.00  0.00    -0.0258  A
ATOM     51 C30  WH0 L   1      -5.005   0.454   0.691  1.00  0.00    -0.0498  A
ATOM     52 H58  WH0 L   1      -3.244   1.505   3.415  1.00  0.00    +0.0625  H
ATOM     53 H59  WH0 L   1      -5.546   1.849   4.271  1.00  0.00    +0.0646  H
ATOM     54 H60  WH0 L   1      -7.166   0.425   0.570  1.00  0.00    +0.0646  H
ATOM     55 H61  WH0 L   1      -4.887   0.086  -0.325  1.00  0.00    +0.0625  H
ENDBRANCH 21 45
BRANCH 24 56
ATOM     56 N34  WH0 L   1       1.050   2.750   1.576  1.00  0.00    -0.3359  N
ATOM     57 C35  WH0 L   1       2.411   3.185   1.921  1.00  0.00    +0.0449  C
ATOM     58 C36  WH0 L   1       2.377   4.077   3.169  1.00  0.00    +0.0653  C
ATOM     59 O37  WH0 L   1       1.588   5.264   3.014  1.00  0.00    -0.3763 OA
ATOM     60 C38  WH0 L   1       0.573   5.143   2.010  1.00  0.00    +0.0653  C
ATOM     61 C39  WH0 L   1      -0.008   3.725   1.880  1.00  0.00    +0.0449  C
ATOM     62 H62  WH0 L   1       2.836   3.734   1.073  1.00  0.00    +0.0511  H
ATOM     63 H63  WH0 L   1       3.054   2.322   2.131  1.00  0.00    +0.0511  H
ATOM     64 H64  WH0 L   1       1.969   3.520   4.021  1.00  0.00    +0.0577  H
ATOM     65 H65  WH0 L   1       3.391   4.389   3.440  1.00  0.00    +0.0577  H
ATOM     66 H66  WH0 L   1      -0.222   5.854   2.257  1.00  0.00    +0.0577  H
ATOM     67 H67  WH0 L   1       1.009   5.464   1.056  1.00  0.00    +0.0577  H
ATOM     68 H68  WH0 L   1      -0.755   3.755   1.081  1.00  0.00    +0.0511  H
ATOM     69 H69  WH0 L   1      -0.490   3.442   2.822  1.00  0.00    +0.0511  H
ENDBRANCH 24 56
ENDBRANCH 1 20
TORSDOF 8
