ROOT
ATOM      1  C1  DEV L   1       7.448  -0.050   0.667  1.00  0.00    -0.0617  A
ATOM      2  C2  DEV L   1       6.585   0.905   1.213  1.00  0.00    -0.0615  A
ATOM      3  C3  DEV L   1       5.201   0.734   1.118  1.00  0.00    -0.0578  A
ATOM      4  C4  DEV L   1       4.670  -0.401   0.483  1.00  0.00    -0.0376  A
ATOM      5  C5  DEV L   1       5.543  -1.349  -0.077  1.00  0.00    -0.0578  A
ATOM      6  C6  DEV L   1       6.927  -1.174   0.021  1.00  0.00    -0.0615  A
ATOM      7 H27  DEV L   1       8.519   0.085   0.741  1.00  0.00    +0.0618  H
ATOM      8 H28  DEV L   1       6.990   1.779   1.708  1.00  0.00    +0.0618  H
ATOM      9 H29  DEV L   1       4.543   1.486   1.537  1.00  0.00    +0.0621  H
ATOM     10 H30  DEV L   1       5.153  -2.220  -0.588  1.00  0.00    +0.0621  H
ATOM     11 H31  DEV L   1       7.596  -1.909  -0.408  1.00  0.00    +0.0618  H
ENDROOT
BRANCH 4 12
ATOM     12  C7  DEV L   1       3.184  -0.567   0.349  1.00  0.00    +0.0188  C
ATOM     13 H32  DEV L   1       2.674  -0.118   1.227  1.00  0.00    +0.0425  H
ATOM     14 H33  DEV L   1       2.924  -1.647   0.319  1.00  0.00    +0.0425  H
BRANCH 12 15
ATOM     15  S8  DEV L   1       2.621   0.241  -1.188  1.00  0.00    -0.1560 SA
BRANCH 15 16
ATOM     16  C9  DEV L   1       0.840  -0.086  -0.938  1.00  0.00    -0.0050  C
ATOM     17 H34  DEV L   1       0.704  -1.057  -0.420  1.00  0.00    +0.0377  H
ATOM     18 H35  DEV L   1       0.374  -0.151  -1.942  1.00  0.00    +0.0377  H
BRANCH 16 19
ATOM     19 C10  DEV L   1       0.198   1.051  -0.134  1.00  0.00    -0.0321  C
ATOM     20 H36  DEV L   1       0.439   2.021  -0.618  1.00  0.00    +0.0284  H
ATOM     21 H37  DEV L   1       0.663   1.083   0.874  1.00  0.00    +0.0284  H
BRANCH 19 22
ATOM     22 C11  DEV L   1      -1.333   0.931   0.047  1.00  0.00    +0.0063  C
ATOM     23 H38  DEV L   1      -1.630   1.804   0.664  1.00  0.00    +0.0412  H
BRANCH 22 24
ATOM     24 C12  DEV L   1      -2.160   1.013  -1.262  1.00  0.00    -0.0411  C
ATOM     25 H39  DEV L   1      -1.908   0.168  -1.931  1.00  0.00    +0.0276  H
ATOM     26 H40  DEV L   1      -3.237   0.906  -1.015  1.00  0.00    +0.0276  H
BRANCH 24 27
ATOM     27 C13  DEV L   1      -1.962   2.306  -2.082  1.00  0.00    -0.0516  C
ATOM     28 H41  DEV L   1      -0.922   2.341  -2.470  1.00  0.00    +0.0266  H
ATOM     29 H42  DEV L   1      -2.623   2.254  -2.975  1.00  0.00    +0.0266  H
BRANCH 27 30
ATOM     30 C14  DEV L   1      -2.258   3.617  -1.333  1.00  0.00    -0.0430  C
ATOM     31 H43  DEV L   1      -1.544   3.754  -0.493  1.00  0.00    +0.0270  H
ATOM     32 H44  DEV L   1      -2.083   4.456  -2.043  1.00  0.00    +0.0270  H
BRANCH 30 33
ATOM     33 C15  DEV L   1      -3.701   3.699  -0.819  1.00  0.00    +0.0448  C
ATOM     34 H45  DEV L   1      -3.873   2.937  -0.030  1.00  0.00    +0.0377  H
ATOM     35 H46  DEV L   1      -4.411   3.506  -1.653  1.00  0.00    +0.0377  H
BRANCH 33 36
ATOM     36 C16  DEV L   1      -3.976   5.055  -0.249  1.00  0.00    +0.3047  C
ATOM     37 O17  DEV L   1      -3.728   5.292   0.963  1.00  0.00    -0.2510 OA
ATOM     38 O18  DEV L   1      -4.463   6.066  -1.071  1.00  0.00    -0.4806 OA
ATOM     39 H47  DEV L   1      -4.639   6.994  -0.704  1.00  0.00    +0.2951 HD
ENDBRANCH 33 36
ENDBRANCH 30 33
ENDBRANCH 27 30
ENDBRANCH 24 27
ENDBRANCH 22 24
BRANCH 22 40
ATOM     40 S19  DEV L   1      -1.772  -0.500   1.129  1.00  0.00    -0.1527 SA
BRANCH 40 41
ATOM     41 C20  DEV L   1      -2.155  -1.788  -0.112  1.00  0.00    +0.0191  C
ATOM     42 H48  DEV L   1      -1.389  -1.821  -0.910  1.00  0.00    +0.0425  H
ATOM     43 H49  DEV L   1      -3.134  -1.563  -0.586  1.00  0.00    +0.0425  H
BRANCH 41 44
ATOM     44 C21  DEV L   1      -2.214  -3.123   0.571  1.00  0.00    -0.0375  A
ATOM     45 C22  DEV L   1      -1.041  -3.877   0.748  1.00  0.00    -0.0578  A
ATOM     46 C23  DEV L   1      -1.088  -5.105   1.415  1.00  0.00    -0.0615  A
ATOM     47 C24  DEV L   1      -2.301  -5.583   1.917  1.00  0.00    -0.0617  A
ATOM     48 C25  DEV L   1      -3.469  -4.832   1.758  1.00  0.00    -0.0615  A
ATOM     49 C26  DEV L   1      -3.427  -3.603   1.092  1.00  0.00    -0.0578  A
ATOM     50 H50  DEV L   1      -0.093  -3.513   0.373  1.00  0.00    +0.0621  H
ATOM     51 H51  DEV L   1      -0.183  -5.684   1.546  1.00  0.00    +0.0618  H
ATOM     52 H52  DEV L   1      -2.336  -6.534   2.434  1.00  0.00    +0.0618  H
ATOM     53 H53  DEV L   1      -4.407  -5.200   2.153  1.00  0.00    +0.0618  H
ATOM     54 H54  DEV L   1      -4.337  -3.027   0.983  1.00  0.00    +0.0621  H
ENDBRANCH 41 44
ENDBRANCH 40 41
ENDBRANCH 22 40
ENDBRANCH 19 22
ENDBRANCH 16 19
ENDBRANCH 15 16
ENDBRANCH 12 15
ENDBRANCH 4 12
TORSDOF 13
