ROOT
ATOM      1  C3  EUB L   1       7.350   0.575  -0.056  1.00  0.00    +0.0869  A
ATOM      2  C4  EUB L   1       6.649   1.577   0.625  1.00  0.00    -0.0404  A
ATOM      3  C5  EUB L   1       5.266   1.464   0.804  1.00  0.00    -0.0449  A
ATOM      4  C6  EUB L   1       4.582   0.351   0.304  1.00  0.00    +0.0277  A
ATOM      5 C22  EUB L   1       5.279  -0.649  -0.375  1.00  0.00    -0.0098  A
ATOM      6 C23  EUB L   1       6.656  -0.529  -0.549  1.00  0.00    +0.1418  A
ATOM      7 F24  EUB L   1       7.307  -1.501  -1.205  1.00  0.00    -0.2041  F
ATOM      8 H25  EUB L   1       7.170   2.448   1.019  1.00  0.00    +0.0632  H
ATOM      9 H26  EUB L   1       4.727   2.247   1.334  1.00  0.00    +0.0630  H
ATOM     10 H41  EUB L   1       4.768  -1.522  -0.772  1.00  0.00    +0.0659  H
ENDROOT
BRANCH 1 12
ATOM     11  N1  EUB L   1       9.911   0.803  -0.375  1.00  0.00    -0.1908 NA
ATOM     12  C2  EUB L   1       8.764   0.683  -0.243  1.00  0.00    +0.1020  C
ENDBRANCH 1 12
BRANCH 4 13
ATOM     13  C7  EUB L   1       3.168   0.237   0.488  1.00  0.00    -0.0661  C
ATOM     14  C8  EUB L   1       1.981   0.128   0.635  1.00  0.00    -0.0939  C
BRANCH 14 15
ATOM     15  C9  EUB L   1       0.526  -0.026   0.803  1.00  0.00    +0.0430  C
ATOM     16 H27  EUB L   1       0.117   0.917   1.188  1.00  0.00    +0.0428  H
ATOM     17 H28  EUB L   1       0.323  -0.785   1.570  1.00  0.00    +0.0428  H
BRANCH 15 18
ATOM     18 C10  EUB L   1      -0.181  -0.388  -0.512  1.00  0.00    +0.1274  C
ATOM     19 H29  EUB L   1       0.110   0.331  -1.289  1.00  0.00    +0.0691  H
BRANCH 18 20
ATOM     20 C11  EUB L   1       0.208  -1.748  -0.955  1.00  0.00    +0.0882  C
ATOM     21 N12  EUB L   1       0.498  -2.828  -1.272  1.00  0.00    -0.1944 NA
ENDBRANCH 18 20
BRANCH 18 22
ATOM     22 N13  EUB L   1      -1.629  -0.311  -0.337  1.00  0.00    -0.3385  N
ATOM     23 C14  EUB L   1      -2.459  -0.034  -1.403  1.00  0.00    +0.2390  C
ATOM     24 O15  EUB L   1      -2.057   0.413  -2.472  1.00  0.00    -0.2715 OA
ATOM     25 H30  EUB L   1      -2.079  -0.916   0.351  1.00  0.00    +0.1636 HD
BRANCH 23 26
ATOM     26 C16  EUB L   1      -3.950  -0.282  -1.096  1.00  0.00    +0.0869  C
ATOM     27 C17  EUB L   1      -4.617   1.022  -0.628  1.00  0.00    -0.0288  C
ATOM     28 C18  EUB L   1      -4.587   1.168   0.890  1.00  0.00    -0.0500  C
ATOM     29 C19  EUB L   1      -5.199  -0.049   1.587  1.00  0.00    -0.0404  C
ATOM     30 C20  EUB L   1      -5.261  -1.288   0.693  1.00  0.00    -0.0034  C
ATOM     31 N21  EUB L   1      -4.049  -1.399  -0.112  1.00  0.00    -0.3055 NA
ATOM     32 H31  EUB L   1      -4.415  -0.606  -2.036  1.00  0.00    +0.0558  H
ATOM     33 H32  EUB L   1      -4.140   1.895  -1.087  1.00  0.00    +0.0285  H
ATOM     34 H33  EUB L   1      -5.665   1.025  -0.955  1.00  0.00    +0.0285  H
ATOM     35 H34  EUB L   1      -5.116   2.078   1.196  1.00  0.00    +0.0266  H
ATOM     36 H35  EUB L   1      -3.549   1.291   1.222  1.00  0.00    +0.0266  H
ATOM     37 H36  EUB L   1      -4.617  -0.266   2.491  1.00  0.00    +0.0277  H
ATOM     38 H37  EUB L   1      -6.215   0.192   1.924  1.00  0.00    +0.0277  H
ATOM     39 H38  EUB L   1      -6.148  -1.259   0.047  1.00  0.00    +0.0424  H
ATOM     40 H39  EUB L   1      -5.363  -2.178   1.324  1.00  0.00    +0.0424  H
ATOM     41 H40  EUB L   1      -4.065  -2.279  -0.633  1.00  0.00    +0.1226 HD
ENDBRANCH 23 26
ENDBRANCH 18 22
ENDBRANCH 15 18
ENDBRANCH 14 15
ENDBRANCH 4 13
TORSDOF 7
