ROOT
ATOM      1  C9  CHE L   1      -2.049   0.235  -0.234  1.00  0.00    +0.0338  C
ATOM      2 C10  CHE L   1      -1.541   0.097   1.218  1.00  0.00    -0.0113  C
ATOM      3 C11  CHE L   1      -0.021  -0.119   1.312  1.00  0.00    +0.0425  C
ATOM      4 C12  CHE L   1       0.320  -1.616   1.299  1.00  0.00    -0.0298  C
ATOM      5 C13  CHE L   1       0.549  -1.966  -0.169  1.00  0.00    -0.0298  C
ATOM      6 C14  CHE L   1       0.260  -0.672  -0.939  1.00  0.00    +0.0425  C
ATOM      7 C15  CHE L   1      -1.237  -0.557  -1.281  1.00  0.00    -0.0113  C
ATOM      8 N16  CHE L   1       0.555   0.376   0.050  1.00  0.00    -0.2946 NA
ATOM      9 H37  CHE L   1      -1.958   1.299  -0.497  1.00  0.00    +0.0524  H
ATOM     10 H38  CHE L   1      -2.077  -0.698   1.752  1.00  0.00    +0.0305  H
ATOM     11 H39  CHE L   1      -1.795   1.023   1.751  1.00  0.00    +0.0305  H
ATOM     12 H40  CHE L   1       0.381   0.367   2.205  1.00  0.00    +0.0532  H
ATOM     13 H41  CHE L   1       1.239  -1.803   1.866  1.00  0.00    +0.0286  H
ATOM     14 H42  CHE L   1      -0.459  -2.238   1.751  1.00  0.00    +0.0286  H
ATOM     15 H43  CHE L   1       1.594  -2.265  -0.312  1.00  0.00    +0.0286  H
ATOM     16 H44  CHE L   1      -0.069  -2.809  -0.495  1.00  0.00    +0.0286  H
ATOM     17 H45  CHE L   1       0.865  -0.612  -1.847  1.00  0.00    +0.0532  H
ATOM     18 H46  CHE L   1      -1.340  -0.036  -2.243  1.00  0.00    +0.0305  H
ATOM     19 H47  CHE L   1      -1.670  -1.551  -1.448  1.00  0.00    +0.0305  H
ENDROOT
BRANCH 1 22
ATOM     20  C6  CHE L   1      -4.461   0.752   0.126  1.00  0.00    +0.2739  C
ATOM     21  O7  CHE L   1      -4.250   1.874   0.574  1.00  0.00    -0.2658 OA
ATOM     22  N8  CHE L   1      -3.466  -0.089  -0.331  1.00  0.00    -0.3478  N
ATOM     23 H36  CHE L   1      -3.763  -1.032  -0.568  1.00  0.00    +0.1629 HD
BRANCH 20 26
ATOM     24  C3  CHE L   1      -7.989  -0.140   0.144  1.00  0.00    +0.1378  A
ATOM     25  C4  CHE L   1      -7.028   0.806   0.400  1.00  0.00    +0.0129  A
ATOM     26  C5  CHE L   1      -5.806   0.180   0.046  1.00  0.00    +0.1701  A
ATOM     27 N28  CHE L   1      -6.023  -1.075  -0.391  1.00  0.00    -0.0732 NA
ATOM     28 O29  CHE L   1      -7.392  -1.268  -0.327  1.00  0.00    -0.3589 OA
ATOM     29 H35  CHE L   1      -7.168   1.806   0.784  1.00  0.00    +0.0676  H
BRANCH 24 31
ATOM     30  C1  CHE L   1     -10.145   0.199  -1.036  1.00  0.00    -0.0583  C
ATOM     31  C2  CHE L   1      -9.464  -0.172   0.272  1.00  0.00    +0.0054  C
ATOM     32 H30  CHE L   1      -9.872  -0.498  -1.836  1.00  0.00    +0.0234  H
ATOM     33 H31  CHE L   1     -11.233   0.171  -0.918  1.00  0.00    +0.0234  H
ATOM     34 H32  CHE L   1      -9.863   1.207  -1.358  1.00  0.00    +0.0234  H
ATOM     35 H33  CHE L   1      -9.788  -1.172   0.583  1.00  0.00    +0.0342  H
ATOM     36 H34  CHE L   1      -9.781   0.523   1.058  1.00  0.00    +0.0342  H
ENDBRANCH 24 31
ENDBRANCH 20 26
ENDBRANCH 1 22
BRANCH 8 37
ATOM     37 S17  CHE L   1       1.943   1.300  -0.006  1.00  0.00    +0.2330  S
ATOM     38 O18  CHE L   1       2.137   1.683  -1.388  1.00  0.00    -0.2053 OA
ATOM     39 O19  CHE L   1       1.836   2.293   1.041  1.00  0.00    -0.2053 OA
BRANCH 37 40
ATOM     40 C20  CHE L   1       3.245   0.152   0.449  1.00  0.00    +0.0716  C
ATOM     41 H48  CHE L   1       2.938  -0.295   1.399  1.00  0.00    +0.0446  H
ATOM     42 H49  CHE L   1       3.294  -0.624  -0.320  1.00  0.00    +0.0446  H
BRANCH 40 43
ATOM     43 C21  CHE L   1       4.610   0.835   0.633  1.00  0.00    -0.0234  C
ATOM     44 C22  CHE L   1       5.159   1.396  -0.693  1.00  0.00    -0.0364  C
ATOM     45 C23  CHE L   1       6.682   1.509  -0.668  1.00  0.00    -0.0011  C
ATOM     46 N24  CHE L   1       7.358   0.221  -0.455  1.00  0.00    -0.3053 NA
ATOM     47 C25  CHE L   1       7.897  -0.326  -1.698  1.00  0.00    -0.0128  C
ATOM     48 C26  CHE L   1       6.536  -0.777   0.240  1.00  0.00    -0.0011  C
ATOM     49 C27  CHE L   1       5.619  -0.135   1.280  1.00  0.00    -0.0364  C
ATOM     50 H50  CHE L   1       4.480   1.673   1.331  1.00  0.00    +0.0312  H
ATOM     51 H51  CHE L   1       4.726   2.386  -0.879  1.00  0.00    +0.0280  H
ATOM     52 H52  CHE L   1       4.862   0.759  -1.537  1.00  0.00    +0.0280  H
ATOM     53 H53  CHE L   1       7.033   2.001  -1.584  1.00  0.00    +0.0426  H
ATOM     54 H54  CHE L   1       6.971   2.178   0.153  1.00  0.00    +0.0426  H
ATOM     55 H55  CHE L   1       7.111  -0.510  -2.439  1.00  0.00    +0.0391  H
ATOM     56 H56  CHE L   1       8.422  -1.269  -1.511  1.00  0.00    +0.0391  H
ATOM     57 H57  CHE L   1       8.631   0.360  -2.134  1.00  0.00    +0.0391  H
ATOM     58 H58  CHE L   1       7.198  -1.495   0.737  1.00  0.00    +0.0426  H
ATOM     59 H59  CHE L   1       5.918  -1.346  -0.468  1.00  0.00    +0.0426  H
ATOM     60 H60  CHE L   1       5.106  -0.915   1.855  1.00  0.00    +0.0280  H
ATOM     61 H61  CHE L   1       6.234   0.418   2.005  1.00  0.00    +0.0280  H
ENDBRANCH 40 43
ENDBRANCH 37 40
ENDBRANCH 8 37
TORSDOF 6
