ROOT
ATOM      1  C9  WH0 L   1       4.063  -1.499   0.694  1.00  0.00    -0.0453  A
ATOM      2 C10  WH0 L   1       3.308  -0.726  -0.217  1.00  0.00    -0.0580  A
ATOM      3 C11  WH0 L   1       1.919  -0.605  -0.091  1.00  0.00    -0.0507  A
ATOM      4 C12  WH0 L   1       1.289  -1.270   0.948  1.00  0.00    +0.0442  A
ATOM      5 C13  WH0 L   1       2.040  -2.033   1.843  1.00  0.00    +0.0509  A
ATOM      6 C14  WH0 L   1       3.411  -2.168   1.741  1.00  0.00    -0.0347  A
ATOM      7 N15  WH0 L   1       1.228  -2.598   2.812  1.00  0.00    -0.3210  N
ATOM      8 C16  WH0 L   1      -0.104  -2.243   2.622  1.00  0.00    +0.2902  C
ATOM      9 O17  WH0 L   1      -1.026  -2.587   3.349  1.00  0.00    -0.2665 OA
ATOM     10 C18  WH0 L   1      -0.177  -1.324   1.324  1.00  0.00    +0.2804  C
ATOM     11 O19  WH0 L   1      -0.640  -0.005   1.605  1.00  0.00    -0.3368 OA
ATOM     12 C20  WH0 L   1      -2.063   0.019   1.667  1.00  0.00    +0.0637  C
ATOM     13 C21  WH0 L   1      -2.645  -0.266   0.278  1.00  0.00    +0.0644  C
ATOM     14 C22  WH0 L   1      -2.949   1.039  -0.458  1.00  0.00    +0.0637  C
ATOM     15 O23  WH0 L   1      -3.574   0.800  -1.707  1.00  0.00    -0.3368 OA
ATOM     16 C24  WH0 L   1      -4.739  -0.019  -1.634  1.00  0.00    +0.2804  C
ATOM     17 O25  WH0 L   1      -4.611  -1.195  -0.841  1.00  0.00    -0.3368 OA
ATOM     18 C26  WH0 L   1      -3.977  -1.004   0.414  1.00  0.00    +0.0637  C
ATOM     19 C27  WH0 L   1      -4.993  -0.519  -3.118  1.00  0.00    +0.2902  C
ATOM     20 O28  WH0 L   1      -4.253  -1.189  -3.827  1.00  0.00    -0.2665 OA
ATOM     21 N29  WH0 L   1      -6.242  -0.049  -3.513  1.00  0.00    -0.3210  N
ATOM     22 C30  WH0 L   1      -6.842   0.688  -2.508  1.00  0.00    +0.0507  A
ATOM     23 C31  WH0 L   1      -8.080   1.294  -2.571  1.00  0.00    -0.0378  A
ATOM     24 C32  WH0 L   1      -8.512   1.994  -1.444  1.00  0.00    -0.0598  A
ATOM     25 C33  WH0 L   1      -7.705   2.069  -0.297  1.00  0.00    -0.0612  A
ATOM     26 C34  WH0 L   1      -6.453   1.445  -0.258  1.00  0.00    -0.0510  A
ATOM     27 C35  WH0 L   1      -6.021   0.750  -1.378  1.00  0.00    +0.0441  A
ATOM     28 C36  WH0 L   1      -1.635  -1.093  -0.537  1.00  0.00    +0.0637  C
ATOM     29 O37  WH0 L   1      -0.924  -1.994   0.309  1.00  0.00    -0.3368 OA
ATOM     30 H48  WH0 L   1       3.805  -0.215  -1.040  1.00  0.00    +0.0620  H
ATOM     31 H49  WH0 L   1       1.356  -0.003  -0.796  1.00  0.00    +0.0623  H
ATOM     32 H50  WH0 L   1       3.966  -2.775   2.448  1.00  0.00    +0.0641  H
ATOM     33 H51  WH0 L   1       1.534  -3.186   3.572  1.00  0.00    +0.1688 HD
ATOM     34 H52  WH0 L   1      -2.413  -0.699   2.417  1.00  0.00    +0.0569  H
ATOM     35 H53  WH0 L   1      -2.363   1.008   2.031  1.00  0.00    +0.0569  H
ATOM     36 H54  WH0 L   1      -3.583   1.703   0.140  1.00  0.00    +0.0569  H
ATOM     37 H55  WH0 L   1      -2.026   1.598  -0.653  1.00  0.00    +0.0569  H
ATOM     38 H56  WH0 L   1      -3.823  -1.997   0.853  1.00  0.00    +0.0569  H
ATOM     39 H57  WH0 L   1      -4.662  -0.474   1.084  1.00  0.00    +0.0569  H
ATOM     40 H58  WH0 L   1      -6.628  -0.240  -4.425  1.00  0.00    +0.1688 HD
ATOM     41 H59  WH0 L   1      -8.701   1.232  -3.457  1.00  0.00    +0.0638  H
ATOM     42 H60  WH0 L   1      -9.482   2.486  -1.452  1.00  0.00    +0.0618  H
ATOM     43 H61  WH0 L   1      -8.061   2.619   0.572  1.00  0.00    +0.0618  H
ATOM     44 H62  WH0 L   1      -5.850   1.514   0.640  1.00  0.00    +0.0623  H
ATOM     45 H63  WH0 L   1      -2.126  -1.689  -1.313  1.00  0.00    +0.0569  H
ATOM     46 H64  WH0 L   1      -0.912  -0.453  -1.055  1.00  0.00    +0.0569  H
ENDROOT
BRANCH 1 47
ATOM     47  C8  WH0 L   1       5.562  -1.604   0.536  1.00  0.00    -0.0260  C
ATOM     48 H46  WH0 L   1       5.822  -2.668   0.465  1.00  0.00    +0.0314  H
ATOM     49 H47  WH0 L   1       5.873  -1.162  -0.419  1.00  0.00    +0.0314  H
BRANCH 47 50
ATOM     50  C7  WH0 L   1       6.358  -0.970   1.683  1.00  0.00    -0.0315  C
ATOM     51 H44  WH0 L   1       6.121  -1.477   2.627  1.00  0.00    +0.0285  H
ATOM     52 H45  WH0 L   1       7.424  -1.149   1.496  1.00  0.00    +0.0285  H
BRANCH 50 53
ATOM     53  C6  WH0 L   1       6.119   0.530   1.868  1.00  0.00    +0.0187  C
ATOM     54 H42  WH0 L   1       6.732   0.890   2.702  1.00  0.00    +0.0486  H
ATOM     55 H43  WH0 L   1       5.073   0.738   2.115  1.00  0.00    +0.0486  H
BRANCH 53 58
ATOM     56  C3  WH0 L   1       7.743   1.618   0.368  1.00  0.00    +0.2443  C
ATOM     57  O4  WH0 L   1       8.724   1.267   1.013  1.00  0.00    -0.2683 OA
ATOM     58  N5  WH0 L   1       6.449   1.311   0.694  1.00  0.00    -0.3525  N
ATOM     59 H41  WH0 L   1       5.708   1.520   0.042  1.00  0.00    +0.1626 HD
BRANCH 56 61
ATOM     60  C1  WH0 L   1       7.022   3.211  -1.436  1.00  0.00    -0.0936  C
ATOM     61  C2  WH0 L   1       7.922   2.378  -0.895  1.00  0.00    -0.0047  C
ATOM     62 H38  WH0 L   1       7.262   3.751  -2.347  1.00  0.00    +0.0536  H
ATOM     63 H39  WH0 L   1       6.056   3.411  -0.986  1.00  0.00    +0.0536  H
ATOM     64 H40  WH0 L   1       8.903   2.261  -1.344  1.00  0.00    +0.0666  H
ENDBRANCH 56 61
ENDBRANCH 53 58
ENDBRANCH 50 53
ENDBRANCH 47 50
ENDBRANCH 1 47
TORSDOF 5
