ROOT
ATOM      1 C12  WH0 L   1       0.036   2.543   0.938  1.00  0.00    -0.0133  A
ATOM      2 C13  WH0 L   1       0.566   2.684   2.243  1.00  0.00    -0.0519  A
ATOM      3 C14  WH0 L   1       1.508   3.673   2.538  1.00  0.00    -0.0374  A
ATOM      4 C15  WH0 L   1       1.900   4.495   1.506  1.00  0.00    +0.0454  A
ATOM      5 C16  WH0 L   1       1.388   4.377   0.216  1.00  0.00    -0.0145  A
ATOM      6 C17  WH0 L   1       0.449   3.408  -0.087  1.00  0.00    -0.0483  A
ATOM      7 C18  WH0 L   1       2.030   5.403  -0.670  1.00  0.00    +0.0535  C
ATOM      8 C19  WH0 L   1       2.988   6.108   0.298  1.00  0.00    +0.2296  C
ATOM      9 O20  WH0 L   1       3.756   7.016   0.033  1.00  0.00    -0.2725 OA
ATOM     10 N21  WH0 L   1       2.832   5.517   1.546  1.00  0.00    -0.3256  N
ATOM     11 H50  WH0 L   1       0.255   2.000   3.031  1.00  0.00    +0.0624  H
ATOM     12 H51  WH0 L   1       1.919   3.773   3.536  1.00  0.00    +0.0638  H
ATOM     13 H52  WH0 L   1       0.058   3.317  -1.096  1.00  0.00    +0.0627  H
ATOM     14 H53  WH0 L   1       2.599   4.929  -1.474  1.00  0.00    +0.0410  H
ATOM     15 H54  WH0 L   1       1.298   6.119  -1.049  1.00  0.00    +0.0410  H
ATOM     16 H55  WH0 L   1       3.364   5.800   2.353  1.00  0.00    +0.1686 HD
ENDROOT
BRANCH 1 22
ATOM     17  C6  WH0 L   1      -3.879  -0.456   1.238  1.00  0.00    +0.2282  A
ATOM     18  N7  WH0 L   1      -4.509   0.164   2.215  1.00  0.00    -0.2207 NA
ATOM     19  C8  WH0 L   1      -3.978   1.329   2.717  1.00  0.00    +0.0334  A
ATOM     20  C9  WH0 L   1      -2.831   1.901   2.321  1.00  0.00    -0.0173  A
ATOM     21 C10  WH0 L   1      -2.093   1.267   1.299  1.00  0.00    +0.0803  A
ATOM     22 C11  WH0 L   1      -0.894   1.466   0.648  1.00  0.00    +0.0353  A
ATOM     23 C22  WH0 L   1      -0.833   0.418  -0.324  1.00  0.00    +0.1015  A
ATOM     24 N37  WH0 L   1      -1.908  -0.382  -0.254  1.00  0.00    -0.1627 NA
ATOM     25 N38  WH0 L   1      -2.655   0.126   0.760  1.00  0.00    -0.1987  N
ATOM     26 H48  WH0 L   1      -4.565   1.800   3.503  1.00  0.00    +0.0831  H
ATOM     27 H49  WH0 L   1      -2.484   2.825   2.769  1.00  0.00    +0.0654  H
BRANCH 17 32
ATOM     28  N1  WH0 L   1      -6.133  -5.363  -0.217  1.00  0.00    -0.3271 NA
ATOM     29  C2  WH0 L   1      -5.040  -4.461   0.163  1.00  0.00    +0.0080  C
ATOM     30  C3  WH0 L   1      -4.810  -3.444  -0.955  1.00  0.00    -0.0199  C
ATOM     31  C4  WH0 L   1      -3.897  -2.314  -0.486  1.00  0.00    +0.0228  C
ATOM     32  N5  WH0 L   1      -4.403  -1.655   0.723  1.00  0.00    -0.3402  N
ATOM     33 C39  WH0 L   1      -5.564  -2.284   1.367  1.00  0.00    +0.0228  C
ATOM     34 C40  WH0 L   1      -5.335  -3.785   1.505  1.00  0.00    -0.0199  C
ATOM     35 H41  WH0 L   1      -5.919  -5.822  -1.102  1.00  0.00    +0.1185 HD
ATOM     36 H42  WH0 L   1      -6.223  -6.107   0.476  1.00  0.00    +0.1185 HD
ATOM     37 H43  WH0 L   1      -4.137  -5.071   0.281  1.00  0.00    +0.0459  H
ATOM     38 H44  WH0 L   1      -4.367  -3.938  -1.829  1.00  0.00    +0.0297  H
ATOM     39 H45  WH0 L   1      -5.764  -3.019  -1.293  1.00  0.00    +0.0297  H
ATOM     40 H46  WH0 L   1      -2.904  -2.727  -0.283  1.00  0.00    +0.0489  H
ATOM     41 H47  WH0 L   1      -3.824  -1.591  -1.306  1.00  0.00    +0.0489  H
ATOM     42 H66  WH0 L   1      -5.736  -1.887   2.375  1.00  0.00    +0.0489  H
ATOM     43 H67  WH0 L   1      -6.471  -2.072   0.787  1.00  0.00    +0.0489  H
ATOM     44 H68  WH0 L   1      -6.198  -4.240   2.010  1.00  0.00    +0.0297  H
ATOM     45 H69  WH0 L   1      -4.482  -3.953   2.175  1.00  0.00    +0.0297  H
ENDBRANCH 17 32
BRANCH 23 46
ATOM     46 C23  WH0 L   1       0.211   0.164  -1.315  1.00  0.00    +0.0032  A
ATOM     47 C24  WH0 L   1      -0.138  -0.023  -2.660  1.00  0.00    -0.0498  A
ATOM     48 C25  WH0 L   1       0.854  -0.218  -3.622  1.00  0.00    -0.0256  A
ATOM     49 C26  WH0 L   1       2.192  -0.233  -3.238  1.00  0.00    +0.1266  A
ATOM     50 F27  WH0 L   1       3.129  -0.405  -4.181  1.00  0.00    -0.2052  F
ATOM     51 C28  WH0 L   1       2.569  -0.069  -1.903  1.00  0.00    -0.0099  A
ATOM     52 C36  WH0 L   1       1.564   0.129  -0.942  1.00  0.00    -0.0465  A
ATOM     53 H56  WH0 L   1      -1.185  -0.006  -2.962  1.00  0.00    +0.0625  H
ATOM     54 H57  WH0 L   1       0.592  -0.354  -4.666  1.00  0.00    +0.0646  H
ATOM     55 H65  WH0 L   1       1.838   0.251   0.105  1.00  0.00    +0.0628  H
BRANCH 51 56
ATOM     56 C29  WH0 L   1       4.022  -0.092  -1.499  1.00  0.00    -0.0074  C
ATOM     57 H58  WH0 L   1       4.116   0.187  -0.441  1.00  0.00    +0.0331  H
ATOM     58 H59  WH0 L   1       4.557   0.687  -2.056  1.00  0.00    +0.0331  H
BRANCH 56 59
ATOM     59 C30  WH0 L   1       4.683  -1.454  -1.735  1.00  0.00    +0.0222  C
ATOM     60 H60  WH0 L   1       4.102  -2.251  -1.256  1.00  0.00    +0.0489  H
ATOM     61 H61  WH0 L   1       4.739  -1.684  -2.805  1.00  0.00    +0.0489  H
BRANCH 59 62
ATOM     62 N31  WH0 L   1       6.042  -1.498  -1.224  1.00  0.00    -0.3547  N
ATOM     63 C32  WH0 L   1       6.304  -1.712   0.114  1.00  0.00    +0.2356  C
ATOM     64 O33  WH0 L   1       5.423  -1.971   0.931  1.00  0.00    -0.2720 OA
ATOM     65 H62  WH0 L   1       6.785  -1.103  -1.793  1.00  0.00    +0.1623 HD
BRANCH 63 66
ATOM     66 C34  WH0 L   1       7.771  -1.696   0.500  1.00  0.00    +0.1010  C
ATOM     67 CL35 WH0 L   1       8.608  -0.315  -0.249  1.00  0.00    -0.1154 Cl
ATOM     68 H63  WH0 L   1       8.247  -2.624   0.167  1.00  0.00    +0.0527  H
ATOM     69 H64  WH0 L   1       7.865  -1.603   1.586  1.00  0.00    +0.0527  H
ENDBRANCH 63 66
ENDBRANCH 59 62
ENDBRANCH 56 59
ENDBRANCH 51 56
ENDBRANCH 23 46
ENDBRANCH 1 22
TORSDOF 7
