ROOT
ATOM      1  C1  CHE L   1       1.194  -3.582   0.451  1.00  0.00    -0.0389  C
ATOM      2  C2  CHE L   1       1.482  -2.105   0.462  1.00  0.00    -0.0369  A
ATOM      3  C3  CHE L   1       0.631  -1.270   1.209  1.00  0.00    -0.0502  A
ATOM      4  C4  CHE L   1       0.846   0.109   1.270  1.00  0.00    -0.0134  A
ATOM      5 C22  CHE L   1       1.924   0.670   0.582  1.00  0.00    -0.0442  A
ATOM      6 C23  CHE L   1       2.771  -0.140  -0.186  1.00  0.00    +0.0124  A
ATOM      7 C24  CHE L   1       3.901   0.428  -0.967  1.00  0.00    +0.0828  A
ATOM      8 N27  CHE L   1       4.739  -0.306  -1.637  1.00  0.00    -0.1740 NA
ATOM      9 N28  CHE L   1       4.548  -1.647  -1.644  1.00  0.00    -0.2424  N
ATOM     10 C29  CHE L   1       3.524  -2.331  -1.035  1.00  0.00    +0.2727  A
ATOM     11 O30  CHE L   1       3.433  -3.548  -1.155  1.00  0.00    -0.2658 OA
ATOM     12 C31  CHE L   1       2.564  -1.524  -0.239  1.00  0.00    +0.0526  A
ATOM     13 H32  CHE L   1       0.308  -3.822   1.049  1.00  0.00    +0.0278  H
ATOM     14 H33  CHE L   1       0.993  -3.926  -0.568  1.00  0.00    +0.0278  H
ATOM     15 H34  CHE L   1       2.031  -4.140   0.883  1.00  0.00    +0.0278  H
ATOM     16 H35  CHE L   1      -0.203  -1.706   1.758  1.00  0.00    +0.0626  H
ATOM     17 H44  CHE L   1       2.082   1.744   0.645  1.00  0.00    +0.0630  H
ATOM     18 H49  CHE L   1       5.205  -2.196  -2.189  1.00  0.00    +0.1921 HD
ENDROOT
BRANCH 4 19
ATOM     19  C5  CHE L   1      -0.047   0.963   2.026  1.00  0.00    +0.0280  A
ATOM     20  C6  CHE L   1       0.232   1.810   3.118  1.00  0.00    +0.0577  A
ATOM     21  N7  CHE L   1      -0.850   2.459   3.550  1.00  0.00    -0.1787 NA
ATOM     22  N8  CHE L   1      -1.828   2.044   2.720  1.00  0.00    -0.2656  N
ATOM     23  C9  CHE L   1      -3.151   2.606   2.880  1.00  0.00    +0.0309  C
ATOM     24 C10  CHE L   1      -1.401   1.136   1.776  1.00  0.00    +0.0841  A
ATOM     25 H36  CHE L   1       1.178   1.976   3.618  1.00  0.00    +0.0854  H
ATOM     26 H37  CHE L   1      -3.595   2.773   1.896  1.00  0.00    +0.0473  H
ATOM     27 H38  CHE L   1      -3.074   3.562   3.406  1.00  0.00    +0.0473  H
ATOM     28 H39  CHE L   1      -3.750   1.904   3.465  1.00  0.00    +0.0473  H
BRANCH 24 29
ATOM     29 C11  CHE L   1      -2.233   0.558   0.754  1.00  0.00    +0.0563  A
ATOM     30 S12  CHE L   1      -3.520  -0.483   1.177  1.00  0.00    -0.0854  S
ATOM     31 C13  CHE L   1      -3.953  -0.759  -0.463  1.00  0.00    +0.0212  A
ATOM     32 C14  CHE L   1      -5.004  -1.571  -0.932  1.00  0.00    -0.0474  A
ATOM     33 C15  CHE L   1      -5.211  -1.685  -2.308  1.00  0.00    -0.0607  A
ATOM     34 C16  CHE L   1      -4.393  -1.009  -3.201  1.00  0.00    -0.0611  A
ATOM     35 C17  CHE L   1      -3.351  -0.204  -2.732  1.00  0.00    -0.0523  A
ATOM     36 C18  CHE L   1      -3.113  -0.065  -1.339  1.00  0.00    +0.0072  A
ATOM     37 C19  CHE L   1      -2.121   0.689  -0.616  1.00  0.00    +0.0757  A
ATOM     38 H40  CHE L   1      -5.646  -2.106  -0.236  1.00  0.00    +0.0629  H
ATOM     39 H41  CHE L   1      -6.019  -2.311  -2.680  1.00  0.00    +0.0618  H
ATOM     40 H42  CHE L   1      -4.561  -1.105  -4.271  1.00  0.00    +0.0618  H
ATOM     41 H43  CHE L   1      -2.721   0.316  -3.452  1.00  0.00    +0.0624  H
BRANCH 37 42
ATOM     42 C20  CHE L   1      -1.120   1.497  -1.253  1.00  0.00    +0.1010  C
ATOM     43 N21  CHE L   1      -0.310   2.143  -1.777  1.00  0.00    -0.1908 NA
ENDBRANCH 37 42
ENDBRANCH 24 29
ENDBRANCH 4 19
BRANCH 7 44
ATOM     44 C25  CHE L   1       4.125   1.939  -1.004  1.00  0.00    +0.0383  C
ATOM     45 N26  CHE L   1       4.800   2.352   0.230  1.00  0.00    -0.3248 NA
ATOM     46 H45  CHE L   1       3.177   2.469  -1.130  1.00  0.00    +0.0487  H
ATOM     47 H46  CHE L   1       4.754   2.188  -1.867  1.00  0.00    +0.0487  H
ATOM     48 H47  CHE L   1       5.036   3.342   0.155  1.00  0.00    +0.1186 HD
ATOM     49 H48  CHE L   1       5.696   1.862   0.279  1.00  0.00    +0.1186 HD
ENDBRANCH 7 44
TORSDOF 4
