ROOT
ATOM      1  C8  CHE L   1      -4.801   0.057   0.542  1.00  0.00    +0.1203  C
ATOM      2  C9  CHE L   1      -5.652  -1.001  -0.208  1.00  0.00    +0.0364  C
ATOM      3 N10  CHE L   1      -7.050  -0.544  -0.430  1.00  0.00    -0.2988 NA
ATOM      4 C11  CHE L   1      -7.673  -0.247   0.877  1.00  0.00    -0.0006  C
ATOM      5 C12  CHE L   1      -6.887   0.822   1.657  1.00  0.00    -0.0339  C
ATOM      6 C13  CHE L   1      -5.689   1.290   0.815  1.00  0.00    -0.0002  C
ATOM      7 C14  CHE L   1      -6.241   1.817  -0.523  1.00  0.00    -0.0339  C
ATOM      8 C15  CHE L   1      -7.012   0.696  -1.235  1.00  0.00    -0.0006  C
ATOM      9 H39  CHE L   1      -4.449  -0.343   1.503  1.00  0.00    +0.0750  H
ATOM     10 H40  CHE L   1      -5.674  -1.932   0.373  1.00  0.00    +0.0463  H
ATOM     11 H41  CHE L   1      -5.203  -1.262  -1.174  1.00  0.00    +0.0463  H
ATOM     12 H42  CHE L   1      -7.744  -1.167   1.470  1.00  0.00    +0.0427  H
ATOM     13 H43  CHE L   1      -8.707   0.086   0.727  1.00  0.00    +0.0427  H
ATOM     14 H44  CHE L   1      -6.538   0.408   2.613  1.00  0.00    +0.0281  H
ATOM     15 H45  CHE L   1      -7.542   1.674   1.889  1.00  0.00    +0.0281  H
ATOM     16 H46  CHE L   1      -5.123   2.077   1.324  1.00  0.00    +0.0338  H
ATOM     17 H47  CHE L   1      -5.427   2.178  -1.162  1.00  0.00    +0.0281  H
ATOM     18 H48  CHE L   1      -6.908   2.668  -0.343  1.00  0.00    +0.0281  H
ATOM     19 H49  CHE L   1      -8.034   1.026  -1.452  1.00  0.00    +0.0427  H
ATOM     20 H50  CHE L   1      -6.558   0.491  -2.211  1.00  0.00    +0.0427  H
ENDROOT
BRANCH 1 21
ATOM     21  O7  CHE L   1      -3.669   0.478  -0.243  1.00  0.00    -0.4439 OA
BRANCH 21 23
ATOM     22  N4  CHE L   1      -1.689   0.086  -1.129  1.00  0.00    -0.3114  N
ATOM     23  C5  CHE L   1      -2.666  -0.430  -0.339  1.00  0.00    +0.4098  C
ATOM     24  O6  CHE L   1      -2.658  -1.519   0.214  1.00  0.00    -0.2237 OA
ATOM     25 H38  CHE L   1      -1.813   1.065  -1.342  1.00  0.00    +0.1666 HD
BRANCH 22 27
ATOM     26  C1  CHE L   1      -0.486  -2.026  -1.740  1.00  0.00    -0.0363  C
ATOM     27  C2  CHE L   1      -0.383  -0.520  -1.428  1.00  0.00    +0.0811  C
ATOM     28  C3  CHE L   1       0.137   0.184  -2.705  1.00  0.00    -0.0363  C
ATOM     29 H32  CHE L   1      -1.248  -2.222  -2.503  1.00  0.00    +0.0256  H
ATOM     30 H33  CHE L   1       0.470  -2.419  -2.108  1.00  0.00    +0.0256  H
ATOM     31 H34  CHE L   1      -0.742  -2.616  -0.853  1.00  0.00    +0.0256  H
ATOM     32 H35  CHE L   1      -0.572   0.068  -3.534  1.00  0.00    +0.0256  H
ATOM     33 H36  CHE L   1       0.273   1.261  -2.540  1.00  0.00    +0.0256  H
ATOM     34 H37  CHE L   1       1.101  -0.224  -3.034  1.00  0.00    +0.0256  H
BRANCH 27 35
ATOM     35 C16  CHE L   1       0.579  -0.287  -0.264  1.00  0.00    +0.0741  A
ATOM     36 C17  CHE L   1       0.291  -0.272   1.089  1.00  0.00    +0.0013  A
ATOM     37 S18  CHE L   1       1.708  -0.019   2.011  1.00  0.00    -0.0753  S
ATOM     38 C19  CHE L   1       2.647   0.018   0.564  1.00  0.00    +0.1086  A
ATOM     39 N31  CHE L   1       1.936  -0.124  -0.541  1.00  0.00    -0.2416 NA
ATOM     40 H51  CHE L   1      -0.659  -0.407   1.581  1.00  0.00    +0.0713  H
BRANCH 38 41
ATOM     41 C20  CHE L   1       4.118   0.155   0.587  1.00  0.00    +0.0072  A
ATOM     42 C21  CHE L   1       4.838   0.564   1.717  1.00  0.00    -0.0515  A
ATOM     43 C22  CHE L   1       6.238   0.655   1.691  1.00  0.00    -0.0540  A
ATOM     44 C23  CHE L   1       6.961   0.332   0.538  1.00  0.00    -0.0248  A
ATOM     45 C29  CHE L   1       6.248  -0.047  -0.602  1.00  0.00    -0.0540  A
ATOM     46 C30  CHE L   1       4.849  -0.136  -0.575  1.00  0.00    -0.0515  A
ATOM     47 H52  CHE L   1       4.330   0.828   2.641  1.00  0.00    +0.0624  H
ATOM     48 H53  CHE L   1       6.745   0.992   2.590  1.00  0.00    +0.0624  H
ATOM     49 H57  CHE L   1       6.770  -0.289  -1.526  1.00  0.00    +0.0624  H
ATOM     50 H58  CHE L   1       4.327  -0.447  -1.479  1.00  0.00    +0.0624  H
BRANCH 44 51
ATOM     51 C24  CHE L   1       8.428   0.426   0.462  1.00  0.00    -0.0478  C
ATOM     52 C25  CHE L   1       9.254   0.261   1.507  1.00  0.00    +0.0229  C
ATOM     53 H54  CHE L   1       8.837   0.624  -0.527  1.00  0.00    +0.0626  H
ATOM     54 H55  CHE L   1       8.893   0.035   2.504  1.00  0.00    +0.0689  H
BRANCH 52 55
ATOM     55 C26  CHE L   1      10.718   0.352   1.415  1.00  0.00    +0.3296  C
ATOM     56 O27  CHE L   1      11.473   0.206   2.361  1.00  0.00    -0.2458 OA
ATOM     57 O28  CHE L   1      11.177   0.616   0.185  1.00  0.00    -0.4775 OA
ATOM     58 H56  CHE L   1      12.149   0.643   0.301  1.00  0.00    +0.2954 HD
ENDBRANCH 52 55
ENDBRANCH 44 51
ENDBRANCH 38 41
ENDBRANCH 27 35
ENDBRANCH 22 27
ENDBRANCH 21 23
ENDBRANCH 1 21
TORSDOF 7
