ROOT
ATOM      1 C10  WH0 L   1       3.130   0.252  -1.029  1.00  0.00    -0.0215  A
ATOM      2 C11  WH0 L   1       1.833  -0.178  -0.675  1.00  0.00    -0.0487  A
ATOM      3 C12  WH0 L   1       0.734   0.708  -0.716  1.00  0.00    -0.0131  A
ATOM      4 C36  WH0 L   1       0.936   2.054  -1.067  1.00  0.00    -0.0483  A
ATOM      5 C37  WH0 L   1       2.219   2.473  -1.405  1.00  0.00    -0.0142  A
ATOM      6 C38  WH0 L   1       3.282   1.591  -1.423  1.00  0.00    +0.0487  A
ATOM      7 N39  WH0 L   1       4.455   2.204  -1.938  1.00  0.00    -0.3254  N
ATOM      8 C40  WH0 L   1       4.059   3.538  -2.238  1.00  0.00    +0.2296  C
ATOM      9 O41  WH0 L   1       4.832   4.378  -2.767  1.00  0.00    -0.2725 OA
ATOM     10 C42  WH0 L   1       2.630   3.818  -1.905  1.00  0.00    +0.0535  C
ATOM     11 H50  WH0 L   1       1.669  -1.204  -0.383  1.00  0.00    +0.0627  H
ATOM     12 H68  WH0 L   1       0.109   2.752  -1.114  1.00  0.00    +0.0627  H
ATOM     13 H69  WH0 L   1       5.285   1.719  -2.344  1.00  0.00    +0.1686 HD
ATOM     14 H70  WH0 L   1       2.542   4.590  -1.109  1.00  0.00    +0.0410  H
ATOM     15 H71  WH0 L   1       2.060   4.090  -2.818  1.00  0.00    +0.0410  H
ENDROOT
BRANCH 1 16
ATOM     16  C9  WH0 L   1       4.290  -0.719  -1.003  1.00  0.00    -0.0082  C
ATOM     17 H48  WH0 L   1       3.915  -1.726  -0.714  1.00  0.00    +0.0331  H
ATOM     18 H49  WH0 L   1       4.740  -0.805  -2.019  1.00  0.00    +0.0331  H
BRANCH 16 19
ATOM     19  C8  WH0 L   1       5.371  -0.291   0.006  1.00  0.00    +0.0224  C
ATOM     20 H46  WH0 L   1       4.893   0.074   0.950  1.00  0.00    +0.0489  H
ATOM     21 H47  WH0 L   1       5.973   0.537  -0.428  1.00  0.00    +0.0489  H
BRANCH 19 24
ATOM     22  C5  WH0 L   1       7.444  -1.196   1.129  1.00  0.00    +0.2618  C
ATOM     23  O6  WH0 L   1       7.908  -0.027   1.263  1.00  0.00    -0.2669 OA
ATOM     24  N7  WH0 L   1       6.267  -1.401   0.330  1.00  0.00    -0.3511  N
ATOM     25 H45  WH0 L   1       6.015  -2.374   0.027  1.00  0.00    +0.1627 HD
BRANCH 22 27
ATOM     26  C1  WH0 L   1       9.273  -2.169   2.455  1.00  0.00    -0.0760  C
ATOM     27  C2  WH0 L   1       8.126  -2.338   1.787  1.00  0.00    +0.1085  C
ATOM     28 H43  WH0 L   1       9.750  -2.997   2.968  1.00  0.00    +0.0549  H
ATOM     29 H44  WH0 L   1       9.761  -1.202   2.502  1.00  0.00    +0.0549  H
BRANCH 27 30
ATOM     30  C3  WH0 L   1       7.522  -3.649   1.767  1.00  0.00    +0.1040  C
ATOM     31  N4  WH0 L   1       7.031  -4.702   1.759  1.00  0.00    -0.1907 NA
ENDBRANCH 27 30
ENDBRANCH 22 27
ENDBRANCH 19 24
ENDBRANCH 16 19
ENDBRANCH 1 16
BRANCH 3 32
ATOM     32 C13  WH0 L   1      -0.633   0.212  -0.461  1.00  0.00    +0.0353  A
ATOM     33 C14  WH0 L   1      -1.651   0.800   0.306  1.00  0.00    +0.1015  A
ATOM     34 N22  WH0 L   1      -2.815   0.139   0.100  1.00  0.00    -0.1627 NA
ATOM     35 N23  WH0 L   1      -2.565  -0.830  -0.764  1.00  0.00    -0.1987  N
ATOM     36 C24  WH0 L   1      -3.454  -1.725  -1.274  1.00  0.00    +0.2282  A
ATOM     37 N32  WH0 L   1      -3.001  -2.654  -2.163  1.00  0.00    -0.2207 NA
ATOM     38 C33  WH0 L   1      -1.695  -2.671  -2.562  1.00  0.00    +0.0334  A
ATOM     39 C34  WH0 L   1      -0.786  -1.733  -2.055  1.00  0.00    -0.0173  A
ATOM     40 C35  WH0 L   1      -1.273  -0.825  -1.117  1.00  0.00    +0.0803  A
ATOM     41 H66  WH0 L   1      -1.364  -3.401  -3.287  1.00  0.00    +0.0831  H
ATOM     42 H67  WH0 L   1       0.244  -1.721  -2.384  1.00  0.00    +0.0654  H
BRANCH 33 43
ATOM     43 C15  WH0 L   1      -1.545   1.963   1.219  1.00  0.00    +0.0029  A
ATOM     44 C16  WH0 L   1      -0.348   2.260   1.898  1.00  0.00    -0.0498  A
ATOM     45 C17  WH0 L   1      -0.275   3.366   2.755  1.00  0.00    -0.0258  A
ATOM     46 C18  WH0 L   1      -1.397   4.172   2.960  1.00  0.00    +0.1234  A
ATOM     47 F19  WH0 L   1      -1.331   5.225   3.809  1.00  0.00    -0.2055  F
ATOM     48 C20  WH0 L   1      -2.596   3.872   2.310  1.00  0.00    -0.0258  A
ATOM     49 C21  WH0 L   1      -2.669   2.775   1.442  1.00  0.00    -0.0498  A
ATOM     50 H51  WH0 L   1       0.523   1.625   1.788  1.00  0.00    +0.0625  H
ATOM     51 H52  WH0 L   1       0.653   3.592   3.266  1.00  0.00    +0.0646  H
ATOM     52 H53  WH0 L   1      -3.472   4.483   2.479  1.00  0.00    +0.0646  H
ATOM     53 H54  WH0 L   1      -3.605   2.558   0.944  1.00  0.00    +0.0625  H
ENDBRANCH 33 43
BRANCH 36 54
ATOM     54 N25  WH0 L   1      -4.838  -1.701  -0.897  1.00  0.00    -0.3402  N
ATOM     55 C26  WH0 L   1      -5.491  -2.960  -0.510  1.00  0.00    +0.0228  C
ATOM     56 C27  WH0 L   1      -6.931  -2.719  -0.030  1.00  0.00    -0.0199  C
ATOM     57 C28  WH0 L   1      -7.048  -1.439   0.828  1.00  0.00    +0.0080  C
ATOM     58 N29  WH0 L   1      -6.369  -1.593   2.119  1.00  0.00    -0.3271 NA
ATOM     59 C30  WH0 L   1      -6.516  -0.180   0.090  1.00  0.00    -0.0199  C
ATOM     60 C31  WH0 L   1      -5.648  -0.503  -1.140  1.00  0.00    +0.0228  C
ATOM     61 H55  WH0 L   1      -5.500  -3.662  -1.369  1.00  0.00    +0.0489  H
ATOM     62 H56  WH0 L   1      -4.913  -3.431   0.316  1.00  0.00    +0.0489  H
ATOM     63 H57  WH0 L   1      -7.591  -2.606  -0.919  1.00  0.00    +0.0297  H
ATOM     64 H58  WH0 L   1      -7.290  -3.607   0.539  1.00  0.00    +0.0297  H
ATOM     65 H59  WH0 L   1      -8.129  -1.279   1.037  1.00  0.00    +0.0459  H
ATOM     66 H60  WH0 L   1      -5.348  -1.769   1.973  1.00  0.00    +0.1185 HD
ATOM     67 H61  WH0 L   1      -6.769  -2.414   2.625  1.00  0.00    +0.1185 HD
ATOM     68 H62  WH0 L   1      -5.919   0.446   0.792  1.00  0.00    +0.0297  H
ATOM     69 H63  WH0 L   1      -7.377   0.449  -0.243  1.00  0.00    +0.0297  H
ATOM     70 H64  WH0 L   1      -6.308  -0.691  -2.012  1.00  0.00    +0.0489  H
ATOM     71 H65  WH0 L   1      -5.012   0.376  -1.389  1.00  0.00    +0.0489  H
ENDBRANCH 36 54
ENDBRANCH 3 32
TORSDOF 8
