ROOT
ATOM      1 N15  CHE L   1      -2.749   1.423   0.459  1.00  0.00    -0.3644  N
ATOM      2 C16  CHE L   1      -3.512   2.659   0.764  1.00  0.00    +0.0366  C
ATOM      3 C17  CHE L   1      -4.761   2.798  -0.118  1.00  0.00    +0.0388  C
ATOM      4 N18  CHE L   1      -5.591   1.593  -0.131  1.00  0.00    -0.3388  N
ATOM      5 C19  CHE L   1      -6.953   1.747  -0.348  1.00  0.00    +0.2205  C
ATOM      6 C20  CHE L   1      -7.769   0.492  -0.526  1.00  0.00    +0.0145  C
ATOM      7 O21  CHE L   1      -7.501   2.849  -0.380  1.00  0.00    -0.2733 OA
ATOM      8 C22  CHE L   1      -4.854   0.357  -0.411  1.00  0.00    +0.0413  C
ATOM      9 C23  CHE L   1      -3.587   0.187   0.461  1.00  0.00    +0.0448  C
ATOM     10 C24  CHE L   1      -3.948  -0.212   1.895  1.00  0.00    -0.0429  C
ATOM     11 H41  CHE L   1      -3.799   2.658   1.822  1.00  0.00    +0.0505  H
ATOM     12 H42  CHE L   1      -2.891   3.547   0.591  1.00  0.00    +0.0505  H
ATOM     13 H43  CHE L   1      -5.343   3.663   0.218  1.00  0.00    +0.0506  H
ATOM     14 H44  CHE L   1      -4.465   2.989  -1.157  1.00  0.00    +0.0506  H
ATOM     15 H45  CHE L   1      -8.828   0.757  -0.607  1.00  0.00    +0.0325  H
ATOM     16 H46  CHE L   1      -7.650  -0.163   0.341  1.00  0.00    +0.0325  H
ATOM     17 H47  CHE L   1      -7.474  -0.023  -1.444  1.00  0.00    +0.0325  H
ATOM     18 H48  CHE L   1      -5.497  -0.520  -0.296  1.00  0.00    +0.0509  H
ATOM     19 H49  CHE L   1      -4.565   0.405  -1.468  1.00  0.00    +0.0509  H
ATOM     20 H50  CHE L   1      -3.026  -0.649   0.028  1.00  0.00    +0.0538  H
ATOM     21 H51  CHE L   1      -3.047  -0.337   2.505  1.00  0.00    +0.0250  H
ATOM     22 H52  CHE L   1      -4.492  -1.163   1.904  1.00  0.00    +0.0250  H
ATOM     23 H53  CHE L   1      -4.580   0.535   2.386  1.00  0.00    +0.0250  H
ENDROOT
BRANCH 1 29
ATOM     24  C9  CHE L   1       2.931   0.041   0.081  1.00  0.00    +0.0933  A
ATOM     25 C10  CHE L   1       2.738   1.065   0.985  1.00  0.00    +0.0372  A
ATOM     26 N11  CHE L   1       1.386   1.292   0.991  1.00  0.00    -0.3059  N
ATOM     27 C12  CHE L   1       0.644   2.201   1.731  1.00  0.00    +0.0131  A
ATOM     28 C13  CHE L   1      -0.689   2.244   1.566  1.00  0.00    -0.0218  A
ATOM     29 C14  CHE L   1      -1.355   1.342   0.611  1.00  0.00    +0.0431  A
ATOM     30 C25  CHE L   1      -0.590   0.465  -0.086  1.00  0.00    +0.0044  A
ATOM     31 C26  CHE L   1       0.822   0.409   0.084  1.00  0.00    +0.1402  A
ATOM     32 N27  CHE L   1       1.738  -0.350  -0.482  1.00  0.00    -0.2276 NA
ATOM     33 H38  CHE L   1       3.418   1.622   1.612  1.00  0.00    +0.0835  H
ATOM     34 H39  CHE L   1       1.177   2.838   2.425  1.00  0.00    +0.0814  H
ATOM     35 H40  CHE L   1      -1.282   2.928   2.161  1.00  0.00    +0.0653  H
ATOM     36 H54  CHE L   1      -1.018  -0.204  -0.820  1.00  0.00    +0.0675  H
BRANCH 24 40
ATOM     37  C3  CHE L   1       6.747  -1.624  -0.922  1.00  0.00    +0.1418  A
ATOM     38  C4  CHE L   1       5.689  -2.462  -0.562  1.00  0.00    +0.0239  A
ATOM     39  C5  CHE L   1       4.431  -1.924  -0.254  1.00  0.00    +0.1328  A
ATOM     40  C8  CHE L   1       4.215  -0.538  -0.262  1.00  0.00    +0.0451  A
ATOM     41 C28  CHE L   1       5.277   0.301  -0.622  1.00  0.00    -0.0271  A
ATOM     42 C29  CHE L   1       6.525  -0.238  -0.952  1.00  0.00    +0.0834  A
ATOM     43 CL30 CHE L   1       7.786   0.865  -1.390  1.00  0.00    -0.0797 Cl
ATOM     44 H34  CHE L   1       5.806  -3.539  -0.500  1.00  0.00    +0.0691  H
ATOM     45 H55  CHE L   1       5.133   1.378  -0.659  1.00  0.00    +0.0641  H
BRANCH 37 47
ATOM     46  C1  CHE L   1       8.255  -3.456  -1.200  1.00  0.00    +0.0789  C
ATOM     47  O2  CHE L   1       8.005  -2.058  -1.248  1.00  0.00    -0.4935 OA
ATOM     48 H31  CHE L   1       8.121  -3.847  -0.186  1.00  0.00    +0.0660  H
ATOM     49 H32  CHE L   1       9.299  -3.619  -1.484  1.00  0.00    +0.0660  H
ATOM     50 H33  CHE L   1       7.628  -3.994  -1.918  1.00  0.00    +0.0660  H
ENDBRANCH 37 47
BRANCH 39 51
ATOM     51  O6  CHE L   1       3.448  -2.791   0.154  1.00  0.00    -0.4943 OA
ATOM     52  C7  CHE L   1       2.790  -3.360  -0.979  1.00  0.00    +0.0788  C
ATOM     53 H35  CHE L   1       1.856  -3.812  -0.632  1.00  0.00    +0.0660  H
ATOM     54 H36  CHE L   1       2.544  -2.612  -1.741  1.00  0.00    +0.0660  H
ATOM     55 H37  CHE L   1       3.408  -4.150  -1.418  1.00  0.00    +0.0660  H
ENDBRANCH 39 51
ENDBRANCH 24 40
ENDBRANCH 1 29
TORSDOF 4
