ROOT
ATOM      1 C11  SEL L   1       2.584  -0.650   0.389  1.00  0.00    +0.0408  A
ATOM      2 C12  SEL L   1       2.906  -1.977   0.038  1.00  0.00    -0.0356  A
ATOM      3 C13  SEL L   1       4.150  -2.540   0.343  1.00  0.00    -0.0217  A
ATOM      4 C14  SEL L   1       5.095  -1.777   1.012  1.00  0.00    +0.1585  A
ATOM      5 F15  SEL L   1       6.288  -2.312   1.307  1.00  0.00    -0.2025  F
ATOM      6 C16  SEL L   1       4.801  -0.472   1.376  1.00  0.00    +0.1603  A
ATOM      7 F17  SEL L   1       5.713   0.268   2.023  1.00  0.00    -0.2024  F
ATOM      8 C18  SEL L   1       3.560   0.089   1.073  1.00  0.00    -0.0004  A
ATOM      9 H34  SEL L   1       2.166  -2.601  -0.460  1.00  0.00    +0.0639  H
ATOM     10 H35  SEL L   1       4.378  -3.565   0.069  1.00  0.00    +0.0648  H
ATOM     11 H36  SEL L   1       3.395   1.119   1.371  1.00  0.00    +0.0668  H
ENDROOT
BRANCH 1 15
ATOM     12  C4  SEL L   1      -1.311   0.377  -0.496  1.00  0.00    +0.0965  C
ATOM     13  C8  SEL L   1      -0.685   1.179   0.670  1.00  0.00    -0.0171  C
ATOM     14  C9  SEL L   1       0.842   1.049   0.778  1.00  0.00    +0.0198  C
ATOM     15 N10  SEL L   1       1.316  -0.140   0.064  1.00  0.00    -0.3680  N
ATOM     16 C19  SEL L   1       1.044  -0.136  -1.391  1.00  0.00    +0.0457  C
ATOM     17 C20  SEL L   1      -0.340   0.479  -1.705  1.00  0.00    +0.0884  C
ATOM     18 O21  SEL L   1      -0.886  -0.096  -2.896  1.00  0.00    -0.3889 OA
ATOM     19 H30  SEL L   1      -0.916   2.246   0.556  1.00  0.00    +0.0294  H
ATOM     20 H31  SEL L   1      -1.130   0.893   1.631  1.00  0.00    +0.0294  H
ATOM     21 H32  SEL L   1       1.316   1.948   0.364  1.00  0.00    +0.0488  H
ATOM     22 H33  SEL L   1       1.096   1.003   1.845  1.00  0.00    +0.0488  H
ATOM     23 H37  SEL L   1       1.081  -1.153  -1.798  1.00  0.00    +0.0513  H
ATOM     24 H38  SEL L   1       1.814   0.439  -1.924  1.00  0.00    +0.0513  H
ATOM     25 H39  SEL L   1      -0.190   1.543  -1.935  1.00  0.00    +0.0622  H
ATOM     26 H40  SEL L   1      -1.099  -1.032  -2.693  1.00  0.00    +0.2099 HD
BRANCH 12 27
ATOM     27  C3  SEL L   1      -2.710   0.925  -0.888  1.00  0.00    -0.0350  C
ATOM     28 H27  SEL L   1      -3.151   0.286  -1.665  1.00  0.00    +0.0277  H
ATOM     29 H28  SEL L   1      -2.587   1.919  -1.339  1.00  0.00    +0.0277  H
BRANCH 27 31
ATOM     30  C1  SEL L   1      -5.053   1.580  -0.225  1.00  0.00    -0.0652  C
ATOM     31  C2  SEL L   1      -3.717   1.038   0.264  1.00  0.00    -0.0548  C
ATOM     32 H22  SEL L   1      -5.490   0.922  -0.982  1.00  0.00    +0.0230  H
ATOM     33 H23  SEL L   1      -5.759   1.654   0.608  1.00  0.00    +0.0230  H
ATOM     34 H24  SEL L   1      -4.936   2.577  -0.661  1.00  0.00    +0.0230  H
ATOM     35 H25  SEL L   1      -3.885   0.058   0.722  1.00  0.00    +0.0263  H
ATOM     36 H26  SEL L   1      -3.335   1.705   1.043  1.00  0.00    +0.0263  H
ENDBRANCH 27 31
ENDBRANCH 12 27
BRANCH 12 37
ATOM     37  C5  SEL L   1      -1.464  -1.106  -0.158  1.00  0.00    +0.3136  C
ATOM     38  O6  SEL L   1      -1.450  -2.018  -0.976  1.00  0.00    -0.2503 OA
ATOM     39  O7  SEL L   1      -1.696  -1.373   1.139  1.00  0.00    -0.4802 OA
ATOM     40 H29  SEL L   1      -1.752  -2.350   1.181  1.00  0.00    +0.2951 HD
ENDBRANCH 12 37
ENDBRANCH 1 15
TORSDOF 4
