ROOT
ATOM      1  N3  MCU L   1      -5.719  -0.396   1.042  1.00  0.00    -0.3459  N
ATOM      2  C4  MCU L   1      -7.034  -0.679   0.788  1.00  0.00    +0.0228  A
ATOM      3  C5  MCU L   1      -7.530  -0.774  -0.519  1.00  0.00    +0.1220  A
ATOM      4  C9  MCU L   1      -6.648  -0.549  -1.591  1.00  0.00    +0.2034  A
ATOM      5 O10  MCU L   1      -7.061  -0.630  -2.782  1.00  0.00    -0.2863 OA
ATOM      6 C11  MCU L   1      -5.302  -0.234  -1.336  1.00  0.00    +0.0488  A
ATOM      7 C12  MCU L   1      -4.407  -0.008  -2.399  1.00  0.00    -0.0116  A
ATOM      8 C13  MCU L   1      -3.069   0.289  -2.152  1.00  0.00    +0.1472  A
ATOM      9 F14  MCU L   1      -2.225   0.489  -3.199  1.00  0.00    -0.2033  F
ATOM     10 C15  MCU L   1      -2.605   0.391  -0.840  1.00  0.00    +0.0756  A
ATOM     11 C35  MCU L   1      -3.485   0.189   0.229  1.00  0.00    -0.0114  A
ATOM     12 C36  MCU L   1      -4.843  -0.148   0.005  1.00  0.00    +0.0549  A
ATOM     13 H42  MCU L   1      -7.715  -0.843   1.617  1.00  0.00    +0.0818  H
ATOM     14 H44  MCU L   1      -4.739  -0.067  -3.428  1.00  0.00    +0.0655  H
ATOM     15 H61  MCU L   1      -3.077   0.291   1.220  1.00  0.00    +0.0660  H
ENDROOT
BRANCH 1 17
ATOM     16  C1  MCU L   1      -5.343   1.103   2.967  1.00  0.00    -0.0471  C
ATOM     17  C2  MCU L   1      -5.313  -0.336   2.461  1.00  0.00    +0.0205  C
ATOM     18 H37  MCU L   1      -4.658   1.742   2.375  1.00  0.00    +0.0247  H
ATOM     19 H38  MCU L   1      -5.028   1.134   4.033  1.00  0.00    +0.0247  H
ATOM     20 H39  MCU L   1      -6.373   1.511   2.885  1.00  0.00    +0.0247  H
ATOM     21 H40  MCU L   1      -5.996  -0.944   3.095  1.00  0.00    +0.0489  H
ATOM     22 H41  MCU L   1      -4.314  -0.795   2.616  1.00  0.00    +0.0489  H
ENDBRANCH 1 17
BRANCH 3 23
ATOM     23  C6  MCU L   1      -8.964  -1.114  -0.731  1.00  0.00    +0.3420  C
ATOM     24  O7  MCU L   1      -9.451  -1.181  -1.892  1.00  0.00    -0.2449 OA
ATOM     25  O8  MCU L   1      -9.792  -1.365   0.361  1.00  0.00    -0.4770 OA
ATOM     26 H43  MCU L   1     -10.765  -1.610   0.228  1.00  0.00    +0.2954 HD
ENDBRANCH 3 23
BRANCH 10 27
ATOM     27 N16  MCU L   1      -1.224   0.679  -0.586  1.00  0.00    -0.3650  N
ATOM     28 C17  MCU L   1      -0.228  -0.385  -0.787  1.00  0.00    +0.0364  C
ATOM     29 C18  MCU L   1       1.138   0.011  -0.218  1.00  0.00    +0.0380  C
ATOM     30 N19  MCU L   1       1.486   1.376  -0.641  1.00  0.00    -0.3479  N
ATOM     31 C20  MCU L   1       2.837   1.663  -1.046  1.00  0.00    +0.1567  C
ATOM     32 S21  MCU L   1       3.140   2.789  -2.204  1.00  0.00    -0.0131  S
ATOM     33 N22  MCU L   1       3.930   1.011  -0.384  1.00  0.00    -0.3025  N
ATOM     34 C23  MCU L   1       5.043   0.439  -1.090  1.00  0.00    +0.2577  C
ATOM     35 O24  MCU L   1       4.979   0.271  -2.341  1.00  0.00    -0.2672 OA
ATOM     36 C33  MCU L   1       0.477   2.449  -0.599  1.00  0.00    +0.0380  C
ATOM     37 C34  MCU L   1      -0.843   1.962   0.011  1.00  0.00    +0.0364  C
ATOM     38 H45  MCU L   1      -0.568  -1.318  -0.289  1.00  0.00    +0.0505  H
ATOM     39 H46  MCU L   1      -0.123  -0.587  -1.877  1.00  0.00    +0.0505  H
ATOM     40 H47  MCU L   1       1.112  -0.034   0.894  1.00  0.00    +0.0506  H
ATOM     41 H48  MCU L   1       1.895  -0.722  -0.577  1.00  0.00    +0.0506  H
ATOM     42 H49  MCU L   1       3.823   0.803   0.639  1.00  0.00    +0.1708 HD
ATOM     43 H57  MCU L   1       0.281   2.807  -1.633  1.00  0.00    +0.0506  H
ATOM     44 H58  MCU L   1       0.861   3.301   0.006  1.00  0.00    +0.0506  H
ATOM     45 H59  MCU L   1      -1.633   2.724  -0.168  1.00  0.00    +0.0505  H
ATOM     46 H60  MCU L   1      -0.725   1.832   1.107  1.00  0.00    +0.0505  H
BRANCH 34 47
ATOM     47 C25  MCU L   1       6.244  -0.012  -0.352  1.00  0.00    +0.0396  A
ATOM     48 C26  MCU L   1       7.004  -1.091  -0.832  1.00  0.00    -0.0460  A
ATOM     49 C27  MCU L   1       8.125  -1.537  -0.128  1.00  0.00    -0.0192  A
ATOM     50 C28  MCU L   1       8.507  -0.904   1.073  1.00  0.00    +0.1201  A
ATOM     51 C31  MCU L   1       7.763   0.187   1.537  1.00  0.00    -0.0192  A
ATOM     52 C32  MCU L   1       6.639   0.628   0.836  1.00  0.00    -0.0460  A
ATOM     53 H50  MCU L   1       6.712  -1.609  -1.742  1.00  0.00    +0.0626  H
ATOM     54 H51  MCU L   1       8.676  -2.384  -0.514  1.00  0.00    +0.0654  H
ATOM     55 H55  MCU L   1       8.051   0.685   2.449  1.00  0.00    +0.0654  H
ATOM     56 H56  MCU L   1       6.081   1.474   1.225  1.00  0.00    +0.0626  H
BRANCH 50 57
ATOM     57 O29  MCU L   1       9.607  -1.327   1.833  1.00  0.00    -0.4951 OA
ATOM     58 C30  MCU L   1      10.429  -2.442   1.503  1.00  0.00    +0.0788  C
ATOM     59 H52  MCU L   1      11.247  -2.517   2.251  1.00  0.00    +0.0660  H
ATOM     60 H53  MCU L   1      10.881  -2.306   0.494  1.00  0.00    +0.0660  H
ATOM     61 H54  MCU L   1       9.830  -3.380   1.531  1.00  0.00    +0.0660  H
ENDBRANCH 50 57
ENDBRANCH 34 47
ENDBRANCH 10 27
TORSDOF 5
