ROOT
ATOM      1 C13  CHE L   1       0.668  -2.208  -0.294  1.00  0.00    +0.0036  C
ATOM      2 C14  CHE L   1       0.563  -0.929  -1.131  1.00  0.00    -0.0421  C
ATOM      3 C15  CHE L   1       1.811  -0.053  -0.995  1.00  0.00    -0.0231  C
ATOM      4 C16  CHE L   1       2.278   0.138   0.465  1.00  0.00    +0.0702  C
ATOM      5 C17  CHE L   1       1.276  -0.449   1.472  1.00  0.00    -0.0231  C
ATOM      6 C18  CHE L   1       0.962  -1.920   1.190  1.00  0.00    -0.0421  C
ATOM      7 C19  CHE L   1       2.600   1.607   0.800  1.00  0.00    -0.0165  C
ATOM      8 C20  CHE L   1       4.120   1.702   0.705  1.00  0.00    -0.0089  C
ATOM      9 C21  CHE L   1       4.692   2.775   1.632  1.00  0.00    -0.0576  C
ATOM     10 C22  CHE L   1       4.578   1.984  -0.734  1.00  0.00    -0.0576  C
ATOM     11 C23  CHE L   1       4.521   0.300   1.142  1.00  0.00    +0.0536  C
ATOM     12 O24  CHE L   1       3.524  -0.585   0.616  1.00  0.00    -0.3728 OA
ATOM     13 H40  CHE L   1       1.549  -2.745  -0.678  1.00  0.00    +0.0365  H
ATOM     14 H41  CHE L   1      -0.305  -0.337  -0.827  1.00  0.00    +0.0272  H
ATOM     15 H42  CHE L   1       0.408  -1.176  -2.189  1.00  0.00    +0.0272  H
ATOM     16 H43  CHE L   1       1.586   0.911  -1.466  1.00  0.00    +0.0293  H
ATOM     17 H44  CHE L   1       2.614  -0.506  -1.591  1.00  0.00    +0.0293  H
ATOM     18 H45  CHE L   1       0.346   0.134   1.459  1.00  0.00    +0.0293  H
ATOM     19 H46  CHE L   1       1.680  -0.383   2.490  1.00  0.00    +0.0293  H
ATOM     20 H47  CHE L   1       1.820  -2.534   1.497  1.00  0.00    +0.0272  H
ATOM     21 H48  CHE L   1       0.142  -2.237   1.845  1.00  0.00    +0.0272  H
ATOM     22 H49  CHE L   1       2.280   1.833   1.826  1.00  0.00    +0.0299  H
ATOM     23 H50  CHE L   1       2.079   2.325   0.157  1.00  0.00    +0.0299  H
ATOM     24 H51  CHE L   1       4.340   3.772   1.344  1.00  0.00    +0.0236  H
ATOM     25 H52  CHE L   1       4.393   2.607   2.673  1.00  0.00    +0.0236  H
ATOM     26 H53  CHE L   1       5.787   2.780   1.601  1.00  0.00    +0.0236  H
ATOM     27 H54  CHE L   1       5.672   2.037  -0.791  1.00  0.00    +0.0236  H
ATOM     28 H55  CHE L   1       4.258   1.209  -1.435  1.00  0.00    +0.0236  H
ATOM     29 H56  CHE L   1       4.180   2.941  -1.091  1.00  0.00    +0.0236  H
ATOM     30 H57  CHE L   1       5.505  -0.005   0.774  1.00  0.00    +0.0565  H
ATOM     31 H58  CHE L   1       4.515   0.191   2.233  1.00  0.00    +0.0565  H
ENDROOT
BRANCH 1 36
ATOM     32  C8  CHE L   1      -1.898  -2.941  -0.153  1.00  0.00    +0.0072  A
ATOM     33  C9  CHE L   1      -2.494  -4.128  -0.535  1.00  0.00    +0.0270  A
ATOM     34 N10  CHE L   1      -1.512  -4.903  -1.067  1.00  0.00    -0.2842  N
ATOM     35 N11  CHE L   1      -0.306  -4.329  -1.041  1.00  0.00    -0.1783 NA
ATOM     36 C12  CHE L   1      -0.517  -3.125  -0.486  1.00  0.00    +0.0702  A
ATOM     37 H38  CHE L   1      -3.516  -4.474  -0.478  1.00  0.00    +0.0827  H
ATOM     38 H39  CHE L   1      -1.590  -5.835  -1.458  1.00  0.00    +0.1882 HD
BRANCH 32 39
ATOM     39  C7  CHE L   1      -2.575  -1.779   0.504  1.00  0.00    +0.0270  C
ATOM     40 H36  CHE L   1      -3.494  -2.104   1.008  1.00  0.00    +0.0477  H
ATOM     41 H37  CHE L   1      -1.908  -1.411   1.292  1.00  0.00    +0.0477  H
BRANCH 39 42
ATOM     42  N5  CHE L   1      -2.856  -0.703  -0.465  1.00  0.00    -0.2999 NA
ATOM     43  C6  CHE L   1      -3.921  -1.085  -1.397  1.00  0.00    -0.0124  C
ATOM     44 H33  CHE L   1      -3.638  -1.959  -1.992  1.00  0.00    +0.0391  H
ATOM     45 H34  CHE L   1      -4.861  -1.308  -0.880  1.00  0.00    +0.0391  H
ATOM     46 H35  CHE L   1      -4.112  -0.293  -2.128  1.00  0.00    +0.0391  H
BRANCH 42 47
ATOM     47  C4  CHE L   1      -3.206   0.537   0.264  1.00  0.00    +0.0115  C
ATOM     48 H31  CHE L   1      -2.488   0.688   1.081  1.00  0.00    +0.0439  H
ATOM     49 H32  CHE L   1      -4.195   0.436   0.727  1.00  0.00    +0.0439  H
BRANCH 47 50
ATOM     50  C3  CHE L   1      -3.137   1.804  -0.619  1.00  0.00    +0.0084  C
ATOM     51 H29  CHE L   1      -3.862   1.765  -1.438  1.00  0.00    +0.0436  H
ATOM     52 H30  CHE L   1      -2.143   1.842  -1.082  1.00  0.00    +0.0436  H
BRANCH 50 54
ATOM     53  C1  CHE L   1      -4.692   3.256   0.562  1.00  0.00    -0.0157  C
ATOM     54  N2  CHE L   1      -3.312   3.057   0.135  1.00  0.00    -0.3178 NA
ATOM     55 H25  CHE L   1      -5.006   2.499   1.286  1.00  0.00    +0.0388  H
ATOM     56 H26  CHE L   1      -4.778   4.229   1.057  1.00  0.00    +0.0388  H
ATOM     57 H27  CHE L   1      -5.382   3.251  -0.288  1.00  0.00    +0.0388  H
ATOM     58 H28  CHE L   1      -3.046   3.833  -0.473  1.00  0.00    +0.1217 HD
ENDBRANCH 50 54
ENDBRANCH 47 50
ENDBRANCH 42 47
ENDBRANCH 39 42
ENDBRANCH 32 39
ENDBRANCH 1 36
TORSDOF 6
