ROOT
ATOM      1 C28  WH0 L   1       0.016   1.747   0.493  1.00  0.00    -0.0133  A
ATOM      2 C29  WH0 L   1       0.885   1.579   1.595  1.00  0.00    -0.0519  A
ATOM      3 C30  WH0 L   1       1.993   2.410   1.769  1.00  0.00    -0.0374  A
ATOM      4 C31  WH0 L   1       2.202   3.387   0.821  1.00  0.00    +0.0454  A
ATOM      5 C32  WH0 L   1       1.356   3.570  -0.271  1.00  0.00    -0.0145  A
ATOM      6 C33  WH0 L   1       0.248   2.761  -0.450  1.00  0.00    -0.0483  A
ATOM      7 C34  WH0 L   1       1.886   4.682  -1.125  1.00  0.00    +0.0535  C
ATOM      8 C35  WH0 L   1       3.174   5.071  -0.386  1.00  0.00    +0.2296  C
ATOM      9 O36  WH0 L   1       3.990   5.906  -0.740  1.00  0.00    -0.2725 OA
ATOM     10 N37  WH0 L   1       3.255   4.284   0.754  1.00  0.00    -0.3256  N
ATOM     11 H68  WH0 L   1       0.707   0.784   2.317  1.00  0.00    +0.0624  H
ATOM     12 H69  WH0 L   1       2.678   2.261   2.596  1.00  0.00    +0.0638  H
ATOM     13 H70  WH0 L   1      -0.405   2.891  -1.308  1.00  0.00    +0.0627  H
ATOM     14 H71  WH0 L   1       2.135   4.326  -2.128  1.00  0.00    +0.0410  H
ATOM     15 H72  WH0 L   1       1.201   5.532  -1.147  1.00  0.00    +0.0410  H
ATOM     16 H73  WH0 L   1       4.029   4.318   1.402  1.00  0.00    +0.1686 HD
ENDROOT
BRANCH 1 25
ATOM     17 C12  WH0 L   1      -1.097  -0.582   0.095  1.00  0.00    +0.1015  A
ATOM     18 N13  WH0 L   1      -2.349  -1.064   0.052  1.00  0.00    -0.1627 NA
ATOM     19 N14  WH0 L   1      -3.145   0.016   0.262  1.00  0.00    -0.1987  N
ATOM     20 C15  WH0 L   1      -4.578  -0.028   0.279  1.00  0.00    +0.2282  A
ATOM     21 N23  WH0 L   1      -5.229   1.110   0.413  1.00  0.00    -0.2207 NA
ATOM     22 C24  WH0 L   1      -4.506   2.269   0.575  1.00  0.00    +0.0334  A
ATOM     23 C25  WH0 L   1      -3.168   2.362   0.586  1.00  0.00    -0.0173  A
ATOM     24 C26  WH0 L   1      -2.419   1.181   0.399  1.00  0.00    +0.0803  A
ATOM     25 C27  WH0 L   1      -1.091   0.828   0.321  1.00  0.00    +0.0353  A
ATOM     26 H66  WH0 L   1      -5.105   3.167   0.713  1.00  0.00    +0.0831  H
ATOM     27 H67  WH0 L   1      -2.674   3.317   0.731  1.00  0.00    +0.0654  H
BRANCH 17 30
ATOM     28  C9  WH0 L   1       2.186  -1.997  -1.168  1.00  0.00    -0.0351  A
ATOM     29 C10  WH0 L   1       1.066  -1.157  -0.994  1.00  0.00    -0.0488  A
ATOM     30 C11  WH0 L   1       0.049  -1.472  -0.083  1.00  0.00    +0.0030  A
ATOM     31 C38  WH0 L   1       0.142  -2.652   0.655  1.00  0.00    -0.0519  A
ATOM     32 C39  WH0 L   1       1.245  -3.495   0.499  1.00  0.00    -0.0492  A
ATOM     33 C40  WH0 L   1       2.281  -3.183  -0.404  1.00  0.00    +0.0580  A
ATOM     34 H55  WH0 L   1       0.981  -0.251  -1.592  1.00  0.00    +0.0627  H
ATOM     35 H74  WH0 L   1      -0.644  -2.921   1.358  1.00  0.00    +0.0624  H
ATOM     36 H75  WH0 L   1       1.288  -4.410   1.088  1.00  0.00    +0.0623  H
BRANCH 28 37
ATOM     37  C8  WH0 L   1       3.239  -1.595  -2.181  1.00  0.00    -0.0255  C
ATOM     38 H53  WH0 L   1       3.687  -2.495  -2.617  1.00  0.00    +0.0314  H
ATOM     39 H54  WH0 L   1       2.752  -1.093  -3.028  1.00  0.00    +0.0314  H
BRANCH 37 40
ATOM     40  C7  WH0 L   1       4.357  -0.705  -1.625  1.00  0.00    -0.0315  C
ATOM     41 H51  WH0 L   1       5.155  -0.655  -2.375  1.00  0.00    +0.0285  H
ATOM     42 H52  WH0 L   1       4.802  -1.151  -0.728  1.00  0.00    +0.0285  H
BRANCH 40 43
ATOM     43  C6  WH0 L   1       3.891   0.715  -1.311  1.00  0.00    +0.0187  C
ATOM     44 H49  WH0 L   1       3.222   0.712  -0.447  1.00  0.00    +0.0486  H
ATOM     45 H50  WH0 L   1       3.352   1.144  -2.163  1.00  0.00    +0.0486  H
BRANCH 43 48
ATOM     46  C3  WH0 L   1       5.519   1.755   0.226  1.00  0.00    +0.2443  C
ATOM     47  O4  WH0 L   1       5.107   1.175   1.221  1.00  0.00    -0.2683 OA
ATOM     48  N5  WH0 L   1       5.005   1.601  -1.038  1.00  0.00    -0.3525  N
ATOM     49 H48  WH0 L   1       5.420   2.101  -1.813  1.00  0.00    +0.1626 HD
BRANCH 46 51
ATOM     50  C1  WH0 L   1       7.250   3.005   1.433  1.00  0.00    -0.0936  C
ATOM     51  C2  WH0 L   1       6.632   2.738   0.276  1.00  0.00    -0.0047  C
ATOM     52 H45  WH0 L   1       8.059   3.728   1.478  1.00  0.00    +0.0536  H
ATOM     53 H46  WH0 L   1       6.969   2.507   2.357  1.00  0.00    +0.0536  H
ATOM     54 H47  WH0 L   1       6.924   3.244  -0.635  1.00  0.00    +0.0666  H
ENDBRANCH 46 51
ENDBRANCH 43 48
ENDBRANCH 40 43
ENDBRANCH 37 40
ENDBRANCH 28 37
BRANCH 33 55
ATOM     55 C41  WH0 L   1       3.432  -4.157  -0.556  1.00  0.00    +0.4177  C
ATOM     56 F42  WH0 L   1       3.423  -4.784  -1.766  1.00  0.00    -0.1659  F
ATOM     57 F43  WH0 L   1       4.655  -3.570  -0.448  1.00  0.00    -0.1659  F
ATOM     58 F44  WH0 L   1       3.425  -5.157   0.372  1.00  0.00    -0.1659  F
ENDBRANCH 33 55
ENDBRANCH 17 30
BRANCH 20 59
ATOM     59 N16  WH0 L   1      -5.308  -1.222   0.146  1.00  0.00    -0.3401  N
ATOM     60 C17  WH0 L   1      -4.716  -2.549   0.347  1.00  0.00    +0.0237  C
ATOM     61 C18  WH0 L   1      -5.766  -3.542   0.839  1.00  0.00    -0.0090  C
ATOM     62 C19  WH0 L   1      -6.982  -3.559  -0.074  1.00  0.00    +0.0585  C
ATOM     63 O20  WH0 L   1      -7.971  -4.440   0.453  1.00  0.00    -0.3917 OA
ATOM     64 C21  WH0 L   1      -7.559  -2.158  -0.212  1.00  0.00    -0.0090  C
ATOM     65 C22  WH0 L   1      -6.496  -1.196  -0.720  1.00  0.00    +0.0237  C
ATOM     66 H56  WH0 L   1      -4.266  -2.905  -0.587  1.00  0.00    +0.0489  H
ATOM     67 H57  WH0 L   1      -3.945  -2.519   1.124  1.00  0.00    +0.0489  H
ATOM     68 H58  WH0 L   1      -5.333  -4.547   0.907  1.00  0.00    +0.0307  H
ATOM     69 H59  WH0 L   1      -6.075  -3.280   1.860  1.00  0.00    +0.0307  H
ATOM     70 H60  WH0 L   1      -6.700  -3.944  -1.061  1.00  0.00    +0.0594  H
ATOM     71 H61  WH0 L   1      -8.235  -4.107   1.329  1.00  0.00    +0.2098 HD
ATOM     72 H62  WH0 L   1      -8.419  -2.171  -0.892  1.00  0.00    +0.0307  H
ATOM     73 H63  WH0 L   1      -7.946  -1.816   0.757  1.00  0.00    +0.0307  H
ATOM     74 H64  WH0 L   1      -6.199  -1.462  -1.742  1.00  0.00    +0.0489  H
ATOM     75 H65  WH0 L   1      -6.941  -0.196  -0.771  1.00  0.00    +0.0489  H
ENDBRANCH 20 59
ENDBRANCH 1 25
TORSDOF 9
