ROOT
ATOM      1  O1  378 L   1       1.171   1.321  -2.233  1.00  0.00    -0.2676 OA
ATOM      2  C2  378 L   1       1.445   0.722  -1.196  1.00  0.00    +0.2536  C
ATOM      3  N9  378 L   1       0.506   0.400  -0.249  1.00  0.00    -0.3353  N
ATOM      4 C10  378 L   1       0.664  -0.434   0.930  1.00  0.00    +0.0245  C
ATOM      5 C11  378 L   1      -0.760  -0.820   1.316  1.00  0.00    -0.0004  C
ATOM      6 C12  378 L   1      -1.586   0.417   0.919  1.00  0.00    +0.1100  C
ATOM      7 O13  378 L   1      -1.374   1.417   1.928  1.00  0.00    -0.3821 OA
ATOM      8 C21  378 L   1      -0.874   0.844  -0.388  1.00  0.00    +0.0545  C
ATOM      9 H29  378 L   1       1.290  -1.306   0.720  1.00  0.00    +0.0490  H
ATOM     10 H30  378 L   1       1.134   0.168   1.715  1.00  0.00    +0.0490  H
ATOM     11 H31  378 L   1      -0.816  -1.063   2.382  1.00  0.00    +0.0314  H
ATOM     12 H32  378 L   1      -1.071  -1.698   0.737  1.00  0.00    +0.0314  H
ATOM     13 H33  378 L   1      -2.203   1.913   2.043  1.00  0.00    +0.2107 HD
ATOM     14 H38  378 L   1      -1.283   0.339  -1.271  1.00  0.00    +0.0520  H
ATOM     15 H39  378 L   1      -0.890   1.928  -0.548  1.00  0.00    +0.0520  H
ENDROOT
BRANCH 2 16
ATOM     16  C3  378 L   1       2.837   0.273  -0.953  1.00  0.00    +0.0510  C
ATOM     17  C4  378 L   1       3.516   0.748   0.101  1.00  0.00    +0.0928  C
ATOM     18  O5  378 L   1       4.816   0.439   0.410  1.00  0.00    -0.4990 OA
ATOM     19  C6  378 L   1       5.375  -0.635  -0.361  1.00  0.00    +0.0891  C
ATOM     20  C7  378 L   1       5.002  -0.554  -1.836  1.00  0.00    -0.0144  C
ATOM     21  C8  378 L   1       3.483  -0.586  -1.992  1.00  0.00    -0.0166  C
ATOM     22 H22  378 L   1       3.113   1.456   0.815  1.00  0.00    +0.1028  H
ATOM     23 H23  378 L   1       6.463  -0.584  -0.249  1.00  0.00    +0.0696  H
ATOM     24 H24  378 L   1       5.045  -1.585   0.077  1.00  0.00    +0.0696  H
ATOM     25 H25  378 L   1       5.459  -1.377  -2.397  1.00  0.00    +0.0301  H
ATOM     26 H26  378 L   1       5.385   0.386  -2.255  1.00  0.00    +0.0301  H
ATOM     27 H27  378 L   1       3.120  -1.614  -1.876  1.00  0.00    +0.0317  H
ATOM     28 H28  378 L   1       3.219  -0.257  -3.003  1.00  0.00    +0.0317  H
ENDBRANCH 2 16
BRANCH 6 29
ATOM     29 C14  378 L   1      -3.085   0.188   0.796  1.00  0.00    -0.0142  A
ATOM     30 C15  378 L   1      -3.749  -0.705   1.659  1.00  0.00    -0.0531  A
ATOM     31 C16  378 L   1      -5.131  -0.895   1.571  1.00  0.00    -0.0261  A
ATOM     32 C17  378 L   1      -5.863  -0.184   0.632  1.00  0.00    +0.1234  A
ATOM     33 F18  378 L   1      -7.187  -0.365   0.550  1.00  0.00    -0.2055  F
ATOM     34 C19  378 L   1      -5.241   0.720  -0.217  1.00  0.00    -0.0261  A
ATOM     35 C20  378 L   1      -3.859   0.913  -0.130  1.00  0.00    -0.0531  A
ATOM     36 H34  378 L   1      -3.200  -1.258   2.418  1.00  0.00    +0.0622  H
ATOM     37 H35  378 L   1      -5.638  -1.589   2.234  1.00  0.00    +0.0646  H
ATOM     38 H36  378 L   1      -5.834   1.275  -0.938  1.00  0.00    +0.0646  H
ATOM     39 H37  378 L   1      -3.402   1.642  -0.797  1.00  0.00    +0.0622  H
ENDBRANCH 6 29
TORSDOF 2
