ROOT
ATOM      1  C5  CHE L   1      -3.995   0.516   0.244  1.00  0.00    -0.0247  A
ATOM      2  C6  CHE L   1      -4.004   1.767  -0.388  1.00  0.00    -0.0511  A
ATOM      3  C7  CHE L   1      -5.207   2.360  -0.775  1.00  0.00    -0.0196  A
ATOM      4  C8  CHE L   1      -6.406   1.703  -0.534  1.00  0.00    +0.1169  A
ATOM      5  O9  CHE L   1      -7.557   2.316  -0.929  1.00  0.00    -0.5068 OA
ATOM      6 C10  CHE L   1      -6.423   0.457   0.083  1.00  0.00    -0.0196  A
ATOM      7 C11  CHE L   1      -5.216  -0.139   0.463  1.00  0.00    -0.0511  A
ATOM      8 H26  CHE L   1      -3.074   2.298  -0.576  1.00  0.00    +0.0625  H
ATOM      9 H27  CHE L   1      -5.207   3.331  -1.263  1.00  0.00    +0.0654  H
ATOM     10 H28  CHE L   1      -8.309   1.757  -0.676  1.00  0.00    +0.2921 HD
ATOM     11 H29  CHE L   1      -7.355  -0.066   0.270  1.00  0.00    +0.0654  H
ATOM     12 H30  CHE L   1      -5.245  -1.122   0.925  1.00  0.00    +0.0625  H
ENDROOT
BRANCH 1 14
ATOM     13  C3  CHE L   1      -2.504  -0.831   1.695  1.00  0.00    -0.0182  C
ATOM     14  C4  CHE L   1      -2.702  -0.089   0.596  1.00  0.00    -0.0513  C
ATOM     15 H24  CHE L   1      -3.302  -1.020   2.406  1.00  0.00    +0.0653  H
ATOM     16 H25  CHE L   1      -1.893   0.139  -0.091  1.00  0.00    +0.0624  H
BRANCH 13 18
ATOM     17  O1  CHE L   1      -1.177  -2.118   3.126  1.00  0.00    -0.2922 OA
ATOM     18  C2  CHE L   1      -1.208  -1.454   2.087  1.00  0.00    +0.1635  C
BRANCH 18 19
ATOM     19 C12  CHE L   1       0.016  -1.321   1.217  1.00  0.00    +0.0724  C
ATOM     20 H31  CHE L   1      -0.252  -1.521   0.175  1.00  0.00    +0.0426  H
ATOM     21 H32  CHE L   1       0.713  -2.105   1.534  1.00  0.00    +0.0426  H
BRANCH 19 22
ATOM     22 C13  CHE L   1       0.706   0.014   1.325  1.00  0.00    +0.1635  C
ATOM     23 O14  CHE L   1       0.174   1.000   1.834  1.00  0.00    -0.2922 OA
BRANCH 22 24
ATOM     24 C15  CHE L   1       2.079   0.180   0.770  1.00  0.00    -0.0182  C
ATOM     25 C16  CHE L   1       2.708  -0.730   0.011  1.00  0.00    -0.0513  C
ATOM     26 H33  CHE L   1       2.536   1.136   1.014  1.00  0.00    +0.0653  H
ATOM     27 H34  CHE L   1       2.239  -1.667  -0.278  1.00  0.00    +0.0624  H
BRANCH 25 28
ATOM     28 C17  CHE L   1       4.057  -0.517  -0.528  1.00  0.00    -0.0247  A
ATOM     29 C18  CHE L   1       4.329  -0.894  -1.850  1.00  0.00    -0.0511  A
ATOM     30 C19  CHE L   1       5.609  -0.732  -2.384  1.00  0.00    -0.0196  A
ATOM     31 C20  CHE L   1       6.622  -0.202  -1.595  1.00  0.00    +0.1169  A
ATOM     32 O21  CHE L   1       7.856  -0.064  -2.155  1.00  0.00    -0.5068 OA
ATOM     33 C22  CHE L   1       6.379   0.165  -0.276  1.00  0.00    -0.0196  A
ATOM     34 C23  CHE L   1       5.097   0.002   0.258  1.00  0.00    -0.0511  A
ATOM     35 H35  CHE L   1       3.547  -1.311  -2.481  1.00  0.00    +0.0625  H
ATOM     36 H36  CHE L   1       5.815  -1.021  -3.411  1.00  0.00    +0.0654  H
ATOM     37 H37  CHE L   1       8.459   0.310  -1.492  1.00  0.00    +0.2921 HD
ATOM     38 H38  CHE L   1       7.169   0.566   0.353  1.00  0.00    +0.0654  H
ATOM     39 H39  CHE L   1       4.926   0.272   1.298  1.00  0.00    +0.0625  H
ENDBRANCH 25 28
ENDBRANCH 22 24
ENDBRANCH 19 22
ENDBRANCH 18 19
ENDBRANCH 13 18
ENDBRANCH 1 14
TORSDOF 6
