ROOT
ATOM      1  C5  CHE L   1       2.141   0.906   0.134  1.00  0.00    +0.1508  A
ATOM      2  C6  CHE L   1       1.115   1.693  -0.413  1.00  0.00    +0.0837  A
ATOM      3 CL7  CHE L   1       1.143   3.417  -0.324  1.00  0.00    -0.0797 Cl
ATOM      4  C8  CHE L   1       0.012   1.096  -1.028  1.00  0.00    -0.0320  A
ATOM      5  C9  CHE L   1      -0.097  -0.294  -1.076  1.00  0.00    -0.0125  A
ATOM      6 C21  CHE L   1       0.898  -1.078  -0.483  1.00  0.00    -0.0386  A
ATOM      7 C22  CHE L   1       2.012  -0.492   0.153  1.00  0.00    +0.0984  A
ATOM      8 H34  CHE L   1      -0.772   1.719  -1.452  1.00  0.00    +0.0639  H
ATOM      9 H48  CHE L   1       0.807  -2.164  -0.506  1.00  0.00    +0.0630  H
ENDROOT
BRANCH 1 10
ATOM     10  O4  CHE L   1       3.208   1.520   0.740  1.00  0.00    -0.4873 OA
BRANCH 10 12
ATOM     11  C1  CHE L   1       4.575   2.870  -0.751  1.00  0.00    -0.0281  C
ATOM     12  C2  CHE L   1       4.406   1.518  -0.062  1.00  0.00    +0.0947  C
ATOM     13  C3  CHE L   1       5.583   1.273   0.881  1.00  0.00    -0.0281  C
ATOM     14 H27  CHE L   1       5.538   2.938  -1.263  1.00  0.00    +0.0265  H
ATOM     15 H28  CHE L   1       4.502   3.692  -0.029  1.00  0.00    +0.0265  H
ATOM     16 H29  CHE L   1       3.792   3.023  -1.497  1.00  0.00    +0.0265  H
ATOM     17 H30  CHE L   1       4.388   0.728  -0.826  1.00  0.00    +0.0727  H
ATOM     18 H31  CHE L   1       5.631   2.046   1.657  1.00  0.00    +0.0265  H
ATOM     19 H32  CHE L   1       6.532   1.263   0.337  1.00  0.00    +0.0265  H
ATOM     20 H33  CHE L   1       5.474   0.318   1.402  1.00  0.00    +0.0265  H
ENDBRANCH 10 12
ENDBRANCH 1 10
BRANCH 5 21
ATOM     21 C10  CHE L   1      -1.235  -0.918  -1.715  1.00  0.00    +0.0238  A
ATOM     22 C11  CHE L   1      -1.575  -0.704  -3.032  1.00  0.00    +0.0303  A
ATOM     23 N12  CHE L   1      -2.671  -1.476  -3.272  1.00  0.00    -0.2838  N
ATOM     24 N13  CHE L   1      -3.078  -2.177  -2.205  1.00  0.00    -0.1770 NA
ATOM     25 C14  CHE L   1      -2.218  -1.830  -1.230  1.00  0.00    +0.0844  A
ATOM     26 H35  CHE L   1      -1.134  -0.100  -3.811  1.00  0.00    +0.0830  H
ATOM     27 H36  CHE L   1      -3.186  -1.584  -4.139  1.00  0.00    +0.1882 HD
BRANCH 25 28
ATOM     28 C15  CHE L   1      -2.366  -2.410   0.155  1.00  0.00    +0.0433  C
ATOM     29 H37  CHE L   1      -1.388  -2.462   0.647  1.00  0.00    +0.0492  H
ATOM     30 H38  CHE L   1      -2.691  -3.456   0.071  1.00  0.00    +0.0492  H
BRANCH 28 31
ATOM     31 N16  CHE L   1      -3.306  -1.684   1.038  1.00  0.00    -0.2984 NA
ATOM     32 C17  CHE L   1      -4.677  -1.737   0.531  1.00  0.00    -0.0123  C
ATOM     33 H39  CHE L   1      -4.837  -1.074  -0.326  1.00  0.00    +0.0391  H
ATOM     34 H40  CHE L   1      -5.387  -1.455   1.313  1.00  0.00    +0.0391  H
ATOM     35 H41  CHE L   1      -4.951  -2.758   0.238  1.00  0.00    +0.0391  H
BRANCH 31 36
ATOM     36 C18  CHE L   1      -2.855  -0.315   1.334  1.00  0.00    +0.0113  C
ATOM     37 H42  CHE L   1      -1.797  -0.347   1.627  1.00  0.00    +0.0439  H
ATOM     38 H43  CHE L   1      -2.926   0.320   0.442  1.00  0.00    +0.0439  H
BRANCH 36 39
ATOM     39 C19  CHE L   1      -3.627   0.361   2.490  1.00  0.00    +0.0059  C
ATOM     40 N20  CHE L   1      -3.075   1.683   2.804  1.00  0.00    -0.3288 NA
ATOM     41 H44  CHE L   1      -3.576  -0.264   3.390  1.00  0.00    +0.0434  H
ATOM     42 H45  CHE L   1      -4.682   0.487   2.227  1.00  0.00    +0.0434  H
ATOM     43 H46  CHE L   1      -3.147   2.286   1.984  1.00  0.00    +0.1183 HD
ATOM     44 H47  CHE L   1      -3.645   2.117   3.530  1.00  0.00    +0.1183 HD
ENDBRANCH 36 39
ENDBRANCH 31 36
ENDBRANCH 28 31
ENDBRANCH 25 28
ENDBRANCH 5 21
BRANCH 7 45
ATOM     45 C23  CHE L   1       3.019  -1.380   0.836  1.00  0.00    +0.4208  C
ATOM     46 F24  CHE L   1       2.570  -2.657   1.008  1.00  0.00    -0.1658  F
ATOM     47 F25  CHE L   1       4.175  -1.503   0.123  1.00  0.00    -0.1658  F
ATOM     48 F26  CHE L   1       3.377  -0.957   2.079  1.00  0.00    -0.1658  F
ENDBRANCH 7 45
TORSDOF 8
