ROOT
ATOM      1  C8  WH0 L   1      -4.092   1.579   0.253  1.00  0.00    -0.0451  A
ATOM      2  C9  WH0 L   1      -4.442   2.928   0.021  1.00  0.00    -0.0566  A
ATOM      3 C10  WH0 L   1      -3.461   3.915  -0.108  1.00  0.00    -0.0376  A
ATOM      4 C11  WH0 L   1      -2.143   3.523  -0.003  1.00  0.00    +0.0507  A
ATOM      5 C12  WH0 L   1      -1.770   2.199   0.226  1.00  0.00    +0.0444  A
ATOM      6 C13  WH0 L   1      -2.739   1.214   0.352  1.00  0.00    -0.0478  A
ATOM      7 C14  WH0 L   1      -0.261   2.085   0.289  1.00  0.00    +0.2804  C
ATOM      8 O15  WH0 L   1       0.125   1.677   1.602  1.00  0.00    -0.3368 OA
ATOM      9 C16  WH0 L   1       0.591   0.335   1.634  1.00  0.00    +0.0637  C
ATOM     10 C17  WH0 L   1       1.812   0.168   0.727  1.00  0.00    +0.0644  C
ATOM     11 C18  WH0 L   1       3.066   0.764   1.379  1.00  0.00    +0.0637  C
ATOM     12 O19  WH0 L   1       4.227   0.469   0.608  1.00  0.00    -0.3368 OA
ATOM     13 C20  WH0 L   1       4.409  -0.930   0.436  1.00  0.00    +0.2804  C
ATOM     14 O21  WH0 L   1       3.297  -1.523  -0.221  1.00  0.00    -0.3368 OA
ATOM     15 C22  WH0 L   1       2.084  -1.323   0.498  1.00  0.00    +0.0637  C
ATOM     16 C23  WH0 L   1       4.930  -1.719   1.728  1.00  0.00    +0.2902  C
ATOM     17 O24  WH0 L   1       4.336  -1.891   2.784  1.00  0.00    -0.2665 OA
ATOM     18 N25  WH0 L   1       6.206  -2.197   1.446  1.00  0.00    -0.3210  N
ATOM     19 C26  WH0 L   1       6.601  -1.844   0.166  1.00  0.00    +0.0507  A
ATOM     20 C27  WH0 L   1       7.802  -2.152  -0.440  1.00  0.00    -0.0378  A
ATOM     21 C28  WH0 L   1       8.001  -1.696  -1.745  1.00  0.00    -0.0598  A
ATOM     22 C29  WH0 L   1       7.007  -0.952  -2.406  1.00  0.00    -0.0612  A
ATOM     23 C30  WH0 L   1       5.798  -0.652  -1.772  1.00  0.00    -0.0510  A
ATOM     24 C31  WH0 L   1       5.605  -1.108  -0.475  1.00  0.00    +0.0441  A
ATOM     25 C32  WH0 L   1       1.550   0.882  -0.613  1.00  0.00    +0.0637  C
ATOM     26 O33  WH0 L   1       0.164   1.200  -0.741  1.00  0.00    -0.3368 OA
ATOM     27 C34  WH0 L   1       0.147   3.606   0.050  1.00  0.00    +0.2902  C
ATOM     28 O35  WH0 L   1       1.273   4.082   0.008  1.00  0.00    -0.2665 OA
ATOM     29 N36  WH0 L   1      -1.028   4.337  -0.106  1.00  0.00    -0.3210  N
ATOM     30 H45  WH0 L   1      -5.490   3.212  -0.060  1.00  0.00    +0.0621  H
ATOM     31 H46  WH0 L   1      -3.736   4.949  -0.286  1.00  0.00    +0.0638  H
ATOM     32 H47  WH0 L   1      -2.453   0.179   0.520  1.00  0.00    +0.0625  H
ATOM     33 H48  WH0 L   1      -0.225  -0.337   1.342  1.00  0.00    +0.0569  H
ATOM     34 H49  WH0 L   1       0.837   0.090   2.673  1.00  0.00    +0.0569  H
ATOM     35 H50  WH0 L   1       3.207   0.396   2.402  1.00  0.00    +0.0569  H
ATOM     36 H51  WH0 L   1       2.989   1.855   1.455  1.00  0.00    +0.0569  H
ATOM     37 H52  WH0 L   1       2.126  -1.877   1.443  1.00  0.00    +0.0569  H
ATOM     38 H53  WH0 L   1       1.278  -1.775  -0.091  1.00  0.00    +0.0569  H
ATOM     39 H54  WH0 L   1       6.750  -2.730   2.106  1.00  0.00    +0.1688 HD
ATOM     40 H55  WH0 L   1       8.569  -2.725   0.069  1.00  0.00    +0.0638  H
ATOM     41 H56  WH0 L   1       8.934  -1.916  -2.259  1.00  0.00    +0.0618  H
ATOM     42 H57  WH0 L   1       7.181  -0.605  -3.422  1.00  0.00    +0.0618  H
ATOM     43 H58  WH0 L   1       5.028  -0.077  -2.277  1.00  0.00    +0.0623  H
ATOM     44 H59  WH0 L   1       2.140   1.798  -0.729  1.00  0.00    +0.0569  H
ATOM     45 H60  WH0 L   1       1.811   0.248  -1.467  1.00  0.00    +0.0569  H
ATOM     46 H61  WH0 L   1      -1.032   5.333  -0.267  1.00  0.00    +0.1688 HD
ENDROOT
BRANCH 1 47
ATOM     47  C7  WH0 L   1      -5.163   0.521   0.370  1.00  0.00    -0.0102  C
ATOM     48 H43  WH0 L   1      -6.113   0.983   0.668  1.00  0.00    +0.0330  H
ATOM     49 H44  WH0 L   1      -4.902  -0.163   1.188  1.00  0.00    +0.0330  H
BRANCH 47 50
ATOM     50  C6  WH0 L   1      -5.348  -0.248  -0.940  1.00  0.00    +0.0223  C
ATOM     51 H41  WH0 L   1      -5.639   0.431  -1.750  1.00  0.00    +0.0489  H
ATOM     52 H42  WH0 L   1      -4.413  -0.738  -1.237  1.00  0.00    +0.0489  H
BRANCH 50 55
ATOM     53  C3  WH0 L   1      -6.149  -2.462  -0.230  1.00  0.00    +0.2443  C
ATOM     54  O4  WH0 L   1      -5.078  -2.786   0.270  1.00  0.00    -0.2683 OA
ATOM     55  N5  WH0 L   1      -6.384  -1.259  -0.842  1.00  0.00    -0.3522  N
ATOM     56 H40  WH0 L   1      -7.329  -1.004  -1.088  1.00  0.00    +0.1626 HD
BRANCH 53 58
ATOM     57  C1  WH0 L   1      -8.350  -3.403  -0.986  1.00  0.00    -0.0936  C
ATOM     58  C2  WH0 L   1      -7.319  -3.371  -0.132  1.00  0.00    -0.0047  C
ATOM     59 H37  WH0 L   1      -8.423  -2.750  -1.848  1.00  0.00    +0.0536  H
ATOM     60 H38  WH0 L   1      -9.145  -4.131  -0.850  1.00  0.00    +0.0536  H
ATOM     61 H39  WH0 L   1      -7.253  -4.090   0.679  1.00  0.00    +0.0666  H
ENDBRANCH 53 58
ENDBRANCH 50 55
ENDBRANCH 47 50
ENDBRANCH 1 47
TORSDOF 4
