ROOT
ATOM      1 C32  WH0 L   1      -1.124   3.105  -0.326  1.00  0.00    -0.0133  A
ATOM      2 C33  WH0 L   1      -0.046   3.769  -0.955  1.00  0.00    -0.0519  A
ATOM      3 C34  WH0 L   1       0.085   5.160  -0.886  1.00  0.00    -0.0374  A
ATOM      4 C35  WH0 L   1      -0.879   5.851  -0.184  1.00  0.00    +0.0454  A
ATOM      5 C36  WH0 L   1      -1.949   5.216   0.441  1.00  0.00    -0.0145  A
ATOM      6 C37  WH0 L   1      -2.087   3.841   0.386  1.00  0.00    -0.0483  A
ATOM      7 C38  WH0 L   1      -2.811   6.242   1.114  1.00  0.00    +0.0535  C
ATOM      8 C39  WH0 L   1      -2.081   7.547   0.776  1.00  0.00    +0.2296  C
ATOM      9 O40  WH0 L   1      -2.414   8.673   1.105  1.00  0.00    -0.2725 OA
ATOM     10 N41  WH0 L   1      -0.963   7.218   0.020  1.00  0.00    -0.3256  N
ATOM     11 H68  WH0 L   1       0.699   3.198  -1.507  1.00  0.00    +0.0624  H
ATOM     12 H69  WH0 L   1       0.914   5.664  -1.366  1.00  0.00    +0.0638  H
ATOM     13 H70  WH0 L   1      -2.916   3.350   0.889  1.00  0.00    +0.0627  H
ATOM     14 H71  WH0 L   1      -2.828   6.101   2.198  1.00  0.00    +0.0410  H
ATOM     15 H72  WH0 L   1      -3.815   6.262   0.683  1.00  0.00    +0.0410  H
ATOM     16 H73  WH0 L   1      -0.317   7.910  -0.329  1.00  0.00    +0.1686 HD
ENDROOT
BRANCH 1 25
ATOM     17 C16  WH0 L   1      -0.277   0.641  -0.054  1.00  0.00    +0.1018  A
ATOM     18 N17  WH0 L   1      -0.773  -0.587  -0.272  1.00  0.00    -0.1627 NA
ATOM     19 N18  WH0 L   1      -2.022  -0.371  -0.760  1.00  0.00    -0.1987  N
ATOM     20 C19  WH0 L   1      -2.924  -1.414  -1.148  1.00  0.00    +0.2282  A
ATOM     21 N27  WH0 L   1      -4.080  -1.070  -1.674  1.00  0.00    -0.2207 NA
ATOM     22 C28  WH0 L   1      -4.370   0.268  -1.810  1.00  0.00    +0.0334  A
ATOM     23 C29  WH0 L   1      -3.570   1.283  -1.446  1.00  0.00    -0.0173  A
ATOM     24 C30  WH0 L   1      -2.314   0.971  -0.880  1.00  0.00    +0.0803  A
ATOM     25 C31  WH0 L   1      -1.222   1.658  -0.396  1.00  0.00    +0.0353  A
ATOM     26 H66  WH0 L   1      -5.338   0.484  -2.256  1.00  0.00    +0.0831  H
ATOM     27 H67  WH0 L   1      -3.871   2.313  -1.598  1.00  0.00    +0.0654  H
BRANCH 17 33
ATOM     28  C8  WH0 L   1       2.232   0.405  -0.172  1.00  0.00    -0.0330  A
ATOM     29  C9  WH0 L   1       3.493   0.669   0.412  1.00  0.00    -0.0161  A
ATOM     30 C10  WH0 L   1       3.600   1.326   1.638  1.00  0.00    +0.1204  A
ATOM     31 C13  WH0 L   1       2.440   1.725   2.296  1.00  0.00    -0.0193  A
ATOM     32 C14  WH0 L   1       1.185   1.479   1.736  1.00  0.00    -0.0488  A
ATOM     33 C15  WH0 L   1       1.066   0.824   0.501  1.00  0.00    +0.0062  A
ATOM     34 H50  WH0 L   1       4.382   0.347  -0.125  1.00  0.00    +0.0657  H
ATOM     35 H54  WH0 L   1       2.510   2.238   3.253  1.00  0.00    +0.0654  H
ATOM     36 H55  WH0 L   1       0.298   1.807   2.274  1.00  0.00    +0.0625  H
BRANCH 28 37
ATOM     37  C7  WH0 L   1       2.204  -0.321  -1.505  1.00  0.00    -0.0094  C
ATOM     38 H48  WH0 L   1       1.365   0.043  -2.110  1.00  0.00    +0.0330  H
ATOM     39 H49  WH0 L   1       3.102  -0.050  -2.076  1.00  0.00    +0.0330  H
BRANCH 37 40
ATOM     40  C6  WH0 L   1       2.125  -1.846  -1.376  1.00  0.00    +0.0224  C
ATOM     41 H46  WH0 L   1       1.260  -2.155  -0.787  1.00  0.00    +0.0489  H
ATOM     42 H47  WH0 L   1       2.018  -2.284  -2.374  1.00  0.00    +0.0489  H
BRANCH 40 45
ATOM     43  C3  WH0 L   1       4.037  -3.414  -1.271  1.00  0.00    +0.2443  C
ATOM     44  O4  WH0 L   1       3.861  -3.876  -2.392  1.00  0.00    -0.2683 OA
ATOM     45  N5  WH0 L   1       3.287  -2.414  -0.713  1.00  0.00    -0.3522  N
ATOM     46 H45  WH0 L   1       3.380  -2.223   0.275  1.00  0.00    +0.1626 HD
BRANCH 43 48
ATOM     47  C1  WH0 L   1       5.671  -3.376   0.645  1.00  0.00    -0.0936  C
ATOM     48  C2  WH0 L   1       5.093  -3.987  -0.397  1.00  0.00    -0.0047  C
ATOM     49 H42  WH0 L   1       6.454  -3.882   1.202  1.00  0.00    +0.0536  H
ATOM     50 H43  WH0 L   1       5.416  -2.370   0.959  1.00  0.00    +0.0536  H
ATOM     51 H44  WH0 L   1       5.424  -4.976  -0.704  1.00  0.00    +0.0666  H
ENDBRANCH 43 48
ENDBRANCH 40 45
ENDBRANCH 37 40
ENDBRANCH 28 37
BRANCH 30 52
ATOM     52 O11  WH0 L   1       4.761   1.632   2.290  1.00  0.00    -0.4951 OA
ATOM     53 C12  WH0 L   1       5.978   1.277   1.649  1.00  0.00    +0.0788  C
ATOM     54 H51  WH0 L   1       6.062   0.192   1.536  1.00  0.00    +0.0660  H
ATOM     55 H52  WH0 L   1       6.801   1.609   2.289  1.00  0.00    +0.0660  H
ATOM     56 H53  WH0 L   1       6.083   1.783   0.686  1.00  0.00    +0.0660  H
ENDBRANCH 30 52
ENDBRANCH 17 33
BRANCH 20 57
ATOM     57 N20  WH0 L   1      -2.598  -2.767  -0.984  1.00  0.00    -0.3401  N
ATOM     58 C21  WH0 L   1      -1.762  -3.245   0.122  1.00  0.00    +0.0237  C
ATOM     59 C22  WH0 L   1      -2.153  -4.654   0.569  1.00  0.00    -0.0090  C
ATOM     60 C23  WH0 L   1      -3.670  -4.797   0.623  1.00  0.00    +0.0585  C
ATOM     61 O24  WH0 L   1      -4.012  -6.126   1.011  1.00  0.00    -0.3917 OA
ATOM     62 C25  WH0 L   1      -4.330  -4.484  -0.723  1.00  0.00    -0.0090  C
ATOM     63 C26  WH0 L   1      -3.369  -3.795  -1.686  1.00  0.00    +0.0237  C
ATOM     64 H56  WH0 L   1      -0.710  -3.247  -0.177  1.00  0.00    +0.0489  H
ATOM     65 H57  WH0 L   1      -1.876  -2.583   0.988  1.00  0.00    +0.0489  H
ATOM     66 H58  WH0 L   1      -1.710  -4.879   1.545  1.00  0.00    +0.0307  H
ATOM     67 H59  WH0 L   1      -1.736  -5.402  -0.118  1.00  0.00    +0.0307  H
ATOM     68 H60  WH0 L   1      -4.079  -4.119   1.384  1.00  0.00    +0.0594  H
ATOM     69 H61  WH0 L   1      -3.772  -6.226   1.949  1.00  0.00    +0.2098 HD
ATOM     70 H62  WH0 L   1      -5.192  -3.828  -0.541  1.00  0.00    +0.0307  H
ATOM     71 H63  WH0 L   1      -4.733  -5.388  -1.195  1.00  0.00    +0.0307  H
ATOM     72 H64  WH0 L   1      -3.920  -3.391  -2.543  1.00  0.00    +0.0489  H
ATOM     73 H65  WH0 L   1      -2.674  -4.531  -2.112  1.00  0.00    +0.0489  H
ENDBRANCH 20 57
ENDBRANCH 1 25
TORSDOF 8
