ROOT
ATOM      1 C34  WH0 L   1      -0.671   2.326   1.988  1.00  0.00    -0.0133  A
ATOM      2 C35  WH0 L   1      -0.706   1.986   3.359  1.00  0.00    -0.0519  A
ATOM      3 C36  WH0 L   1      -0.356   2.918   4.342  1.00  0.00    -0.0374  A
ATOM      4 C37  WH0 L   1       0.024   4.171   3.916  1.00  0.00    +0.0454  A
ATOM      5 C38  WH0 L   1       0.070   4.524   2.570  1.00  0.00    -0.0145  A
ATOM      6 C39  WH0 L   1      -0.274   3.612   1.588  1.00  0.00    -0.0483  A
ATOM      7 C40  WH0 L   1       0.522   5.948   2.445  1.00  0.00    +0.0535  C
ATOM      8 C41  WH0 L   1       0.720   6.353   3.910  1.00  0.00    +0.2296  C
ATOM      9 O42  WH0 L   1       1.084   7.441   4.323  1.00  0.00    -0.2725 OA
ATOM     10 N43  WH0 L   1       0.407   5.250   4.695  1.00  0.00    -0.3256  N
ATOM     11 H67  WH0 L   1      -1.018   0.991   3.668  1.00  0.00    +0.0624  H
ATOM     12 H68  WH0 L   1      -0.388   2.656   5.393  1.00  0.00    +0.0638  H
ATOM     13 H69  WH0 L   1      -0.229   3.888   0.539  1.00  0.00    +0.0627  H
ATOM     14 H70  WH0 L   1      -0.252   6.572   1.992  1.00  0.00    +0.0410  H
ATOM     15 H71  WH0 L   1       1.473   6.017   1.912  1.00  0.00    +0.0410  H
ATOM     16 H72  WH0 L   1       0.459   5.266   5.702  1.00  0.00    +0.1686 HD
ENDROOT
BRANCH 1 25
ATOM     17 C18  WH0 L   1      -0.490   0.043   0.728  1.00  0.00    +0.1018  A
ATOM     18 N19  WH0 L   1      -1.140  -0.578  -0.266  1.00  0.00    -0.1627 NA
ATOM     19 N20  WH0 L   1      -2.102   0.303  -0.646  1.00  0.00    -0.1987  N
ATOM     20 C21  WH0 L   1      -3.034   0.067  -1.710  1.00  0.00    +0.2282  A
ATOM     21 N29  WH0 L   1      -3.886   1.025  -2.009  1.00  0.00    -0.2207 NA
ATOM     22 C30  WH0 L   1      -3.863   2.184  -1.266  1.00  0.00    +0.0334  A
ATOM     23 C31  WH0 L   1      -3.022   2.448  -0.254  1.00  0.00    -0.0173  A
ATOM     24 C32  WH0 L   1      -2.061   1.472   0.085  1.00  0.00    +0.0803  A
ATOM     25 C33  WH0 L   1      -1.036   1.333   0.995  1.00  0.00    +0.0353  A
ATOM     26 H65  WH0 L   1      -4.609   2.923  -1.547  1.00  0.00    +0.0831  H
ATOM     27 H66  WH0 L   1      -3.079   3.387   0.287  1.00  0.00    +0.0654  H
BRANCH 17 33
ATOM     28  C8  WH0 L   1       1.969  -0.269   1.144  1.00  0.00    -0.0359  A
ATOM     29  C9  WH0 L   1       2.985  -0.937   1.856  1.00  0.00    -0.0463  A
ATOM     30 C10  WH0 L   1       2.689  -1.944   2.790  1.00  0.00    +0.0551  A
ATOM     31 C15  WH0 L   1       1.351  -2.281   3.018  1.00  0.00    -0.0495  A
ATOM     32 C16  WH0 L   1       0.331  -1.628   2.324  1.00  0.00    -0.0517  A
ATOM     33 C17  WH0 L   1       0.627  -0.616   1.397  1.00  0.00    +0.0060  A
ATOM     34 H52  WH0 L   1       4.028  -0.675   1.675  1.00  0.00    +0.0626  H
ATOM     35 H53  WH0 L   1       1.093  -3.059   3.736  1.00  0.00    +0.0623  H
ATOM     36 H54  WH0 L   1      -0.704  -1.909   2.508  1.00  0.00    +0.0624  H
BRANCH 28 37
ATOM     37  C7  WH0 L   1       2.376   0.759   0.104  1.00  0.00    -0.0095  C
ATOM     38 H50  WH0 L   1       3.402   1.091   0.309  1.00  0.00    +0.0330  H
ATOM     39 H51  WH0 L   1       1.759   1.657   0.210  1.00  0.00    +0.0330  H
BRANCH 37 40
ATOM     40  C6  WH0 L   1       2.299   0.248  -1.339  1.00  0.00    +0.0224  C
ATOM     41 H48  WH0 L   1       2.586   1.058  -2.020  1.00  0.00    +0.0489  H
ATOM     42 H49  WH0 L   1       1.283  -0.054  -1.608  1.00  0.00    +0.0489  H
BRANCH 40 45
ATOM     43  C3  WH0 L   1       3.847  -1.070  -2.739  1.00  0.00    +0.2443  C
ATOM     44  O4  WH0 L   1       3.926  -0.229  -3.624  1.00  0.00    -0.2683 OA
ATOM     45  N5  WH0 L   1       3.153  -0.906  -1.565  1.00  0.00    -0.3522  N
ATOM     46 H47  WH0 L   1       2.984  -1.717  -0.985  1.00  0.00    +0.1626 HD
BRANCH 43 48
ATOM     47  C1  WH0 L   1       5.196  -2.741  -3.926  1.00  0.00    -0.0936  C
ATOM     48  C2  WH0 L   1       4.492  -2.405  -2.838  1.00  0.00    -0.0047  C
ATOM     49 H44  WH0 L   1       5.671  -3.713  -4.004  1.00  0.00    +0.0536  H
ATOM     50 H45  WH0 L   1       5.316  -2.053  -4.759  1.00  0.00    +0.0536  H
ATOM     51 H46  WH0 L   1       4.387  -3.097  -2.014  1.00  0.00    +0.0666  H
ENDBRANCH 43 48
ENDBRANCH 40 45
ENDBRANCH 37 40
ENDBRANCH 28 37
BRANCH 30 52
ATOM     52 C11  WH0 L   1       3.802  -2.627   3.550  1.00  0.00    +0.4174  C
ATOM     53 F12  WH0 L   1       4.904  -2.851   2.781  1.00  0.00    -0.1659  F
ATOM     54 F13  WH0 L   1       3.445  -3.844   4.047  1.00  0.00    -0.1659  F
ATOM     55 F14  WH0 L   1       4.227  -1.895   4.614  1.00  0.00    -0.1659  F
ENDBRANCH 30 52
ENDBRANCH 17 33
BRANCH 20 56
ATOM     56 N22  WH0 L   1      -3.042  -1.132  -2.436  1.00  0.00    -0.3401  N
ATOM     57 C23  WH0 L   1      -3.776  -1.193  -3.708  1.00  0.00    +0.0237  C
ATOM     58 C24  WH0 L   1      -3.159  -2.242  -4.625  1.00  0.00    -0.0090  C
ATOM     59 C25  WH0 L   1      -3.194  -3.629  -3.989  1.00  0.00    +0.0585  C
ATOM     60 O26  WH0 L   1      -4.280  -4.370  -4.546  1.00  0.00    -0.3917 OA
ATOM     61 C27  WH0 L   1      -3.350  -3.582  -2.473  1.00  0.00    -0.0090  C
ATOM     62 C28  WH0 L   1      -2.591  -2.406  -1.871  1.00  0.00    +0.0237  C
ATOM     63 H55  WH0 L   1      -3.724  -0.227  -4.224  1.00  0.00    +0.0489  H
ATOM     64 H56  WH0 L   1      -4.834  -1.409  -3.518  1.00  0.00    +0.0489  H
ATOM     65 H57  WH0 L   1      -3.672  -2.239  -5.593  1.00  0.00    +0.0307  H
ATOM     66 H58  WH0 L   1      -2.112  -1.965  -4.810  1.00  0.00    +0.0307  H
ATOM     67 H59  WH0 L   1      -2.275  -4.162  -4.260  1.00  0.00    +0.0594  H
ATOM     68 H60  WH0 L   1      -4.256  -5.265  -4.166  1.00  0.00    +0.2098 HD
ATOM     69 H61  WH0 L   1      -4.413  -3.512  -2.206  1.00  0.00    +0.0307  H
ATOM     70 H62  WH0 L   1      -3.000  -4.525  -2.038  1.00  0.00    +0.0307  H
ATOM     71 H63  WH0 L   1      -2.771  -2.430  -0.790  1.00  0.00    +0.0489  H
ATOM     72 H64  WH0 L   1      -1.517  -2.529  -2.051  1.00  0.00    +0.0489  H
ENDBRANCH 20 56
ENDBRANCH 1 25
TORSDOF 8
