ROOT
ATOM      1  F1  SEL L   1      -5.309  -4.178  -2.483  1.00  0.00    -0.2055  F
ATOM      2  C2  SEL L   1      -4.769  -3.220  -1.718  1.00  0.00    +0.1234  A
ATOM      3  C3  SEL L   1      -5.430  -2.806  -0.571  1.00  0.00    -0.0261  A
ATOM      4  C4  SEL L   1      -4.865  -1.807   0.225  1.00  0.00    -0.0540  A
ATOM      5  C5  SEL L   1      -3.629  -1.216  -0.114  1.00  0.00    -0.0257  A
ATOM      6 C28  SEL L   1      -2.993  -1.650  -1.290  1.00  0.00    -0.0540  A
ATOM      7 C29  SEL L   1      -3.558  -2.651  -2.085  1.00  0.00    -0.0261  A
ATOM      8 H30  SEL L   1      -6.380  -3.258  -0.304  1.00  0.00    +0.0646  H
ATOM      9 H31  SEL L   1      -5.400  -1.483   1.116  1.00  0.00    +0.0622  H
ATOM     10 H55  SEL L   1      -2.049  -1.219  -1.605  1.00  0.00    +0.0622  H
ATOM     11 H56  SEL L   1      -3.060  -2.987  -2.989  1.00  0.00    +0.0646  H
ENDROOT
BRANCH 5 12
ATOM     12  C6  SEL L   1      -3.075  -0.107   0.792  1.00  0.00    +0.0610  C
ATOM     13 H32  SEL L   1      -3.458  -0.376   1.790  1.00  0.00    +0.0562  H
BRANCH 12 14
ATOM     14  C7  SEL L   1      -3.674   1.284   0.544  1.00  0.00    -0.0259  A
ATOM     15  C8  SEL L   1      -3.683   2.218   1.598  1.00  0.00    -0.0568  A
ATOM     16  C9  SEL L   1      -4.207   3.500   1.420  1.00  0.00    -0.0614  A
ATOM     17 C10  SEL L   1      -4.725   3.873   0.183  1.00  0.00    -0.0617  A
ATOM     18 C11  SEL L   1      -4.716   2.968  -0.875  1.00  0.00    -0.0614  A
ATOM     19 C12  SEL L   1      -4.192   1.685  -0.698  1.00  0.00    -0.0568  A
ATOM     20 H33  SEL L   1      -3.269   1.945   2.566  1.00  0.00    +0.0621  H
ATOM     21 H34  SEL L   1      -4.206   4.205   2.246  1.00  0.00    +0.0618  H
ATOM     22 H35  SEL L   1      -5.133   4.871   0.043  1.00  0.00    +0.0618  H
ATOM     23 H36  SEL L   1      -5.116   3.260  -1.842  1.00  0.00    +0.0618  H
ATOM     24 H37  SEL L   1      -4.195   1.005  -1.547  1.00  0.00    +0.0621  H
ENDBRANCH 12 14
BRANCH 12 25
ATOM     25 N13  SEL L   1      -1.618  -0.061   0.976  1.00  0.00    -0.2891 NA
ATOM     26 C14  SEL L   1      -0.994  -1.268   1.512  1.00  0.00    +0.0126  C
ATOM     27 C15  SEL L   1       0.476  -0.975   1.879  1.00  0.00    +0.0121  C
ATOM     28 N16  SEL L   1       1.326  -0.589   0.732  1.00  0.00    -0.2963 NA
ATOM     29 C26  SEL L   1       0.522  -0.058  -0.385  1.00  0.00    +0.0121  C
ATOM     30 C27  SEL L   1      -0.804   0.652  -0.009  1.00  0.00    +0.0126  C
ATOM     31 H38  SEL L   1      -1.037  -2.102   0.802  1.00  0.00    +0.0439  H
ATOM     32 H39  SEL L   1      -1.515  -1.586   2.423  1.00  0.00    +0.0439  H
ATOM     33 H40  SEL L   1       0.472  -0.185   2.643  1.00  0.00    +0.0439  H
ATOM     34 H41  SEL L   1       0.913  -1.865   2.347  1.00  0.00    +0.0439  H
ATOM     35 H51  SEL L   1       1.105   0.605  -1.033  1.00  0.00    +0.0439  H
ATOM     36 H52  SEL L   1       0.271  -0.919  -1.020  1.00  0.00    +0.0439  H
ATOM     37 H53  SEL L   1      -0.559   1.634   0.412  1.00  0.00    +0.0439  H
ATOM     38 H54  SEL L   1      -1.351   0.842  -0.939  1.00  0.00    +0.0439  H
BRANCH 28 39
ATOM     39 C17  SEL L   1       2.388   0.324   1.166  1.00  0.00    +0.0175  C
ATOM     40 H42  SEL L   1       2.009   1.348   1.269  1.00  0.00    +0.0470  H
ATOM     41 H43  SEL L   1       2.747   0.024   2.160  1.00  0.00    +0.0470  H
BRANCH 39 42
ATOM     42 C18  SEL L   1       3.558   0.311   0.222  1.00  0.00    -0.0695  C
ATOM     43 C19  SEL L   1       4.812  -0.009   0.587  1.00  0.00    -0.0573  C
ATOM     44 H44  SEL L   1       3.358   0.610  -0.802  1.00  0.00    +0.0585  H
ATOM     45 H45  SEL L   1       5.032  -0.279   1.616  1.00  0.00    +0.0621  H
BRANCH 43 46
ATOM     46 C20  SEL L   1       5.957  -0.006  -0.332  1.00  0.00    -0.0253  A
ATOM     47 C21  SEL L   1       5.863  -0.498  -1.640  1.00  0.00    -0.0546  A
ATOM     48 C22  SEL L   1       6.981  -0.505  -2.479  1.00  0.00    -0.0612  A
ATOM     49 C23  SEL L   1       8.206  -0.031  -2.014  1.00  0.00    -0.0617  A
ATOM     50 C24  SEL L   1       8.315   0.447  -0.710  1.00  0.00    -0.0612  A
ATOM     51 C25  SEL L   1       7.197   0.454   0.129  1.00  0.00    -0.0546  A
ATOM     52 H46  SEL L   1       4.921  -0.891  -2.015  1.00  0.00    +0.0623  H
ATOM     53 H47  SEL L   1       6.894  -0.887  -3.493  1.00  0.00    +0.0618  H
ATOM     54 H48  SEL L   1       9.075  -0.037  -2.666  1.00  0.00    +0.0618  H
ATOM     55 H49  SEL L   1       9.270   0.813  -0.343  1.00  0.00    +0.0618  H
ATOM     56 H50  SEL L   1       7.302   0.830   1.144  1.00  0.00    +0.0623  H
ENDBRANCH 43 46
ENDBRANCH 39 42
ENDBRANCH 28 39
ENDBRANCH 12 25
ENDBRANCH 5 12
TORSDOF 6
