ROOT
ATOM      1  C9  EUB L   1       2.054  -1.610   1.129  1.00  0.00    -0.0335  C
ATOM      2 C10  EUB L   1       3.095  -2.147   0.480  1.00  0.00    +0.0821  C
ATOM      3 S11  EUB L   1       4.372  -1.340  -0.352  1.00  0.00    -0.0234 SA
ATOM      4 C12  EUB L   1       5.117  -2.849  -0.837  1.00  0.00    +0.2914  C
ATOM      5 O13  EUB L   1       6.132  -2.932  -1.507  1.00  0.00    -0.2596 OA
ATOM      6 N14  EUB L   1       4.394  -3.892  -0.358  1.00  0.00    -0.2832  N
ATOM      7 C15  EUB L   1       3.269  -3.618   0.360  1.00  0.00    +0.2658  C
ATOM      8 O16  EUB L   1       2.519  -4.461   0.825  1.00  0.00    -0.2666 OA
ATOM      9 H37  EUB L   1       1.304  -2.259   1.578  1.00  0.00    +0.0637  H
ATOM     10 H38  EUB L   1       4.671  -4.841  -0.549  1.00  0.00    +0.1725 HD
ENDROOT
BRANCH 1 12
ATOM     11  C7  EUB L   1       0.635   0.459   0.735  1.00  0.00    +0.0530  A
ATOM     12  C8  EUB L   1       1.779  -0.172   1.292  1.00  0.00    -0.0000  A
ATOM     13 C17  EUB L   1       2.661   0.558   2.109  1.00  0.00    -0.0526  A
ATOM     14 C18  EUB L   1       2.440   1.905   2.376  1.00  0.00    -0.0605  A
ATOM     15 C19  EUB L   1       1.324   2.537   1.843  1.00  0.00    -0.0520  A
ATOM     16 C20  EUB L   1       0.409   1.839   1.030  1.00  0.00    +0.0059  A
ATOM     17 H39  EUB L   1       3.527   0.075   2.556  1.00  0.00    +0.0624  H
ATOM     18 H40  EUB L   1       3.133   2.458   3.004  1.00  0.00    +0.0618  H
ATOM     19 H41  EUB L   1       1.163   3.592   2.056  1.00  0.00    +0.0624  H
BRANCH 11 25
ATOM     20  N1  EUB L   1      -3.770  -1.638   0.395  1.00  0.00    -0.3258 NA
ATOM     21  C2  EUB L   1      -2.643  -0.959  -0.260  1.00  0.00    +0.0226  C
ATOM     22  C3  EUB L   1      -2.250  -1.729  -1.532  1.00  0.00    -0.0345  C
ATOM     23  C4  EUB L   1      -1.032  -1.092  -2.208  1.00  0.00    -0.0339  C
ATOM     24  C5  EUB L   1       0.139  -0.962  -1.231  1.00  0.00    +0.0188  C
ATOM     25  N6  EUB L   1      -0.312  -0.204  -0.066  1.00  0.00    -0.3682  N
ATOM     26 C27  EUB L   1      -1.423  -0.812   0.681  1.00  0.00    +0.0338  C
ATOM     27 H28  EUB L   1      -4.082  -1.072   1.185  1.00  0.00    +0.1185 HD
ATOM     28 H29  EUB L   1      -4.558  -1.673  -0.251  1.00  0.00    +0.1185 HD
ATOM     29 H30  EUB L   1      -2.977   0.045  -0.555  1.00  0.00    +0.0476  H
ATOM     30 H31  EUB L   1      -3.087  -1.748  -2.240  1.00  0.00    +0.0281  H
ATOM     31 H32  EUB L   1      -2.016  -2.772  -1.283  1.00  0.00    +0.0281  H
ATOM     32 H33  EUB L   1      -1.307  -0.100  -2.587  1.00  0.00    +0.0283  H
ATOM     33 H34  EUB L   1      -0.730  -1.696  -3.071  1.00  0.00    +0.0283  H
ATOM     34 H35  EUB L   1       0.966  -0.449  -1.735  1.00  0.00    +0.0488  H
ATOM     35 H36  EUB L   1       0.474  -1.966  -0.951  1.00  0.00    +0.0488  H
ATOM     36 H47  EUB L   1      -1.712  -0.193   1.541  1.00  0.00    +0.0503  H
ATOM     37 H48  EUB L   1      -1.121  -1.792   1.072  1.00  0.00    +0.0503  H
ENDBRANCH 11 25
BRANCH 16 38
ATOM     38 C21  EUB L   1      -0.756   2.580   0.500  1.00  0.00    -0.0159  A
ATOM     39 C22  EUB L   1      -0.899   2.816  -0.877  1.00  0.00    -0.0540  A
ATOM     40 C23  EUB L   1      -1.999   3.519  -1.375  1.00  0.00    -0.0612  A
ATOM     41 C24  EUB L   1      -2.972   4.001  -0.503  1.00  0.00    -0.0617  A
ATOM     42 C25  EUB L   1      -2.847   3.780   0.867  1.00  0.00    -0.0612  A
ATOM     43 C26  EUB L   1      -1.747   3.076   1.364  1.00  0.00    -0.0540  A
ATOM     44 H42  EUB L   1      -0.148   2.441  -1.568  1.00  0.00    +0.0624  H
ATOM     45 H43  EUB L   1      -2.092   3.689  -2.444  1.00  0.00    +0.0618  H
ATOM     46 H44  EUB L   1      -3.827   4.548  -0.890  1.00  0.00    +0.0618  H
ATOM     47 H45  EUB L   1      -3.604   4.154   1.551  1.00  0.00    +0.0618  H
ATOM     48 H46  EUB L   1      -1.666   2.906   2.435  1.00  0.00    +0.0624  H
ENDBRANCH 16 38
ENDBRANCH 1 12
TORSDOF 3
