ROOT
ATOM      1  C9  CHE L   1       2.051  -0.668   0.165  1.00  0.00    +0.0933  A
ATOM      2 C10  CHE L   1       1.050  -1.605   0.027  1.00  0.00    +0.0373  A
ATOM      3 N11  CHE L   1      -0.123  -0.897   0.100  1.00  0.00    -0.3039  N
ATOM      4 C12  CHE L   1      -1.431  -1.351   0.020  1.00  0.00    +0.0362  A
ATOM      5 C13  CHE L   1      -2.455  -0.483   0.129  1.00  0.00    +0.0757  A
ATOM      6 C18  CHE L   1      -2.131   0.967   0.318  1.00  0.00    +0.0663  A
ATOM      7 C25  CHE L   1      -0.841   1.366   0.405  1.00  0.00    +0.0064  A
ATOM      8 C26  CHE L   1       0.222   0.431   0.296  1.00  0.00    +0.1403  A
ATOM      9 N27  CHE L   1       1.528   0.590   0.344  1.00  0.00    -0.2276 NA
ATOM     10 H38  CHE L   1       1.068  -2.674  -0.125  1.00  0.00    +0.0835  H
ATOM     11 H39  CHE L   1      -1.566  -2.414  -0.120  1.00  0.00    +0.0835  H
ATOM     12 H55  CHE L   1      -0.576   2.408   0.530  1.00  0.00    +0.0675  H
ENDROOT
BRANCH 1 16
ATOM     13  C3  CHE L   1       6.235  -1.562   0.163  1.00  0.00    +0.1418  A
ATOM     14  C4  CHE L   1       5.714  -0.639  -0.748  1.00  0.00    +0.0239  A
ATOM     15  C5  CHE L   1       4.348  -0.328  -0.737  1.00  0.00    +0.1328  A
ATOM     16  C8  CHE L   1       3.470  -0.958   0.155  1.00  0.00    +0.0451  A
ATOM     17 C28  CHE L   1       3.991  -1.882   1.069  1.00  0.00    -0.0271  A
ATOM     18 C29  CHE L   1       5.359  -2.176   1.074  1.00  0.00    +0.0834  A
ATOM     19 CL30 CHE L   1       5.929  -3.325   2.236  1.00  0.00    -0.0797 Cl
ATOM     20 H34  CHE L   1       6.339  -0.150  -1.487  1.00  0.00    +0.0691  H
ATOM     21 H56  CHE L   1       3.334  -2.368   1.786  1.00  0.00    +0.0641  H
BRANCH 13 23
ATOM     22  C1  CHE L   1       8.455  -1.322  -0.687  1.00  0.00    +0.0789  C
ATOM     23  O2  CHE L   1       7.555  -1.922   0.236  1.00  0.00    -0.4935 OA
ATOM     24 H31  CHE L   1       8.494  -0.236  -0.553  1.00  0.00    +0.0660  H
ATOM     25 H32  CHE L   1       8.196  -1.587  -1.717  1.00  0.00    +0.0660  H
ATOM     26 H33  CHE L   1       9.455  -1.718  -0.483  1.00  0.00    +0.0660  H
ENDBRANCH 13 23
BRANCH 15 27
ATOM     27  O6  CHE L   1       3.879   0.537  -1.695  1.00  0.00    -0.4943 OA
ATOM     28  C7  CHE L   1       4.068   1.890  -1.274  1.00  0.00    +0.0788  C
ATOM     29 H35  CHE L   1       3.750   2.054  -0.239  1.00  0.00    +0.0660  H
ATOM     30 H36  CHE L   1       3.462   2.529  -1.922  1.00  0.00    +0.0660  H
ATOM     31 H37  CHE L   1       5.117   2.180  -1.393  1.00  0.00    +0.0660  H
ENDBRANCH 15 27
ENDBRANCH 1 16
BRANCH 5 32
ATOM     32 N14  CHE L   1      -3.800  -0.818   0.109  1.00  0.00    -0.3805  N
ATOM     33 H40  CHE L   1      -4.344  -0.032   0.472  1.00  0.00    +0.1598 HD
BRANCH 32 34
ATOM     34 C15  CHE L   1      -4.378  -2.124   0.382  1.00  0.00    +0.0280  C
ATOM     35 H41  CHE L   1      -5.350  -1.979   0.869  1.00  0.00    +0.0498  H
ATOM     36 H42  CHE L   1      -3.754  -2.688   1.087  1.00  0.00    +0.0498  H
BRANCH 34 37
ATOM     37 C16  CHE L   1      -4.582  -2.912  -0.923  1.00  0.00    +0.0105  C
ATOM     38 N17  CHE L   1      -5.159  -4.239  -0.691  1.00  0.00    -0.3283 NA
ATOM     39 H43  CHE L   1      -5.250  -2.350  -1.586  1.00  0.00    +0.0439  H
ATOM     40 H44  CHE L   1      -3.630  -3.026  -1.453  1.00  0.00    +0.0439  H
ATOM     41 H45  CHE L   1      -5.285  -4.706  -1.589  1.00  0.00    +0.1183 HD
ATOM     42 H46  CHE L   1      -4.497  -4.811  -0.167  1.00  0.00    +0.1183 HD
ENDBRANCH 34 37
ENDBRANCH 32 34
ENDBRANCH 5 32
BRANCH 6 43
ATOM     43 N19  CHE L   1      -3.224   1.853   0.388  1.00  0.00    -0.3645  N
ATOM     44 C20  CHE L   1      -3.829   2.300  -0.899  1.00  0.00    +0.0422  C
ATOM     45 C21  CHE L   1      -4.931   3.338  -0.651  1.00  0.00    +0.0653  C
ATOM     46 O22  CHE L   1      -4.454   4.531  -0.008  1.00  0.00    -0.3763 OA
ATOM     47 C23  CHE L   1      -3.323   4.299   0.845  1.00  0.00    +0.0653  C
ATOM     48 C24  CHE L   1      -3.295   2.889   1.449  1.00  0.00    +0.0422  C
ATOM     49 H47  CHE L   1      -4.251   1.443  -1.436  1.00  0.00    +0.0510  H
ATOM     50 H48  CHE L   1      -3.046   2.744  -1.526  1.00  0.00    +0.0510  H
ATOM     51 H49  CHE L   1      -5.724   2.915  -0.024  1.00  0.00    +0.0577  H
ATOM     52 H50  CHE L   1      -5.388   3.638  -1.599  1.00  0.00    +0.0577  H
ATOM     53 H51  CHE L   1      -2.417   4.485   0.257  1.00  0.00    +0.0577  H
ATOM     54 H52  CHE L   1      -3.357   5.050   1.641  1.00  0.00    +0.0577  H
ATOM     55 H53  CHE L   1      -2.462   2.799   2.155  1.00  0.00    +0.0510  H
ATOM     56 H54  CHE L   1      -4.218   2.716   2.016  1.00  0.00    +0.0510  H
ENDBRANCH 6 43
TORSDOF 7
