ROOT
ATOM      1  C6  CHE L   1       2.414   0.776  -0.577  1.00  0.00    +0.0423  A
ATOM      2  C7  CHE L   1       2.399   2.135  -0.894  1.00  0.00    -0.0383  A
ATOM      3  C8  CHE L   1       1.306   2.695  -1.563  1.00  0.00    -0.0592  A
ATOM      4  C9  CHE L   1       0.217   1.901  -1.917  1.00  0.00    -0.0538  A
ATOM      5 C10  CHE L   1       0.214   0.540  -1.601  1.00  0.00    -0.0142  A
ATOM      6 C22  CHE L   1       1.315  -0.016  -0.936  1.00  0.00    -0.0305  A
ATOM      7 H29  CHE L   1       3.225   2.791  -0.638  1.00  0.00    +0.0638  H
ATOM      8 H30  CHE L   1       1.309   3.755  -1.804  1.00  0.00    +0.0618  H
ATOM      9 H31  CHE L   1      -0.629   2.351  -2.430  1.00  0.00    +0.0624  H
ATOM     10 H46  CHE L   1       1.308  -1.080  -0.710  1.00  0.00    +0.0644  H
ENDROOT
BRANCH 1 13
ATOM     11  C3  CHE L   1       4.661   0.699   0.541  1.00  0.00    +0.2250  C
ATOM     12  O4  CHE L   1       4.996   1.873   0.435  1.00  0.00    -0.2729 OA
ATOM     13  N5  CHE L   1       3.478   0.133   0.091  1.00  0.00    -0.3261  N
ATOM     14 H28  CHE L   1       3.359  -0.858   0.258  1.00  0.00    +0.1686 HD
BRANCH 11 16
ATOM     15  C1  CHE L   1       6.852   0.247   1.721  1.00  0.00    -0.0568  C
ATOM     16  C2  CHE L   1       5.546  -0.339   1.214  1.00  0.00    +0.0236  C
ATOM     17 H23  CHE L   1       6.669   1.038   2.456  1.00  0.00    +0.0234  H
ATOM     18 H24  CHE L   1       7.459  -0.529   2.197  1.00  0.00    +0.0234  H
ATOM     19 H25  CHE L   1       7.434   0.681   0.900  1.00  0.00    +0.0234  H
ATOM     20 H26  CHE L   1       4.994  -0.775   2.054  1.00  0.00    +0.0358  H
ATOM     21 H27  CHE L   1       5.761  -1.134   0.491  1.00  0.00    +0.0358  H
ENDBRANCH 11 16
ENDBRANCH 1 13
BRANCH 5 22
ATOM     22 C11  CHE L   1      -0.921  -0.292  -1.959  1.00  0.00    +0.0039  A
ATOM     23 C12  CHE L   1      -1.320  -0.461  -3.270  1.00  0.00    +0.0097  A
ATOM     24 N13  CHE L   1      -2.387  -1.316  -3.287  1.00  0.00    -0.3661  N
ATOM     25 C14  CHE L   1      -2.679  -1.702  -2.007  1.00  0.00    +0.0067  A
ATOM     26 C15  CHE L   1      -1.805  -1.068  -1.137  1.00  0.00    -0.0084  A
ATOM     27 H32  CHE L   1      -0.925  -0.056  -4.193  1.00  0.00    +0.0813  H
ATOM     28 H33  CHE L   1      -2.876  -1.623  -4.118  1.00  0.00    +0.1648 HD
ATOM     29 H34  CHE L   1      -3.492  -2.390  -1.815  1.00  0.00    +0.0810  H
BRANCH 26 30
ATOM     30 C16  CHE L   1      -1.787  -1.218   0.360  1.00  0.00    +0.0258  C
ATOM     31 H35  CHE L   1      -0.764  -1.112   0.740  1.00  0.00    +0.0476  H
ATOM     32 H36  CHE L   1      -2.072  -2.247   0.618  1.00  0.00    +0.0476  H
BRANCH 30 33
ATOM     33 N17  CHE L   1      -2.669  -0.285   1.082  1.00  0.00    -0.2999 NA
ATOM     34 C18  CHE L   1      -2.238   1.106   0.947  1.00  0.00    -0.0124  C
ATOM     35 H37  CHE L   1      -1.173   1.209   1.185  1.00  0.00    +0.0391  H
ATOM     36 H38  CHE L   1      -2.765   1.749   1.659  1.00  0.00    +0.0391  H
ATOM     37 H39  CHE L   1      -2.414   1.507  -0.057  1.00  0.00    +0.0391  H
BRANCH 33 38
ATOM     38 C19  CHE L   1      -4.095  -0.462   0.745  1.00  0.00    +0.0113  C
ATOM     39 H40  CHE L   1      -4.333  -0.048  -0.243  1.00  0.00    +0.0439  H
ATOM     40 H41  CHE L   1      -4.321  -1.536   0.709  1.00  0.00    +0.0439  H
BRANCH 38 41
ATOM     41 C20  CHE L   1      -5.051   0.155   1.792  1.00  0.00    +0.0059  C
ATOM     42 N21  CHE L   1      -4.675  -0.207   3.165  1.00  0.00    -0.3288 NA
ATOM     43 H42  CHE L   1      -5.050   1.247   1.706  1.00  0.00    +0.0434  H
ATOM     44 H43  CHE L   1      -6.075  -0.181   1.598  1.00  0.00    +0.0434  H
ATOM     45 H44  CHE L   1      -4.724  -1.221   3.253  1.00  0.00    +0.1183 HD
ATOM     46 H45  CHE L   1      -3.671  -0.012   3.242  1.00  0.00    +0.1183 HD
ENDBRANCH 38 41
ENDBRANCH 33 38
ENDBRANCH 30 33
ENDBRANCH 26 30
ENDBRANCH 5 22
TORSDOF 7
