ROOT
ATOM      1  C9  983 L   1       3.436   0.321   0.139  1.00  0.00    +0.2194  C
ATOM      2 C10  983 L   1       4.480   1.029   0.600  1.00  0.00    +0.1316  C
ATOM      3 O11  983 L   1       5.803   0.685   0.445  1.00  0.00    -0.4923 OA
ATOM      4 C12  983 L   1       5.946  -0.659  -0.037  1.00  0.00    +0.1228  C
ATOM      5 C13  983 L   1       4.922  -0.960  -1.123  1.00  0.00    +0.1238  C
ATOM      6 O14  983 L   1       3.582  -0.840  -0.617  1.00  0.00    -0.4810 OA
ATOM      7 H27  983 L   1       4.389   1.961   1.146  1.00  0.00    +0.1063  H
ATOM      8 H28  983 L   1       6.963  -0.770  -0.426  1.00  0.00    +0.0731  H
ATOM      9 H29  983 L   1       5.827  -1.341   0.815  1.00  0.00    +0.0731  H
ATOM     10 H30  983 L   1       5.031  -0.273  -1.972  1.00  0.00    +0.0731  H
ATOM     11 H31  983 L   1       5.047  -1.982  -1.493  1.00  0.00    +0.0731  H
ENDROOT
BRANCH 1 13
ATOM     12  N6  983 L   1       1.093  -0.040  -0.096  1.00  0.00    -0.3193  N
ATOM     13  C7  983 L   1       2.044   0.808   0.439  1.00  0.00    +0.2941  C
ATOM     14  O8  983 L   1       1.847   1.832   1.081  1.00  0.00    -0.2638 OA
ATOM     15 H26  983 L   1       1.472  -0.841  -0.591  1.00  0.00    +0.1690 HD
BRANCH 12 18
ATOM     16  C3  983 L   1      -2.453  -0.911  -0.645  1.00  0.00    +0.1671  A
ATOM     17  C4  983 L   1      -1.056  -0.938  -0.659  1.00  0.00    +0.0074  A
ATOM     18  C5  983 L   1      -0.311   0.072  -0.033  1.00  0.00    +0.0493  A
ATOM     19 C15  983 L   1      -0.976   1.121   0.610  1.00  0.00    +0.0074  A
ATOM     20 C16  983 L   1      -2.374   1.170   0.638  1.00  0.00    +0.1671  A
ATOM     21 C19  983 L   1      -3.102   0.138   0.025  1.00  0.00    +0.2036  A
ATOM     22 H25  983 L   1      -0.529  -1.748  -1.151  1.00  0.00    +0.0676  H
ATOM     23 H32  983 L   1      -0.403   1.903   1.091  1.00  0.00    +0.0676  H
BRANCH 16 25
ATOM     24  C1  983 L   1      -2.650  -2.793  -2.098  1.00  0.00    +0.0790  C
ATOM     25  O2  983 L   1      -3.262  -1.855  -1.224  1.00  0.00    -0.4913 OA
ATOM     26 H22  983 L   1      -3.445  -3.390  -2.556  1.00  0.00    +0.0660  H
ATOM     27 H23  983 L   1      -2.104  -2.292  -2.903  1.00  0.00    +0.0660  H
ATOM     28 H24  983 L   1      -1.999  -3.477  -1.544  1.00  0.00    +0.0660  H
ENDBRANCH 16 25
BRANCH 20 29
ATOM     29 O17  983 L   1      -3.111   2.159   1.239  1.00  0.00    -0.4913 OA
ATOM     30 C18  983 L   1      -2.404   3.276   1.761  1.00  0.00    +0.0790  C
ATOM     31 H33  983 L   1      -1.826   3.781   0.980  1.00  0.00    +0.0660  H
ATOM     32 H34  983 L   1      -1.767   2.981   2.600  1.00  0.00    +0.0660  H
ATOM     33 H35  983 L   1      -3.142   3.990   2.140  1.00  0.00    +0.0660  H
ENDBRANCH 20 29
BRANCH 21 34
ATOM     34 O20  983 L   1      -4.479   0.194   0.010  1.00  0.00    -0.4885 OA
ATOM     35 C21  983 L   1      -5.000  -0.453   1.170  1.00  0.00    +0.0791  C
ATOM     36 H36  983 L   1      -4.693   0.063   2.087  1.00  0.00    +0.0660  H
ATOM     37 H37  983 L   1      -4.701  -1.506   1.209  1.00  0.00    +0.0660  H
ATOM     38 H38  983 L   1      -6.092  -0.415   1.112  1.00  0.00    +0.0660  H
ENDBRANCH 21 34
ENDBRANCH 12 18
ENDBRANCH 1 13
TORSDOF 5
