ROOT
ATOM      1  C9  CHE L   1       3.360   0.627   0.458  1.00  0.00    +0.0933  A
ATOM      2 C10  CHE L   1       2.803   1.781   0.968  1.00  0.00    +0.0372  A
ATOM      3 N11  CHE L   1       1.473   1.713   0.647  1.00  0.00    -0.3059  N
ATOM      4 C12  CHE L   1       0.446   2.602   0.930  1.00  0.00    +0.0131  A
ATOM      5 C13  CHE L   1      -0.798   2.321   0.505  1.00  0.00    -0.0218  A
ATOM      6 C14  CHE L   1      -1.070   1.089  -0.254  1.00  0.00    +0.0428  A
ATOM      7 C29  CHE L   1      -0.036   0.247  -0.504  1.00  0.00    +0.0044  A
ATOM      8 C30  CHE L   1       1.284   0.533  -0.055  1.00  0.00    +0.1402  A
ATOM      9 N31  CHE L   1       2.413  -0.134  -0.186  1.00  0.00    -0.2276 NA
ATOM     10 H42  CHE L   1       3.220   2.608   1.525  1.00  0.00    +0.0835  H
ATOM     11 H43  CHE L   1       0.693   3.491   1.496  1.00  0.00    +0.0814  H
ATOM     12 H44  CHE L   1      -1.611   2.995   0.747  1.00  0.00    +0.0653  H
ATOM     13 H56  CHE L   1      -0.168  -0.659  -1.081  1.00  0.00    +0.0675  H
ENDROOT
BRANCH 1 17
ATOM     14  C3  CHE L   1       7.505  -0.398   0.747  1.00  0.00    +0.1418  A
ATOM     15  C4  CHE L   1       6.528  -1.301   1.172  1.00  0.00    +0.0239  A
ATOM     16  C5  CHE L   1       5.169  -0.979   1.058  1.00  0.00    +0.1328  A
ATOM     17  C8  CHE L   1       4.759   0.264   0.556  1.00  0.00    +0.0451  A
ATOM     18 C32  CHE L   1       5.739   1.169   0.131  1.00  0.00    -0.0271  A
ATOM     19 C33  CHE L   1       7.095   0.839   0.223  1.00  0.00    +0.0834  A
ATOM     20 CL34 CHE L   1       8.246   2.012  -0.323  1.00  0.00    -0.0797 Cl
ATOM     21 H38  CHE L   1       6.786  -2.260   1.607  1.00  0.00    +0.0691  H
ATOM     22 H57  CHE L   1       5.448   2.133  -0.282  1.00  0.00    +0.0641  H
BRANCH 14 24
ATOM     23  C1  CHE L   1       9.290  -1.870   1.342  1.00  0.00    +0.0789  C
ATOM     24  O2  CHE L   1       8.855  -0.626   0.810  1.00  0.00    -0.4935 OA
ATOM     25 H35  CHE L   1       8.933  -2.707   0.732  1.00  0.00    +0.0660  H
ATOM     26 H36  CHE L   1       8.983  -1.981   2.387  1.00  0.00    +0.0660  H
ATOM     27 H37  CHE L   1      10.384  -1.881   1.314  1.00  0.00    +0.0660  H
ENDBRANCH 14 24
BRANCH 16 28
ATOM     28  O6  CHE L   1       4.255  -1.878   1.551  1.00  0.00    -0.4943 OA
ATOM     29  C7  CHE L   1       3.973  -2.881   0.574  1.00  0.00    +0.0788  C
ATOM     30 H39  CHE L   1       3.060  -3.400   0.881  1.00  0.00    +0.0660  H
ATOM     31 H40  CHE L   1       4.786  -3.614   0.541  1.00  0.00    +0.0660  H
ATOM     32 H41  CHE L   1       3.808  -2.461  -0.424  1.00  0.00    +0.0660  H
ENDBRANCH 16 28
ENDBRANCH 1 17
BRANCH 6 33
ATOM     33 N15  CHE L   1      -2.376   0.833  -0.700  1.00  0.00    -0.3671  N
ATOM     34 C16  CHE L   1      -2.994  -0.508  -0.487  1.00  0.00    +0.0363  C
ATOM     35 C17  CHE L   1      -4.024  -0.843  -1.590  1.00  0.00    +0.0363  C
ATOM     36 N18  CHE L   1      -5.065   0.213  -1.689  1.00  0.00    -0.3671  N
ATOM     37 C27  CHE L   1      -4.450   1.538  -1.931  1.00  0.00    +0.0363  C
ATOM     38 C28  CHE L   1      -3.398   1.901  -0.856  1.00  0.00    +0.0363  C
ATOM     39 H45  CHE L   1      -2.239  -1.301  -0.475  1.00  0.00    +0.0505  H
ATOM     40 H46  CHE L   1      -3.483  -0.513   0.496  1.00  0.00    +0.0505  H
ATOM     41 H47  CHE L   1      -3.506  -0.900  -2.556  1.00  0.00    +0.0505  H
ATOM     42 H48  CHE L   1      -4.439  -1.839  -1.408  1.00  0.00    +0.0505  H
ATOM     43 H52  CHE L   1      -5.204   2.328  -2.025  1.00  0.00    +0.0505  H
ATOM     44 H53  CHE L   1      -3.946   1.496  -2.906  1.00  0.00    +0.0505  H
ATOM     45 H54  CHE L   1      -3.882   2.073   0.112  1.00  0.00    +0.0505  H
ATOM     46 H55  CHE L   1      -2.924   2.838  -1.169  1.00  0.00    +0.0505  H
BRANCH 36 47
ATOM     47 C19  CHE L   1      -6.202   0.078  -0.893  1.00  0.00    +0.0421  A
ATOM     48 C20  CHE L   1      -6.741   1.120  -0.132  1.00  0.00    -0.0203  A
ATOM     49 C21  CHE L   1      -7.889   0.909   0.623  1.00  0.00    +0.0310  A
ATOM     50 N22  CHE L   1      -8.556  -0.259   0.668  1.00  0.00    -0.2445 NA
ATOM     51 C23  CHE L   1      -8.056  -1.257  -0.093  1.00  0.00    +0.1420  A
ATOM     52 C26  CHE L   1      -6.909  -1.132  -0.872  1.00  0.00    -0.0026  A
ATOM     53 H49  CHE L   1      -6.289   2.102  -0.093  1.00  0.00    +0.0653  H
ATOM     54 H50  CHE L   1      -8.312   1.708   1.228  1.00  0.00    +0.0830  H
ATOM     55 H51  CHE L   1      -6.597  -1.969  -1.488  1.00  0.00    +0.0666  H
BRANCH 51 56
ATOM     56 C24  CHE L   1      -8.786  -2.495  -0.068  1.00  0.00    +0.1192  C
ATOM     57 N25  CHE L   1      -9.345  -3.514  -0.073  1.00  0.00    -0.1893 NA
ENDBRANCH 51 56
ENDBRANCH 36 47
ENDBRANCH 6 33
TORSDOF 6
