ROOT
ATOM      1  C3  CHE L   1       6.628   0.532  -0.456  1.00  0.00    +0.0191  A
ATOM      2  C4  CHE L   1       6.158  -0.703  -0.214  1.00  0.00    -0.0391  A
ATOM      3  C5  CHE L   1       4.957  -0.920   0.585  1.00  0.00    -0.0388  A
ATOM      4  C6  CHE L   1       4.580  -2.365   0.764  1.00  0.00    -0.0392  C
ATOM      5  C7  CHE L   1       4.281   0.133   1.096  1.00  0.00    +0.0389  A
ATOM      6 C29  CHE L   1       4.788   1.513   0.803  1.00  0.00    +0.2540  A
ATOM      7 O30  CHE L   1       4.201   2.518   1.194  1.00  0.00    -0.2675 OA
ATOM      8 N31  CHE L   1       5.936   1.604   0.061  1.00  0.00    -0.3260  N
ATOM      9 H37  CHE L   1       6.660  -1.584  -0.604  1.00  0.00    +0.0637  H
ATOM     10 H38  CHE L   1       4.448  -2.850  -0.208  1.00  0.00    +0.0278  H
ATOM     11 H39  CHE L   1       5.369  -2.893   1.310  1.00  0.00    +0.0278  H
ATOM     12 H40  CHE L   1       3.651  -2.509   1.318  1.00  0.00    +0.0278  H
ATOM     13 H63  CHE L   1       6.259   2.548  -0.116  1.00  0.00    +0.1686 HD
ENDROOT
BRANCH 1 15
ATOM     14  C1  CHE L   1       8.676  -0.293  -1.797  1.00  0.00    -0.0599  C
ATOM     15  C2  CHE L   1       7.863   0.877  -1.256  1.00  0.00    -0.0152  C
ATOM     16 H32  CHE L   1       8.084  -0.909  -2.483  1.00  0.00    +0.0233  H
ATOM     17 H33  CHE L   1       9.045  -0.930  -0.987  1.00  0.00    +0.0233  H
ATOM     18 H34  CHE L   1       9.546   0.082  -2.349  1.00  0.00    +0.0233  H
ATOM     19 H35  CHE L   1       7.564   1.507  -2.103  1.00  0.00    +0.0325  H
ATOM     20 H36  CHE L   1       8.526   1.486  -0.627  1.00  0.00    +0.0325  H
ENDBRANCH 1 15
BRANCH 5 21
ATOM     21  C8  CHE L   1       3.071   0.084   1.980  1.00  0.00    +0.0491  C
ATOM     22 H41  CHE L   1       3.137   0.832   2.778  1.00  0.00    +0.0538  H
ATOM     23 H42  CHE L   1       2.952  -0.882   2.478  1.00  0.00    +0.0538  H
BRANCH 21 24
ATOM     24  N9  CHE L   1       1.902   0.394   1.190  1.00  0.00    -0.3478  N
ATOM     25 C10  CHE L   1       0.965  -0.550   0.852  1.00  0.00    +0.2527  C
ATOM     26 O11  CHE L   1       1.000  -1.725   1.189  1.00  0.00    -0.2676 OA
ATOM     27 H43  CHE L   1       1.774   1.363   0.923  1.00  0.00    +0.1630 HD
BRANCH 25 28
ATOM     28 C12  CHE L   1      -0.147  -0.040   0.016  1.00  0.00    +0.0452  A
ATOM     29 C13  CHE L   1       0.184   0.499  -1.233  1.00  0.00    -0.0307  A
ATOM     30 C14  CHE L   1      -0.830   0.944  -2.065  1.00  0.00    +0.0437  A
ATOM     31 CL15 CHE L   1      -0.447   1.595  -3.611  1.00  0.00    -0.0835 Cl
ATOM     32 C16  CHE L   1      -2.159   0.865  -1.659  1.00  0.00    -0.0198  A
ATOM     33 C17  CHE L   1      -2.509   0.343  -0.399  1.00  0.00    +0.0432  A
ATOM     34 C27  CHE L   1      -1.488  -0.128   0.454  1.00  0.00    -0.0149  A
ATOM     35 C28  CHE L   1      -1.792  -0.772   1.783  1.00  0.00    -0.0370  C
ATOM     36 H44  CHE L   1       1.220   0.539  -1.557  1.00  0.00    +0.0640  H
ATOM     37 H45  CHE L   1      -2.942   1.226  -2.320  1.00  0.00    +0.0653  H
ATOM     38 H60  CHE L   1      -1.624  -1.851   1.721  1.00  0.00    +0.0278  H
ATOM     39 H61  CHE L   1      -2.825  -0.629   2.106  1.00  0.00    +0.0278  H
ATOM     40 H62  CHE L   1      -1.161  -0.348   2.569  1.00  0.00    +0.0278  H
BRANCH 33 41
ATOM     41 N18  CHE L   1      -3.854   0.304  -0.042  1.00  0.00    -0.3675  N
BRANCH 41 42
ATOM     42 C19  CHE L   1      -4.389   1.358   0.826  1.00  0.00    +0.0161  C
ATOM     43 C20  CHE L   1      -4.190   2.758   0.263  1.00  0.00    -0.0475  C
ATOM     44 H46  CHE L   1      -3.923   1.303   1.815  1.00  0.00    +0.0485  H
ATOM     45 H47  CHE L   1      -5.461   1.205   0.995  1.00  0.00    +0.0485  H
ATOM     46 H48  CHE L   1      -4.703   3.490   0.895  1.00  0.00    +0.0247  H
ATOM     47 H49  CHE L   1      -4.581   2.849  -0.753  1.00  0.00    +0.0247  H
ATOM     48 H50  CHE L   1      -3.131   3.029   0.245  1.00  0.00    +0.0247  H
ENDBRANCH 41 42
BRANCH 41 49
ATOM     49 C21  CHE L   1      -4.714  -0.680  -0.726  1.00  0.00    +0.0341  C
ATOM     50 C22  CHE L   1      -5.763  -0.029  -1.631  1.00  0.00    -0.0089  C
ATOM     51 C23  CHE L   1      -7.082  -0.775  -1.545  1.00  0.00    +0.0495  C
ATOM     52 O24  CHE L   1      -7.574  -0.734  -0.210  1.00  0.00    -0.3796 OA
ATOM     53 C25  CHE L   1      -6.703  -1.301   0.766  1.00  0.00    +0.0495  C
ATOM     54 C26  CHE L   1      -5.315  -1.683   0.268  1.00  0.00    -0.0089  C
ATOM     55 H51  CHE L   1      -4.075  -1.290  -1.384  1.00  0.00    +0.0525  H
ATOM     56 H52  CHE L   1      -5.935   1.019  -1.357  1.00  0.00    +0.0307  H
ATOM     57 H53  CHE L   1      -5.406  -0.023  -2.669  1.00  0.00    +0.0307  H
ATOM     58 H54  CHE L   1      -6.992  -1.815  -1.880  1.00  0.00    +0.0560  H
ATOM     59 H55  CHE L   1      -7.821  -0.293  -2.187  1.00  0.00    +0.0560  H
ATOM     60 H56  CHE L   1      -7.199  -2.186   1.178  1.00  0.00    +0.0560  H
ATOM     61 H57  CHE L   1      -6.630  -0.586   1.591  1.00  0.00    +0.0560  H
ATOM     62 H58  CHE L   1      -5.415  -2.645  -0.258  1.00  0.00    +0.0307  H
ATOM     63 H59  CHE L   1      -4.647  -1.876   1.116  1.00  0.00    +0.0307  H
ENDBRANCH 41 49
ENDBRANCH 33 41
ENDBRANCH 25 28
ENDBRANCH 21 24
ENDBRANCH 5 21
TORSDOF 7
