ROOT
ATOM      1  C7  187 L   1       1.314   0.319   1.815  1.00  0.00    -0.0084  A
ATOM      2  C8  187 L   1       2.701   0.207   2.022  1.00  0.00    -0.0556  A
ATOM      3  C9  187 L   1       3.362  -1.011   1.858  1.00  0.00    -0.0614  A
ATOM      4 C10  187 L   1       2.647  -2.148   1.489  1.00  0.00    -0.0605  A
ATOM      5 C11  187 L   1       1.278  -2.059   1.257  1.00  0.00    -0.0415  A
ATOM      6 C12  187 L   1       0.614  -0.828   1.388  1.00  0.00    +0.0915  A
ATOM      7 H27  187 L   1       3.278   1.081   2.325  1.00  0.00    +0.0621  H
ATOM      8 H28  187 L   1       4.432  -1.072   2.034  1.00  0.00    +0.0618  H
ATOM      9 H29  187 L   1       3.160  -3.103   1.382  1.00  0.00    +0.0618  H
ATOM     10 H30  187 L   1       0.733  -2.959   0.980  1.00  0.00    +0.0631  H
ENDROOT
BRANCH 1 11
ATOM     11  C6  187 L   1       0.664   1.654   2.087  1.00  0.00    +0.0450  C
ATOM     12 H25  187 L   1      -0.290   1.514   2.610  1.00  0.00    +0.0536  H
ATOM     13 H26  187 L   1       1.289   2.258   2.761  1.00  0.00    +0.0536  H
BRANCH 11 16
ATOM     14  C3  187 L   1       0.913   3.615   0.609  1.00  0.00    +0.2446  C
ATOM     15  O4  187 L   1       1.722   4.202   1.321  1.00  0.00    -0.2683 OA
ATOM     16  N5  187 L   1       0.399   2.369   0.864  1.00  0.00    -0.3485  N
ATOM     17 H24  187 L   1      -0.348   1.994   0.285  1.00  0.00    +0.1629 HD
BRANCH 14 19
ATOM     18  C1  187 L   1       0.626   5.484  -0.961  1.00  0.00    -0.0936  C
ATOM     19  C2  187 L   1       0.362   4.207  -0.638  1.00  0.00    -0.0047  C
ATOM     20 H21  187 L   1       0.220   5.924  -1.865  1.00  0.00    +0.0536  H
ATOM     21 H22  187 L   1       1.252   6.114  -0.331  1.00  0.00    +0.0536  H
ATOM     22 H23  187 L   1      -0.269   3.588  -1.269  1.00  0.00    +0.0666  H
ENDBRANCH 14 19
ENDBRANCH 11 16
ENDBRANCH 1 11
BRANCH 6 23
ATOM     23 S13  187 L   1      -1.124  -0.762   0.990  1.00  0.00    +0.2615  S
ATOM     24 O14  187 L   1      -1.843  -1.123   2.194  1.00  0.00    -0.2001 OA
ATOM     25 O15  187 L   1      -1.400   0.477   0.285  1.00  0.00    -0.2001 OA
BRANCH 23 26
ATOM     26 N16  187 L   1      -1.348  -2.005  -0.147  1.00  0.00    -0.2970 NA
ATOM     27 C17  187 L   1      -0.677  -1.857  -1.470  1.00  0.00    +0.0295  C
ATOM     28 C18  187 L   1      -1.772  -2.054  -2.507  1.00  0.00    -0.0330  C
ATOM     29 C19  187 L   1      -2.753  -2.961  -1.795  1.00  0.00    -0.0330  C
ATOM     30 C20  187 L   1      -2.766  -2.379  -0.391  1.00  0.00    +0.0295  C
ATOM     31 H31  187 L   1       0.079  -2.649  -1.557  1.00  0.00    +0.0495  H
ATOM     32 H32  187 L   1      -0.176  -0.893  -1.602  1.00  0.00    +0.0495  H
ATOM     33 H33  187 L   1      -1.394  -2.483  -3.438  1.00  0.00    +0.0283  H
ATOM     34 H34  187 L   1      -2.245  -1.095  -2.742  1.00  0.00    +0.0283  H
ATOM     35 H35  187 L   1      -2.376  -3.990  -1.776  1.00  0.00    +0.0283  H
ATOM     36 H36  187 L   1      -3.743  -2.967  -2.259  1.00  0.00    +0.0283  H
ATOM     37 H37  187 L   1      -3.415  -1.495  -0.357  1.00  0.00    +0.0495  H
ATOM     38 H38  187 L   1      -3.106  -3.113   0.347  1.00  0.00    +0.0495  H
ENDBRANCH 23 26
ENDBRANCH 6 23
TORSDOF 5
