ROOT
ATOM      1 N15  CHE L   1      -3.143  -0.120   0.091  1.00  0.00    -0.3668  N
ATOM      2 C16  CHE L   1      -3.718   1.250  -0.061  1.00  0.00    +0.0364  C
ATOM      3 C17  CHE L   1      -4.958   1.459   0.839  1.00  0.00    +0.0391  C
ATOM      4 N18  CHE L   1      -5.948   0.401   0.598  1.00  0.00    -0.3364  N
ATOM      5 C19  CHE L   1      -6.830   0.541  -0.476  1.00  0.00    +0.2207  C
ATOM      6 C20  CHE L   1      -7.401   1.921  -0.695  1.00  0.00    +0.0145  C
ATOM      7 O21  CHE L   1      -7.154  -0.383  -1.218  1.00  0.00    -0.2733 OA
ATOM      8 C22  CHE L   1      -5.371  -0.926   0.896  1.00  0.00    +0.0472  C
ATOM      9 C23  CHE L   1      -6.365  -2.086   0.927  1.00  0.00    -0.0429  C
ATOM     10 C24  CHE L   1      -4.167  -1.203  -0.037  1.00  0.00    +0.0389  C
ATOM     11 H41  CHE L   1      -3.994   1.391  -1.113  1.00  0.00    +0.0505  H
ATOM     12 H42  CHE L   1      -2.985   2.024   0.189  1.00  0.00    +0.0505  H
ATOM     13 H43  CHE L   1      -5.378   2.452   0.658  1.00  0.00    +0.0506  H
ATOM     14 H44  CHE L   1      -4.671   1.414   1.896  1.00  0.00    +0.0506  H
ATOM     15 H45  CHE L   1      -6.710   2.517  -1.297  1.00  0.00    +0.0325  H
ATOM     16 H46  CHE L   1      -8.352   1.834  -1.229  1.00  0.00    +0.0325  H
ATOM     17 H47  CHE L   1      -7.603   2.415   0.259  1.00  0.00    +0.0325  H
ATOM     18 H48  CHE L   1      -4.986  -0.844   1.923  1.00  0.00    +0.0539  H
ATOM     19 H49  CHE L   1      -7.264  -1.818   1.492  1.00  0.00    +0.0250  H
ATOM     20 H50  CHE L   1      -5.910  -2.957   1.412  1.00  0.00    +0.0250  H
ATOM     21 H51  CHE L   1      -6.669  -2.407  -0.073  1.00  0.00    +0.0250  H
ATOM     22 H52  CHE L   1      -4.490  -1.271  -1.083  1.00  0.00    +0.0508  H
ATOM     23 H53  CHE L   1      -3.728  -2.165   0.253  1.00  0.00    +0.0508  H
ENDROOT
BRANCH 1 29
ATOM     24  C9  CHE L   1       2.711   0.131  -0.179  1.00  0.00    +0.0933  A
ATOM     25 C10  CHE L   1       2.227  -0.924  -0.924  1.00  0.00    +0.0372  A
ATOM     26 N11  CHE L   1       0.864  -0.885  -0.783  1.00  0.00    -0.3059  N
ATOM     27 C12  CHE L   1      -0.107  -1.719  -1.317  1.00  0.00    +0.0131  A
ATOM     28 C13  CHE L   1      -1.400  -1.475  -1.044  1.00  0.00    -0.0218  A
ATOM     29 C14  CHE L   1      -1.784  -0.340  -0.187  1.00  0.00    +0.0429  A
ATOM     30 C25  CHE L   1      -0.799   0.451   0.309  1.00  0.00    +0.0044  A
ATOM     31 C26  CHE L   1       0.572   0.204   0.023  1.00  0.00    +0.1402  A
ATOM     32 N27  CHE L   1       1.668   0.837   0.387  1.00  0.00    -0.2276 NA
ATOM     33 H38  CHE L   1       2.715  -1.676  -1.525  1.00  0.00    +0.0835  H
ATOM     34 H39  CHE L   1       0.224  -2.535  -1.946  1.00  0.00    +0.0814  H
ATOM     35 H40  CHE L   1      -2.167  -2.103  -1.480  1.00  0.00    +0.0653  H
ATOM     36 H54  CHE L   1      -1.016   1.283   0.967  1.00  0.00    +0.0675  H
BRANCH 24 40
ATOM     37  C3  CHE L   1       6.748   1.498   0.268  1.00  0.00    +0.1418  A
ATOM     38  C4  CHE L   1       6.502   0.130   0.098  1.00  0.00    +0.0239  A
ATOM     39  C5  CHE L   1       5.191  -0.364  -0.036  1.00  0.00    +0.1328  A
ATOM     40  C8  CHE L   1       4.104   0.535  -0.027  1.00  0.00    +0.0451  A
ATOM     41 C28  CHE L   1       4.357   1.904   0.156  1.00  0.00    -0.0271  A
ATOM     42 C29  CHE L   1       5.660   2.380   0.300  1.00  0.00    +0.0834  A
ATOM     43 CL30 CHE L   1       5.884   4.082   0.511  1.00  0.00    -0.0797 Cl
ATOM     44 H34  CHE L   1       7.336  -0.559   0.061  1.00  0.00    +0.0691  H
ATOM     45 H55  CHE L   1       3.524   2.606   0.182  1.00  0.00    +0.0641  H
BRANCH 37 47
ATOM     46  C1  CHE L   1       9.117   1.182   0.417  1.00  0.00    +0.0789  C
ATOM     47  O2  CHE L   1       7.994   2.053   0.406  1.00  0.00    -0.4935 OA
ATOM     48 H31  CHE L   1      10.013   1.794   0.558  1.00  0.00    +0.0660  H
ATOM     49 H32  CHE L   1       9.219   0.659  -0.539  1.00  0.00    +0.0660  H
ATOM     50 H33  CHE L   1       9.061   0.476   1.252  1.00  0.00    +0.0660  H
ENDBRANCH 37 47
BRANCH 39 51
ATOM     51  O6  CHE L   1       4.906  -1.699  -0.182  1.00  0.00    -0.4943 OA
ATOM     52  C7  CHE L   1       5.930  -2.638   0.118  1.00  0.00    +0.0788  C
ATOM     53 H35  CHE L   1       5.482  -3.636   0.103  1.00  0.00    +0.0660  H
ATOM     54 H36  CHE L   1       6.714  -2.616  -0.646  1.00  0.00    +0.0660  H
ATOM     55 H37  CHE L   1       6.345  -2.474   1.118  1.00  0.00    +0.0660  H
ENDBRANCH 39 51
ENDBRANCH 24 40
ENDBRANCH 1 29
TORSDOF 4
