ROOT
ATOM      1  C9  CHE L   1       0.354  -0.699   0.254  1.00  0.00    +0.2258  A
ATOM      2 N10  CHE L   1      -0.009  -1.456  -0.785  1.00  0.00    -0.2200 NA
ATOM      3 C11  CHE L   1      -1.330  -1.640  -0.965  1.00  0.00    +0.0472  A
ATOM      4 C12  CHE L   1      -2.295  -1.067  -0.168  1.00  0.00    +0.0988  A
ATOM      5 C16  CHE L   1      -1.842  -0.289   0.876  1.00  0.00    +0.1452  A
ATOM      6 N23  CHE L   1      -0.517  -0.115   1.089  1.00  0.00    -0.1948 NA
ATOM      7 H37  CHE L   1      -1.591  -2.296  -1.789  1.00  0.00    +0.0840  H
ENDROOT
BRANCH 1 8
ATOM      8  N8  CHE L   1       1.691  -0.463   0.532  1.00  0.00    -0.3540  N
ATOM      9 H36  CHE L   1       1.713  -0.155   1.498  1.00  0.00    +0.1625 HD
BRANCH 8 10
ATOM     10  C7  CHE L   1       2.612  -1.545   0.222  1.00  0.00    +0.0184  C
ATOM     11 H34  CHE L   1       2.140  -2.526   0.349  1.00  0.00    +0.0486  H
ATOM     12 H35  CHE L   1       3.432  -1.529   0.946  1.00  0.00    +0.0486  H
BRANCH 10 13
ATOM     13  C6  CHE L   1       3.187  -1.418  -1.186  1.00  0.00    -0.0326  C
ATOM     14 H32  CHE L   1       3.913  -2.226  -1.335  1.00  0.00    +0.0283  H
ATOM     15 H33  CHE L   1       2.391  -1.596  -1.919  1.00  0.00    +0.0283  H
BRANCH 13 16
ATOM     16  C5  CHE L   1       3.854  -0.083  -1.545  1.00  0.00    -0.0178  C
ATOM     17 H30  CHE L   1       4.163  -0.182  -2.594  1.00  0.00    +0.0296  H
ATOM     18 H31  CHE L   1       3.116   0.729  -1.536  1.00  0.00    +0.0296  H
BRANCH 16 20
ATOM     19  C1  CHE L   1       6.055   1.135  -1.556  1.00  0.00    -0.0312  C
ATOM     20  C2  CHE L   1       5.084   0.310  -0.708  1.00  0.00    +0.1062  C
ATOM     21  C3  CHE L   1       4.742   1.093   0.557  1.00  0.00    -0.0312  C
ATOM     22  F4  CHE L   1       5.744  -0.827  -0.339  1.00  0.00    -0.2425  F
ATOM     23 H24  CHE L   1       6.396   0.558  -2.423  1.00  0.00    +0.0260  H
ATOM     24 H25  CHE L   1       5.594   2.062  -1.911  1.00  0.00    +0.0260  H
ATOM     25 H26  CHE L   1       6.953   1.389  -0.982  1.00  0.00    +0.0260  H
ATOM     26 H27  CHE L   1       4.160   1.991   0.330  1.00  0.00    +0.0260  H
ATOM     27 H28  CHE L   1       4.187   0.490   1.277  1.00  0.00    +0.0260  H
ATOM     28 H29  CHE L   1       5.658   1.401   1.075  1.00  0.00    +0.0260  H
ENDBRANCH 16 20
ENDBRANCH 13 16
ENDBRANCH 10 13
ENDBRANCH 8 10
ENDBRANCH 1 8
BRANCH 4 29
ATOM     29 C13  CHE L   1      -3.692  -1.394  -0.442  1.00  0.00    +0.2545  C
ATOM     30 N14  CHE L   1      -4.222  -0.847  -1.582  1.00  0.00    -0.3657  N
ATOM     31 O15  CHE L   1      -4.331  -2.153   0.268  1.00  0.00    -0.2676 OA
ATOM     32 H38  CHE L   1      -5.133  -1.193  -1.866  1.00  0.00    +0.1589 HD
ATOM     33 H39  CHE L   1      -3.659  -0.387  -2.287  1.00  0.00    +0.1589 HD
ENDBRANCH 4 29
BRANCH 5 34
ATOM     34 N17  CHE L   1      -2.639   0.389   1.811  1.00  0.00    -0.3613  N
ATOM     35 H40  CHE L   1      -1.980   0.869   2.425  1.00  0.00    +0.1617 HD
BRANCH 34 36
ATOM     36 C18  CHE L   1      -3.836   1.190   1.440  1.00  0.00    +0.0630  C
ATOM     37 C21  CHE L   1      -4.697   1.643   2.613  1.00  0.00    -0.0254  C
ATOM     38 C22  CHE L   1      -5.214   0.596   1.688  1.00  0.00    -0.0254  C
ATOM     39 H44  CHE L   1      -4.416   1.332   3.614  1.00  0.00    +0.0289  H
ATOM     40 H45  CHE L   1      -5.174   2.616   2.579  1.00  0.00    +0.0289  H
ATOM     41 H46  CHE L   1      -6.036   0.865   1.036  1.00  0.00    +0.0289  H
ATOM     42 H47  CHE L   1      -5.274  -0.421   2.062  1.00  0.00    +0.0289  H
BRANCH 36 43
ATOM     43 C19  CHE L   1      -3.650   2.230   0.331  1.00  0.00    +0.0673  C
ATOM     44 O20  CHE L   1      -4.512   1.970  -0.775  1.00  0.00    -0.3927 OA
ATOM     45 H41  CHE L   1      -2.622   2.234  -0.042  1.00  0.00    +0.0580  H
ATOM     46 H42  CHE L   1      -3.863   3.239   0.697  1.00  0.00    +0.0580  H
ATOM     47 H43  CHE L   1      -4.605   1.001  -0.836  1.00  0.00    +0.2095 HD
ENDBRANCH 36 43
ENDBRANCH 34 36
ENDBRANCH 5 34
TORSDOF 9
