ROOT
ATOM      1 C14  187 L   1      -1.846  -0.599  -0.409  1.00  0.00    +0.0556  C
ATOM      2 C15  187 L   1      -1.823  -1.164  -1.838  1.00  0.00    +0.0687  C
ATOM      3 O16  187 L   1      -3.017  -1.957  -1.972  1.00  0.00    -0.3713 OA
ATOM      4 C17  187 L   1      -3.932  -1.550  -0.940  1.00  0.00    +0.0718  C
ATOM      5 C18  187 L   1      -4.779  -2.626  -0.325  1.00  0.00    -0.0211  C
ATOM      6 C19  187 L   1      -5.397  -1.614  -1.252  1.00  0.00    -0.0211  C
ATOM      7 C20  187 L   1      -3.341  -0.448  -0.131  1.00  0.00    -0.0012  C
ATOM      8 H30  187 L   1      -1.423  -1.346   0.277  1.00  0.00    +0.0546  H
ATOM      9 H31  187 L   1      -0.951  -1.798  -2.021  1.00  0.00    +0.0580  H
ATOM     10 H32  187 L   1      -1.853  -0.372  -2.593  1.00  0.00    +0.0580  H
ATOM     11 H33  187 L   1      -4.653  -3.639  -0.692  1.00  0.00    +0.0294  H
ATOM     12 H34  187 L   1      -5.022  -2.562   0.728  1.00  0.00    +0.0294  H
ATOM     13 H35  187 L   1      -6.052  -0.867  -0.822  1.00  0.00    +0.0294  H
ATOM     14 H36  187 L   1      -5.687  -1.945  -2.243  1.00  0.00    +0.0294  H
ATOM     15 H37  187 L   1      -3.560  -0.524   0.940  1.00  0.00    +0.0314  H
ATOM     16 H38  187 L   1      -3.712   0.521  -0.487  1.00  0.00    +0.0314  H
ENDROOT
BRANCH 1 19
ATOM     17 C11  187 L   1       0.251   0.691  -0.427  1.00  0.00    +0.2434  C
ATOM     18 O12  187 L   1       0.888  -0.242  -0.913  1.00  0.00    -0.2710 OA
ATOM     19 N13  187 L   1      -1.116   0.646  -0.227  1.00  0.00    -0.3493  N
ATOM     20 H29  187 L   1      -1.488   1.301   0.452  1.00  0.00    +0.1627 HD
BRANCH 17 22
ATOM     21  C1  187 L   1       0.736   3.011  -1.231  1.00  0.00    -0.0359  C
ATOM     22  C2  187 L   1       0.902   2.041  -0.070  1.00  0.00    +0.1054  C
ATOM     23 H21  187 L   1       1.194   2.618  -2.146  1.00  0.00    +0.0254  H
ATOM     24 H22  187 L   1       1.211   3.972  -1.006  1.00  0.00    +0.0254  H
ATOM     25 H23  187 L   1      -0.323   3.194  -1.443  1.00  0.00    +0.0254  H
ATOM     26 H24  187 L   1       0.412   2.450   0.821  1.00  0.00    +0.0618  H
BRANCH 22 27
ATOM     27  N3  187 L   1       2.310   1.813   0.216  1.00  0.00    -0.3405  N
ATOM     28  C4  187 L   1       2.717   1.474   1.492  1.00  0.00    +0.2592  C
ATOM     29  O5  187 L   1       1.961   1.598   2.454  1.00  0.00    -0.2670 OA
ATOM     30 H25  187 L   1       2.863   1.406  -0.531  1.00  0.00    +0.1634 HD
BRANCH 28 31
ATOM     31  C6  187 L   1       4.074   0.957   1.616  1.00  0.00    +0.0761  A
ATOM     32  C7  187 L   1       4.698   0.549   2.782  1.00  0.00    -0.0423  A
ATOM     33  C8  187 L   1       6.029   0.091   2.564  1.00  0.00    -0.0540  A
ATOM     34  C9  187 L   1       6.384   0.162   1.236  1.00  0.00    -0.0236  A
ATOM     35 S10  187 L   1       5.118   0.778   0.266  1.00  0.00    -0.0919  S
ATOM     36 H26  187 L   1       4.210   0.580   3.750  1.00  0.00    +0.0630  H
ATOM     37 H27  187 L   1       6.690  -0.273   3.341  1.00  0.00    +0.0623  H
ATOM     38 H28  187 L   1       7.327  -0.119   0.786  1.00  0.00    +0.0693  H
ENDBRANCH 28 31
ENDBRANCH 22 27
ENDBRANCH 17 22
ENDBRANCH 1 19
TORSDOF 4
