ROOT
ATOM      1 N13  WH0 L   1      -1.277   1.415  -0.248  1.00  0.00    -0.2839  N
ATOM      2 C14  WH0 L   1      -0.613   2.536  -0.784  1.00  0.00    +0.2395  C
ATOM      3 O15  WH0 L   1       0.577   2.812  -0.658  1.00  0.00    -0.2717 OA
ATOM      4 C16  WH0 L   1      -1.539   3.460  -1.546  1.00  0.00    +0.0758  C
ATOM      5 S17  WH0 L   1      -3.067   2.561  -1.800  1.00  0.00    -0.1088 SA
ATOM      6 C18  WH0 L   1      -2.727   1.476  -0.363  1.00  0.00    +0.2010  C
ATOM      7 C19  WH0 L   1      -3.427   2.140   0.881  1.00  0.00    +0.2665  C
ATOM      8 O20  WH0 L   1      -3.121   3.177   1.451  1.00  0.00    -0.2689 OA
ATOM      9 N21  WH0 L   1      -4.503   1.321   1.229  1.00  0.00    -0.3228  N
ATOM     10 C22  WH0 L   1      -4.546   0.181   0.436  1.00  0.00    +0.0486  A
ATOM     11 C23  WH0 L   1      -5.442  -0.862   0.539  1.00  0.00    -0.0379  A
ATOM     12 C24  WH0 L   1      -5.278  -1.937  -0.339  1.00  0.00    -0.0598  A
ATOM     13 C25  WH0 L   1      -4.236  -1.944  -1.285  1.00  0.00    -0.0613  A
ATOM     14 C26  WH0 L   1      -3.340  -0.874  -1.376  1.00  0.00    -0.0531  A
ATOM     15 C27  WH0 L   1      -3.506   0.191  -0.502  1.00  0.00    +0.0211  A
ATOM     16 H39  WH0 L   1      -1.719   4.358  -0.954  1.00  0.00    +0.0474  H
ATOM     17 H40  WH0 L   1      -1.091   3.723  -2.505  1.00  0.00    +0.0474  H
ATOM     18 H41  WH0 L   1      -5.125   1.531   1.994  1.00  0.00    +0.1687 HD
ATOM     19 H42  WH0 L   1      -6.241  -0.861   1.271  1.00  0.00    +0.0638  H
ATOM     20 H43  WH0 L   1      -5.961  -2.783  -0.290  1.00  0.00    +0.0618  H
ATOM     21 H44  WH0 L   1      -4.128  -2.795  -1.956  1.00  0.00    +0.0618  H
ATOM     22 H45  WH0 L   1      -2.539  -0.882  -2.109  1.00  0.00    +0.0622  H
ENDROOT
BRANCH 1 27
ATOM     23  C8  WH0 L   1       1.466  -0.922   0.838  1.00  0.00    -0.0438  A
ATOM     24  C9  WH0 L   1       0.847  -1.611   1.879  1.00  0.00    -0.0584  A
ATOM     25 C10  WH0 L   1      -0.464  -1.305   2.228  1.00  0.00    -0.0596  A
ATOM     26 C11  WH0 L   1      -1.167  -0.309   1.541  1.00  0.00    -0.0380  A
ATOM     27 C12  WH0 L   1      -0.576   0.406   0.492  1.00  0.00    +0.0471  A
ATOM     28 C28  WH0 L   1       0.750   0.080   0.160  1.00  0.00    -0.0348  A
ATOM     29 H36  WH0 L   1       1.377  -2.389   2.424  1.00  0.00    +0.0620  H
ATOM     30 H37  WH0 L   1      -0.945  -1.837   3.045  1.00  0.00    +0.0618  H
ATOM     31 H38  WH0 L   1      -2.169  -0.099   1.893  1.00  0.00    +0.0638  H
ATOM     32 H46  WH0 L   1       1.252   0.585  -0.665  1.00  0.00    +0.0641  H
BRANCH 23 33
ATOM     33  C7  WH0 L   1       2.888  -1.235   0.443  1.00  0.00    -0.0101  C
ATOM     34 H34  WH0 L   1       2.950  -1.288  -0.651  1.00  0.00    +0.0330  H
ATOM     35 H35  WH0 L   1       3.162  -2.237   0.798  1.00  0.00    +0.0330  H
BRANCH 33 36
ATOM     36  C6  WH0 L   1       3.878  -0.202   0.988  1.00  0.00    +0.0221  C
ATOM     37 H32  WH0 L   1       3.797  -0.124   2.078  1.00  0.00    +0.0489  H
ATOM     38 H33  WH0 L   1       3.675   0.789   0.567  1.00  0.00    +0.0489  H
BRANCH 36 41
ATOM     39  O1  WH0 L   1       5.165   0.096  -1.503  1.00  0.00    -0.2720 OA
ATOM     40  C2  WH0 L   1       5.790  -0.408  -0.571  1.00  0.00    +0.2356  C
ATOM     41  N5  WH0 L   1       5.257  -0.550   0.694  1.00  0.00    -0.3547  N
ATOM     42 H31  WH0 L   1       5.759  -1.142   1.347  1.00  0.00    +0.1623 HD
BRANCH 40 43
ATOM     43  C3  WH0 L   1       7.234  -0.844  -0.736  1.00  0.00    +0.1010  C
ATOM     44 CL4  WH0 L   1       7.625  -2.232   0.306  1.00  0.00    -0.1154 Cl
ATOM     45 H29  WH0 L   1       7.398  -1.155  -1.771  1.00  0.00    +0.0527  H
ATOM     46 H30  WH0 L   1       7.899  -0.014  -0.485  1.00  0.00    +0.0527  H
ENDBRANCH 40 43
ENDBRANCH 36 41
ENDBRANCH 33 36
ENDBRANCH 23 33
ENDBRANCH 1 27
TORSDOF 5
