ROOT
ATOM      1 C10  WH0 L   1       1.596  -1.737   0.363  1.00  0.00    -0.0452  A
ATOM      2 C11  WH0 L   1       1.977  -1.327   1.663  1.00  0.00    -0.0566  A
ATOM      3 C12  WH0 L   1       1.024  -0.984   2.626  1.00  0.00    -0.0377  A
ATOM      4 C13  WH0 L   1      -0.301  -1.060   2.260  1.00  0.00    +0.0486  A
ATOM      5 C14  WH0 L   1      -0.705  -1.481   0.988  1.00  0.00    +0.0214  A
ATOM      6 C15  WH0 L   1       0.235  -1.828   0.029  1.00  0.00    -0.0498  A
ATOM      7 C16  WH0 L   1      -2.217  -1.448   0.913  1.00  0.00    +0.2010  C
ATOM      8 S17  WH0 L   1      -2.840  -3.176   0.980  1.00  0.00    -0.1088 SA
ATOM      9 C18  WH0 L   1      -3.395  -3.149  -0.713  1.00  0.00    +0.0758  C
ATOM     10 C19  WH0 L   1      -3.323  -1.727  -1.211  1.00  0.00    +0.2395  C
ATOM     11 O20  WH0 L   1      -3.687  -1.469  -2.356  1.00  0.00    -0.2717 OA
ATOM     12 N21  WH0 L   1      -2.777  -0.829  -0.283  1.00  0.00    -0.2840  N
ATOM     13 C28  WH0 L   1      -2.590  -0.805   2.302  1.00  0.00    +0.2665  C
ATOM     14 O29  WH0 L   1      -3.691  -0.469   2.712  1.00  0.00    -0.2689 OA
ATOM     15 N30  WH0 L   1      -1.399  -0.689   3.025  1.00  0.00    -0.3228  N
ATOM     16 H38  WH0 L   1       3.033  -1.258   1.921  1.00  0.00    +0.0621  H
ATOM     17 H39  WH0 L   1       1.328  -0.651   3.612  1.00  0.00    +0.0638  H
ATOM     18 H40  WH0 L   1      -0.076  -2.142  -0.964  1.00  0.00    +0.0625  H
ATOM     19 H41  WH0 L   1      -2.747  -3.777  -1.330  1.00  0.00    +0.0474  H
ATOM     20 H42  WH0 L   1      -4.427  -3.505  -0.777  1.00  0.00    +0.0474  H
ATOM     21 H48  WH0 L   1      -1.366  -0.299   3.956  1.00  0.00    +0.1687 HD
ENDROOT
BRANCH 1 22
ATOM     22  C9  WH0 L   1       2.659  -2.024  -0.677  1.00  0.00    -0.0102  C
ATOM     23 H36  WH0 L   1       3.640  -2.092  -0.192  1.00  0.00    +0.0330  H
ATOM     24 H37  WH0 L   1       2.467  -3.010  -1.118  1.00  0.00    +0.0330  H
BRANCH 22 25
ATOM     25  C8  WH0 L   1       2.703  -0.963  -1.786  1.00  0.00    +0.0224  C
ATOM     26 H34  WH0 L   1       1.773  -0.966  -2.365  1.00  0.00    +0.0489  H
ATOM     27 H35  WH0 L   1       3.527  -1.186  -2.474  1.00  0.00    +0.0489  H
BRANCH 25 30
ATOM     28  C5  WH0 L   1       4.096   0.846  -0.845  1.00  0.00    +0.2618  C
ATOM     29  O6  WH0 L   1       5.132   0.203  -1.000  1.00  0.00    -0.2669 OA
ATOM     30  N7  WH0 L   1       2.872   0.385  -1.269  1.00  0.00    -0.3511  N
ATOM     31 H33  WH0 L   1       2.020   0.891  -1.056  1.00  0.00    +0.1627 HD
BRANCH 28 33
ATOM     32  C1  WH0 L   1       5.278   2.773   0.078  1.00  0.00    -0.0760  C
ATOM     33  C2  WH0 L   1       4.097   2.177  -0.159  1.00  0.00    +0.1085  C
ATOM     34 H31  WH0 L   1       5.344   3.733   0.582  1.00  0.00    +0.0549  H
ATOM     35 H32  WH0 L   1       6.215   2.315  -0.227  1.00  0.00    +0.0549  H
BRANCH 33 36
ATOM     36  C3  WH0 L   1       2.881   2.780   0.261  1.00  0.00    +0.1040  C
ATOM     37  N4  WH0 L   1       1.872   3.244   0.599  1.00  0.00    -0.1907 NA
ENDBRANCH 33 36
ENDBRANCH 28 33
ENDBRANCH 25 30
ENDBRANCH 22 25
ENDBRANCH 1 22
BRANCH 12 38
ATOM     38 C22  WH0 L   1      -2.751   0.594  -0.511  1.00  0.00    +0.0468  A
ATOM     39 C23  WH0 L   1      -1.859   1.452   0.152  1.00  0.00    -0.0380  A
ATOM     40 C24  WH0 L   1      -1.848   2.833  -0.086  1.00  0.00    -0.0598  A
ATOM     41 C25  WH0 L   1      -2.741   3.397  -0.987  1.00  0.00    -0.0616  A
ATOM     42 C26  WH0 L   1      -3.644   2.577  -1.648  1.00  0.00    -0.0598  A
ATOM     43 C27  WH0 L   1      -3.647   1.197  -1.410  1.00  0.00    -0.0380  A
ATOM     44 H43  WH0 L   1      -1.112   1.100   0.850  1.00  0.00    +0.0638  H
ATOM     45 H44  WH0 L   1      -1.132   3.465   0.436  1.00  0.00    +0.0618  H
ATOM     46 H45  WH0 L   1      -2.734   4.468  -1.170  1.00  0.00    +0.0618  H
ATOM     47 H46  WH0 L   1      -4.358   3.004  -2.349  1.00  0.00    +0.0618  H
ATOM     48 H47  WH0 L   1      -4.403   0.619  -1.934  1.00  0.00    +0.0638  H
ENDBRANCH 12 38
TORSDOF 6
