ROOT
ATOM      1  C3  MCU L   1       0.460  -0.615  -1.530  1.00  0.00    +0.2296  C
ATOM      2  O4  MCU L   1       0.359  -1.493  -2.429  1.00  0.00    -0.2724 OA
ATOM      3  N5  MCU L   1      -0.750  -0.085  -0.955  1.00  0.00    -0.3389  N
ATOM      4  C6  MCU L   1      -1.951   0.111  -1.747  1.00  0.00    +0.0303  C
ATOM      5  C7  MCU L   1      -2.939   0.767  -0.782  1.00  0.00    +0.0266  C
ATOM      6 C15  MCU L   1      -2.512   0.282   0.631  1.00  0.00    +0.0669  C
ATOM      7 C16  MCU L   1      -3.196  -1.048   1.053  1.00  0.00    -0.0270  C
ATOM      8 C17  MCU L   1      -2.804  -1.527   2.474  1.00  0.00    -0.0424  C
ATOM      9 C18  MCU L   1      -2.329  -0.421   3.445  1.00  0.00    +0.0262  C
ATOM     10 C19  MCU L   1      -2.779   0.949   3.034  1.00  0.00    +0.2214  C
ATOM     11 O20  MCU L   1      -3.088   1.804   3.907  1.00  0.00    -0.2732 OA
ATOM     12 N21  MCU L   1      -2.808   1.298   1.649  1.00  0.00    -0.3482  N
ATOM     13 C22  MCU L   1      -0.986   0.092   0.474  1.00  0.00    +0.0450  C
ATOM     14 H37  MCU L   1      -1.741   0.780  -2.609  1.00  0.00    +0.0495  H
ATOM     15 H38  MCU L   1      -2.295  -0.871  -2.124  1.00  0.00    +0.0495  H
ATOM     16 H39  MCU L   1      -2.695   1.854  -0.843  1.00  0.00    +0.0389  H
ATOM     17 H44  MCU L   1      -2.967  -1.850   0.319  1.00  0.00    +0.0289  H
ATOM     18 H45  MCU L   1      -4.297  -0.899   1.056  1.00  0.00    +0.0289  H
ATOM     19 H46  MCU L   1      -2.000  -2.291   2.391  1.00  0.00    +0.0271  H
ATOM     20 H47  MCU L   1      -3.678  -2.047   2.923  1.00  0.00    +0.0271  H
ATOM     21 H48  MCU L   1      -1.218  -0.417   3.482  1.00  0.00    +0.0360  H
ATOM     22 H49  MCU L   1      -2.695  -0.648   4.470  1.00  0.00    +0.0360  H
ATOM     23 H50  MCU L   1      -3.142   2.250   1.380  1.00  0.00    +0.1629 HD
ATOM     24 H51  MCU L   1      -0.445   0.992   0.836  1.00  0.00    +0.0512  H
ATOM     25 H52  MCU L   1      -0.620  -0.792   1.034  1.00  0.00    +0.0512  H
ENDROOT
BRANCH 1 27
ATOM     26  C1  MCU L   1       1.859   1.426  -1.186  1.00  0.00    -0.0509  C
ATOM     27  C2  MCU L   1       1.847  -0.123  -1.103  1.00  0.00    +0.0497  C
ATOM     28 C23  MCU L   1       2.155  -0.597   0.352  1.00  0.00    -0.0213  C
ATOM     29 C24  MCU L   1       3.623  -0.988   0.616  1.00  0.00    +0.0223  C
ATOM     30 N25  MCU L   1       4.555  -0.238  -0.239  1.00  0.00    -0.3403  N
ATOM     31 C32  MCU L   1       4.343  -0.218  -1.693  1.00  0.00    +0.0223  C
ATOM     32 C33  MCU L   1       2.929  -0.685  -2.070  1.00  0.00    -0.0213  C
ATOM     33 H34  MCU L   1       1.030   1.878  -0.610  1.00  0.00    +0.0240  H
ATOM     34 H35  MCU L   1       2.798   1.849  -0.772  1.00  0.00    +0.0240  H
ATOM     35 H36  MCU L   1       1.758   1.758  -2.242  1.00  0.00    +0.0240  H
ATOM     36 H53  MCU L   1       1.548  -1.495   0.598  1.00  0.00    +0.0292  H
ATOM     37 H54  MCU L   1       1.864   0.189   1.081  1.00  0.00    +0.0292  H
ATOM     38 H55  MCU L   1       3.835  -0.823   1.694  1.00  0.00    +0.0489  H
ATOM     39 H56  MCU L   1       3.758  -2.073   0.417  1.00  0.00    +0.0489  H
ATOM     40 H60  MCU L   1       5.093  -0.872  -2.187  1.00  0.00    +0.0489  H
ATOM     41 H61  MCU L   1       4.491   0.814  -2.077  1.00  0.00    +0.0489  H
ATOM     42 H62  MCU L   1       2.718  -0.379  -3.118  1.00  0.00    +0.0292  H
ATOM     43 H63  MCU L   1       2.910  -1.797  -2.043  1.00  0.00    +0.0292  H
BRANCH 30 44
ATOM     44 C26  MCU L   1       5.778   0.309   0.298  1.00  0.00    +0.2265  A
ATOM     45 N27  MCU L   1       6.592   1.067  -0.490  1.00  0.00    -0.2208 NA
ATOM     46 C28  MCU L   1       7.744   1.598  -0.004  1.00  0.00    +0.0328  A
ATOM     47 C29  MCU L   1       8.113   1.368   1.322  1.00  0.00    -0.0253  A
ATOM     48 C30  MCU L   1       7.276   0.589   2.118  1.00  0.00    +0.0328  A
ATOM     49 N31  MCU L   1       6.131   0.078   1.596  1.00  0.00    -0.2208 NA
ATOM     50 H57  MCU L   1       8.371   2.201  -0.648  1.00  0.00    +0.0831  H
ATOM     51 H58  MCU L   1       9.028   1.786   1.723  1.00  0.00    +0.0648  H
ATOM     52 H59  MCU L   1       7.534   0.392   3.152  1.00  0.00    +0.0831  H
ENDBRANCH 30 44
ENDBRANCH 1 27
BRANCH 5 53
ATOM     53  C8  MCU L   1      -4.416   0.615  -1.132  1.00  0.00    -0.0401  A
ATOM     54  C9  MCU L   1      -4.966  -0.597  -1.598  1.00  0.00    -0.0555  A
ATOM     55 C10  MCU L   1      -6.330  -0.693  -1.882  1.00  0.00    -0.0262  A
ATOM     56 C11  MCU L   1      -7.166   0.408  -1.696  1.00  0.00    +0.1234  A
ATOM     57 F12  MCU L   1      -8.489   0.309  -1.970  1.00  0.00    -0.2055  F
ATOM     58 C13  MCU L   1      -6.640   1.608  -1.219  1.00  0.00    -0.0262  A
ATOM     59 C14  MCU L   1      -5.276   1.710  -0.934  1.00  0.00    -0.0555  A
ATOM     60 H40  MCU L   1      -4.358  -1.481  -1.721  1.00  0.00    +0.0621  H
ATOM     61 H41  MCU L   1      -6.742  -1.627  -2.239  1.00  0.00    +0.0646  H
ATOM     62 H42  MCU L   1      -7.289   2.460  -1.068  1.00  0.00    +0.0646  H
ATOM     63 H43  MCU L   1      -4.892   2.649  -0.559  1.00  0.00    +0.0621  H
ENDBRANCH 5 53
TORSDOF 3
