ROOT
ATOM      1  C7  CHE L   1      -1.537   1.822  -0.787  1.00  0.00    +0.2352  A
ATOM      2  N8  CHE L   1      -2.516   0.916  -0.812  1.00  0.00    -0.1945 NA
ATOM      3  C9  CHE L   1      -2.194  -0.378  -0.738  1.00  0.00    +0.1404  A
ATOM      4 C18  CHE L   1      -0.874  -0.830  -0.697  1.00  0.00    +0.0462  A
ATOM      5 C19  CHE L   1      -0.479  -2.193  -0.664  1.00  0.00    -0.0036  A
ATOM      6 C20  CHE L   1       0.867  -2.543  -0.601  1.00  0.00    +0.1623  A
ATOM      7 C23  CHE L   1       1.823  -1.521  -0.618  1.00  0.00    +0.1639  A
ATOM      8 C33  CHE L   1       1.425  -0.180  -0.658  1.00  0.00    +0.0099  A
ATOM      9 C34  CHE L   1       0.086   0.181  -0.706  1.00  0.00    +0.0820  A
ATOM     10 N35  CHE L   1      -0.235   1.480  -0.751  1.00  0.00    -0.2118 NA
ATOM     11 H57  CHE L   1      -1.256  -2.952  -0.695  1.00  0.00    +0.0663  H
ATOM     12 H75  CHE L   1       2.168   0.611  -0.626  1.00  0.00    +0.0677  H
ENDROOT
BRANCH 1 15
ATOM     13  C3  CHE L   1      -3.165   3.646  -0.646  1.00  0.00    +0.2295  C
ATOM     14  O4  CHE L   1      -4.133   2.924  -0.396  1.00  0.00    -0.2726 OA
ATOM     15  N5  CHE L   1      -1.852   3.212  -0.799  1.00  0.00    -0.2840  N
ATOM     16  C6  CHE L   1      -0.693   4.097  -0.900  1.00  0.00    +0.0177  C
ATOM     17 H41  CHE L   1      -0.045   3.949  -0.028  1.00  0.00    +0.0458  H
ATOM     18 H42  CHE L   1      -0.955   5.153  -0.930  1.00  0.00    +0.0458  H
ATOM     19 H43  CHE L   1      -0.147   3.870  -1.822  1.00  0.00    +0.0458  H
BRANCH 13 21
ATOM     20  C1  CHE L   1      -3.413   5.582  -2.243  1.00  0.00    -0.0568  C
ATOM     21  C2  CHE L   1      -3.443   5.136  -0.793  1.00  0.00    +0.0239  C
ATOM     22 H36  CHE L   1      -4.123   5.002  -2.844  1.00  0.00    +0.0234  H
ATOM     23 H37  CHE L   1      -2.426   5.456  -2.695  1.00  0.00    +0.0234  H
ATOM     24 H38  CHE L   1      -3.690   6.639  -2.322  1.00  0.00    +0.0234  H
ATOM     25 H39  CHE L   1      -2.766   5.720  -0.164  1.00  0.00    +0.0358  H
ATOM     26 H40  CHE L   1      -4.446   5.327  -0.388  1.00  0.00    +0.0358  H
ENDBRANCH 13 21
ENDBRANCH 1 15
BRANCH 3 27
ATOM     27 N10  CHE L   1      -3.301  -1.246  -0.682  1.00  0.00    -0.3662  N
ATOM     28 H44  CHE L   1      -4.072  -0.625  -0.951  1.00  0.00    +0.1613 HD
BRANCH 27 29
ATOM     29 C11  CHE L   1      -3.566  -1.750   0.686  1.00  0.00    +0.0308  C
ATOM     30 C12  CHE L   1      -4.324  -3.078   0.587  1.00  0.00    -0.0198  C
ATOM     31 C13  CHE L   1      -5.794  -2.880   0.217  1.00  0.00    +0.0005  C
ATOM     32 N14  CHE L   1      -6.509  -1.942   1.087  1.00  0.00    -0.3052 NA
ATOM     33 C15  CHE L   1      -6.783  -2.495   2.409  1.00  0.00    -0.0128  C
ATOM     34 C16  CHE L   1      -5.822  -0.645   1.151  1.00  0.00    +0.0005  C
ATOM     35 C17  CHE L   1      -4.346  -0.742   1.544  1.00  0.00    -0.0198  C
ATOM     36 H45  CHE L   1      -2.616  -1.963   1.192  1.00  0.00    +0.0523  H
ATOM     37 H46  CHE L   1      -4.257  -3.599   1.550  1.00  0.00    +0.0297  H
ATOM     38 H47  CHE L   1      -3.848  -3.735  -0.154  1.00  0.00    +0.0297  H
ATOM     39 H48  CHE L   1      -6.302  -3.853   0.219  1.00  0.00    +0.0427  H
ATOM     40 H49  CHE L   1      -5.862  -2.524  -0.819  1.00  0.00    +0.0427  H
ATOM     41 H50  CHE L   1      -7.418  -1.809   2.987  1.00  0.00    +0.0391  H
ATOM     42 H51  CHE L   1      -7.344  -3.433   2.325  1.00  0.00    +0.0391  H
ATOM     43 H52  CHE L   1      -5.879  -2.696   2.992  1.00  0.00    +0.0391  H
ATOM     44 H53  CHE L   1      -6.344   0.024   1.848  1.00  0.00    +0.0427  H
ATOM     45 H54  CHE L   1      -5.907  -0.159   0.170  1.00  0.00    +0.0427  H
ATOM     46 H55  CHE L   1      -4.280  -1.055   2.595  1.00  0.00    +0.0297  H
ATOM     47 H56  CHE L   1      -3.893   0.256   1.496  1.00  0.00    +0.0297  H
ENDBRANCH 27 29
ENDBRANCH 3 27
BRANCH 6 48
ATOM     48 O21  CHE L   1       1.341  -3.826  -0.558  1.00  0.00    -0.4914 OA
ATOM     49 C22  CHE L   1       0.406  -4.848  -0.229  1.00  0.00    +0.0790  C
ATOM     50 H58  CHE L   1      -0.118  -4.621   0.706  1.00  0.00    +0.0660  H
ATOM     51 H59  CHE L   1      -0.301  -5.012  -1.049  1.00  0.00    +0.0660  H
ATOM     52 H60  CHE L   1       0.962  -5.778  -0.079  1.00  0.00    +0.0660  H
ENDBRANCH 6 48
BRANCH 7 53
ATOM     53 O24  CHE L   1       3.141  -1.871  -0.483  1.00  0.00    -0.4882 OA
BRANCH 53 54
ATOM     54 C25  CHE L   1       4.017  -1.327  -1.473  1.00  0.00    +0.0909  C
ATOM     55 H61  CHE L   1       4.556  -2.171  -1.920  1.00  0.00    +0.0697  H
ATOM     56 H62  CHE L   1       3.478  -0.831  -2.290  1.00  0.00    +0.0697  H
BRANCH 54 57
ATOM     57 C26  CHE L   1       5.019  -0.364  -0.830  1.00  0.00    -0.0058  C
ATOM     58 H63  CHE L   1       5.684   0.017  -1.613  1.00  0.00    +0.0310  H
ATOM     59 H64  CHE L   1       4.473   0.492  -0.423  1.00  0.00    +0.0310  H
BRANCH 57 60
ATOM     60 C27  CHE L   1       5.831  -1.041   0.285  1.00  0.00    +0.0020  C
ATOM     61 H65  CHE L   1       5.151  -1.489   1.020  1.00  0.00    +0.0428  H
ATOM     62 H66  CHE L   1       6.384  -1.884  -0.149  1.00  0.00    +0.0428  H
BRANCH 60 63
ATOM     63 N28  CHE L   1       6.780  -0.199   1.010  1.00  0.00    -0.3022 NA
ATOM     64 C29  CHE L   1       6.187   0.823   1.869  1.00  0.00    -0.0011  C
ATOM     65 C30  CHE L   1       7.309   1.837   2.087  1.00  0.00    -0.0390  C
ATOM     66 C31  CHE L   1       8.482   1.317   1.264  1.00  0.00    -0.0390  C
ATOM     67 C32  CHE L   1       7.814   0.449   0.215  1.00  0.00    -0.0011  C
ATOM     68 H67  CHE L   1       5.331   1.331   1.411  1.00  0.00    +0.0426  H
ATOM     69 H68  CHE L   1       5.855   0.386   2.817  1.00  0.00    +0.0426  H
ATOM     70 H69  CHE L   1       6.996   2.820   1.713  1.00  0.00    +0.0278  H
ATOM     71 H70  CHE L   1       7.577   1.950   3.144  1.00  0.00    +0.0278  H
ATOM     72 H71  CHE L   1       9.148   0.718   1.899  1.00  0.00    +0.0278  H
ATOM     73 H72  CHE L   1       9.071   2.127   0.825  1.00  0.00    +0.0278  H
ATOM     74 H73  CHE L   1       8.515  -0.266  -0.225  1.00  0.00    +0.0426  H
ATOM     75 H74  CHE L   1       7.399   1.083  -0.575  1.00  0.00    +0.0426  H
ENDBRANCH 60 63
ENDBRANCH 57 60
ENDBRANCH 54 57
ENDBRANCH 53 54
ENDBRANCH 7 53
TORSDOF 10
