ROOT
ATOM      1  C5  CHE L   1      -2.441  -0.052  -0.609  1.00  0.00    +0.0866  A
ATOM      2  C6  CHE L   1      -1.843  -0.818  -1.611  1.00  0.00    -0.0415  A
ATOM      3  C7  CHE L   1      -0.454  -0.940  -1.645  1.00  0.00    -0.0570  A
ATOM      4  C8  CHE L   1       0.339  -0.295  -0.684  1.00  0.00    -0.0414  A
ATOM      5  C9  CHE L   1      -0.265   0.503   0.307  1.00  0.00    -0.0291  A
ATOM      6 C10  CHE L   1      -1.662   0.613   0.344  1.00  0.00    -0.0371  A
ATOM      7 C11  CHE L   1       0.571   1.187   1.365  1.00  0.00    +0.0219  C
ATOM      8 N12  CHE L   1       1.968   1.388   0.963  1.00  0.00    -0.3068 NA
ATOM      9 C13  CHE L   1       2.545   0.100   0.522  1.00  0.00    +0.0350  C
ATOM     10 C16  CHE L   1       1.845  -0.413  -0.754  1.00  0.00    -0.0098  C
ATOM     11 H19  CHE L   1      -2.447  -1.319  -2.364  1.00  0.00    +0.0631  H
ATOM     12 H20  CHE L   1       0.011  -1.539  -2.425  1.00  0.00    +0.0621  H
ATOM     13 H21  CHE L   1      -2.140   1.216   1.114  1.00  0.00    +0.0634  H
ATOM     14 H22  CHE L   1       0.143   2.171   1.589  1.00  0.00    +0.0474  H
ATOM     15 H23  CHE L   1       0.531   0.598   2.289  1.00  0.00    +0.0474  H
ATOM     16 H24  CHE L   1       1.973   2.036   0.174  1.00  0.00    +0.1226 HD
ATOM     17 H25  CHE L   1       2.407  -0.647   1.317  1.00  0.00    +0.0486  H
ATOM     18 H29  CHE L   1       2.183   0.165  -1.625  1.00  0.00    +0.0329  H
ATOM     19 H30  CHE L   1       2.116  -1.462  -0.920  1.00  0.00    +0.0329  H
ENDROOT
BRANCH 1 21
ATOM     20  N1  CHE L   1      -4.663  -1.161   0.395  1.00  0.00    -0.3241 NA
ATOM     21  S2  CHE L   1      -4.200   0.127  -0.578  1.00  0.00    +0.2565  S
ATOM     22  O3  CHE L   1      -4.732  -0.155  -1.890  1.00  0.00    -0.2005 OA
ATOM     23  O4  CHE L   1      -4.544   1.322   0.157  1.00  0.00    -0.2005 OA
ATOM     24 H17  CHE L   1      -5.116  -0.812   1.239  1.00  0.00    +0.1686 HD
ATOM     25 H18  CHE L   1      -5.236  -1.812  -0.143  1.00  0.00    +0.1686 HD
ENDBRANCH 1 21
BRANCH 9 26
ATOM     26 C14  CHE L   1       4.059   0.255   0.292  1.00  0.00    +0.0599  C
ATOM     27 O15  CHE L   1       4.636  -0.986  -0.104  1.00  0.00    -0.3935 OA
ATOM     28 H26  CHE L   1       4.266   0.993  -0.490  1.00  0.00    +0.0573  H
ATOM     29 H27  CHE L   1       4.552   0.580   1.215  1.00  0.00    +0.0573  H
ATOM     30 H28  CHE L   1       5.597  -0.845  -0.155  1.00  0.00    +0.2095 HD
ENDBRANCH 9 26
TORSDOF 2
