ROOT
ATOM      1 C11  CHE L   1      -4.058   0.143  -0.011  1.00  0.00    -0.0205  A
ATOM      2 C12  CHE L   1      -4.202   0.757  -1.265  1.00  0.00    -0.0563  A
ATOM      3 C13  CHE L   1      -5.198   1.712  -1.484  1.00  0.00    -0.0601  A
ATOM      4 C14  CHE L   1      -6.070   2.058  -0.453  1.00  0.00    -0.0434  A
ATOM      5 C15  CHE L   1      -5.943   1.445   0.792  1.00  0.00    +0.0413  A
ATOM      6 CL16 CHE L   1      -7.024   1.864   2.064  1.00  0.00    -0.0835 Cl
ATOM      7 C17  CHE L   1      -4.950   0.490   1.015  1.00  0.00    -0.0380  A
ATOM      8 H35  CHE L   1      -3.527   0.496  -2.078  1.00  0.00    +0.0621  H
ATOM      9 H36  CHE L   1      -5.290   2.185  -2.458  1.00  0.00    +0.0618  H
ATOM     10 H37  CHE L   1      -6.843   2.802  -0.625  1.00  0.00    +0.0632  H
ATOM     11 H38  CHE L   1      -4.870   0.019   1.992  1.00  0.00    +0.0636  H
ENDROOT
BRANCH 1 12
ATOM     12 C10  CHE L   1      -3.009  -0.917   0.221  1.00  0.00    +0.0731  C
ATOM     13 H33  CHE L   1      -2.817  -1.024   1.294  1.00  0.00    +0.0610  H
ATOM     14 H34  CHE L   1      -3.378  -1.872  -0.171  1.00  0.00    +0.0610  H
BRANCH 12 15
ATOM     15  O9  CHE L   1      -1.801  -0.559  -0.451  1.00  0.00    -0.3719 OA
BRANCH 15 19
ATOM     16  N5  CHE L   1       2.249  -1.127   0.058  1.00  0.00    -0.3010 NA
ATOM     17  C6  CHE L   1       1.295  -0.331   0.846  1.00  0.00    +0.0013  C
ATOM     18  C7  CHE L   1      -0.004  -1.091   1.116  1.00  0.00    -0.0137  C
ATOM     19  C8  CHE L   1      -0.722  -1.462  -0.187  1.00  0.00    +0.0614  C
ATOM     20 C18  CHE L   1       0.219  -1.407  -1.390  1.00  0.00    -0.0137  C
ATOM     21 C19  CHE L   1       1.608  -1.908  -1.014  1.00  0.00    +0.0013  C
ATOM     22 H28  CHE L   1       1.056   0.616   0.343  1.00  0.00    +0.0427  H
ATOM     23 H29  CHE L   1       1.746  -0.080   1.813  1.00  0.00    +0.0427  H
ATOM     24 H30  CHE L   1       0.238  -2.010   1.667  1.00  0.00    +0.0302  H
ATOM     25 H31  CHE L   1      -0.643  -0.487   1.769  1.00  0.00    +0.0302  H
ATOM     26 H32  CHE L   1      -1.120  -2.482  -0.100  1.00  0.00    +0.0597  H
ATOM     27 H39  CHE L   1      -0.196  -2.017  -2.202  1.00  0.00    +0.0302  H
ATOM     28 H40  CHE L   1       0.279  -0.386  -1.793  1.00  0.00    +0.0302  H
ATOM     29 H41  CHE L   1       1.524  -2.943  -0.661  1.00  0.00    +0.0427  H
ATOM     30 H42  CHE L   1       2.232  -1.958  -1.915  1.00  0.00    +0.0427  H
BRANCH 16 31
ATOM     31  C4  CHE L   1       3.350  -0.297  -0.476  1.00  0.00    +0.0114  C
ATOM     32 H26  CHE L   1       2.958   0.450  -1.178  1.00  0.00    +0.0439  H
ATOM     33 H27  CHE L   1       4.026  -0.949  -1.046  1.00  0.00    +0.0439  H
BRANCH 31 34
ATOM     34  C3  CHE L   1       4.200   0.406   0.608  1.00  0.00    +0.0084  C
ATOM     35 H24  CHE L   1       3.585   1.142   1.138  1.00  0.00    +0.0436  H
ATOM     36 H25  CHE L   1       4.545  -0.339   1.336  1.00  0.00    +0.0436  H
BRANCH 34 38
ATOM     37  C1  CHE L   1       6.152   1.754   1.030  1.00  0.00    -0.0157  C
ATOM     38  N2  CHE L   1       5.354   1.089   0.007  1.00  0.00    -0.3178 NA
ATOM     39 H20  CHE L   1       6.545   1.040   1.761  1.00  0.00    +0.0388  H
ATOM     40 H21  CHE L   1       5.568   2.518   1.553  1.00  0.00    +0.0388  H
ATOM     41 H22  CHE L   1       7.003   2.256   0.559  1.00  0.00    +0.0388  H
ATOM     42 H23  CHE L   1       5.935   0.402  -0.473  1.00  0.00    +0.1217 HD
ENDBRANCH 34 38
ENDBRANCH 31 34
ENDBRANCH 16 31
ENDBRANCH 15 19
ENDBRANCH 12 15
ENDBRANCH 1 12
TORSDOF 6
