ROOT
ATOM      1 C10  CHE L   1      -1.318   0.735  -0.277  1.00  0.00    +0.0020  C
ATOM      2 C17  CHE L   1      -1.752   2.226  -0.093  1.00  0.00    -0.0196  C
ATOM      3 C18  CHE L   1      -2.329   2.815  -1.370  1.00  0.00    +0.0492  C
ATOM      4 O19  CHE L   1      -3.544   2.171  -1.736  1.00  0.00    -0.3738 OA
ATOM      5 C20  CHE L   1      -3.541   0.738  -1.668  1.00  0.00    +0.0648  C
ATOM      6 C21  CHE L   1      -4.112   0.250  -3.010  1.00  0.00    -0.0361  C
ATOM      7 C22  CHE L   1      -4.514   0.327  -0.558  1.00  0.00    -0.0361  C
ATOM      8 C23  CHE L   1      -2.124   0.150  -1.482  1.00  0.00    -0.0145  C
ATOM      9 H41  CHE L   1      -2.525   2.302   0.683  1.00  0.00    +0.0296  H
ATOM     10 H42  CHE L   1      -0.909   2.843   0.243  1.00  0.00    +0.0296  H
ATOM     11 H43  CHE L   1      -1.622   2.758  -2.204  1.00  0.00    +0.0560  H
ATOM     12 H44  CHE L   1      -2.559   3.875  -1.218  1.00  0.00    +0.0560  H
ATOM     13 H45  CHE L   1      -5.107   0.673  -3.191  1.00  0.00    +0.0257  H
ATOM     14 H46  CHE L   1      -3.483   0.582  -3.844  1.00  0.00    +0.0257  H
ATOM     15 H47  CHE L   1      -4.187  -0.842  -3.044  1.00  0.00    +0.0257  H
ATOM     16 H48  CHE L   1      -4.221   0.733   0.414  1.00  0.00    +0.0257  H
ATOM     17 H49  CHE L   1      -5.515   0.730  -0.754  1.00  0.00    +0.0257  H
ATOM     18 H50  CHE L   1      -4.597  -0.761  -0.476  1.00  0.00    +0.0257  H
ATOM     19 H51  CHE L   1      -1.568   0.400  -2.399  1.00  0.00    +0.0301  H
ATOM     20 H52  CHE L   1      -2.157  -0.944  -1.479  1.00  0.00    +0.0301  H
ENDROOT
BRANCH 1 21
ATOM     21  C9  CHE L   1       0.206   0.716  -0.651  1.00  0.00    -0.0257  C
ATOM     22 H34  CHE L   1       0.367   1.344  -1.539  1.00  0.00    +0.0291  H
ATOM     23 H35  CHE L   1       0.792   1.198   0.142  1.00  0.00    +0.0291  H
BRANCH 21 24
ATOM     24  C8  CHE L   1       0.788  -0.676  -0.937  1.00  0.00    +0.0163  C
ATOM     25 H32  CHE L   1       0.288  -1.100  -1.815  1.00  0.00    +0.0485  H
ATOM     26 H33  CHE L   1       0.618  -1.386  -0.122  1.00  0.00    +0.0485  H
BRANCH 24 27
ATOM     27  N7  CHE L   1       2.208  -0.562  -1.261  1.00  0.00    -0.3844  N
ATOM     28 H31  CHE L   1       2.462  -1.049  -2.117  1.00  0.00    +0.1596 HD
BRANCH 27 34
ATOM     29  C1  CHE L   1       6.999  -1.034  -0.252  1.00  0.00    -0.0396  C
ATOM     30  C2  CHE L   1       5.584  -0.924   0.232  1.00  0.00    -0.0485  A
ATOM     31  C3  CHE L   1       5.302  -0.848   1.596  1.00  0.00    -0.0587  A
ATOM     32  C4  CHE L   1       3.987  -0.692   2.026  1.00  0.00    -0.0596  A
ATOM     33  C5  CHE L   1       2.945  -0.610   1.096  1.00  0.00    -0.0387  A
ATOM     34  C6  CHE L   1       3.190  -0.709  -0.277  1.00  0.00    +0.0355  A
ATOM     35 C24  CHE L   1       4.528  -0.830  -0.689  1.00  0.00    -0.0358  A
ATOM     36 H25  CHE L   1       7.638  -1.504   0.504  1.00  0.00    +0.0278  H
ATOM     37 H26  CHE L   1       7.396  -0.040  -0.478  1.00  0.00    +0.0278  H
ATOM     38 H27  CHE L   1       7.054  -1.654  -1.153  1.00  0.00    +0.0278  H
ATOM     39 H28  CHE L   1       6.102  -0.899   2.330  1.00  0.00    +0.0620  H
ATOM     40 H29  CHE L   1       3.767  -0.621   3.088  1.00  0.00    +0.0618  H
ATOM     41 H30  CHE L   1       1.939  -0.470   1.479  1.00  0.00    +0.0638  H
ATOM     42 H53  CHE L   1       4.755  -0.847  -1.753  1.00  0.00    +0.0641  H
ENDBRANCH 27 34
ENDBRANCH 24 27
ENDBRANCH 21 24
ENDBRANCH 1 21
BRANCH 1 43
ATOM     43 C11  CHE L   1      -1.469  -0.007   1.073  1.00  0.00    -0.0410  A
ATOM     44 C12  CHE L   1      -0.965   0.581   2.253  1.00  0.00    -0.0580  A
ATOM     45 C13  CHE L   1      -1.055  -0.061   3.491  1.00  0.00    -0.0615  A
ATOM     46 C14  CHE L   1      -1.646  -1.314   3.582  1.00  0.00    -0.0617  A
ATOM     47 C15  CHE L   1      -2.141  -1.924   2.434  1.00  0.00    -0.0615  A
ATOM     48 C16  CHE L   1      -2.050  -1.280   1.194  1.00  0.00    -0.0580  A
ATOM     49 H36  CHE L   1      -0.483   1.557   2.223  1.00  0.00    +0.0620  H
ATOM     50 H37  CHE L   1      -0.660   0.421   4.381  1.00  0.00    +0.0618  H
ATOM     51 H38  CHE L   1      -1.719  -1.817   4.542  1.00  0.00    +0.0618  H
ATOM     52 H39  CHE L   1      -2.599  -2.907   2.500  1.00  0.00    +0.0618  H
ATOM     53 H40  CHE L   1      -2.446  -1.815   0.339  1.00  0.00    +0.0620  H
ENDBRANCH 1 43
TORSDOF 5
