ROOT
ATOM      1  C1  CHE L   1      -2.551  -1.805  -1.792  1.00  0.00    -0.0202  C
ATOM      2  C2  CHE L   1      -2.784  -0.351  -1.592  1.00  0.00    +0.0678  A
ATOM      3  N3  CHE L   1      -3.299   0.356  -2.613  1.00  0.00    -0.1758 NA
ATOM      4  N4  CHE L   1      -3.319   1.624  -2.167  1.00  0.00    -0.2460  N
ATOM      5  C5  CHE L   1      -2.847   1.742  -0.901  1.00  0.00    +0.2230  A
ATOM      6  C6  CHE L   1      -2.527   0.479  -0.461  1.00  0.00    +0.0525  A
ATOM      7  C7  CHE L   1      -1.985   0.288   0.943  1.00  0.00    +0.0694  C
ATOM      8 C25  CHE L   1      -1.684   1.698   1.559  1.00  0.00    +0.1038  C
ATOM      9 C28  CHE L   1      -2.044   2.868   0.961  1.00  0.00    +0.2091  C
ATOM     10 N29  CHE L   1      -1.825   4.128   1.473  1.00  0.00    -0.3688  N
ATOM     11 O30  CHE L   1      -2.705   2.900  -0.272  1.00  0.00    -0.4216 OA
ATOM     12 H31  CHE L   1      -2.133  -1.994  -2.787  1.00  0.00    +0.0293  H
ATOM     13 H32  CHE L   1      -3.493  -2.357  -1.710  1.00  0.00    +0.0293  H
ATOM     14 H33  CHE L   1      -1.847  -2.213  -1.064  1.00  0.00    +0.0293  H
ATOM     15 H34  CHE L   1      -3.644   2.356  -2.787  1.00  0.00    +0.1920 HD
ATOM     16 H55  CHE L   1      -1.736   4.182   2.485  1.00  0.00    +0.1588 HD
ATOM     17 H56  CHE L   1      -2.474   4.811   1.092  1.00  0.00    +0.1588 HD
ENDROOT
BRANCH 7 18
ATOM     18  C8  CHE L   1      -0.625  -0.441   0.766  1.00  0.00    -0.0297  A
ATOM     19  C9  CHE L   1       0.318   0.002  -0.192  1.00  0.00    -0.0419  A
ATOM     20 C10  CHE L   1       1.570  -0.608  -0.328  1.00  0.00    +0.0256  A
ATOM     21 C17  CHE L   1       1.927  -1.661   0.510  1.00  0.00    -0.0410  A
ATOM     22 C18  CHE L   1       1.041  -2.102   1.497  1.00  0.00    -0.0207  A
ATOM     23 C21  CHE L   1      -0.219  -1.487   1.617  1.00  0.00    -0.0519  A
ATOM     24 H35  CHE L   1       0.084   0.840  -0.848  1.00  0.00    +0.0633  H
ATOM     25 H43  CHE L   1       2.904  -2.127   0.401  1.00  0.00    +0.0633  H
ATOM     26 H47  CHE L   1      -0.868  -1.845   2.415  1.00  0.00    +0.0624  H
BRANCH 20 27
ATOM     27 C11  CHE L   1       2.486  -0.141  -1.322  1.00  0.00    -0.0663  C
ATOM     28 C12  CHE L   1       3.251   0.256  -2.158  1.00  0.00    -0.0969  C
BRANCH 28 29
ATOM     29 C13  CHE L   1       4.186   0.754  -3.179  1.00  0.00    +0.0115  C
ATOM     30 H36  CHE L   1       3.887   0.375  -4.163  1.00  0.00    +0.0398  H
ATOM     31 H37  CHE L   1       4.125   1.848  -3.222  1.00  0.00    +0.0398  H
BRANCH 29 32
ATOM     32 C14  CHE L   1       5.617   0.315  -2.867  1.00  0.00    -0.0188  C
ATOM     33 H38  CHE L   1       5.908   0.707  -1.885  1.00  0.00    +0.0296  H
ATOM     34 H39  CHE L   1       5.667  -0.780  -2.808  1.00  0.00    +0.0296  H
BRANCH 32 35
ATOM     35 C15  CHE L   1       6.603   0.802  -3.921  1.00  0.00    +0.0451  C
ATOM     36 O16  CHE L   1       6.658   2.222  -3.940  1.00  0.00    -0.3950 OA
ATOM     37 H40  CHE L   1       7.607   0.422  -3.711  1.00  0.00    +0.0557  H
ATOM     38 H41  CHE L   1       6.312   0.457  -4.918  1.00  0.00    +0.0557  H
ATOM     39 H42  CHE L   1       6.963   2.516  -3.064  1.00  0.00    +0.2094 HD
ENDBRANCH 32 35
ENDBRANCH 29 32
ENDBRANCH 28 29
ENDBRANCH 20 27
BRANCH 22 40
ATOM     40 C19  CHE L   1       1.424  -3.223   2.428  1.00  0.00    +0.0693  C
ATOM     41 O20  CHE L   1       1.355  -2.797   3.783  1.00  0.00    -0.3904 OA
ATOM     42 H44  CHE L   1       2.446  -3.568   2.237  1.00  0.00    +0.0607  H
ATOM     43 H45  CHE L   1       0.749  -4.075   2.289  1.00  0.00    +0.0607  H
ATOM     44 H46  CHE L   1       1.556  -1.844   3.803  1.00  0.00    +0.2098 HD
ENDBRANCH 22 40
ENDBRANCH 7 18
BRANCH 7 45
ATOM     45 C22  CHE L   1      -3.061  -0.429   1.872  1.00  0.00    -0.0279  C
ATOM     46 C23  CHE L   1      -4.322   0.423   2.133  1.00  0.00    -0.0612  C
ATOM     47 C24  CHE L   1      -3.545  -1.807   1.391  1.00  0.00    -0.0612  C
ATOM     48 H48  CHE L   1      -2.605  -0.590   2.858  1.00  0.00    +0.0311  H
ATOM     49 H49  CHE L   1      -4.084   1.361   2.643  1.00  0.00    +0.0233  H
ATOM     50 H50  CHE L   1      -4.851   0.659   1.204  1.00  0.00    +0.0233  H
ATOM     51 H51  CHE L   1      -5.020  -0.117   2.783  1.00  0.00    +0.0233  H
ATOM     52 H52  CHE L   1      -2.724  -2.474   1.120  1.00  0.00    +0.0233  H
ATOM     53 H53  CHE L   1      -4.222  -1.721   0.536  1.00  0.00    +0.0233  H
ATOM     54 H54  CHE L   1      -4.105  -2.306   2.191  1.00  0.00    +0.0233  H
ENDBRANCH 7 45
BRANCH 8 55
ATOM     55 C26  CHE L   1      -1.008   1.727   2.817  1.00  0.00    +0.1013  C
ATOM     56 N27  CHE L   1      -0.487   1.745   3.855  1.00  0.00    -0.1910 NA
ENDBRANCH 8 55
TORSDOF 8
