ROOT
ATOM      1 C16  CHE L   1       5.354  -0.996   0.852  1.00  0.00    +0.0153  A
ATOM      2 C17  CHE L   1       6.505  -1.505   1.480  1.00  0.00    -0.0377  A
ATOM      3 C18  CHE L   1       7.185  -2.596   0.942  1.00  0.00    +0.0205  A
ATOM      4 BR19 CHE L   1       8.741  -3.240   1.808  1.00  0.00    -0.0502 Br
ATOM      5 C20  CHE L   1       6.750  -3.227  -0.226  1.00  0.00    -0.0223  A
ATOM      6 C21  CHE L   1       5.593  -2.719  -0.827  1.00  0.00    +0.0674  A
ATOM      7 N22  CHE L   1       4.912  -3.112  -1.950  1.00  0.00    -0.2769  N
ATOM      8 N23  CHE L   1       3.814  -2.384  -2.208  1.00  0.00    -0.1812 NA
ATOM      9 C24  CHE L   1       3.793  -1.493  -1.214  1.00  0.00    +0.0575  A
ATOM     10 C25  CHE L   1       4.884  -1.630  -0.320  1.00  0.00    +0.0288  A
ATOM     11 H45  CHE L   1       6.870  -1.033   2.390  1.00  0.00    +0.0635  H
ATOM     12 H46  CHE L   1       7.280  -4.077  -0.645  1.00  0.00    +0.0650  H
ATOM     13 H47  CHE L   1       5.142  -3.873  -2.579  1.00  0.00    +0.1889 HD
ATOM     14 H48  CHE L   1       2.979  -0.780  -1.179  1.00  0.00    +0.0854  H
ENDROOT
BRANCH 1 17
ATOM     15 N13  CHE L   1       3.587   1.987   1.718  1.00  0.00    -0.2452  N
ATOM     16 C14  CHE L   1       4.079   1.182   0.731  1.00  0.00    +0.0538  A
ATOM     17 C15  CHE L   1       4.665   0.142   1.414  1.00  0.00    +0.1133  A
ATOM     18 N26  CHE L   1       4.555   0.371   2.762  1.00  0.00    -0.1295 NA
ATOM     19 N27  CHE L   1       3.887   1.503   2.939  1.00  0.00    -0.0648 NA
ATOM     20 H44  CHE L   1       3.965   1.420  -0.317  1.00  0.00    +0.0849  H
BRANCH 15 21
ATOM     21 C12  CHE L   1       2.872   3.240   1.574  1.00  0.00    +0.0867  C
ATOM     22 H42  CHE L   1       3.420   3.847   0.845  1.00  0.00    +0.0575  H
ATOM     23 H43  CHE L   1       2.888   3.763   2.536  1.00  0.00    +0.0575  H
BRANCH 21 29
ATOM     24  C6  CHE L   1      -2.837   2.044   0.159  1.00  0.00    -0.0170  A
ATOM     25  C7  CHE L   1      -2.338   2.432  -1.165  1.00  0.00    -0.0525  A
ATOM     26  C8  CHE L   1      -1.058   2.800  -1.366  1.00  0.00    -0.0185  A
ATOM     27  C9  CHE L   1      -0.151   2.829  -0.271  1.00  0.00    +0.1379  A
ATOM     28 N10  CHE L   1       1.127   3.140  -0.202  1.00  0.00    -0.2309 NA
ATOM     29 C11  CHE L   1       1.477   2.986   1.124  1.00  0.00    +0.0814  A
ATOM     30 C28  CHE L   1       0.381   2.587   1.866  1.00  0.00    +0.0343  A
ATOM     31 N29  CHE L   1      -0.655   2.478   0.975  1.00  0.00    -0.3060  N
ATOM     32 C30  CHE L   1      -1.975   2.097   1.196  1.00  0.00    +0.0156  A
ATOM     33 H40  CHE L   1      -3.033   2.415  -2.000  1.00  0.00    +0.0622  H
ATOM     34 H41  CHE L   1      -0.694   3.081  -2.348  1.00  0.00    +0.0654  H
ATOM     35 H49  CHE L   1       0.263   2.363   2.917  1.00  0.00    +0.0832  H
ATOM     36 H50  CHE L   1      -2.253   1.849   2.213  1.00  0.00    +0.0816  H
BRANCH 24 37
ATOM     37  C5  CHE L   1      -4.289   1.671   0.316  1.00  0.00    +0.0227  C
ATOM     38 H38  CHE L   1      -4.604   1.914   1.338  1.00  0.00    +0.0474  H
ATOM     39 H39  CHE L   1      -4.926   2.290  -0.328  1.00  0.00    +0.0474  H
BRANCH 37 40
ATOM     40  N4  CHE L   1      -4.563   0.248   0.117  1.00  0.00    -0.3093 NA
ATOM     41 H37  CHE L   1      -3.869  -0.297   0.625  1.00  0.00    +0.1223 HD
BRANCH 40 42
ATOM     42  C3  CHE L   1      -4.564  -0.154  -1.296  1.00  0.00    +0.0251  C
ATOM     43 H35  CHE L   1      -3.544  -0.108  -1.693  1.00  0.00    +0.0452  H
ATOM     44 H36  CHE L   1      -5.176   0.549  -1.874  1.00  0.00    +0.0452  H
BRANCH 42 46
ATOM     45  O1  CHE L   1      -5.064  -1.829  -2.971  1.00  0.00    -0.3873 OA
ATOM     46  C2  CHE L   1      -5.118  -1.577  -1.542  1.00  0.00    +0.0785  C
ATOM     47 C31  CHE L   1      -4.517  -2.729  -0.680  1.00  0.00    -0.0227  C
ATOM     48 C32  CHE L   1      -5.769  -2.689   0.209  1.00  0.00    -0.0478  C
ATOM     49 C33  CHE L   1      -6.497  -1.905  -0.894  1.00  0.00    -0.0227  C
ATOM     50 H34  CHE L   1      -5.432  -2.721  -3.093  1.00  0.00    +0.2102 HD
ATOM     51 H51  CHE L   1      -3.575  -2.512  -0.168  1.00  0.00    +0.0293  H
ATOM     52 H52  CHE L   1      -4.400  -3.674  -1.223  1.00  0.00    +0.0293  H
ATOM     53 H53  CHE L   1      -6.201  -3.665   0.451  1.00  0.00    +0.0267  H
ATOM     54 H54  CHE L   1      -5.637  -2.129   1.141  1.00  0.00    +0.0267  H
ATOM     55 H55  CHE L   1      -7.085  -1.051  -0.545  1.00  0.00    +0.0293  H
ATOM     56 H56  CHE L   1      -7.144  -2.533  -1.519  1.00  0.00    +0.0293  H
ENDBRANCH 42 46
ENDBRANCH 40 42
ENDBRANCH 37 40
ENDBRANCH 24 37
ENDBRANCH 21 29
ENDBRANCH 15 21
ENDBRANCH 1 17
TORSDOF 7
