ROOT
ATOM      1  C6  CHE L   1      -1.529   0.791   1.417  1.00  0.00    -0.0137  A
ATOM      2  C7  CHE L   1      -1.371   2.174   1.560  1.00  0.00    -0.0532  A
ATOM      3  C8  CHE L   1      -1.947   3.040   0.630  1.00  0.00    -0.0482  A
ATOM      4  C9  CHE L   1      -2.684   2.521  -0.443  1.00  0.00    +0.0497  A
ATOM      5 C10  CHE L   1      -3.322   3.429  -1.413  1.00  0.00    +0.2725  A
ATOM      6 O11  CHE L   1      -3.191   4.645  -1.329  1.00  0.00    -0.2658 OA
ATOM      7 N12  CHE L   1      -4.078   2.833  -2.395  1.00  0.00    -0.2424  N
ATOM      8 N13  CHE L   1      -4.231   1.496  -2.587  1.00  0.00    -0.1740 NA
ATOM      9 C14  CHE L   1      -3.638   0.679  -1.764  1.00  0.00    +0.0828  A
ATOM     10 C17  CHE L   1      -2.842   1.144  -0.597  1.00  0.00    +0.0121  A
ATOM     11 C18  CHE L   1      -2.269   0.277   0.341  1.00  0.00    -0.0442  A
ATOM     12 H36  CHE L   1      -0.786   2.587   2.381  1.00  0.00    +0.0624  H
ATOM     13 H37  CHE L   1      -1.818   4.116   0.740  1.00  0.00    +0.0625  H
ATOM     14 H38  CHE L   1      -4.528   3.446  -3.067  1.00  0.00    +0.1921 HD
ATOM     15 H43  CHE L   1      -2.393  -0.801   0.265  1.00  0.00    +0.0630  H
ENDROOT
BRANCH 1 20
ATOM     16  C1  CHE L   1       1.437  -2.568   3.565  1.00  0.00    +0.0309  C
ATOM     17  N2  CHE L   1       0.389  -1.610   3.290  1.00  0.00    -0.2661  N
ATOM     18  N3  CHE L   1      -0.402  -1.204   4.304  1.00  0.00    -0.1787 NA
ATOM     19  C4  CHE L   1      -1.181  -0.273   3.750  1.00  0.00    +0.0577  A
ATOM     20  C5  CHE L   1      -0.919  -0.107   2.373  1.00  0.00    +0.0275  A
ATOM     21 C19  CHE L   1       0.114  -0.990   2.089  1.00  0.00    +0.0776  A
ATOM     22 H32  CHE L   1       1.285  -2.998   4.559  1.00  0.00    +0.0473  H
ATOM     23 H33  CHE L   1       1.397  -3.364   2.816  1.00  0.00    +0.0473  H
ATOM     24 H34  CHE L   1       2.396  -2.044   3.525  1.00  0.00    +0.0473  H
ATOM     25 H35  CHE L   1      -1.908   0.242   4.369  1.00  0.00    +0.0854  H
BRANCH 21 26
ATOM     26 C20  CHE L   1       0.851  -1.233   0.844  1.00  0.00    +0.0215  A
ATOM     27 C21  CHE L   1       0.576  -2.410   0.124  1.00  0.00    -0.0511  A
ATOM     28 C22  CHE L   1       1.226  -2.676  -1.082  1.00  0.00    -0.0576  A
ATOM     29 C23  CHE L   1       2.158  -1.770  -1.582  1.00  0.00    -0.0186  A
ATOM     30 C24  CHE L   1       2.446  -0.602  -0.870  1.00  0.00    +0.1388  A
ATOM     31 C29  CHE L   1       1.789  -0.314   0.335  1.00  0.00    +0.1024  A
ATOM     32 H44  CHE L   1      -0.165  -3.120   0.491  1.00  0.00    +0.0624  H
ATOM     33 H45  CHE L   1       0.997  -3.582  -1.637  1.00  0.00    +0.0619  H
ATOM     34 H46  CHE L   1       2.644  -1.966  -2.535  1.00  0.00    +0.0654  H
BRANCH 30 35
ATOM     35 O25  CHE L   1       3.319   0.311  -1.412  1.00  0.00    -0.4875 OA
BRANCH 35 36
ATOM     36 C26  CHE L   1       4.693  -0.137  -1.365  1.00  0.00    +0.1005  C
ATOM     37 C27  CHE L   1       5.710   0.945  -1.602  1.00  0.00    -0.0124  C
ATOM     38 C28  CHE L   1       5.532   0.375  -0.225  1.00  0.00    -0.0124  C
ATOM     39 H47  CHE L   1       4.938  -1.121  -1.761  1.00  0.00    +0.0733  H
ATOM     40 H48  CHE L   1       6.617   0.689  -2.137  1.00  0.00    +0.0302  H
ATOM     41 H49  CHE L   1       5.352   1.954  -1.780  1.00  0.00    +0.0302  H
ATOM     42 H50  CHE L   1       6.309  -0.273   0.159  1.00  0.00    +0.0302  H
ATOM     43 H51  CHE L   1       5.072   1.013   0.522  1.00  0.00    +0.0302  H
ENDBRANCH 35 36
ENDBRANCH 30 35
BRANCH 31 44
ATOM     44 C30  CHE L   1       2.085   0.909   1.032  1.00  0.00    +0.1035  C
ATOM     45 N31  CHE L   1       2.326   1.886   1.615  1.00  0.00    -0.1907 NA
ENDBRANCH 31 44
ENDBRANCH 21 26
ENDBRANCH 1 20
BRANCH 9 46
ATOM     46 C15  CHE L   1      -3.807  -0.817  -2.031  1.00  0.00    +0.0383  C
ATOM     47 N16  CHE L   1      -5.017  -1.301  -1.360  1.00  0.00    -0.3248 NA
ATOM     48 H39  CHE L   1      -2.932  -1.389  -1.713  1.00  0.00    +0.0487  H
ATOM     49 H40  CHE L   1      -3.907  -0.975  -3.112  1.00  0.00    +0.0487  H
ATOM     50 H41  CHE L   1      -4.979  -1.088  -0.363  1.00  0.00    +0.1186 HD
ATOM     51 H42  CHE L   1      -5.816  -0.768  -1.722  1.00  0.00    +0.1186 HD
ENDBRANCH 9 46
TORSDOF 6
