ROOT
ATOM      1  C1  CHE L   1      -0.208  -5.457  -0.012  1.00  0.00    +0.0324  C
ATOM      2  N2  CHE L   1      -0.890  -4.229  -0.332  1.00  0.00    -0.2493  N
ATOM      3  N3  CHE L   1      -1.949  -4.255  -1.175  1.00  0.00    -0.1773 NA
ATOM      4  C4  CHE L   1      -2.321  -2.971  -1.235  1.00  0.00    +0.0622  A
ATOM      5  C5  CHE L   1      -1.519  -2.129  -0.438  1.00  0.00    +0.0806  A
ATOM      6  C6  CHE L   1      -1.428  -0.773  -0.112  1.00  0.00    +0.1431  A
ATOM      7 N13  CHE L   1      -0.429  -0.403   0.727  1.00  0.00    -0.1948 NA
ATOM      8 C14  CHE L   1       0.426  -1.316   1.222  1.00  0.00    +0.2278  A
ATOM      9 N25  CHE L   1       0.411  -2.629   0.953  1.00  0.00    -0.1929 NA
ATOM     10 C26  CHE L   1      -0.586  -2.976   0.127  1.00  0.00    +0.1653  A
ATOM     11 H27  CHE L   1       0.216  -5.864  -0.934  1.00  0.00    +0.0473  H
ATOM     12 H28  CHE L   1       0.589  -5.267   0.710  1.00  0.00    +0.0473  H
ATOM     13 H29  CHE L   1      -0.934  -6.154   0.415  1.00  0.00    +0.0473  H
ATOM     14 H30  CHE L   1      -3.163  -2.701  -1.859  1.00  0.00    +0.0856  H
ENDROOT
BRANCH 6 15
ATOM     15  N7  CHE L   1      -2.305   0.181  -0.637  1.00  0.00    -0.3687  N
ATOM     16 H31  CHE L   1      -3.208  -0.221  -0.864  1.00  0.00    +0.1611 HD
BRANCH 15 17
ATOM     17  C8  CHE L   1      -2.368   1.440   0.096  1.00  0.00    +0.0197  C
ATOM     18 H32  CHE L   1      -1.382   1.922   0.105  1.00  0.00    +0.0488  H
ATOM     19 H33  CHE L   1      -2.666   1.257   1.136  1.00  0.00    +0.0488  H
BRANCH 17 20
ATOM     20  C9  CHE L   1      -3.359   2.383  -0.576  1.00  0.00    -0.0236  C
ATOM     21 C10  CHE L   1      -3.675   3.695   0.191  1.00  0.00    -0.0486  C
ATOM     22 C11  CHE L   1      -5.122   3.564  -0.326  1.00  0.00    -0.0524  C
ATOM     23 C12  CHE L   1      -4.869   2.047  -0.436  1.00  0.00    -0.0486  C
ATOM     24 H34  CHE L   1      -3.074   2.585  -1.619  1.00  0.00    +0.0318  H
ATOM     25 H35  CHE L   1      -3.592   3.618   1.282  1.00  0.00    +0.0268  H
ATOM     26 H36  CHE L   1      -3.131   4.583  -0.143  1.00  0.00    +0.0268  H
ATOM     27 H37  CHE L   1      -5.291   4.054  -1.292  1.00  0.00    +0.0265  H
ATOM     28 H38  CHE L   1      -5.906   3.867   0.371  1.00  0.00    +0.0265  H
ATOM     29 H39  CHE L   1      -5.327   1.552  -1.297  1.00  0.00    +0.0268  H
ATOM     30 H40  CHE L   1      -5.129   1.492   0.474  1.00  0.00    +0.0268  H
ENDBRANCH 17 20
ENDBRANCH 15 17
ENDBRANCH 6 15
BRANCH 8 31
ATOM     31 N15  CHE L   1       1.409  -0.795   2.053  1.00  0.00    -0.3521  N
ATOM     32 H41  CHE L   1       1.367   0.214   1.929  1.00  0.00    +0.1626 HD
BRANCH 31 33
ATOM     33 C16  CHE L   1       2.749  -1.352   1.860  1.00  0.00    +0.0376  C
ATOM     34 H42  CHE L   1       2.734  -2.436   2.033  1.00  0.00    +0.0505  H
ATOM     35 H43  CHE L   1       3.392  -0.935   2.645  1.00  0.00    +0.0505  H
BRANCH 33 36
ATOM     36 C17  CHE L   1       3.364  -1.041   0.460  1.00  0.00    +0.0480  C
ATOM     37 N18  CHE L   1       4.657  -1.729   0.284  1.00  0.00    -0.3222 NA
ATOM     38 H44  CHE L   1       2.702  -1.436  -0.320  1.00  0.00    +0.0525  H
ATOM     39 H45  CHE L   1       5.016  -1.494  -0.641  1.00  0.00    +0.1188 HD
ATOM     40 H46  CHE L   1       4.492  -2.735   0.276  1.00  0.00    +0.1188 HD
BRANCH 36 41
ATOM     41 C19  CHE L   1       3.527   0.456   0.237  1.00  0.00    -0.0290  A
ATOM     42 C20  CHE L   1       2.633   1.142  -0.602  1.00  0.00    -0.0570  A
ATOM     43 C21  CHE L   1       2.752   2.520  -0.795  1.00  0.00    -0.0615  A
ATOM     44 C22  CHE L   1       3.765   3.230  -0.154  1.00  0.00    -0.0617  A
ATOM     45 C23  CHE L   1       4.659   2.564   0.683  1.00  0.00    -0.0615  A
ATOM     46 C24  CHE L   1       4.539   1.187   0.879  1.00  0.00    -0.0570  A
ATOM     47 H47  CHE L   1       1.826   0.610  -1.103  1.00  0.00    +0.0621  H
ATOM     48 H48  CHE L   1       2.051   3.038  -1.444  1.00  0.00    +0.0618  H
ATOM     49 H49  CHE L   1       3.858   4.302  -0.305  1.00  0.00    +0.0618  H
ATOM     50 H50  CHE L   1       5.450   3.116   1.183  1.00  0.00    +0.0618  H
ATOM     51 H51  CHE L   1       5.246   0.680   1.534  1.00  0.00    +0.0621  H
ENDBRANCH 36 41
ENDBRANCH 33 36
ENDBRANCH 31 33
ENDBRANCH 8 31
TORSDOF 7
