ROOT
ATOM      1  C4  400 L   1      -2.295   0.374   0.041  1.00  0.00    +0.0328  C
ATOM      2  C5  400 L   1      -1.116  -0.302  -0.658  1.00  0.00    -0.0148  C
ATOM      3  C6  400 L   1       0.194   0.386  -0.296  1.00  0.00    +0.0233  C
ATOM      4  N7  400 L   1       0.382   0.509   1.153  1.00  0.00    -0.3386  N
ATOM      5  C8  400 L   1       1.638   0.784   1.701  1.00  0.00    +0.2474  C
ATOM      6  O9  400 L   1       1.804   1.412   2.744  1.00  0.00    -0.2680 OA
ATOM      7 C18  400 L   1      -0.754   1.067   1.890  1.00  0.00    +0.0233  C
ATOM      8 C19  400 L   1      -2.065   0.373   1.552  1.00  0.00    -0.0148  C
ATOM      9 H24  400 L   1      -2.365   1.414  -0.306  1.00  0.00    +0.0523  H
ATOM     10 H25  400 L   1      -1.067  -1.359  -0.366  1.00  0.00    +0.0302  H
ATOM     11 H26  400 L   1      -1.256  -0.281  -1.745  1.00  0.00    +0.0302  H
ATOM     12 H27  400 L   1       1.018  -0.164  -0.757  1.00  0.00    +0.0489  H
ATOM     13 H28  400 L   1       0.219   1.401  -0.710  1.00  0.00    +0.0489  H
ATOM     14 H35  400 L   1      -0.572   0.987   2.969  1.00  0.00    +0.0489  H
ATOM     15 H36  400 L   1      -0.811   2.136   1.649  1.00  0.00    +0.0489  H
ATOM     16 H37  400 L   1      -2.042  -0.660   1.924  1.00  0.00    +0.0302  H
ATOM     17 H38  400 L   1      -2.890   0.876   2.072  1.00  0.00    +0.0302  H
ENDROOT
BRANCH 1 20
ATOM     18  O1  400 L   1      -4.854   1.554   0.105  1.00  0.00    -0.2729 OA
ATOM     19  C2  400 L   1      -4.751   0.372  -0.198  1.00  0.00    +0.2243  C
ATOM     20  N3  400 L   1      -3.545  -0.286  -0.304  1.00  0.00    -0.3529  N
ATOM     21 H23  400 L   1      -3.558  -1.294  -0.374  1.00  0.00    +0.1626 HD
BRANCH 19 22
ATOM     22 C20  400 L   1      -5.981  -0.430  -0.450  1.00  0.00    +0.0377  C
ATOM     23 C21  400 L   1      -6.162  -1.811   0.135  1.00  0.00    -0.0410  C
ATOM     24 C22  400 L   1      -6.010  -1.643  -1.350  1.00  0.00    -0.0410  C
ATOM     25 H39  400 L   1      -6.872   0.194  -0.483  1.00  0.00    +0.0396  H
ATOM     26 H40  400 L   1      -5.348  -2.260   0.696  1.00  0.00    +0.0273  H
ATOM     27 H41  400 L   1      -7.144  -2.064   0.523  1.00  0.00    +0.0273  H
ATOM     28 H42  400 L   1      -6.889  -1.778  -1.971  1.00  0.00    +0.0273  H
ATOM     29 H43  400 L   1      -5.097  -1.979  -1.826  1.00  0.00    +0.0273  H
ENDBRANCH 19 22
ENDBRANCH 1 20
BRANCH 5 30
ATOM     30 C10  400 L   1       2.811   0.260   0.958  1.00  0.00    +0.0032  C
ATOM     31 C11  400 L   1       3.943   0.979   0.936  1.00  0.00    -0.0480  C
ATOM     32 H29  400 L   1       2.717  -0.706   0.481  1.00  0.00    +0.0672  H
ATOM     33 H30  400 L   1       3.990   1.939   1.448  1.00  0.00    +0.0626  H
BRANCH 31 34
ATOM     34 C12  400 L   1       5.170   0.555   0.256  1.00  0.00    -0.0068  A
ATOM     35 C13  400 L   1       5.635  -0.762   0.269  1.00  0.00    -0.0517  A
ATOM     36 C14  400 L   1       6.832  -1.082  -0.368  1.00  0.00    -0.0430  A
ATOM     37 C15  400 L   1       7.538  -0.066  -0.990  1.00  0.00    +0.0276  A
ATOM     38 N16  400 L   1       7.135   1.221  -1.012  1.00  0.00    -0.2627 NA
ATOM     39 C17  400 L   1       5.969   1.500  -0.385  1.00  0.00    +0.0347  A
ATOM     40 H31  400 L   1       5.084  -1.546   0.781  1.00  0.00    +0.0624  H
ATOM     41 H32  400 L   1       7.206  -2.101  -0.372  1.00  0.00    +0.0633  H
ATOM     42 H33  400 L   1       8.476  -0.267  -1.498  1.00  0.00    +0.0829  H
ATOM     43 H34  400 L   1       5.682   2.548  -0.419  1.00  0.00    +0.0835  H
ENDBRANCH 31 34
ENDBRANCH 5 30
TORSDOF 4
