ROOT
ATOM      1  C8  WH0 L   1       1.671  -1.114   0.914  1.00  0.00    -0.0452  A
ATOM      2  C9  WH0 L   1       1.500  -1.679   2.198  1.00  0.00    -0.0566  A
ATOM      3 C10  WH0 L   1       0.274  -2.223   2.592  1.00  0.00    -0.0377  A
ATOM      4 C11  WH0 L   1      -0.758  -2.188   1.680  1.00  0.00    +0.0486  A
ATOM      5 C12  WH0 L   1      -0.615  -1.636   0.403  1.00  0.00    +0.0214  A
ATOM      6 C13  WH0 L   1       0.598  -1.091   0.007  1.00  0.00    -0.0498  A
ATOM      7 C14  WH0 L   1      -1.923  -1.774  -0.348  1.00  0.00    +0.2010  C
ATOM      8 S15  WH0 L   1      -1.735  -3.093  -1.614  1.00  0.00    -0.1088 SA
ATOM      9 C16  WH0 L   1      -1.717  -1.923  -2.961  1.00  0.00    +0.0758  C
ATOM     10 C17  WH0 L   1      -2.226  -0.603  -2.434  1.00  0.00    +0.2395  C
ATOM     11 O18  WH0 L   1      -2.409   0.331  -3.212  1.00  0.00    -0.2717 OA
ATOM     12 N19  WH0 L   1      -2.391  -0.580  -1.042  1.00  0.00    -0.2840  N
ATOM     13 C26  WH0 L   1      -2.864  -2.377   0.765  1.00  0.00    +0.2665  C
ATOM     14 O27  WH0 L   1      -4.063  -2.605   0.707  1.00  0.00    -0.2689 OA
ATOM     15 N28  WH0 L   1      -2.060  -2.628   1.881  1.00  0.00    -0.3228  N
ATOM     16 H36  WH0 L   1       2.332  -1.695   2.900  1.00  0.00    +0.0621  H
ATOM     17 H37  WH0 L   1       0.150  -2.650   3.581  1.00  0.00    +0.0638  H
ATOM     18 H38  WH0 L   1       0.719  -0.658  -0.983  1.00  0.00    +0.0625  H
ATOM     19 H39  WH0 L   1      -0.698  -1.791  -3.333  1.00  0.00    +0.0474  H
ATOM     20 H40  WH0 L   1      -2.366  -2.271  -3.768  1.00  0.00    +0.0474  H
ATOM     21 H46  WH0 L   1      -2.426  -3.029   2.733  1.00  0.00    +0.1687 HD
ENDROOT
BRANCH 1 22
ATOM     22  C7  WH0 L   1       3.003  -0.521   0.515  1.00  0.00    -0.0102  C
ATOM     23 H34  WH0 L   1       3.246  -0.845  -0.504  1.00  0.00    +0.0330  H
ATOM     24 H35  WH0 L   1       3.799  -0.930   1.150  1.00  0.00    +0.0330  H
BRANCH 22 25
ATOM     25  C6  WH0 L   1       2.999   1.007   0.611  1.00  0.00    +0.0221  C
ATOM     26 H32  WH0 L   1       2.234   1.434  -0.048  1.00  0.00    +0.0489  H
ATOM     27 H33  WH0 L   1       2.775   1.330   1.634  1.00  0.00    +0.0489  H
BRANCH 25 30
ATOM     28  O1  WH0 L   1       3.976   1.366  -2.001  1.00  0.00    -0.2720 OA
ATOM     29  C2  WH0 L   1       4.697   1.679  -1.056  1.00  0.00    +0.2356  C
ATOM     30  N5  WH0 L   1       4.281   1.584   0.256  1.00  0.00    -0.3547  N
ATOM     31 H31  WH0 L   1       4.984   1.697   0.979  1.00  0.00    +0.1623 HD
BRANCH 29 32
ATOM     32  C3  WH0 L   1       6.077   2.275  -1.272  1.00  0.00    +0.1010  C
ATOM     33 CL4  WH0 L   1       7.189   1.842   0.048  1.00  0.00    -0.1154 Cl
ATOM     34 H29  WH0 L   1       5.998   3.364  -1.322  1.00  0.00    +0.0527  H
ATOM     35 H30  WH0 L   1       6.498   1.887  -2.203  1.00  0.00    +0.0527  H
ENDBRANCH 29 32
ENDBRANCH 25 30
ENDBRANCH 22 25
ENDBRANCH 1 22
BRANCH 12 36
ATOM     36 C20  WH0 L   1      -2.985   0.536  -0.353  1.00  0.00    +0.0468  A
ATOM     37 C21  WH0 L   1      -2.763   0.788   1.009  1.00  0.00    -0.0380  A
ATOM     38 C22  WH0 L   1      -3.363   1.872   1.666  1.00  0.00    -0.0598  A
ATOM     39 C23  WH0 L   1      -4.205   2.732   0.975  1.00  0.00    -0.0616  A
ATOM     40 C24  WH0 L   1      -4.446   2.507  -0.373  1.00  0.00    -0.0598  A
ATOM     41 C25  WH0 L   1      -3.844   1.423  -1.024  1.00  0.00    -0.0380  A
ATOM     42 H41  WH0 L   1      -2.095   0.188   1.611  1.00  0.00    +0.0638  H
ATOM     43 H42  WH0 L   1      -3.163   2.043   2.721  1.00  0.00    +0.0618  H
ATOM     44 H43  WH0 L   1      -4.671   3.572   1.482  1.00  0.00    +0.0618  H
ATOM     45 H44  WH0 L   1      -5.109   3.167  -0.927  1.00  0.00    +0.0618  H
ATOM     46 H45  WH0 L   1      -4.104   1.282  -2.070  1.00  0.00    +0.0638  H
ENDBRANCH 12 36
TORSDOF 5
