ROOT
ATOM      1 C12  WH0 L   1      -2.120   1.281   0.235  1.00  0.00    -0.0133  A
ATOM      2 C13  WH0 L   1      -2.934   1.488   1.374  1.00  0.00    -0.0519  A
ATOM      3 C14  WH0 L   1      -3.604   2.708   1.561  1.00  0.00    -0.0374  A
ATOM      4 C15  WH0 L   1      -3.445   3.702   0.599  1.00  0.00    +0.0454  A
ATOM      5 C16  WH0 L   1      -2.653   3.512  -0.514  1.00  0.00    -0.0145  A
ATOM      6 C17  WH0 L   1      -1.980   2.309  -0.721  1.00  0.00    -0.0483  A
ATOM      7 C18  WH0 L   1      -2.648   4.734  -1.374  1.00  0.00    +0.0535  C
ATOM      8 C19  WH0 L   1      -3.552   5.618  -0.567  1.00  0.00    +0.2296  C
ATOM      9 O20  WH0 L   1      -3.860   6.795  -0.887  1.00  0.00    -0.2725 OA
ATOM     10 N21  WH0 L   1      -4.030   4.990   0.618  1.00  0.00    -0.3256  N
ATOM     11 H48  WH0 L   1      -3.042   0.708   2.117  1.00  0.00    +0.0624  H
ATOM     12 H49  WH0 L   1      -4.226   2.870   2.430  1.00  0.00    +0.0638  H
ATOM     13 H50  WH0 L   1      -1.377   2.170  -1.609  1.00  0.00    +0.0627  H
ATOM     14 H51  WH0 L   1      -3.083   4.522  -2.373  1.00  0.00    +0.0410  H
ATOM     15 H52  WH0 L   1      -1.628   5.167  -1.445  1.00  0.00    +0.0410  H
ATOM     16 H53  WH0 L   1      -4.661   5.395   1.345  1.00  0.00    +0.1686 HD
ENDROOT
BRANCH 1 20
ATOM     17  C8  WH0 L   1       2.221   0.199  -0.687  1.00  0.00    +0.0488  A
ATOM     18  C9  WH0 L   1       0.939   0.713  -0.425  1.00  0.00    -0.0140  A
ATOM     19 C10  WH0 L   1      -0.081  -0.211  -0.212  1.00  0.00    +0.0806  A
ATOM     20 C11  WH0 L   1      -1.425  -0.009   0.045  1.00  0.00    +0.0353  A
ATOM     21 C22  WH0 L   1      -1.935  -1.305   0.190  1.00  0.00    +0.1015  A
ATOM     22 N30  WH0 L   1      -0.940  -2.207   0.028  1.00  0.00    -0.1627 NA
ATOM     23 N31  WH0 L   1       0.171  -1.529  -0.207  1.00  0.00    -0.1987  N
ATOM     24 C32  WH0 L   1       1.417  -2.032  -0.431  1.00  0.00    +0.2286  A
ATOM     25 N39  WH0 L   1       2.430  -1.152  -0.677  1.00  0.00    -0.2172 NA
ATOM     26 H47  WH0 L   1       0.755   1.779  -0.393  1.00  0.00    +0.0657  H
BRANCH 17 27
ATOM     27  C7  WH0 L   1       3.380   1.123  -0.919  1.00  0.00    +0.0073  C
ATOM     28 H45  WH0 L   1       3.018   2.089  -1.333  1.00  0.00    +0.0345  H
ATOM     29 H46  WH0 L   1       4.065   0.672  -1.669  1.00  0.00    +0.0345  H
BRANCH 27 30
ATOM     30  C6  WH0 L   1       4.144   1.363   0.385  1.00  0.00    +0.0235  C
ATOM     31 H43  WH0 L   1       4.555   0.395   0.749  1.00  0.00    +0.0490  H
ATOM     32 H44  WH0 L   1       3.464   1.761   1.170  1.00  0.00    +0.0490  H
BRANCH 30 35
ATOM     33  O1  WH0 L   1       3.882   4.199   0.135  1.00  0.00    -0.2720 OA
ATOM     34  C2  WH0 L   1       5.043   3.712   0.054  1.00  0.00    +0.2356  C
ATOM     35  N5  WH0 L   1       5.246   2.296   0.166  1.00  0.00    -0.3546  N
ATOM     36 H42  WH0 L   1       6.219   1.918   0.141  1.00  0.00    +0.1623 HD
BRANCH 34 37
ATOM     37  C3  WH0 L   1       6.202   4.621  -0.200  1.00  0.00    +0.1010  C
ATOM     38 CL4  WH0 L   1       6.330   4.953  -1.945  1.00  0.00    -0.1154 Cl
ATOM     39 H40  WH0 L   1       7.146   4.155   0.152  1.00  0.00    +0.0527  H
ATOM     40 H41  WH0 L   1       6.059   5.579   0.344  1.00  0.00    +0.0527  H
ENDBRANCH 34 37
ENDBRANCH 30 35
ENDBRANCH 27 30
ENDBRANCH 17 27
BRANCH 21 41
ATOM     41 C23  WH0 L   1      -3.338  -1.702   0.440  1.00  0.00    +0.0029  A
ATOM     42 C24  WH0 L   1      -3.610  -2.843   1.213  1.00  0.00    -0.0498  A
ATOM     43 C25  WH0 L   1      -4.931  -3.238   1.449  1.00  0.00    -0.0258  A
ATOM     44 C26  WH0 L   1      -5.989  -2.507   0.905  1.00  0.00    +0.1234  A
ATOM     45 F27  WH0 L   1      -7.268  -2.892   1.136  1.00  0.00    -0.2055  F
ATOM     46 C28  WH0 L   1      -5.728  -1.383   0.117  1.00  0.00    -0.0258  A
ATOM     47 C29  WH0 L   1      -4.409  -0.984  -0.121  1.00  0.00    -0.0498  A
ATOM     48 H54  WH0 L   1      -2.801  -3.419   1.644  1.00  0.00    +0.0625  H
ATOM     49 H55  WH0 L   1      -5.133  -4.112   2.055  1.00  0.00    +0.0646  H
ATOM     50 H56  WH0 L   1      -6.547  -0.823  -0.315  1.00  0.00    +0.0646  H
ATOM     51 H57  WH0 L   1      -4.230  -0.129  -0.759  1.00  0.00    +0.0625  H
ENDBRANCH 21 41
BRANCH 24 52
ATOM     52 N33  WH0 L   1       1.688  -3.448  -0.410  1.00  0.00    -0.3359  N
ATOM     53 C34  WH0 L   1       2.534  -4.040  -1.452  1.00  0.00    +0.0449  C
ATOM     54 C35  WH0 L   1       3.319  -5.221  -0.875  1.00  0.00    +0.0653  C
ATOM     55 O36  WH0 L   1       2.450  -6.134  -0.233  1.00  0.00    -0.3763 OA
ATOM     56 C37  WH0 L   1       1.869  -5.518   0.901  1.00  0.00    +0.0653  C
ATOM     57 C38  WH0 L   1       0.963  -4.354   0.488  1.00  0.00    +0.0449  C
ATOM     58 H58  WH0 L   1       1.889  -4.394  -2.285  1.00  0.00    +0.0511  H
ATOM     59 H59  WH0 L   1       3.253  -3.296  -1.857  1.00  0.00    +0.0511  H
ATOM     60 H60  WH0 L   1       3.836  -5.747  -1.705  1.00  0.00    +0.0577  H
ATOM     61 H61  WH0 L   1       4.109  -4.858  -0.178  1.00  0.00    +0.0577  H
ATOM     62 H62  WH0 L   1       1.256  -6.273   1.437  1.00  0.00    +0.0577  H
ATOM     63 H63  WH0 L   1       2.650  -5.169   1.615  1.00  0.00    +0.0577  H
ATOM     64 H64  WH0 L   1       0.639  -3.817   1.407  1.00  0.00    +0.0511  H
ATOM     65 H65  WH0 L   1       0.068  -4.752  -0.036  1.00  0.00    +0.0511  H
ENDBRANCH 24 52
ENDBRANCH 1 20
TORSDOF 7
