ROOT
ATOM      1 N13  CHE L   1       3.293  -1.142   0.259  1.00  0.00    -0.3043  N
ATOM      2 C14  CHE L   1       4.470  -1.887   0.191  1.00  0.00    +0.0150  A
ATOM      3 C15  CHE L   1       5.319  -2.075   1.209  1.00  0.00    +0.0053  A
ATOM      4 C16  CHE L   1       5.007  -1.446   2.514  1.00  0.00    +0.2229  A
ATOM      5 O17  CHE L   1       5.748  -1.621   3.475  1.00  0.00    -0.2839 OA
ATOM      6 C18  CHE L   1       3.770  -0.597   2.581  1.00  0.00    +0.1805  A
ATOM      7 O19  CHE L   1       3.470   0.058   3.759  1.00  0.00    -0.5022 OA
ATOM      8 C20  CHE L   1       3.018  -0.506   1.470  1.00  0.00    +0.0564  A
ATOM      9 H35  CHE L   1       4.674  -2.346  -0.773  1.00  0.00    +0.0814  H
ATOM     10 H36  CHE L   1       6.221  -2.666   1.135  1.00  0.00    +0.0672  H
ATOM     11 H37  CHE L   1       2.653   0.567   3.640  1.00  0.00    +0.2923 HD
ATOM     12 H38  CHE L   1       2.143   0.131   1.472  1.00  0.00    +0.0852  H
ENDROOT
BRANCH 1 17
ATOM     13  C8  CHE L   1       0.327  -0.519  -1.970  1.00  0.00    +0.0058  A
ATOM     14  C9  CHE L   1       0.904  -0.793  -3.206  1.00  0.00    -0.0343  A
ATOM     15 C10  CHE L   1       2.226  -1.187  -3.229  1.00  0.00    +0.0305  A
ATOM     16 N11  CHE L   1       2.995  -1.313  -2.127  1.00  0.00    -0.2375 NA
ATOM     17 C12  CHE L   1       2.463  -1.023  -0.911  1.00  0.00    +0.1381  A
ATOM     18 C21  CHE L   1       1.123  -0.639  -0.820  1.00  0.00    -0.0096  A
ATOM     19 H33  CHE L   1       0.361  -0.706  -4.138  1.00  0.00    +0.0639  H
ATOM     20 H34  CHE L   1       2.725  -1.419  -4.166  1.00  0.00    +0.0830  H
ATOM     21 H39  CHE L   1       0.659  -0.458   0.143  1.00  0.00    +0.0661  H
BRANCH 13 24
ATOM     22  C5  CHE L   1      -2.803   0.747  -0.711  1.00  0.00    +0.0843  A
ATOM     23  N6  CHE L   1      -1.522   0.444  -0.637  1.00  0.00    -0.2435 NA
ATOM     24  C7  CHE L   1      -1.068  -0.105  -1.828  1.00  0.00    +0.0786  A
ATOM     25 C22  CHE L   1      -2.035  -0.223  -2.805  1.00  0.00    +0.0033  A
ATOM     26 S23  CHE L   1      -3.533   0.376  -2.231  1.00  0.00    -0.0794  S
ATOM     27 H40  CHE L   1      -1.959  -0.623  -3.805  1.00  0.00    +0.0715  H
BRANCH 22 29
ATOM     28  C1  CHE L   1      -4.167   2.742   0.014  1.00  0.00    -0.0541  C
ATOM     29  C2  CHE L   1      -3.603   1.371   0.430  1.00  0.00    +0.0109  C
ATOM     30  C3  CHE L   1      -4.753   0.442   0.860  1.00  0.00    -0.0541  C
ATOM     31  C4  CHE L   1      -2.684   1.587   1.653  1.00  0.00    -0.0541  C
ATOM     32 H24  CHE L   1      -4.679   3.229   0.852  1.00  0.00    +0.0239  H
ATOM     33 H25  CHE L   1      -3.370   3.413  -0.326  1.00  0.00    +0.0239  H
ATOM     34 H26  CHE L   1      -4.894   2.654  -0.802  1.00  0.00    +0.0239  H
ATOM     35 H27  CHE L   1      -5.491   0.308   0.061  1.00  0.00    +0.0239  H
ATOM     36 H28  CHE L   1      -5.286   0.849   1.727  1.00  0.00    +0.0239  H
ATOM     37 H29  CHE L   1      -4.380  -0.552   1.134  1.00  0.00    +0.0239  H
ATOM     38 H30  CHE L   1      -3.234   2.035   2.489  1.00  0.00    +0.0239  H
ATOM     39 H31  CHE L   1      -1.848   2.254   1.412  1.00  0.00    +0.0239  H
ATOM     40 H32  CHE L   1      -2.259   0.640   2.007  1.00  0.00    +0.0239  H
ENDBRANCH 22 29
ENDBRANCH 13 24
ENDBRANCH 1 17
TORSDOF 3
