ROOT
ATOM      1  C1  CHE L   1      -0.467   2.678   1.080  1.00  0.00    -0.0202  C
ATOM      2  C2  CHE L   1      -1.283   1.636   1.779  1.00  0.00    +0.0678  A
ATOM      3  N3  CHE L   1      -1.387   1.588   3.128  1.00  0.00    -0.1758 NA
ATOM      4  N4  CHE L   1      -2.104   0.521   3.446  1.00  0.00    -0.2460  N
ATOM      5  C5  CHE L   1      -2.443  -0.111   2.316  1.00  0.00    +0.2230  A
ATOM      6  C6  CHE L   1      -1.984   0.561   1.225  1.00  0.00    +0.0525  A
ATOM      7  C7  CHE L   1      -2.240   0.067  -0.200  1.00  0.00    +0.0694  C
ATOM      8 C27  CHE L   1      -2.774  -1.389  -0.159  1.00  0.00    +0.1038  C
ATOM      9 C30  CHE L   1      -3.207  -1.983   0.992  1.00  0.00    +0.2091  C
ATOM     10 N31  CHE L   1      -3.785  -3.295   0.989  1.00  0.00    -0.3688  N
ATOM     11 O32  CHE L   1      -3.095  -1.330   2.229  1.00  0.00    -0.4216 OA
ATOM     12 H33  CHE L   1       0.498   2.805   1.613  1.00  0.00    +0.0293  H
ATOM     13 H34  CHE L   1      -1.006   3.646   1.092  1.00  0.00    +0.0293  H
ATOM     14 H35  CHE L   1      -0.241   2.393   0.036  1.00  0.00    +0.0293  H
ATOM     15 H36  CHE L   1      -2.319   0.218   4.422  1.00  0.00    +0.1920 HD
ATOM     16 H54  CHE L   1      -3.906  -3.861   0.120  1.00  0.00    +0.1588 HD
ATOM     17 H55  CHE L   1      -4.101  -3.717   1.890  1.00  0.00    +0.1588 HD
ENDROOT
BRANCH 7 18
ATOM     18  C8  CHE L   1      -0.903   0.021  -0.974  1.00  0.00    -0.0295  A
ATOM     19  C9  CHE L   1       0.256  -0.465  -0.327  1.00  0.00    -0.0419  A
ATOM     20 C10  CHE L   1       1.476  -0.555  -1.003  1.00  0.00    +0.0258  A
ATOM     21 C17  CHE L   1       1.555  -0.212  -2.354  1.00  0.00    -0.0347  A
ATOM     22 C18  CHE L   1       0.405   0.187  -3.050  1.00  0.00    +0.0563  A
ATOM     23 C23  CHE L   1      -0.813   0.305  -2.357  1.00  0.00    -0.0457  A
ATOM     24 H37  CHE L   1       0.214  -0.769   0.712  1.00  0.00    +0.0633  H
ATOM     25 H45  CHE L   1       2.510  -0.271  -2.863  1.00  0.00    +0.0635  H
ATOM     26 H46  CHE L   1      -1.681   0.619  -2.914  1.00  0.00    +0.0626  H
BRANCH 20 27
ATOM     27 C11  CHE L   1       2.652  -1.004  -0.305  1.00  0.00    -0.0663  C
ATOM     28 C12  CHE L   1       3.636  -1.378   0.282  1.00  0.00    -0.0969  C
BRANCH 28 29
ATOM     29 C13  CHE L   1       4.834  -1.831   0.997  1.00  0.00    +0.0115  C
ATOM     30 H38  CHE L   1       4.517  -2.397   1.899  1.00  0.00    +0.0398  H
ATOM     31 H39  CHE L   1       5.412  -2.508   0.331  1.00  0.00    +0.0398  H
BRANCH 29 32
ATOM     32 C14  CHE L   1       5.696  -0.633   1.405  1.00  0.00    -0.0188  C
ATOM     33 H40  CHE L   1       5.106   0.044   2.063  1.00  0.00    +0.0296  H
ATOM     34 H41  CHE L   1       6.000  -0.066   0.496  1.00  0.00    +0.0296  H
BRANCH 32 35
ATOM     35 C15  CHE L   1       6.949  -1.086   2.152  1.00  0.00    +0.0451  C
ATOM     36 O16  CHE L   1       7.712   0.035   2.505  1.00  0.00    -0.3950 OA
ATOM     37 H42  CHE L   1       7.552  -1.756   1.497  1.00  0.00    +0.0557  H
ATOM     38 H43  CHE L   1       6.655  -1.642   3.071  1.00  0.00    +0.0557  H
ATOM     39 H44  CHE L   1       8.509  -0.315   2.983  1.00  0.00    +0.2094 HD
ENDBRANCH 32 35
ENDBRANCH 29 32
ENDBRANCH 28 29
ENDBRANCH 20 27
BRANCH 22 40
ATOM     40 C19  CHE L   1       0.485   0.570  -4.508  1.00  0.00    +0.4175  C
ATOM     41 F20  CHE L   1       1.548  -0.061  -5.130  1.00  0.00    -0.1659  F
ATOM     42 F21  CHE L   1       0.653   1.939  -4.608  1.00  0.00    -0.1659  F
ATOM     43 F22  CHE L   1      -0.677   0.209  -5.168  1.00  0.00    -0.1659  F
ENDBRANCH 22 40
ENDBRANCH 7 18
BRANCH 7 44
ATOM     44 C24  CHE L   1      -3.364   0.968  -0.864  1.00  0.00    -0.0279  C
ATOM     45 C25  CHE L   1      -2.975   2.446  -1.051  1.00  0.00    -0.0612  C
ATOM     46 C26  CHE L   1      -4.708   0.913  -0.105  1.00  0.00    -0.0612  C
ATOM     47 H47  CHE L   1      -3.590   0.563  -1.874  1.00  0.00    +0.0311  H
ATOM     48 H48  CHE L   1      -3.714   2.946  -1.713  1.00  0.00    +0.0233  H
ATOM     49 H49  CHE L   1      -1.983   2.560  -1.527  1.00  0.00    +0.0233  H
ATOM     50 H50  CHE L   1      -2.981   2.981  -0.081  1.00  0.00    +0.0233  H
ATOM     51 H51  CHE L   1      -5.469   1.532  -0.628  1.00  0.00    +0.0233  H
ATOM     52 H52  CHE L   1      -5.105  -0.122  -0.065  1.00  0.00    +0.0233  H
ATOM     53 H53  CHE L   1      -4.601   1.300   0.930  1.00  0.00    +0.0233  H
ENDBRANCH 7 44
BRANCH 8 54
ATOM     54 C28  CHE L   1      -2.910  -2.091  -1.421  1.00  0.00    +0.1013  C
ATOM     55 N29  CHE L   1      -3.017  -2.648  -2.430  1.00  0.00    -0.1910 NA
ENDBRANCH 8 54
TORSDOF 8
