ROOT
ATOM      1  C8  WH0 L   1      -2.407  -1.063   0.653  1.00  0.00    -0.0323  A
ATOM      2  C9  WH0 L   1      -1.187  -0.926   1.378  1.00  0.00    -0.0101  A
ATOM      3 C33  WH0 L   1      -1.161  -1.160   2.771  1.00  0.00    -0.0517  A
ATOM      4 C34  WH0 L   1      -2.316  -1.556   3.453  1.00  0.00    -0.0374  A
ATOM      5 C35  WH0 L   1      -3.491  -1.711   2.730  1.00  0.00    +0.0457  A
ATOM      6 C36  WH0 L   1      -3.548  -1.470   1.371  1.00  0.00    -0.0112  A
ATOM      7 C37  WH0 L   1      -4.942  -1.715   0.867  1.00  0.00    +0.0538  C
ATOM      8 C38  WH0 L   1      -5.620  -2.115   2.141  1.00  0.00    +0.2296  C
ATOM      9 O39  WH0 L   1      -6.837  -2.422   2.228  1.00  0.00    -0.2725 OA
ATOM     10 N40  WH0 L   1      -4.742  -2.111   3.258  1.00  0.00    -0.3256  N
ATOM     11 H66  WH0 L   1      -0.236  -1.047   3.325  1.00  0.00    +0.0624  H
ATOM     12 H67  WH0 L   1      -2.293  -1.742   4.519  1.00  0.00    +0.0638  H
ATOM     13 H68  WH0 L   1      -4.963  -2.547   0.133  1.00  0.00    +0.0410  H
ATOM     14 H69  WH0 L   1      -5.393  -0.789   0.460  1.00  0.00    +0.0410  H
ATOM     15 H70  WH0 L   1      -4.971  -2.348   4.249  1.00  0.00    +0.1686 HD
ENDROOT
BRANCH 1 16
ATOM     16  C7  WH0 L   1      -2.516  -0.711  -0.820  1.00  0.00    -0.0093  C
ATOM     17 H47  WH0 L   1      -1.681  -1.169  -1.384  1.00  0.00    +0.0331  H
ATOM     18 H48  WH0 L   1      -3.441  -1.133  -1.265  1.00  0.00    +0.0331  H
BRANCH 16 19
ATOM     19  C6  WH0 L   1      -2.499   0.805  -1.052  1.00  0.00    +0.0224  C
ATOM     20 H45  WH0 L   1      -1.548   1.239  -0.681  1.00  0.00    +0.0489  H
ATOM     21 H46  WH0 L   1      -2.542   1.014  -2.143  1.00  0.00    +0.0489  H
BRANCH 19 24
ATOM     22  C3  WH0 L   1      -4.920   1.566  -0.975  1.00  0.00    +0.2443  C
ATOM     23  O4  WH0 L   1      -5.144   1.018  -2.087  1.00  0.00    -0.2683 OA
ATOM     24  N5  WH0 L   1      -3.619   1.454  -0.372  1.00  0.00    -0.3522  N
ATOM     25 H44  WH0 L   1      -3.482   1.716   0.628  1.00  0.00    +0.1626 HD
BRANCH 22 27
ATOM     26  C1  WH0 L   1      -5.851   3.146   0.686  1.00  0.00    -0.0936  C
ATOM     27  C2  WH0 L   1      -6.027   2.282  -0.312  1.00  0.00    -0.0047  C
ATOM     28 H41  WH0 L   1      -4.872   3.393   1.070  1.00  0.00    +0.0536  H
ATOM     29 H42  WH0 L   1      -6.709   3.646   1.117  1.00  0.00    +0.0536  H
ATOM     30 H43  WH0 L   1      -7.032   2.125  -0.683  1.00  0.00    +0.0666  H
ENDBRANCH 22 27
ENDBRANCH 19 24
ENDBRANCH 16 19
ENDBRANCH 1 16
BRANCH 2 31
ATOM     31 C10  WH0 L   1       0.078  -0.541   0.720  1.00  0.00    +0.0356  A
ATOM     32 C11  WH0 L   1       0.819  -1.230  -0.247  1.00  0.00    +0.1015  A
ATOM     33 N19  WH0 L   1       1.859  -0.462  -0.650  1.00  0.00    -0.1627 NA
ATOM     34 N20  WH0 L   1       1.809   0.663   0.044  1.00  0.00    -0.1987  N
ATOM     35 C21  WH0 L   1       2.637   1.741  -0.062  1.00  0.00    +0.2282  A
ATOM     36 N29  WH0 L   1       2.368   2.833   0.712  1.00  0.00    -0.2207 NA
ATOM     37 C30  WH0 L   1       1.306   2.856   1.570  1.00  0.00    +0.0334  A
ATOM     38 C31  WH0 L   1       0.454   1.749   1.672  1.00  0.00    -0.0173  A
ATOM     39 C32  WH0 L   1       0.756   0.650   0.873  1.00  0.00    +0.0803  A
ATOM     40 H64  WH0 L   1       1.120   3.737   2.169  1.00  0.00    +0.0831  H
ATOM     41 H65  WH0 L   1      -0.402   1.757   2.334  1.00  0.00    +0.0654  H
BRANCH 32 42
ATOM     42 C12  WH0 L   1       0.563  -2.583  -0.791  1.00  0.00    +0.0029  A
ATOM     43 C13  WH0 L   1       0.954  -2.889  -2.106  1.00  0.00    -0.0498  A
ATOM     44 C14  WH0 L   1       0.714  -4.160  -2.639  1.00  0.00    -0.0258  A
ATOM     45 C15  WH0 L   1       0.091  -5.140  -1.862  1.00  0.00    +0.1234  A
ATOM     46 F16  WH0 L   1      -0.141  -6.371  -2.379  1.00  0.00    -0.2055  F
ATOM     47 C17  WH0 L   1      -0.284  -4.853  -0.548  1.00  0.00    -0.0258  A
ATOM     48 C18  WH0 L   1      -0.046  -3.584  -0.010  1.00  0.00    -0.0498  A
ATOM     49 H49  WH0 L   1       1.428  -2.139  -2.727  1.00  0.00    +0.0625  H
ATOM     50 H50  WH0 L   1       1.008  -4.382  -3.656  1.00  0.00    +0.0646  H
ATOM     51 H51  WH0 L   1      -0.755  -5.616   0.059  1.00  0.00    +0.0646  H
ATOM     52 H52  WH0 L   1      -0.316  -3.401   1.019  1.00  0.00    +0.0625  H
ENDBRANCH 32 42
BRANCH 35 53
ATOM     53 N22  WH0 L   1       3.767   1.751  -0.961  1.00  0.00    -0.3402  N
ATOM     54 C23  WH0 L   1       4.237   3.020  -1.531  1.00  0.00    +0.0228  C
ATOM     55 C24  WH0 L   1       5.638   3.345  -1.000  1.00  0.00    -0.0199  C
ATOM     56 C25  WH0 L   1       6.600   2.119  -1.012  1.00  0.00    +0.0080  C
ATOM     57 N26  WH0 L   1       7.041   1.771   0.343  1.00  0.00    -0.3271 NA
ATOM     58 C27  WH0 L   1       5.984   0.880  -1.695  1.00  0.00    -0.0199  C
ATOM     59 C28  WH0 L   1       4.594   0.544  -1.129  1.00  0.00    +0.0228  C
ATOM     60 H53  WH0 L   1       3.543   3.858  -1.303  1.00  0.00    +0.0489  H
ATOM     61 H54  WH0 L   1       4.274   2.927  -2.638  1.00  0.00    +0.0489  H
ATOM     62 H55  WH0 L   1       5.535   3.752   0.029  1.00  0.00    +0.0297  H
ATOM     63 H56  WH0 L   1       6.069   4.158  -1.622  1.00  0.00    +0.0297  H
ATOM     64 H57  WH0 L   1       7.505   2.395  -1.601  1.00  0.00    +0.0459  H
ATOM     65 H58  WH0 L   1       7.607   2.564   0.724  1.00  0.00    +0.1185 HD
ATOM     66 H59  WH0 L   1       6.208   1.657   0.967  1.00  0.00    +0.1185 HD
ATOM     67 H60  WH0 L   1       6.657   0.003  -1.573  1.00  0.00    +0.0297  H
ATOM     68 H61  WH0 L   1       5.895   1.075  -2.787  1.00  0.00    +0.0297  H
ATOM     69 H62  WH0 L   1       4.723   0.042  -0.145  1.00  0.00    +0.0489  H
ATOM     70 H63  WH0 L   1       4.092  -0.165  -1.822  1.00  0.00    +0.0489  H
ENDBRANCH 35 53
ENDBRANCH 2 31
TORSDOF 7
