ROOT
ATOM      1 C10  WH0 L   1       1.029  -0.336  -2.461  1.00  0.00    -0.0323  A
ATOM      2 C11  WH0 L   1      -0.303  -0.709  -2.163  1.00  0.00    -0.0101  A
ATOM      3 C34  WH0 L   1      -1.114  -1.340  -3.140  1.00  0.00    -0.0517  A
ATOM      4 C35  WH0 L   1      -0.631  -1.612  -4.420  1.00  0.00    -0.0374  A
ATOM      5 C36  WH0 L   1       0.666  -1.245  -4.689  1.00  0.00    +0.0457  A
ATOM      6 C37  WH0 L   1       1.488  -0.624  -3.746  1.00  0.00    -0.0112  A
ATOM      7 C38  WH0 L   1       2.835  -0.376  -4.372  1.00  0.00    +0.0538  C
ATOM      8 C39  WH0 L   1       2.652  -0.935  -5.786  1.00  0.00    +0.2296  C
ATOM      9 O40  WH0 L   1       3.486  -0.955  -6.676  1.00  0.00    -0.2725 OA
ATOM     10 N41  WH0 L   1       1.355  -1.420  -5.877  1.00  0.00    -0.3256  N
ATOM     11 H63  WH0 L   1      -2.138  -1.621  -2.897  1.00  0.00    +0.0624  H
ATOM     12 H64  WH0 L   1      -1.258  -2.094  -5.162  1.00  0.00    +0.0638  H
ATOM     13 H65  WH0 L   1       3.055   0.693  -4.430  1.00  0.00    +0.0410  H
ATOM     14 H66  WH0 L   1       3.622  -0.933  -3.857  1.00  0.00    +0.0410  H
ATOM     15 H67  WH0 L   1       0.991  -1.846  -6.717  1.00  0.00    +0.1686 HD
ENDROOT
BRANCH 1 16
ATOM     16  C9  WH0 L   1       1.955   0.297  -1.450  1.00  0.00    -0.0093  C
ATOM     17 H47  WH0 L   1       1.413   1.012  -0.823  1.00  0.00    +0.0331  H
ATOM     18 H48  WH0 L   1       2.707   0.910  -1.964  1.00  0.00    +0.0331  H
BRANCH 16 19
ATOM     19  C8  WH0 L   1       2.658  -0.744  -0.579  1.00  0.00    +0.0224  C
ATOM     20 H45  WH0 L   1       3.259  -1.420  -1.198  1.00  0.00    +0.0489  H
ATOM     21 H46  WH0 L   1       1.938  -1.362  -0.033  1.00  0.00    +0.0489  H
BRANCH 19 24
ATOM     22  C5  WH0 L   1       4.530  -0.830   1.017  1.00  0.00    +0.2618  C
ATOM     23  O6  WH0 L   1       4.835  -1.968   0.668  1.00  0.00    -0.2669 OA
ATOM     24  N7  WH0 L   1       3.514  -0.119   0.415  1.00  0.00    -0.3511  N
ATOM     25 H44  WH0 L   1       3.177   0.738   0.837  1.00  0.00    +0.1627 HD
BRANCH 22 27
ATOM     26  C1  WH0 L   1       6.223  -0.800   2.780  1.00  0.00    -0.0760  C
ATOM     27  C2  WH0 L   1       5.244  -0.139   2.140  1.00  0.00    +0.1085  C
ATOM     28 H42  WH0 L   1       6.777  -0.349   3.598  1.00  0.00    +0.0549  H
ATOM     29 H43  WH0 L   1       6.499  -1.814   2.502  1.00  0.00    +0.0549  H
BRANCH 27 30
ATOM     30  C3  WH0 L   1       4.902   1.186   2.516  1.00  0.00    +0.1040  C
ATOM     31  N4  WH0 L   1       4.588   2.267   2.800  1.00  0.00    -0.1907 NA
ENDBRANCH 27 30
ENDBRANCH 22 27
ENDBRANCH 19 24
ENDBRANCH 16 19
ENDBRANCH 1 16
BRANCH 2 32
ATOM     32 C12  WH0 L   1      -0.895  -0.463  -0.859  1.00  0.00    +0.0356  A
ATOM     33 C13  WH0 L   1      -1.354   0.741  -0.238  1.00  0.00    +0.1015  A
ATOM     34 N21  WH0 L   1      -1.811   0.499   1.002  1.00  0.00    -0.1627 NA
ATOM     35 N22  WH0 L   1      -1.664  -0.838   1.177  1.00  0.00    -0.1987  N
ATOM     36 C23  WH0 L   1      -2.079  -1.545   2.349  1.00  0.00    +0.2283  A
ATOM     37 N30  WH0 L   1      -1.972  -2.858   2.353  1.00  0.00    -0.2207 NA
ATOM     38 C31  WH0 L   1      -1.416  -3.475   1.255  1.00  0.00    +0.0334  A
ATOM     39 C32  WH0 L   1      -0.993  -2.857   0.142  1.00  0.00    -0.0173  A
ATOM     40 C33  WH0 L   1      -1.139  -1.456   0.064  1.00  0.00    +0.0803  A
ATOM     41 H61  WH0 L   1      -1.321  -4.556   1.333  1.00  0.00    +0.0831  H
ATOM     42 H62  WH0 L   1      -0.561  -3.420  -0.679  1.00  0.00    +0.0654  H
BRANCH 33 43
ATOM     43 C14  WH0 L   1      -1.358   2.107  -0.768  1.00  0.00    +0.0029  A
ATOM     44 C15  WH0 L   1      -1.055   3.186   0.081  1.00  0.00    -0.0498  A
ATOM     45 C16  WH0 L   1      -1.037   4.493  -0.408  1.00  0.00    -0.0258  A
ATOM     46 C17  WH0 L   1      -1.331   4.727  -1.746  1.00  0.00    +0.1234  A
ATOM     47 F18  WH0 L   1      -1.313   5.980  -2.218  1.00  0.00    -0.2055  F
ATOM     48 C19  WH0 L   1      -1.645   3.678  -2.602  1.00  0.00    -0.0258  A
ATOM     49 C20  WH0 L   1      -1.662   2.368  -2.113  1.00  0.00    -0.0498  A
ATOM     50 H49  WH0 L   1      -0.825   3.010   1.130  1.00  0.00    +0.0625  H
ATOM     51 H50  WH0 L   1      -0.798   5.325   0.246  1.00  0.00    +0.0646  H
ATOM     52 H51  WH0 L   1      -1.880   3.888  -3.641  1.00  0.00    +0.0646  H
ATOM     53 H52  WH0 L   1      -1.929   1.562  -2.791  1.00  0.00    +0.0625  H
ENDBRANCH 33 43
BRANCH 36 54
ATOM     54 N24  WH0 L   1      -2.621  -0.908   3.466  1.00  0.00    -0.3359  N
ATOM     55 C25  WH0 L   1      -2.389   0.482   3.860  1.00  0.00    +0.0449  C
ATOM     56 C26  WH0 L   1      -3.725   1.232   3.870  1.00  0.00    +0.0653  C
ATOM     57 O27  WH0 L   1      -4.695   0.672   4.775  1.00  0.00    -0.3763 OA
ATOM     58 C28  WH0 L   1      -4.363  -0.649   5.229  1.00  0.00    +0.0653  C
ATOM     59 C29  WH0 L   1      -3.779  -1.542   4.126  1.00  0.00    +0.0449  C
ATOM     60 H53  WH0 L   1      -1.646   0.998   3.253  1.00  0.00    +0.0511  H
ATOM     61 H54  WH0 L   1      -1.969   0.478   4.873  1.00  0.00    +0.0511  H
ATOM     62 H55  WH0 L   1      -4.175   1.230   2.870  1.00  0.00    +0.0577  H
ATOM     63 H56  WH0 L   1      -3.572   2.275   4.163  1.00  0.00    +0.0577  H
ATOM     64 H57  WH0 L   1      -3.660  -0.555   6.066  1.00  0.00    +0.0577  H
ATOM     65 H58  WH0 L   1      -5.278  -1.098   5.628  1.00  0.00    +0.0577  H
ATOM     66 H59  WH0 L   1      -3.489  -2.507   4.555  1.00  0.00    +0.0511  H
ATOM     67 H60  WH0 L   1      -4.554  -1.716   3.369  1.00  0.00    +0.0511  H
ENDBRANCH 36 54
ENDBRANCH 2 32
TORSDOF 8
