ROOT
ATOM      1  N7  952 L   1       0.424  -0.012  -0.188  1.00  0.00    -0.3434  N
ATOM      2  C8  952 L   1      -0.677   0.139  -1.145  1.00  0.00    +0.0266  C
ATOM      3  C9  952 L   1      -2.046   0.220  -0.426  1.00  0.00    -0.0074  C
ATOM      4 C10  952 L   1      -2.163   1.565   0.350  1.00  0.00    -0.0221  C
ATOM      5 C11  952 L   1      -3.566   2.171   0.298  1.00  0.00    +0.0482  C
ATOM      6 O12  952 L   1      -4.552   1.149   0.308  1.00  0.00    -0.3797 OA
ATOM      7 C13  952 L   1      -4.558   0.377  -0.891  1.00  0.00    +0.0482  C
ATOM      8 C14  952 L   1      -3.165   0.182  -1.492  1.00  0.00    -0.0221  C
ATOM      9 C15  952 L   1      -2.194  -0.999   0.521  1.00  0.00    -0.0437  C
ATOM     10 C16  952 L   1      -0.995  -1.185   1.451  1.00  0.00    -0.0297  C
ATOM     11 C17  952 L   1       0.349  -1.185   0.709  1.00  0.00    +0.0549  C
ATOM     12 H26  952 L   1      -0.664  -0.707  -1.845  1.00  0.00    +0.0494  H
ATOM     13 H27  952 L   1      -0.566   1.039  -1.761  1.00  0.00    +0.0494  H
ATOM     14 H28  952 L   1      -1.460   2.314  -0.036  1.00  0.00    +0.0293  H
ATOM     15 H29  952 L   1      -1.890   1.423   1.400  1.00  0.00    +0.0293  H
ATOM     16 H30  952 L   1      -3.725   2.815   1.169  1.00  0.00    +0.0560  H
ATOM     17 H31  952 L   1      -3.696   2.798  -0.594  1.00  0.00    +0.0560  H
ATOM     18 H32  952 L   1      -5.221   0.858  -1.619  1.00  0.00    +0.0560  H
ATOM     19 H33  952 L   1      -5.001  -0.593  -0.645  1.00  0.00    +0.0560  H
ATOM     20 H34  952 L   1      -2.989   0.989  -2.217  1.00  0.00    +0.0293  H
ATOM     21 H35  952 L   1      -3.142  -0.748  -2.073  1.00  0.00    +0.0293  H
ATOM     22 H36  952 L   1      -3.098  -0.910   1.135  1.00  0.00    +0.0272  H
ATOM     23 H37  952 L   1      -2.321  -1.912  -0.076  1.00  0.00    +0.0272  H
ATOM     24 H38  952 L   1      -1.119  -2.113   2.022  1.00  0.00    +0.0286  H
ATOM     25 H39  952 L   1      -0.987  -0.379   2.194  1.00  0.00    +0.0286  H
ATOM     26 H40  952 L   1       1.107  -1.098   1.501  1.00  0.00    +0.0547  H
ENDROOT
BRANCH 1 30
ATOM     27  C3  952 L   1       3.892   0.616  -0.500  1.00  0.00    +0.1402  A
ATOM     28  N4  952 L   1       3.711   1.590  -1.390  1.00  0.00    -0.1922 NA
ATOM     29  S5  952 L   1       2.066   1.721  -1.610  1.00  0.00    +0.0514  S
ATOM     30  C6  952 L   1       1.684   0.430  -0.506  1.00  0.00    +0.1894  A
ATOM     31 N20  952 L   1       2.793  -0.057   0.016  1.00  0.00    -0.2066 NA
BRANCH 27 33
ATOM     32  C1  952 L   1       5.664   0.965   1.225  1.00  0.00    -0.0583  C
ATOM     33  C2  952 L   1       5.263   0.244  -0.052  1.00  0.00    +0.0052  C
ATOM     34 H21  952 L   1       5.661   2.051   1.083  1.00  0.00    +0.0234  H
ATOM     35 H22  952 L   1       6.671   0.665   1.531  1.00  0.00    +0.0234  H
ATOM     36 H23  952 L   1       4.975   0.732   2.044  1.00  0.00    +0.0234  H
ATOM     37 H24  952 L   1       5.305  -0.839   0.116  1.00  0.00    +0.0341  H
ATOM     38 H25  952 L   1       5.990   0.468  -0.841  1.00  0.00    +0.0341  H
ENDBRANCH 27 33
ENDBRANCH 1 30
BRANCH 11 39
ATOM     39 C18  952 L   1       0.612  -2.511  -0.040  1.00  0.00    +0.0646  C
ATOM     40 O19  952 L   1       0.741  -3.607   0.865  1.00  0.00    -0.3930 OA
ATOM     41 H41  952 L   1      -0.202  -2.749  -0.732  1.00  0.00    +0.0577  H
ATOM     42 H42  952 L   1       1.531  -2.460  -0.633  1.00  0.00    +0.0577  H
ATOM     43 H43  952 L   1       1.558  -3.456   1.374  1.00  0.00    +0.2095 HD
ENDBRANCH 11 39
TORSDOF 3
