ROOT
ATOM      1 C12  SEL L   1       1.704  -0.326   0.193  1.00  0.00    +0.0421  A
ATOM      2 C13  SEL L   1       2.218  -1.047   1.213  1.00  0.00    -0.0424  A
ATOM      3 C14  SEL L   1       3.470  -1.790   1.083  1.00  0.00    -0.0009  A
ATOM      4 C15  SEL L   1       3.986  -2.550   2.132  1.00  0.00    -0.0492  A
ATOM      5 C16  SEL L   1       5.192  -3.237   1.962  1.00  0.00    -0.0193  A
ATOM      6 C17  SEL L   1       5.892  -3.172   0.753  1.00  0.00    +0.1221  A
ATOM      7 C20  SEL L   1       5.377  -2.409  -0.296  1.00  0.00    +0.0040  A
ATOM      8 C21  SEL L   1       4.171  -1.726  -0.123  1.00  0.00    +0.0526  A
ATOM      9 N22  SEL L   1       3.643  -0.966  -1.169  1.00  0.00    -0.3217  N
ATOM     10 C23  SEL L   1       2.462  -0.273  -1.101  1.00  0.00    +0.2543  A
ATOM     11 O24  SEL L   1       2.067   0.331  -2.092  1.00  0.00    -0.2675 OA
ATOM     12 H46  SEL L   1       1.719  -1.092   2.176  1.00  0.00    +0.0629  H
ATOM     13 H47  SEL L   1       3.467  -2.618   3.084  1.00  0.00    +0.0625  H
ATOM     14 H48  SEL L   1       5.593  -3.830   2.782  1.00  0.00    +0.0654  H
ATOM     15 H52  SEL L   1       5.893  -2.334  -1.246  1.00  0.00    +0.0675  H
ATOM     16 H53  SEL L   1       4.130  -0.897  -2.052  1.00  0.00    +0.1689 HD
ENDROOT
BRANCH 1 17
ATOM     17 C11  SEL L   1       0.418   0.491   0.358  1.00  0.00    +0.1027  C
ATOM     18 H45  SEL L   1       0.177   0.380   1.425  1.00  0.00    +0.0596  H
BRANCH 17 23
ATOM     19  N6  SEL L   1      -0.254   3.003   0.637  1.00  0.00    -0.2218  N
ATOM     20  N7  SEL L   1       0.309   4.192   0.311  1.00  0.00    -0.0433 NA
ATOM     21  N8  SEL L   1       1.493   3.916  -0.195  1.00  0.00    -0.0229 NA
ATOM     22  N9  SEL L   1       1.697   2.573  -0.232  1.00  0.00    -0.1114 NA
ATOM     23 C10  SEL L   1       0.602   1.992   0.233  1.00  0.00    +0.1736  A
BRANCH 19 24
ATOM     24  C3  SEL L   1      -1.590   3.032   1.272  1.00  0.00    +0.0615  C
ATOM     25  C4  SEL L   1      -1.805   1.885   2.277  1.00  0.00    -0.0399  C
ATOM     26  C5  SEL L   1      -1.738   4.339   2.107  1.00  0.00    -0.0399  C
ATOM     27 H39  SEL L   1      -2.675   2.069   2.920  1.00  0.00    +0.0253  H
ATOM     28 H40  SEL L   1      -1.999   0.934   1.782  1.00  0.00    +0.0253  H
ATOM     29 H41  SEL L   1      -0.939   1.766   2.939  1.00  0.00    +0.0253  H
ATOM     30 H42  SEL L   1      -2.671   4.354   2.682  1.00  0.00    +0.0253  H
ATOM     31 H43  SEL L   1      -0.915   4.443   2.823  1.00  0.00    +0.0253  H
ATOM     32 H44  SEL L   1      -1.744   5.232   1.470  1.00  0.00    +0.0253  H
BRANCH 24 34
ATOM     33  C1  SEL L   1      -4.112   3.053   0.601  1.00  0.00    -0.0631  C
ATOM     34  C2  SEL L   1      -2.658   3.021   0.145  1.00  0.00    -0.0309  C
ATOM     35 H34  SEL L   1      -4.359   2.193   1.228  1.00  0.00    +0.0231  H
ATOM     36 H35  SEL L   1      -4.345   3.967   1.153  1.00  0.00    +0.0231  H
ATOM     37 H36  SEL L   1      -4.772   3.023  -0.273  1.00  0.00    +0.0231  H
ATOM     38 H37  SEL L   1      -2.522   2.134  -0.479  1.00  0.00    +0.0286  H
ATOM     39 H38  SEL L   1      -2.493   3.877  -0.524  1.00  0.00    +0.0286  H
ENDBRANCH 24 34
ENDBRANCH 19 24
ENDBRANCH 17 23
BRANCH 17 40
ATOM     40 N25  SEL L   1      -0.791  -0.019  -0.332  1.00  0.00    -0.2865 NA
ATOM     41 C26  SEL L   1      -1.177  -1.387   0.072  1.00  0.00    +0.0127  C
ATOM     42 C27  SEL L   1      -2.150  -2.102  -0.905  1.00  0.00    +0.0120  C
ATOM     43 N28  SEL L   1      -3.025  -1.204  -1.673  1.00  0.00    -0.2970 NA
ATOM     44 C32  SEL L   1      -2.215  -0.188  -2.383  1.00  0.00    +0.0120  C
ATOM     45 C33  SEL L   1      -0.805   0.095  -1.795  1.00  0.00    +0.0127  C
ATOM     46 H54  SEL L   1      -0.306  -2.042   0.179  1.00  0.00    +0.0439  H
ATOM     47 H55  SEL L   1      -1.654  -1.326   1.057  1.00  0.00    +0.0439  H
ATOM     48 H56  SEL L   1      -1.556  -2.681  -1.625  1.00  0.00    +0.0439  H
ATOM     49 H57  SEL L   1      -2.743  -2.842  -0.355  1.00  0.00    +0.0439  H
ATOM     50 H63  SEL L   1      -2.085  -0.529  -3.417  1.00  0.00    +0.0439  H
ATOM     51 H64  SEL L   1      -2.771   0.755  -2.453  1.00  0.00    +0.0439  H
ATOM     52 H65  SEL L   1      -0.503   1.096  -2.123  1.00  0.00    +0.0439  H
ATOM     53 H66  SEL L   1      -0.114  -0.632  -2.237  1.00  0.00    +0.0439  H
BRANCH 43 54
ATOM     54 C29  SEL L   1      -4.082  -0.611  -0.838  1.00  0.00    +0.0106  C
ATOM     55 C30  SEL L   1      -5.375  -0.192  -1.484  1.00  0.00    -0.0359  C
ATOM     56 C31  SEL L   1      -5.342  -1.399  -0.594  1.00  0.00    -0.0359  C
ATOM     57 H58  SEL L   1      -3.736   0.007  -0.014  1.00  0.00    +0.0462  H
ATOM     58 H59  SEL L   1      -5.493  -0.353  -2.549  1.00  0.00    +0.0281  H
ATOM     59 H60  SEL L   1      -5.864   0.700  -1.110  1.00  0.00    +0.0281  H
ATOM     60 H61  SEL L   1      -5.442  -2.370  -1.063  1.00  0.00    +0.0281  H
ATOM     61 H62  SEL L   1      -5.804  -1.325   0.383  1.00  0.00    +0.0281  H
ENDBRANCH 43 54
ENDBRANCH 17 40
ENDBRANCH 1 17
BRANCH 6 62
ATOM     62 O18  SEL L   1       7.054  -3.893   0.730  1.00  0.00    -0.4950 OA
ATOM     63 C19  SEL L   1       7.808  -3.865  -0.476  1.00  0.00    +0.0788  C
ATOM     64 H49  SEL L   1       8.145  -2.849  -0.708  1.00  0.00    +0.0660  H
ATOM     65 H50  SEL L   1       7.237  -4.292  -1.307  1.00  0.00    +0.0660  H
ATOM     66 H51  SEL L   1       8.697  -4.485  -0.330  1.00  0.00    +0.0660  H
ENDBRANCH 6 62
TORSDOF 7
