ROOT
ATOM      1  C9  CHE L   1       1.813   0.449   0.448  1.00  0.00    +0.0901  A
ATOM      2 C10  CHE L   1       1.329   1.156   1.527  1.00  0.00    +0.0371  A
ATOM      3 N11  CHE L   1      -0.038   1.076   1.435  1.00  0.00    -0.3059  N
ATOM      4 C12  CHE L   1      -1.015   1.609   2.261  1.00  0.00    +0.0131  A
ATOM      5 C13  CHE L   1      -2.308   1.394   1.966  1.00  0.00    -0.0218  A
ATOM      6 C14  CHE L   1      -2.688   0.602   0.783  1.00  0.00    +0.0428  A
ATOM      7 C21  CHE L   1      -1.696   0.105   0.001  1.00  0.00    +0.0044  A
ATOM      8 C22  CHE L   1      -0.323   0.326   0.305  1.00  0.00    +0.1402  A
ATOM      9 N23  CHE L   1       0.779  -0.064  -0.304  1.00  0.00    -0.2277 NA
ATOM     10 H34  CHE L   1       1.815   1.689   2.332  1.00  0.00    +0.0835  H
ATOM     11 H35  CHE L   1      -0.691   2.188   3.117  1.00  0.00    +0.0814  H
ATOM     12 H36  CHE L   1      -3.079   1.818   2.596  1.00  0.00    +0.0653  H
ATOM     13 H46  CHE L   1      -1.908  -0.488  -0.878  1.00  0.00    +0.0675  H
ENDROOT
BRANCH 1 17
ATOM     14  C3  CHE L   1       5.947  -0.013  -0.601  1.00  0.00    +0.1387  A
ATOM     15  C4  CHE L   1       5.050  -1.068  -0.798  1.00  0.00    -0.0125  A
ATOM     16  C5  CHE L   1       3.689  -0.957  -0.438  1.00  0.00    -0.0094  A
ATOM     17  C8  CHE L   1       3.216   0.254   0.112  1.00  0.00    +0.0088  A
ATOM     18 C24  CHE L   1       4.120   1.309   0.314  1.00  0.00    -0.0303  A
ATOM     19 C25  CHE L   1       5.467   1.174  -0.033  1.00  0.00    +0.0831  A
ATOM     20 CL26 CHE L   1       6.511   2.525   0.251  1.00  0.00    -0.0797 Cl
ATOM     21 H30  CHE L   1       5.383  -2.004  -1.237  1.00  0.00    +0.0658  H
ATOM     22 H47  CHE L   1       3.775   2.256   0.723  1.00  0.00    +0.0640  H
BRANCH 14 24
ATOM     23  C1  CHE L   1       7.755  -1.194  -1.622  1.00  0.00    +0.0789  C
ATOM     24  O2  CHE L   1       7.280  -0.056  -0.916  1.00  0.00    -0.4936 OA
ATOM     25 H27  CHE L   1       7.685  -2.096  -1.005  1.00  0.00    +0.0660  H
ATOM     26 H28  CHE L   1       7.226  -1.322  -2.573  1.00  0.00    +0.0660  H
ATOM     27 H29  CHE L   1       8.812  -1.029  -1.850  1.00  0.00    +0.0660  H
ENDBRANCH 14 24
BRANCH 16 28
ATOM     28  C6  CHE L   1       2.793  -2.151  -0.665  1.00  0.00    +0.0700  C
ATOM     29  O7  CHE L   1       2.005  -1.955  -1.828  1.00  0.00    -0.3904 OA
ATOM     30 H31  CHE L   1       2.147  -2.342   0.199  1.00  0.00    +0.0607  H
ATOM     31 H32  CHE L   1       3.385  -3.061  -0.813  1.00  0.00    +0.0607  H
ATOM     32 H33  CHE L   1       1.400  -1.217  -1.592  1.00  0.00    +0.2098 HD
ENDBRANCH 16 28
ENDBRANCH 1 17
BRANCH 6 33
ATOM     33 N15  CHE L   1      -4.043   0.401   0.521  1.00  0.00    -0.3689  N
ATOM     34 C16  CHE L   1      -5.162   0.814   1.375  1.00  0.00    +0.0201  C
ATOM     35 C17  CHE L   1      -6.378   0.098   0.795  1.00  0.00    -0.0184  C
ATOM     36 C18  CHE L   1      -6.100   0.094  -0.700  1.00  0.00    +0.0242  C
ATOM     37 N19  CHE L   1      -6.499   1.377  -1.295  1.00  0.00    -0.3257 NA
ATOM     38 C20  CHE L   1      -4.574  -0.160  -0.736  1.00  0.00    +0.0339  C
ATOM     39 H37  CHE L   1      -5.015   0.515   2.418  1.00  0.00    +0.0488  H
ATOM     40 H38  CHE L   1      -5.289   1.902   1.329  1.00  0.00    +0.0488  H
ATOM     41 H39  CHE L   1      -7.320   0.582   1.074  1.00  0.00    +0.0298  H
ATOM     42 H40  CHE L   1      -6.413  -0.934   1.166  1.00  0.00    +0.0298  H
ATOM     43 H41  CHE L   1      -6.639  -0.709  -1.215  1.00  0.00    +0.0476  H
ATOM     44 H42  CHE L   1      -6.195   1.417  -2.267  1.00  0.00    +0.1185 HD
ATOM     45 H43  CHE L   1      -7.515   1.452  -1.304  1.00  0.00    +0.1185 HD
ATOM     46 H44  CHE L   1      -4.378  -1.239  -0.761  1.00  0.00    +0.0503  H
ATOM     47 H45  CHE L   1      -4.115   0.300  -1.618  1.00  0.00    +0.0503  H
ENDBRANCH 6 33
TORSDOF 4
