ROOT
ATOM      1  C1  CHE L   1      -1.293   3.355   0.603  1.00  0.00    -0.0361  C
ATOM      2  C2  CHE L   1      -2.406   2.307   0.448  1.00  0.00    +0.0648  C
ATOM      3  C3  CHE L   1      -3.471   2.613   1.516  1.00  0.00    -0.0361  C
ATOM      4  C4  CHE L   1      -1.861   0.868   0.622  1.00  0.00    -0.0145  C
ATOM      5  C5  CHE L   1      -1.572   0.104  -0.706  1.00  0.00    +0.0020  C
ATOM      6 C23  CHE L   1      -2.889   0.163  -1.547  1.00  0.00    -0.0196  C
ATOM      7 C24  CHE L   1      -3.741   1.408  -1.317  1.00  0.00    +0.0492  C
ATOM      8 O25  CHE L   1      -2.963   2.502  -0.856  1.00  0.00    -0.3738 OA
ATOM      9 H26  CHE L   1      -0.539   3.271  -0.183  1.00  0.00    +0.0257  H
ATOM     10 H27  CHE L   1      -0.792   3.274   1.574  1.00  0.00    +0.0257  H
ATOM     11 H28  CHE L   1      -1.702   4.369   0.514  1.00  0.00    +0.0257  H
ATOM     12 H29  CHE L   1      -4.304   1.905   1.475  1.00  0.00    +0.0257  H
ATOM     13 H30  CHE L   1      -3.047   2.574   2.525  1.00  0.00    +0.0257  H
ATOM     14 H31  CHE L   1      -3.905   3.607   1.359  1.00  0.00    +0.0257  H
ATOM     15 H32  CHE L   1      -2.619   0.286   1.169  1.00  0.00    +0.0301  H
ATOM     16 H33  CHE L   1      -0.992   0.884   1.289  1.00  0.00    +0.0301  H
ATOM     17 H48  CHE L   1      -2.650   0.101  -2.617  1.00  0.00    +0.0296  H
ATOM     18 H49  CHE L   1      -3.531  -0.706  -1.346  1.00  0.00    +0.0296  H
ATOM     19 H50  CHE L   1      -4.218   1.705  -2.257  1.00  0.00    +0.0560  H
ATOM     20 H51  CHE L   1      -4.554   1.198  -0.613  1.00  0.00    +0.0560  H
ENDROOT
BRANCH 5 21
ATOM     21  C6  CHE L   1      -0.421   0.769  -1.543  1.00  0.00    -0.0257  C
ATOM     22 H34  CHE L   1      -0.741   1.774  -1.840  1.00  0.00    +0.0291  H
ATOM     23 H35  CHE L   1      -0.286   0.231  -2.492  1.00  0.00    +0.0291  H
BRANCH 21 24
ATOM     24  C7  CHE L   1       0.951   0.909  -0.861  1.00  0.00    +0.0163  C
ATOM     25 H36  CHE L   1       1.479   1.730  -1.361  1.00  0.00    +0.0485  H
ATOM     26 H37  CHE L   1       0.846   1.180   0.193  1.00  0.00    +0.0485  H
BRANCH 24 27
ATOM     27  N8  CHE L   1       1.748  -0.306  -1.007  1.00  0.00    -0.3844  N
ATOM     28 H38  CHE L   1       1.198  -1.159  -0.921  1.00  0.00    +0.1596 HD
BRANCH 27 29
ATOM     29  C9  CHE L   1       2.960  -0.421  -0.320  1.00  0.00    +0.0354  A
ATOM     30 C10  CHE L   1       3.501  -1.703  -0.135  1.00  0.00    -0.0375  A
ATOM     31 C11  CHE L   1       4.741  -1.889   0.487  1.00  0.00    -0.0424  A
ATOM     32 C12  CHE L   1       5.479  -0.785   0.912  1.00  0.00    +0.0519  A
ATOM     33 C15  CHE L   1       4.975   0.500   0.701  1.00  0.00    -0.0424  A
ATOM     34 C16  CHE L   1       3.733   0.676   0.078  1.00  0.00    -0.0375  A
ATOM     35 H39  CHE L   1       2.950  -2.577  -0.477  1.00  0.00    +0.0638  H
ATOM     36 H40  CHE L   1       5.122  -2.899   0.624  1.00  0.00    +0.0631  H
ATOM     37 H41  CHE L   1       5.545   1.375   1.007  1.00  0.00    +0.0631  H
ATOM     38 H42  CHE L   1       3.388   1.691  -0.095  1.00  0.00    +0.0638  H
BRANCH 32 39
ATOM     39 C13  CHE L   1       6.750  -0.967   1.549  1.00  0.00    +0.0992  C
ATOM     40 N14  CHE L   1       7.778  -1.114   2.068  1.00  0.00    -0.1909 NA
ENDBRANCH 32 39
ENDBRANCH 27 29
ENDBRANCH 24 27
ENDBRANCH 21 24
ENDBRANCH 5 21
BRANCH 5 41
ATOM     41 C17  CHE L   1      -1.215  -1.387  -0.476  1.00  0.00    -0.0410  A
ATOM     42 C18  CHE L   1      -1.183  -2.282  -1.567  1.00  0.00    -0.0580  A
ATOM     43 C19  CHE L   1      -0.828  -3.623  -1.401  1.00  0.00    -0.0615  A
ATOM     44 C20  CHE L   1      -0.493  -4.104  -0.141  1.00  0.00    -0.0617  A
ATOM     45 C21  CHE L   1      -0.512  -3.243   0.951  1.00  0.00    -0.0615  A
ATOM     46 C22  CHE L   1      -0.867  -1.900   0.786  1.00  0.00    -0.0580  A
ATOM     47 H43  CHE L   1      -1.423  -1.940  -2.571  1.00  0.00    +0.0620  H
ATOM     48 H44  CHE L   1      -0.812  -4.290  -2.260  1.00  0.00    +0.0618  H
ATOM     49 H45  CHE L   1      -0.218  -5.147  -0.009  1.00  0.00    +0.0618  H
ATOM     50 H46  CHE L   1      -0.247  -3.614   1.938  1.00  0.00    +0.0618  H
ATOM     51 H47  CHE L   1      -0.850  -1.273   1.672  1.00  0.00    +0.0620  H
ENDBRANCH 5 41
TORSDOF 6
