ROOT
ATOM      1  N7  170 L   1       0.414  -1.001   0.055  1.00  0.00    -0.3364  N
ATOM      2  C8  170 L   1      -0.344  -1.977   0.820  1.00  0.00    +0.0221  C
ATOM      3  C9  170 L   1      -1.804  -2.005   0.360  1.00  0.00    -0.0260  C
ATOM      4 C10  170 L   1      -2.387  -0.609  -0.019  1.00  0.00    +0.0127  C
ATOM      5 C13  170 L   1      -3.818  -0.503   0.566  1.00  0.00    -0.0426  C
ATOM      6 C14  170 L   1      -4.400   0.895   0.394  1.00  0.00    -0.0396  C
ATOM      7 C15  170 L   1      -3.457   1.955   0.959  1.00  0.00    -0.0010  C
ATOM      8 N16  170 L   1      -2.112   1.867   0.366  1.00  0.00    -0.3001 NA
ATOM      9 C17  170 L   1      -1.282   2.956   0.891  1.00  0.00    -0.0124  C
ATOM     10 C18  170 L   1      -1.507   0.525   0.603  1.00  0.00    +0.0355  C
ATOM     11 C19  170 L   1      -0.039   0.392   0.098  1.00  0.00    +0.0376  C
ATOM     12 H29  170 L   1       0.057  -2.994   0.725  1.00  0.00    +0.0489  H
ATOM     13 H30  170 L   1      -0.291  -1.723   1.886  1.00  0.00    +0.0489  H
ATOM     14 H31  170 L   1      -1.887  -2.691  -0.493  1.00  0.00    +0.0289  H
ATOM     15 H32  170 L   1      -2.391  -2.473   1.160  1.00  0.00    +0.0289  H
ATOM     16 H36  170 L   1      -4.490  -1.245   0.120  1.00  0.00    +0.0272  H
ATOM     17 H37  170 L   1      -3.791  -0.728   1.641  1.00  0.00    +0.0272  H
ATOM     18 H38  170 L   1      -5.366   0.955   0.909  1.00  0.00    +0.0278  H
ATOM     19 H39  170 L   1      -4.599   1.097  -0.665  1.00  0.00    +0.0278  H
ATOM     20 H40  170 L   1      -3.893   2.938   0.746  1.00  0.00    +0.0426  H
ATOM     21 H41  170 L   1      -3.405   1.854   2.051  1.00  0.00    +0.0426  H
ATOM     22 H42  170 L   1      -0.330   3.024   0.354  1.00  0.00    +0.0391  H
ATOM     23 H43  170 L   1      -1.075   2.837   1.961  1.00  0.00    +0.0391  H
ATOM     24 H44  170 L   1      -1.775   3.924   0.743  1.00  0.00    +0.0391  H
ATOM     25 H45  170 L   1      -1.480   0.365   1.692  1.00  0.00    +0.0486  H
ATOM     26 H46  170 L   1       0.618   0.964   0.766  1.00  0.00    +0.0504  H
ATOM     27 H47  170 L   1       0.046   0.831  -0.905  1.00  0.00    +0.0504  H
ENDROOT
BRANCH 1 30
ATOM     28  C4  170 L   1       3.626  -0.824  -1.000  1.00  0.00    +0.2288  A
ATOM     29  N5  170 L   1       2.467  -0.242  -0.804  1.00  0.00    -0.1763 NA
ATOM     30  C6  170 L   1       1.709  -1.253  -0.268  1.00  0.00    +0.2664  A
ATOM     31 N20  170 L   1       2.374  -2.409  -0.128  1.00  0.00    -0.0375 NA
ATOM     32 O21  170 L   1       3.646  -2.129  -0.616  1.00  0.00    -0.3362 OA
BRANCH 28 33
ATOM     33  C3  170 L   1       4.878  -0.270  -1.563  1.00  0.00    +0.0263  C
ATOM     34 H27  170 L   1       4.645   0.596  -2.194  1.00  0.00    +0.0360  H
ATOM     35 H28  170 L   1       5.337  -1.021  -2.217  1.00  0.00    +0.0360  H
BRANCH 33 37
ATOM     36  C1  170 L   1       5.430   1.324   0.345  1.00  0.00    -0.0648  C
ATOM     37  C2  170 L   1       5.882   0.127  -0.481  1.00  0.00    -0.0474  C
ATOM     38 H22  170 L   1       6.213   1.606   1.057  1.00  0.00    +0.0230  H
ATOM     39 H23  170 L   1       4.525   1.099   0.916  1.00  0.00    +0.0230  H
ATOM     40 H24  170 L   1       5.228   2.189  -0.295  1.00  0.00    +0.0230  H
ATOM     41 H25  170 L   1       6.079  -0.720   0.187  1.00  0.00    +0.0267  H
ATOM     42 H26  170 L   1       6.834   0.380  -0.964  1.00  0.00    +0.0267  H
ENDBRANCH 33 37
ENDBRANCH 28 33
ENDBRANCH 1 30
BRANCH 4 43
ATOM     43 C11  170 L   1      -2.414  -0.485  -1.571  1.00  0.00    +0.0514  C
ATOM     44 O12  170 L   1      -3.339  -1.401  -2.157  1.00  0.00    -0.3944 OA
ATOM     45 H33  170 L   1      -2.681   0.522  -1.908  1.00  0.00    +0.0563  H
ATOM     46 H34  170 L   1      -1.435  -0.713  -2.003  1.00  0.00    +0.0563  H
ATOM     47 H35  170 L   1      -4.216  -0.985  -2.119  1.00  0.00    +0.2094 HD
ENDBRANCH 4 43
TORSDOF 4
