ROOT
ATOM      1  C1  LIG L   1      -8.252   2.999 -13.043  1.00  0.00    -0.0377  C
ATOM      2  C2  LIG L   1      -7.632   3.895 -12.033  1.00  0.00    -0.0265  A
ATOM      3  C3  LIG L   1      -8.410   4.844 -11.396  1.00  0.00    -0.0569  A
ATOM      4  C4  LIG L   1      -7.812   5.666 -10.461  1.00  0.00    -0.0608  A
ATOM      5  C5  LIG L   1      -6.470   5.554 -10.161  1.00  0.00    -0.0526  A
ATOM      6  C6  LIG L   1      -5.701   4.582 -10.821  1.00  0.00    -0.0009  A
ATOM      7  C7  LIG L   1      -4.353   4.445 -10.538  1.00  0.00    -0.0421  A
ATOM      8  C8  LIG L   1      -3.539   3.505 -11.150  1.00  0.00    +0.0449  A
ATOM      9 C32  LIG L   1      -4.195   2.704 -12.084  1.00  0.00    +0.2546  A
ATOM     10 O33  LIG L   1      -3.604   1.809 -12.728  1.00  0.00    -0.2675 OA
ATOM     11 N34  LIG L   1      -5.514   2.848 -12.353  1.00  0.00    -0.3216  N
ATOM     12 C35  LIG L   1      -6.295   3.761 -11.754  1.00  0.00    +0.0521  A
ATOM     13 H37  LIG L   1      -9.320   3.208 -13.169  1.00  0.00    +0.0278  H
ATOM     14 H38  LIG L   1      -8.168   1.949 -12.739  1.00  0.00    +0.0278  H
ATOM     15 H39  LIG L   1      -7.784   3.133 -14.025  1.00  0.00    +0.0278  H
ATOM     16 H40  LIG L   1      -9.468   4.955 -11.617  1.00  0.00    +0.0621  H
ATOM     17 H41  LIG L   1      -8.411   6.421  -9.955  1.00  0.00    +0.0618  H
ATOM     18 H42  LIG L   1      -6.029   6.220  -9.424  1.00  0.00    +0.0624  H
ATOM     19 H43  LIG L   1      -3.985   5.096  -9.755  1.00  0.00    +0.0629  H
ATOM     20 H64  LIG L   1      -5.864   2.217 -13.060  1.00  0.00    +0.1689 HD
ENDROOT
BRANCH 8 21
ATOM     21  C9  LIG L   1      -2.119   3.295 -10.822  1.00  0.00    +0.1112  C
ATOM     22 C36  LIG L   1      -1.677   4.782 -10.178  1.00  0.00    -0.0350  C
ATOM     23 H65  LIG L   1      -0.590   4.946 -10.214  1.00  0.00    +0.0255  H
ATOM     24 H66  LIG L   1      -2.091   5.627 -10.751  1.00  0.00    +0.0255  H
ATOM     25 H67  LIG L   1      -1.997   4.913  -9.137  1.00  0.00    +0.0255  H
BRANCH 21 26
ATOM     26 C10  LIG L   1      -1.312   3.395 -12.017  1.00  0.00    +0.1765  A
ATOM     27 N11  LIG L   1      -1.158   4.559 -12.730  1.00  0.00    -0.1111 NA
ATOM     28 N12  LIG L   1      -0.396   4.333 -13.740  1.00  0.00    -0.0229 NA
ATOM     29 N13  LIG L   1      -0.051   3.106 -13.724  1.00  0.00    -0.0433 NA
ATOM     30 N14  LIG L   1      -0.599   2.451 -12.653  1.00  0.00    -0.2218  N
BRANCH 30 31
ATOM     31 C15  LIG L   1      -0.344   1.092 -12.454  1.00  0.00    +0.0590  C
ATOM     32 C16  LIG L   1      -0.920   0.181 -11.540  1.00  0.00    -0.0401  C
ATOM     33 C17  LIG L   1       1.197   0.950 -12.351  1.00  0.00    -0.0401  C
ATOM     34 C18  LIG L   1      -0.623   0.436 -13.843  1.00  0.00    -0.0401  C
ATOM     35 H44  LIG L   1      -0.537   0.288 -10.524  1.00  0.00    +0.0253  H
ATOM     36 H45  LIG L   1      -2.011   0.256 -11.485  1.00  0.00    +0.0253  H
ATOM     37 H46  LIG L   1      -0.717  -0.876 -11.764  1.00  0.00    +0.0253  H
ATOM     38 H47  LIG L   1       1.506  -0.103 -12.303  1.00  0.00    +0.0253  H
ATOM     39 H48  LIG L   1       1.581   1.434 -11.446  1.00  0.00    +0.0253  H
ATOM     40 H49  LIG L   1       1.739   1.391 -13.197  1.00  0.00    +0.0253  H
ATOM     41 H50  LIG L   1      -0.056   0.880 -14.672  1.00  0.00    +0.0253  H
ATOM     42 H51  LIG L   1      -1.685   0.514 -14.107  1.00  0.00    +0.0253  H
ATOM     43 H52  LIG L   1      -0.366  -0.632 -13.863  1.00  0.00    +0.0253  H
ENDBRANCH 30 31
ENDBRANCH 21 26
BRANCH 21 44
ATOM     44 N19  LIG L   1      -1.805   2.368  -9.813  1.00  0.00    -0.2832 NA
ATOM     45 C20  LIG L   1      -2.774   2.284  -8.748  1.00  0.00    +0.0179  C
ATOM     46 C21  LIG L   1      -2.624   0.975  -7.955  1.00  0.00    +0.0344  C
ATOM     47 N22  LIG L   1      -1.213   0.722  -7.729  1.00  0.00    -0.3333  N
ATOM     48 C23  LIG L   1      -0.827  -0.519  -7.160  1.00  0.00    +0.2899  C
ATOM     49 O24  LIG L   1       0.406  -0.784  -6.944  1.00  0.00    -0.2640 OA
ATOM     50 C30  LIG L   1      -0.207   1.678  -8.057  1.00  0.00    +0.0344  C
ATOM     51 C31  LIG L   1      -0.484   2.559  -9.227  1.00  0.00    +0.0179  C
ATOM     52 H53  LIG L   1      -2.706   3.132  -8.053  1.00  0.00    +0.0444  H
ATOM     53 H54  LIG L   1      -3.812   2.251  -9.093  1.00  0.00    +0.0444  H
ATOM     54 H55  LIG L   1      -3.137   1.039  -6.990  1.00  0.00    +0.0501  H
ATOM     55 H56  LIG L   1      -3.044   0.137  -8.523  1.00  0.00    +0.0501  H
ATOM     56 H60  LIG L   1      -0.084   2.290  -7.153  1.00  0.00    +0.0501  H
ATOM     57 H61  LIG L   1       0.756   1.175  -8.206  1.00  0.00    +0.0501  H
ATOM     58 H62  LIG L   1      -0.306   3.559  -8.823  1.00  0.00    +0.0444  H
ATOM     59 H63  LIG L   1       0.303   2.417  -9.970  1.00  0.00    +0.0444  H
BRANCH 48 60
ATOM     60 C25  LIG L   1      -1.764  -1.568  -6.782  1.00  0.00    +0.1915  A
ATOM     61 C26  LIG L   1      -2.098  -1.810  -5.455  1.00  0.00    -0.0111  A
ATOM     62 C27  LIG L   1      -3.003  -2.865  -5.453  1.00  0.00    -0.0231  A
ATOM     63 C28  LIG L   1      -3.175  -3.213  -6.773  1.00  0.00    +0.0928  A
ATOM     64 O29  LIG L   1      -2.424  -2.420  -7.519  1.00  0.00    -0.4581 OA
ATOM     65 H57  LIG L   1      -1.700  -1.272  -4.605  1.00  0.00    +0.0657  H
ATOM     66 H58  LIG L   1      -3.480  -3.340  -4.606  1.00  0.00    +0.0649  H
ATOM     67 H59  LIG L   1      -3.762  -3.964  -7.282  1.00  0.00    +0.1029  H
ENDBRANCH 48 60
ENDBRANCH 21 44
ENDBRANCH 8 21
TORSDOF 5
