ROOT
ATOM      1  N1  502 L   1      -3.992   0.129   1.617  1.00  0.00    -0.3257 NA
ATOM      2  C2  502 L   1      -3.787  -0.333   0.239  1.00  0.00    +0.0242  C
ATOM      3  C3  502 L   1      -3.487   0.836  -0.705  1.00  0.00    -0.0183  C
ATOM      4  C4  502 L   1      -1.994   1.081  -0.525  1.00  0.00    +0.0227  C
ATOM      5  N5  502 L   1      -1.451  -0.220  -0.168  1.00  0.00    -0.3404  N
ATOM      6  C6  502 L   1      -0.121  -0.592  -0.134  1.00  0.00    +0.2279  C
ATOM      7  O7  502 L   1       0.211  -1.753   0.105  1.00  0.00    -0.2727 OA
ATOM      8 C16  502 L   1      -2.513  -1.184   0.100  1.00  0.00    +0.0364  C
ATOM      9 H17  502 L   1      -3.123   0.510   1.992  1.00  0.00    +0.1185 HD
ATOM     10 H18  502 L   1      -4.683   0.876   1.642  1.00  0.00    +0.1185 HD
ATOM     11 H19  502 L   1      -4.675  -0.891  -0.074  1.00  0.00    +0.0476  H
ATOM     12 H20  502 L   1      -3.685   0.523  -1.739  1.00  0.00    +0.0298  H
ATOM     13 H21  502 L   1      -4.086   1.732  -0.513  1.00  0.00    +0.0298  H
ATOM     14 H22  502 L   1      -1.522   1.467  -1.432  1.00  0.00    +0.0489  H
ATOM     15 H23  502 L   1      -1.796   1.769   0.303  1.00  0.00    +0.0489  H
ATOM     16 H30  502 L   1      -2.581  -1.850  -0.768  1.00  0.00    +0.0504  H
ATOM     17 H31  502 L   1      -2.282  -1.787   0.984  1.00  0.00    +0.0504  H
ENDROOT
BRANCH 6 18
ATOM     18  C8  502 L   1       0.885   0.515  -0.428  1.00  0.00    +0.0514  C
ATOM     19 H24  502 L   1       0.621   1.408   0.152  1.00  0.00    +0.0409  H
ATOM     20 H25  502 L   1       0.799   0.783  -1.488  1.00  0.00    +0.0409  H
BRANCH 18 21
ATOM     21  C9  502 L   1       2.319   0.154  -0.120  1.00  0.00    -0.0383  A
ATOM     22 C10  502 L   1       3.136  -0.421  -1.105  1.00  0.00    -0.0571  A
ATOM     23 C11  502 L   1       4.459  -0.762  -0.817  1.00  0.00    -0.0475  A
ATOM     24 C12  502 L   1       4.970  -0.536   0.459  1.00  0.00    +0.0179  A
ATOM     25 BR13 502 L   1       6.761  -0.998   0.849  1.00  0.00    -0.0503 Br
ATOM     26 C14  502 L   1       4.169   0.024   1.452  1.00  0.00    -0.0475  A
ATOM     27 C15  502 L   1       2.845   0.365   1.164  1.00  0.00    -0.0571  A
ATOM     28 H26  502 L   1       2.743  -0.617  -2.100  1.00  0.00    +0.0621  H
ATOM     29 H27  502 L   1       5.077  -1.209  -1.591  1.00  0.00    +0.0629  H
ATOM     30 H28  502 L   1       4.560   0.192   2.451  1.00  0.00    +0.0629  H
ATOM     31 H29  502 L   1       2.225   0.789   1.950  1.00  0.00    +0.0621  H
ENDBRANCH 18 21
ENDBRANCH 6 18
TORSDOF 2
