ROOT
ATOM      1 N12  369 L   1       2.474  -1.816  -0.490  1.00  0.00    -0.2609 NA
ATOM      2 C13  369 L   1       3.007  -0.643  -0.441  1.00  0.00    +0.1415  A
ATOM      3 C14  369 L   1       2.278   0.651  -0.221  1.00  0.00    -0.0149  A
ATOM      4 C15  369 L   1       2.987   1.748   0.084  1.00  0.00    -0.0141  A
ATOM      5 C16  369 L   1       4.395   1.682   0.199  1.00  0.00    +0.1521  A
ATOM      6 N17  369 L   1       5.279   2.580   0.580  1.00  0.00    -0.2347 NA
ATOM      7 C18  369 L   1       6.495   1.947   0.497  1.00  0.00    +0.0480  A
ATOM      8 C19  369 L   1       6.349   0.651   0.059  1.00  0.00    +0.0475  A
ATOM      9 N20  369 L   1       5.006   0.488  -0.126  1.00  0.00    -0.2414  N
ATOM     10 N21  369 L   1       4.377  -0.631  -0.604  1.00  0.00    -0.2756  N
ATOM     11 H37  369 L   1       1.201   0.687  -0.273  1.00  0.00    +0.0655  H
ATOM     12 H38  369 L   1       2.500   2.697   0.278  1.00  0.00    +0.0656  H
ATOM     13 H39  369 L   1       7.413   2.462   0.753  1.00  0.00    +0.0846  H
ATOM     14 H40  369 L   1       7.063  -0.134  -0.139  1.00  0.00    +0.0845  H
ATOM     15 H41  369 L   1       4.812  -1.512  -0.361  1.00  0.00    +0.1889 HD
ENDROOT
BRANCH 1 21
ATOM     16  C6  369 L   1      -1.832  -0.724   1.416  1.00  0.00    +0.2501  C
ATOM     17  O7  369 L   1      -1.599  -0.665   2.619  1.00  0.00    -0.2678 OA
ATOM     18  N8  369 L   1      -0.913  -1.147   0.483  1.00  0.00    -0.3365  N
ATOM     19  C9  369 L   1      -1.174  -1.506  -0.902  1.00  0.00    +0.0235  C
ATOM     20 C10  369 L   1       0.205  -1.669  -1.519  1.00  0.00    -0.0111  C
ATOM     21 C11  369 L   1       1.063  -2.159  -0.353  1.00  0.00    +0.0722  C
ATOM     22 C22  369 L   1       0.372  -1.669   0.923  1.00  0.00    +0.0439  C
ATOM     23 H32  369 L   1      -1.725  -2.454  -0.904  1.00  0.00    +0.0489  H
ATOM     24 H33  369 L   1      -1.770  -0.751  -1.419  1.00  0.00    +0.0489  H
ATOM     25 H34  369 L   1       0.553  -0.711  -1.918  1.00  0.00    +0.0303  H
ATOM     26 H35  369 L   1       0.198  -2.375  -2.355  1.00  0.00    +0.0303  H
ATOM     27 H36  369 L   1       1.009  -3.256  -0.345  1.00  0.00    +0.0563  H
ATOM     28 H42  369 L   1       0.193  -2.505   1.609  1.00  0.00    +0.0510  H
ATOM     29 H43  369 L   1       0.910  -0.901   1.484  1.00  0.00    +0.0510  H
BRANCH 16 31
ATOM     30  C3  369 L   1      -3.269   0.837   0.246  1.00  0.00    -0.0762  C
ATOM     31  C4  369 L   1      -3.177  -0.335   0.903  1.00  0.00    +0.0098  C
ATOM     32  C5  369 L   1      -4.285  -1.263   1.284  1.00  0.00    -0.0349  C
ATOM     33 H28  369 L   1      -2.362   1.426   0.106  1.00  0.00    +0.0576  H
ATOM     34 H29  369 L   1      -5.275  -0.832   1.115  1.00  0.00    +0.0279  H
ATOM     35 H30  369 L   1      -4.228  -1.518   2.348  1.00  0.00    +0.0279  H
ATOM     36 H31  369 L   1      -4.215  -2.190   0.706  1.00  0.00    +0.0279  H
BRANCH 30 38
ATOM     37  C1  369 L   1      -4.957   2.662   0.457  1.00  0.00    -0.0618  C
ATOM     38  C2  369 L   1      -4.509   1.447  -0.339  1.00  0.00    -0.0369  C
ATOM     39 H23  369 L   1      -5.210   2.388   1.487  1.00  0.00    +0.0233  H
ATOM     40 H24  369 L   1      -5.846   3.108  -0.002  1.00  0.00    +0.0233  H
ATOM     41 H25  369 L   1      -4.174   3.427   0.489  1.00  0.00    +0.0233  H
ATOM     42 H26  369 L   1      -5.330   0.726  -0.401  1.00  0.00    +0.0305  H
ATOM     43 H27  369 L   1      -4.292   1.749  -1.371  1.00  0.00    +0.0305  H
ENDBRANCH 30 38
ENDBRANCH 16 31
ENDBRANCH 1 21
TORSDOF 3
