ROOT
ATOM      1 C31  WH0 L   1      -1.687   2.476  -0.077  1.00  0.00    -0.0133  A
ATOM      2 C32  WH0 L   1      -1.898   3.327   1.034  1.00  0.00    -0.0519  A
ATOM      3 C33  WH0 L   1      -1.949   4.721   0.868  1.00  0.00    -0.0374  A
ATOM      4 C34  WH0 L   1      -1.784   5.241  -0.413  1.00  0.00    +0.0454  A
ATOM      5 C35  WH0 L   1      -1.568   4.423  -1.502  1.00  0.00    -0.0145  A
ATOM      6 C36  WH0 L   1      -1.512   3.037  -1.361  1.00  0.00    -0.0483  A
ATOM      7 C37  WH0 L   1      -1.406   5.234  -2.748  1.00  0.00    +0.0535  C
ATOM      8 C38  WH0 L   1      -1.577   6.612  -2.178  1.00  0.00    +0.2296  C
ATOM      9 O39  WH0 L   1      -1.530   7.669  -2.859  1.00  0.00    -0.2725 OA
ATOM     10 N40  WH0 L   1      -1.801   6.609  -0.773  1.00  0.00    -0.3256  N
ATOM     11 H64  WH0 L   1      -2.036   2.913   2.024  1.00  0.00    +0.0624  H
ATOM     12 H65  WH0 L   1      -2.112   5.374   1.716  1.00  0.00    +0.0638  H
ATOM     13 H66  WH0 L   1      -1.309   2.414  -2.223  1.00  0.00    +0.0627  H
ATOM     14 H67  WH0 L   1      -0.392   5.103  -3.182  1.00  0.00    +0.0410  H
ATOM     15 H68  WH0 L   1      -2.207   5.002  -3.482  1.00  0.00    +0.0410  H
ATOM     16 H69  WH0 L   1      -1.947   7.433  -0.147  1.00  0.00    +0.1686 HD
ENDROOT
BRANCH 1 25
ATOM     17 C16  WH0 L   1      -0.945   0.305   1.113  1.00  0.00    +0.1018  A
ATOM     18 N17  WH0 L   1      -1.118  -1.024   0.939  1.00  0.00    -0.1627 NA
ATOM     19 N18  WH0 L   1      -1.852  -1.179  -0.149  1.00  0.00    -0.1987  N
ATOM     20 C19  WH0 L   1      -2.279  -2.352  -0.697  1.00  0.00    +0.2283  A
ATOM     21 N26  WH0 L   1      -3.101  -2.290  -1.785  1.00  0.00    -0.2207 NA
ATOM     22 C27  WH0 L   1      -3.481  -1.094  -2.323  1.00  0.00    +0.0334  A
ATOM     23 C28  WH0 L   1      -3.023   0.109  -1.771  1.00  0.00    -0.0173  A
ATOM     24 C29  WH0 L   1      -2.180   0.015  -0.666  1.00  0.00    +0.0803  A
ATOM     25 C30  WH0 L   1      -1.611   1.011   0.109  1.00  0.00    +0.0353  A
ATOM     26 H62  WH0 L   1      -4.140  -1.076  -3.180  1.00  0.00    +0.0831  H
ATOM     27 H63  WH0 L   1      -3.337   1.060  -2.177  1.00  0.00    +0.0654  H
BRANCH 17 34
ATOM     28  C9  WH0 L   1       1.152   1.457   1.940  1.00  0.00    -0.0354  A
ATOM     29 C10  WH0 L   1       1.914   1.923   3.027  1.00  0.00    -0.0226  A
ATOM     30 C11  WH0 L   1       1.431   1.816   4.333  1.00  0.00    +0.1237  A
ATOM     31 F12  WH0 L   1       2.178   2.269   5.370  1.00  0.00    -0.2055  F
ATOM     32 C13  WH0 L   1       0.191   1.227   4.573  1.00  0.00    -0.0258  A
ATOM     33 C14  WH0 L   1      -0.574   0.745   3.510  1.00  0.00    -0.0495  A
ATOM     34 C15  WH0 L   1      -0.113   0.863   2.191  1.00  0.00    +0.0061  A
ATOM     35 H51  WH0 L   1       2.891   2.362   2.866  1.00  0.00    +0.0649  H
ATOM     36 H52  WH0 L   1      -0.175   1.137   5.587  1.00  0.00    +0.0646  H
ATOM     37 H53  WH0 L   1      -1.532   0.281   3.714  1.00  0.00    +0.0625  H
BRANCH 28 38
ATOM     38  C8  WH0 L   1       1.746   1.528   0.551  1.00  0.00    -0.0254  C
ATOM     39 H49  WH0 L   1       0.975   1.844  -0.178  1.00  0.00    +0.0314  H
ATOM     40 H50  WH0 L   1       2.542   2.304   0.515  1.00  0.00    +0.0314  H
BRANCH 38 41
ATOM     41  C7  WH0 L   1       2.341   0.177   0.136  1.00  0.00    -0.0315  C
ATOM     42 H47  WH0 L   1       3.172  -0.087   0.826  1.00  0.00    +0.0285  H
ATOM     43 H48  WH0 L   1       1.565  -0.616   0.209  1.00  0.00    +0.0285  H
BRANCH 41 44
ATOM     44  C6  WH0 L   1       2.858   0.227  -1.306  1.00  0.00    +0.0187  C
ATOM     45 H45  WH0 L   1       2.025   0.528  -1.980  1.00  0.00    +0.0486  H
ATOM     46 H46  WH0 L   1       3.667   0.984  -1.405  1.00  0.00    +0.0486  H
BRANCH 44 49
ATOM     47  C3  WH0 L   1       4.621  -1.604  -1.285  1.00  0.00    +0.2443  C
ATOM     48  O4  WH0 L   1       5.352  -0.926  -0.511  1.00  0.00    -0.2683 OA
ATOM     49  N5  WH0 L   1       3.354  -1.085  -1.719  1.00  0.00    -0.3525  N
ATOM     50 H44  WH0 L   1       2.792  -1.633  -2.409  1.00  0.00    +0.1626 HD
BRANCH 47 52
ATOM     51  C1  WH0 L   1       6.253  -3.441  -1.445  1.00  0.00    -0.0936  C
ATOM     52  C2  WH0 L   1       5.065  -2.928  -1.760  1.00  0.00    -0.0047  C
ATOM     53 H41  WH0 L   1       6.954  -2.904  -0.817  1.00  0.00    +0.0536  H
ATOM     54 H42  WH0 L   1       6.539  -4.415  -1.823  1.00  0.00    +0.0536  H
ATOM     55 H43  WH0 L   1       4.403  -3.499  -2.401  1.00  0.00    +0.0666  H
ENDBRANCH 47 52
ENDBRANCH 44 49
ENDBRANCH 41 44
ENDBRANCH 38 41
ENDBRANCH 28 38
ENDBRANCH 17 34
BRANCH 20 56
ATOM     56 N20  WH0 L   1      -1.879  -3.633  -0.169  1.00  0.00    -0.3359  N
ATOM     57 C21  WH0 L   1      -2.865  -4.712  -0.050  1.00  0.00    +0.0449  C
ATOM     58 C22  WH0 L   1      -2.182  -6.064  -0.278  1.00  0.00    +0.0653  C
ATOM     59 O23  WH0 L   1      -1.049  -6.202   0.561  1.00  0.00    -0.3763 OA
ATOM     60 C24  WH0 L   1      -0.068  -5.254   0.194  1.00  0.00    +0.0653  C
ATOM     61 C25  WH0 L   1      -0.563  -3.827   0.450  1.00  0.00    +0.0449  C
ATOM     62 H54  WH0 L   1      -3.682  -4.591  -0.792  1.00  0.00    +0.0511  H
ATOM     63 H55  WH0 L   1      -3.309  -4.687   0.968  1.00  0.00    +0.0511  H
ATOM     64 H56  WH0 L   1      -2.902  -6.872  -0.035  1.00  0.00    +0.0577  H
ATOM     65 H57  WH0 L   1      -1.907  -6.183  -1.351  1.00  0.00    +0.0577  H
ATOM     66 H58  WH0 L   1       0.840  -5.429   0.809  1.00  0.00    +0.0577  H
ATOM     67 H59  WH0 L   1       0.229  -5.378  -0.872  1.00  0.00    +0.0577  H
ATOM     68 H60  WH0 L   1       0.177  -3.119   0.022  1.00  0.00    +0.0511  H
ATOM     69 H61  WH0 L   1      -0.645  -3.659   1.546  1.00  0.00    +0.0511  H
ENDBRANCH 20 56
ENDBRANCH 1 25
TORSDOF 8
