ROOT
ATOM      1 C14  MCU L   1      -2.216  -0.638   0.229  1.00  0.00    +0.1842  A
ATOM      2 N15  MCU L   1      -1.809  -0.995  -1.029  1.00  0.00    -0.2066 NA
ATOM      3 C16  MCU L   1      -0.507  -1.293  -1.301  1.00  0.00    +0.1578  A
ATOM      4 C23  MCU L   1       0.401  -1.234  -0.246  1.00  0.00    +0.1078  A
ATOM      5 C24  MCU L   1       1.750  -1.527  -0.205  1.00  0.00    -0.0268  A
ATOM      6 C25  MCU L   1       2.135  -1.292   1.113  1.00  0.00    -0.0131  A
ATOM      7 C37  MCU L   1       1.008  -0.888   1.819  1.00  0.00    +0.0344  A
ATOM      8 N38  MCU L   1      -0.028  -0.867   0.967  1.00  0.00    -0.2341  N
ATOM      9 N39  MCU L   1      -1.295  -0.564   1.233  1.00  0.00    -0.1461 NA
ATOM     10 H55  MCU L   1       2.377  -1.872  -1.017  1.00  0.00    +0.0643  H
ATOM     11 H69  MCU L   1       0.952  -0.637   2.870  1.00  0.00    +0.0833  H
ENDROOT
BRANCH 1 15
ATOM     12  C6  MCU L   1      -6.279   0.564   0.813  1.00  0.00    +0.1364  A
ATOM     13  C7  MCU L   1      -5.668  -0.210   1.806  1.00  0.00    -0.0068  A
ATOM     14  C8  MCU L   1      -4.346  -0.667   1.642  1.00  0.00    +0.0704  A
ATOM     15 C13  MCU L   1      -3.634  -0.282   0.473  1.00  0.00    +0.0507  A
ATOM     16 C40  MCU L   1      -4.301   0.476  -0.502  1.00  0.00    +0.0412  A
ATOM     17 N41  MCU L   1      -5.583   0.876  -0.311  1.00  0.00    -0.2372 NA
ATOM     18 H46  MCU L   1      -6.230  -0.455   2.697  1.00  0.00    +0.0660  H
ATOM     19 H70  MCU L   1      -3.793   0.775  -1.410  1.00  0.00    +0.0837  H
BRANCH 12 22
ATOM     20  C3  MCU L   1      -8.342   1.847   0.060  1.00  0.00    +0.4140  C
ATOM     21  O4  MCU L   1      -7.761   2.323  -0.953  1.00  0.00    -0.2233 OA
ATOM     22  N5  MCU L   1      -7.638   1.005   0.983  1.00  0.00    -0.2761  N
ATOM     23 H45  MCU L   1      -8.164   0.683   1.828  1.00  0.00    +0.1734 HD
BRANCH 20 25
ATOM     24  C1  MCU L   1     -10.457   2.973  -0.559  1.00  0.00    +0.0835  C
ATOM     25  O2  MCU L   1      -9.687   2.142   0.301  1.00  0.00    -0.4518 OA
ATOM     26 H42  MCU L   1     -10.013   3.990  -0.603  1.00  0.00    +0.0661  H
ATOM     27 H43  MCU L   1     -11.490   3.049  -0.162  1.00  0.00    +0.0661  H
ATOM     28 H44  MCU L   1     -10.495   2.535  -1.579  1.00  0.00    +0.0661  H
ENDBRANCH 20 25
ENDBRANCH 12 22
BRANCH 14 29
ATOM     29  C9  MCU L   1      -3.728  -1.538   2.721  1.00  0.00    +0.4182  C
ATOM     30 F10  MCU L   1      -3.023  -2.585   2.154  1.00  0.00    -0.1659  F
ATOM     31 F11  MCU L   1      -4.697  -2.088   3.544  1.00  0.00    -0.1659  F
ATOM     32 F12  MCU L   1      -2.878  -0.776   3.500  1.00  0.00    -0.1659  F
ENDBRANCH 14 29
ENDBRANCH 1 15
BRANCH 3 33
ATOM     33 N17  MCU L   1      -0.107  -1.665  -2.628  1.00  0.00    -0.3498  N
ATOM     34 C18  MCU L   1       0.845  -0.831  -3.371  1.00  0.00    +0.0435  C
ATOM     35 C19  MCU L   1       1.667  -1.680  -4.370  1.00  0.00    +0.0653  C
ATOM     36 O20  MCU L   1       1.205  -3.015  -4.501  1.00  0.00    -0.3763 OA
ATOM     37 C21  MCU L   1      -0.197  -3.032  -4.667  1.00  0.00    +0.0653  C
ATOM     38 C22  MCU L   1      -0.870  -2.697  -3.334  1.00  0.00    +0.0435  C
ATOM     39 H47  MCU L   1       0.273  -0.059  -3.931  1.00  0.00    +0.0511  H
ATOM     40 H48  MCU L   1       1.530  -0.292  -2.682  1.00  0.00    +0.0511  H
ATOM     41 H49  MCU L   1       2.720  -1.718  -4.020  1.00  0.00    +0.0577  H
ATOM     42 H50  MCU L   1       1.681  -1.188  -5.369  1.00  0.00    +0.0577  H
ATOM     43 H51  MCU L   1      -0.523  -2.322  -5.462  1.00  0.00    +0.0577  H
ATOM     44 H52  MCU L   1      -0.510  -4.048  -4.989  1.00  0.00    +0.0577  H
ATOM     45 H53  MCU L   1      -0.900  -3.615  -2.707  1.00  0.00    +0.0511  H
ATOM     46 H54  MCU L   1      -1.911  -2.351  -3.512  1.00  0.00    +0.0511  H
ENDBRANCH 3 33
BRANCH 6 47
ATOM     47 C26  MCU L   1       3.528  -1.444   1.667  1.00  0.00    +0.0257  C
ATOM     48 H56  MCU L   1       4.075  -2.212   1.077  1.00  0.00    +0.0476  H
ATOM     49 H57  MCU L   1       3.463  -1.840   2.703  1.00  0.00    +0.0476  H
BRANCH 47 50
ATOM     50 N27  MCU L   1       4.304  -0.185   1.674  1.00  0.00    -0.2947 NA
ATOM     51 C28  MCU L   1       4.655   0.292   0.319  1.00  0.00    +0.0176  C
ATOM     52 C29  MCU L   1       5.133   1.759   0.327  1.00  0.00    +0.0419  C
ATOM     53 N30  MCU L   1       5.688   2.170   1.630  1.00  0.00    -0.2986 NA
ATOM     54 C35  MCU L   1       4.731   1.987   2.747  1.00  0.00    +0.0419  C
ATOM     55 C36  MCU L   1       3.697   0.874   2.493  1.00  0.00    +0.0176  C
ATOM     56 H58  MCU L   1       5.470  -0.349  -0.081  1.00  0.00    +0.0444  H
ATOM     57 H59  MCU L   1       3.794   0.216  -0.378  1.00  0.00    +0.0444  H
ATOM     58 H60  MCU L   1       4.266   2.418   0.095  1.00  0.00    +0.0508  H
ATOM     59 H61  MCU L   1       5.866   1.932  -0.488  1.00  0.00    +0.0508  H
ATOM     60 H65  MCU L   1       5.265   1.776   3.700  1.00  0.00    +0.0508  H
ATOM     61 H66  MCU L   1       4.188   2.943   2.906  1.00  0.00    +0.0508  H
ATOM     62 H67  MCU L   1       3.361   0.469   3.472  1.00  0.00    +0.0444  H
ATOM     63 H68  MCU L   1       2.811   1.305   1.974  1.00  0.00    +0.0444  H
BRANCH 53 64
ATOM     64 S31  MCU L   1       7.237   1.419   1.965  1.00  0.00    +0.2294  S
ATOM     65 C32  MCU L   1       8.342   1.570   0.575  1.00  0.00    +0.0573  C
ATOM     66 O33  MCU L   1       7.869   2.111   3.139  1.00  0.00    -0.2056 OA
ATOM     67 O34  MCU L   1       7.063  -0.037   2.296  1.00  0.00    -0.2056 OA
ATOM     68 H62  MCU L   1       9.370   1.300   0.891  1.00  0.00    +0.0407  H
ATOM     69 H63  MCU L   1       8.023   0.884  -0.236  1.00  0.00    +0.0407  H
ATOM     70 H64  MCU L   1       8.334   2.615   0.204  1.00  0.00    +0.0407  H
ENDBRANCH 53 64
ENDBRANCH 47 50
ENDBRANCH 6 47
TORSDOF 8
