ROOT
ATOM      1  N7  215 L   1      -1.650  -2.035   0.549  1.00  0.00    -0.2941 NA
ATOM      2  C8  215 L   1      -2.323  -2.191  -0.730  1.00  0.00    +0.0014  C
ATOM      3  C9  215 L   1      -1.880  -1.286  -1.884  1.00  0.00    -0.0166  C
ATOM      4 C10  215 L   1      -0.376  -1.237  -2.109  1.00  0.00    +0.0493  C
ATOM      5 O11  215 L   1       0.258  -0.518  -1.059  1.00  0.00    -0.3740 OA
ATOM      6 C12  215 L   1       0.795  -1.336  -0.014  1.00  0.00    +0.0840  C
ATOM      7 C20  215 L   1      -0.227  -2.357   0.557  1.00  0.00    +0.0268  C
ATOM      8 H28  215 L   1      -3.408  -2.097  -0.599  1.00  0.00    +0.0427  H
ATOM      9 H29  215 L   1      -2.186  -3.231  -1.056  1.00  0.00    +0.0427  H
ATOM     10 H30  215 L   1      -2.359  -1.650  -2.801  1.00  0.00    +0.0300  H
ATOM     11 H31  215 L   1      -2.253  -0.270  -1.724  1.00  0.00    +0.0300  H
ATOM     12 H32  215 L   1       0.060  -2.233  -2.246  1.00  0.00    +0.0560  H
ATOM     13 H33  215 L   1      -0.184  -0.676  -3.030  1.00  0.00    +0.0560  H
ATOM     14 H34  215 L   1       1.621  -1.917  -0.442  1.00  0.00    +0.0621  H
ATOM     15 H47  215 L   1      -0.102  -3.287  -0.016  1.00  0.00    +0.0452  H
ATOM     16 H48  215 L   1       0.071  -2.655   1.571  1.00  0.00    +0.0452  H
ENDROOT
BRANCH 1 17
ATOM     17  C6  215 L   1      -2.126  -1.062   1.518  1.00  0.00    +0.0407  C
ATOM     18 H26  215 L   1      -2.915  -1.553   2.103  1.00  0.00    +0.0491  H
ATOM     19 H27  215 L   1      -1.350  -0.827   2.256  1.00  0.00    +0.0491  H
BRANCH 17 24
ATOM     20  C1  215 L   1      -5.534   2.249   0.025  1.00  0.00    -0.0065  C
ATOM     21  C2  215 L   1      -4.194   1.692   0.322  1.00  0.00    +0.1041  A
ATOM     22  N3  215 L   1      -3.036   2.297   0.173  1.00  0.00    -0.2408 NA
ATOM     23  C4  215 L   1      -2.088   1.388   0.571  1.00  0.00    +0.0500  A
ATOM     24  C5  215 L   1      -2.672   0.206   0.973  1.00  0.00    +0.0497  A
ATOM     25 N21  215 L   1      -4.019   0.422   0.809  1.00  0.00    -0.3448  N
ATOM     26 H22  215 L   1      -5.451   3.273  -0.352  1.00  0.00    +0.0307  H
ATOM     27 H23  215 L   1      -6.041   1.646  -0.735  1.00  0.00    +0.0307  H
ATOM     28 H24  215 L   1      -6.152   2.267   0.927  1.00  0.00    +0.0307  H
ATOM     29 H25  215 L   1      -1.036   1.635   0.538  1.00  0.00    +0.0848  H
ATOM     30 H49  215 L   1      -4.756  -0.240   1.007  1.00  0.00    +0.1668 HD
ENDBRANCH 17 24
ENDBRANCH 1 17
BRANCH 6 31
ATOM     31 C13  215 L   1       1.370  -0.432   1.113  1.00  0.00    +0.0264  C
ATOM     32 H35  215 L   1       1.605  -1.060   1.982  1.00  0.00    +0.0452  H
ATOM     33 H36  215 L   1       0.590   0.255   1.457  1.00  0.00    +0.0452  H
BRANCH 31 34
ATOM     34 N14  215 L   1       2.576   0.377   0.842  1.00  0.00    -0.2998 NA
ATOM     35 C15  215 L   1       2.352   1.421  -0.166  1.00  0.00    -0.0010  C
ATOM     36 C16  215 L   1       3.555   2.365  -0.230  1.00  0.00    -0.0402  C
ATOM     37 C17  215 L   1       4.844   1.599  -0.513  1.00  0.00    -0.0507  C
ATOM     38 C18  215 L   1       5.009   0.444   0.469  1.00  0.00    -0.0402  C
ATOM     39 C19  215 L   1       3.755  -0.431   0.519  1.00  0.00    -0.0010  C
ATOM     40 H37  215 L   1       2.189   0.991  -1.161  1.00  0.00    +0.0426  H
ATOM     41 H38  215 L   1       1.467   2.014   0.092  1.00  0.00    +0.0426  H
ATOM     42 H39  215 L   1       3.652   2.905   0.721  1.00  0.00    +0.0278  H
ATOM     43 H40  215 L   1       3.394   3.118  -1.010  1.00  0.00    +0.0278  H
ATOM     44 H41  215 L   1       5.705   2.274  -0.449  1.00  0.00    +0.0266  H
ATOM     45 H42  215 L   1       4.818   1.206  -1.537  1.00  0.00    +0.0266  H
ATOM     46 H43  215 L   1       5.218   0.844   1.470  1.00  0.00    +0.0278  H
ATOM     47 H44  215 L   1       5.874  -0.164   0.182  1.00  0.00    +0.0278  H
ATOM     48 H45  215 L   1       3.905  -1.200   1.285  1.00  0.00    +0.0426  H
ATOM     49 H46  215 L   1       3.636  -0.945  -0.443  1.00  0.00    +0.0426  H
ENDBRANCH 31 34
ENDBRANCH 6 31
TORSDOF 4
