ROOT
ATOM      1  C9  238 L   1      -1.517  -0.686   0.297  1.00  0.00    -0.0198  C
ATOM      2 C10  238 L   1      -2.541  -1.510  -0.487  1.00  0.00    -0.0481  C
ATOM      3 C11  238 L   1      -3.412  -0.476  -1.190  1.00  0.00    -0.0496  C
ATOM      4 C12  238 L   1      -3.411   0.768  -0.290  1.00  0.00    -0.0379  C
ATOM      5 C13  238 L   1      -4.715   0.978   0.475  1.00  0.00    -0.0499  C
ATOM      6 C14  238 L   1      -4.580   0.089   1.698  1.00  0.00    -0.0525  C
ATOM      7 C15  238 L   1      -3.119   0.246   2.094  1.00  0.00    -0.0496  C
ATOM      8 C16  238 L   1      -2.341   0.516   0.793  1.00  0.00    -0.0338  C
ATOM      9 H27  238 L   1      -1.122  -1.271   1.137  1.00  0.00    +0.0321  H
ATOM     10 H28  238 L   1      -2.094  -2.212  -1.197  1.00  0.00    +0.0269  H
ATOM     11 H29  238 L   1      -3.152  -2.101   0.206  1.00  0.00    +0.0269  H
ATOM     12 H30  238 L   1      -2.963  -0.220  -2.158  1.00  0.00    +0.0268  H
ATOM     13 H31  238 L   1      -4.415  -0.863  -1.397  1.00  0.00    +0.0268  H
ATOM     14 H32  238 L   1      -3.181   1.654  -0.894  1.00  0.00    +0.0304  H
ATOM     15 H33  238 L   1      -4.791   2.026   0.791  1.00  0.00    +0.0268  H
ATOM     16 H34  238 L   1      -5.605   0.741  -0.116  1.00  0.00    +0.0268  H
ATOM     17 H35  238 L   1      -5.258   0.388   2.503  1.00  0.00    +0.0265  H
ATOM     18 H36  238 L   1      -4.801  -0.953   1.444  1.00  0.00    +0.0265  H
ATOM     19 H37  238 L   1      -2.751  -0.621   2.652  1.00  0.00    +0.0268  H
ATOM     20 H38  238 L   1      -3.019   1.118   2.753  1.00  0.00    +0.0268  H
ATOM     21 H39  238 L   1      -1.706   1.398   0.942  1.00  0.00    +0.0307  H
ENDROOT
BRANCH 1 22
ATOM     22  C8  238 L   1      -0.334  -0.220  -0.571  1.00  0.00    +0.0294  C
ATOM     23 H25  238 L   1       0.245   0.522  -0.011  1.00  0.00    +0.0495  H
ATOM     24 H26  238 L   1      -0.678   0.240  -1.503  1.00  0.00    +0.0495  H
BRANCH 22 25
ATOM     25  N7  238 L   1       0.528  -1.378  -0.885  1.00  0.00    -0.3101 NA
ATOM     26 H24  238 L   1       0.104  -2.055  -1.521  1.00  0.00    +0.1723 HD
BRANCH 25 27
ATOM     27  S4  238 L   1       2.083  -1.020  -1.440  1.00  0.00    +0.2620  S
ATOM     28  O5  238 L   1       2.679  -2.269  -1.854  1.00  0.00    -0.2002 OA
ATOM     29  O6  238 L   1       1.988   0.121  -2.322  1.00  0.00    -0.2002 OA
BRANCH 27 32
ATOM     30  C1  238 L   1       4.914   0.950  -1.228  1.00  0.00    -0.0214  C
ATOM     31  C2  238 L   1       4.171   0.300  -0.121  1.00  0.00    +0.0557  A
ATOM     32  C3  238 L   1       3.043  -0.500  -0.125  1.00  0.00    +0.1266  A
ATOM     33 C17  238 L   1       2.821  -0.849   1.213  1.00  0.00    +0.0696  A
ATOM     34 N18  238 L   1       3.713  -0.285   2.032  1.00  0.00    -0.1783 NA
ATOM     35 N19  238 L   1       4.521   0.407   1.203  1.00  0.00    -0.2703  N
ATOM     36 C20  238 L   1       5.629   1.150   1.761  1.00  0.00    +0.0305  C
ATOM     37 H21  238 L   1       4.583   1.986  -1.349  1.00  0.00    +0.0293  H
ATOM     38 H22  238 L   1       5.992   0.950  -1.041  1.00  0.00    +0.0293  H
ATOM     39 H23  238 L   1       4.751   0.426  -2.175  1.00  0.00    +0.0293  H
ATOM     40 H40  238 L   1       2.048  -1.481   1.631  1.00  0.00    +0.0861  H
ATOM     41 H41  238 L   1       5.669   2.133   1.284  1.00  0.00    +0.0473  H
ATOM     42 H42  238 L   1       5.479   1.273   2.836  1.00  0.00    +0.0473  H
ATOM     43 H43  238 L   1       6.545   0.588   1.569  1.00  0.00    +0.0473  H
ENDBRANCH 27 32
ENDBRANCH 25 27
ENDBRANCH 22 25
ENDBRANCH 1 22
TORSDOF 4
