ROOT
ATOM      1 C13  187 L   1      -3.375  -1.062  -0.262  1.00  0.00    +0.0859  C
ATOM      2 C14  187 L   1      -3.280  -0.845   1.230  1.00  0.00    -0.0274  C
ATOM      3 C15  187 L   1      -3.742   0.261   0.327  1.00  0.00    -0.0098  C
ATOM      4 C16  187 L   1      -3.097   1.586   0.168  1.00  0.00    -0.0461  C
ATOM      5 C17  187 L   1      -4.393   2.147   0.778  1.00  0.00    -0.0520  C
ATOM      6 C18  187 L   1      -5.101   0.860   0.326  1.00  0.00    -0.0461  C
ATOM      7 H29  187 L   1      -4.161  -1.697  -0.643  1.00  0.00    +0.0485  H
ATOM      8 H30  187 L   1      -4.015  -1.342   1.853  1.00  0.00    +0.0284  H
ATOM      9 H31  187 L   1      -2.309  -0.752   1.702  1.00  0.00    +0.0284  H
ATOM     10 H32  187 L   1      -2.928   1.890  -0.871  1.00  0.00    +0.0271  H
ATOM     11 H33  187 L   1      -2.198   1.792   0.754  1.00  0.00    +0.0271  H
ATOM     12 H34  187 L   1      -4.353   2.275   1.867  1.00  0.00    +0.0266  H
ATOM     13 H35  187 L   1      -4.763   3.073   0.329  1.00  0.00    +0.0266  H
ATOM     14 H36  187 L   1      -5.830   0.461   1.036  1.00  0.00    +0.0271  H
ATOM     15 H37  187 L   1      -5.561   0.922  -0.667  1.00  0.00    +0.0271  H
ENDROOT
BRANCH 1 16
ATOM     16 S10  187 L   1      -1.799  -1.152  -1.138  1.00  0.00    +0.2335  S
ATOM     17 O11  187 L   1      -1.437  -2.551  -1.169  1.00  0.00    -0.2052 OA
ATOM     18 O12  187 L   1      -1.961  -0.388  -2.355  1.00  0.00    -0.2052 OA
BRANCH 16 19
ATOM     19  N9  187 L   1      -0.602  -0.339  -0.258  1.00  0.00    -0.3110 NA
ATOM     20 H28  187 L   1      -0.296   0.457  -0.823  1.00  0.00    +0.1723 HD
BRANCH 19 23
ATOM     21  C6  187 L   1       2.598  -1.197   0.796  1.00  0.00    +0.0409  C
ATOM     22  C7  187 L   1       1.530  -0.150   1.191  1.00  0.00    -0.0206  C
ATOM     23  C8  187 L   1       0.492  -1.043   0.469  1.00  0.00    +0.0387  C
ATOM     24 C19  187 L   1       1.669  -1.587  -0.377  1.00  0.00    -0.0206  C
ATOM     25 H24  187 L   1       2.702  -2.000   1.538  1.00  0.00    +0.0397  H
ATOM     26 H25  187 L   1       1.371  -0.025   2.266  1.00  0.00    +0.0292  H
ATOM     27 H26  187 L   1       1.662   0.840   0.739  1.00  0.00    +0.0292  H
ATOM     28 H27  187 L   1       0.074  -1.804   1.143  1.00  0.00    +0.0529  H
ATOM     29 H38  187 L   1       1.626  -2.656  -0.603  1.00  0.00    +0.0292  H
ATOM     30 H39  187 L   1       1.836  -1.038  -1.311  1.00  0.00    +0.0292  H
BRANCH 21 35
ATOM     31  C1  187 L   1       6.097   1.303  -1.678  1.00  0.00    +0.0138  C
ATOM     32  C2  187 L   1       5.507   0.462  -0.624  1.00  0.00    +0.2143  A
ATOM     33  N3  187 L   1       6.070  -0.090   0.428  1.00  0.00    -0.1127 NA
ATOM     34  N4  187 L   1       5.072  -0.775   1.086  1.00  0.00    -0.1121 NA
ATOM     35  C5  187 L   1       3.968  -0.596   0.390  1.00  0.00    +0.2205  A
ATOM     36 O20  187 L   1       4.169   0.192  -0.715  1.00  0.00    -0.4247 OA
ATOM     37 H21  187 L   1       7.167   1.450  -1.501  1.00  0.00    +0.0324  H
ATOM     38 H22  187 L   1       5.616   2.285  -1.700  1.00  0.00    +0.0324  H
ATOM     39 H23  187 L   1       5.973   0.832  -2.658  1.00  0.00    +0.0324  H
ENDBRANCH 21 35
ENDBRANCH 19 23
ENDBRANCH 16 19
ENDBRANCH 1 16
TORSDOF 4
