ROOT
ATOM      1 C11  CHE L   1       0.767   0.684  -1.176  1.00  0.00    +0.0868  A
ATOM      2 C12  CHE L   1       0.135  -0.190  -2.069  1.00  0.00    -0.0415  A
ATOM      3 C13  CHE L   1      -1.135  -0.682  -1.769  1.00  0.00    -0.0570  A
ATOM      4 C14  CHE L   1      -1.774  -0.281  -0.591  1.00  0.00    -0.0414  A
ATOM      5 C15  CHE L   1      -1.141   0.605   0.299  1.00  0.00    -0.0291  A
ATOM      6 C16  CHE L   1       0.136   1.089   0.005  1.00  0.00    -0.0371  A
ATOM      7 C17  CHE L   1      -1.864   0.954   1.574  1.00  0.00    +0.0219  C
ATOM      8 N18  CHE L   1      -3.273   1.269   1.349  1.00  0.00    -0.3068 NA
ATOM      9 C19  CHE L   1      -3.986   0.343   0.444  1.00  0.00    +0.0350  C
ATOM     10 C22  CHE L   1      -3.138  -0.786  -0.199  1.00  0.00    -0.0098  C
ATOM     11 H28  CHE L   1       0.622  -0.483  -2.996  1.00  0.00    +0.0631  H
ATOM     12 H29  CHE L   1      -1.626  -1.364  -2.458  1.00  0.00    +0.0621  H
ATOM     13 H30  CHE L   1       0.630   1.779   0.686  1.00  0.00    +0.0634  H
ATOM     14 H31  CHE L   1      -1.392   1.822   2.047  1.00  0.00    +0.0474  H
ATOM     15 H32  CHE L   1      -1.772   0.114   2.274  1.00  0.00    +0.0474  H
ATOM     16 H33  CHE L   1      -3.750   1.369   2.242  1.00  0.00    +0.1226 HD
ATOM     17 H34  CHE L   1      -4.339   0.966  -0.389  1.00  0.00    +0.0486  H
ATOM     18 H38  CHE L   1      -3.003  -1.617   0.505  1.00  0.00    +0.0329  H
ATOM     19 H39  CHE L   1      -3.661  -1.179  -1.079  1.00  0.00    +0.0329  H
ENDROOT
BRANCH 1 21
ATOM     20  O1  CHE L   1       2.459   1.473  -3.002  1.00  0.00    -0.2003 OA
ATOM     21  S2  CHE L   1       2.387   1.297  -1.569  1.00  0.00    +0.2589  S
ATOM     22  O3  CHE L   1       2.710   2.359  -0.643  1.00  0.00    -0.2003 OA
BRANCH 21 23
ATOM     23  N4  CHE L   1       3.368  -0.020  -1.203  1.00  0.00    -0.3102 NA
ATOM     24 H23  CHE L   1       3.518  -0.638  -1.999  1.00  0.00    +0.1723 HD
BRANCH 23 25
ATOM     25  C5  CHE L   1       3.378  -0.560   0.156  1.00  0.00    +0.0345  C
ATOM     26 H24  CHE L   1       3.177   0.217   0.900  1.00  0.00    +0.0495  H
ATOM     27 H25  CHE L   1       2.576  -1.304   0.222  1.00  0.00    +0.0495  H
BRANCH 25 28
ATOM     28  C6  CHE L   1       4.700  -1.251   0.446  1.00  0.00    +0.0608  C
ATOM     29 H26  CHE L   1       5.036  -1.837  -0.417  1.00  0.00    +0.0369  H
ATOM     30 H27  CHE L   1       4.553  -1.955   1.274  1.00  0.00    +0.0369  H
BRANCH 28 31
ATOM     31  C7  CHE L   1       5.777  -0.274   0.854  1.00  0.00    +0.3918  C
ATOM     32  F8  CHE L   1       6.911  -0.945   1.163  1.00  0.00    -0.1707  F
ATOM     33  F9  CHE L   1       5.412   0.423   1.952  1.00  0.00    -0.1707  F
ATOM     34 F10  CHE L   1       6.079   0.599  -0.125  1.00  0.00    -0.1707  F
ENDBRANCH 28 31
ENDBRANCH 25 28
ENDBRANCH 23 25
ENDBRANCH 21 23
ENDBRANCH 1 21
BRANCH 9 35
ATOM     35 C20  CHE L   1      -5.239  -0.251   1.122  1.00  0.00    +0.0599  C
ATOM     36 O21  CHE L   1      -6.026  -0.998   0.201  1.00  0.00    -0.3935 OA
ATOM     37 H35  CHE L   1      -5.872   0.540   1.540  1.00  0.00    +0.0573  H
ATOM     38 H36  CHE L   1      -4.955  -0.919   1.942  1.00  0.00    +0.0573  H
ATOM     39 H37  CHE L   1      -6.386  -0.368  -0.449  1.00  0.00    +0.2095 HD
ENDBRANCH 9 35
TORSDOF 6
