ROOT
ATOM      1  C3  CHE L   1       4.123   0.431  -1.576  1.00  0.00    +0.2468  C
ATOM      2  O4  CHE L   1       4.855  -0.299  -2.241  1.00  0.00    -0.2681 OA
ATOM      3  N5  CHE L   1       3.043  -0.044  -0.845  1.00  0.00    -0.3387  N
ATOM      4  C6  CHE L   1       2.278   0.737   0.125  1.00  0.00    +0.0228  C
ATOM      5  C7  CHE L   1       1.636  -0.144   1.193  1.00  0.00    -0.0153  C
ATOM      6  C8  CHE L   1       0.686  -1.222   0.598  1.00  0.00    +0.0956  C
ATOM      7 C21  CHE L   1       1.195  -1.672  -0.804  1.00  0.00    -0.0153  C
ATOM      8 C22  CHE L   1       2.694  -1.457  -0.982  1.00  0.00    +0.0228  C
ATOM      9 H26  CHE L   1       2.938   1.460   0.614  1.00  0.00    +0.0489  H
ATOM     10 H27  CHE L   1       1.521   1.299  -0.433  1.00  0.00    +0.0489  H
ATOM     11 H28  CHE L   1       2.457  -0.634   1.739  1.00  0.00    +0.0296  H
ATOM     12 H29  CHE L   1       1.132   0.472   1.947  1.00  0.00    +0.0296  H
ATOM     13 H40  CHE L   1       0.950  -2.724  -0.999  1.00  0.00    +0.0296  H
ATOM     14 H41  CHE L   1       0.688  -1.096  -1.592  1.00  0.00    +0.0296  H
ATOM     15 H42  CHE L   1       3.275  -2.014  -0.240  1.00  0.00    +0.0489  H
ATOM     16 H43  CHE L   1       2.998  -1.821  -1.970  1.00  0.00    +0.0489  H
ENDROOT
BRANCH 1 18
ATOM     17  C1  CHE L   1       5.538   2.408  -1.933  1.00  0.00    -0.0936  C
ATOM     18  C2  CHE L   1       4.360   1.902  -1.545  1.00  0.00    -0.0045  C
ATOM     19 H23  CHE L   1       6.351   1.764  -2.260  1.00  0.00    +0.0536  H
ATOM     20 H24  CHE L   1       5.712   3.478  -1.938  1.00  0.00    +0.0536  H
ATOM     21 H25  CHE L   1       3.556   2.560  -1.248  1.00  0.00    +0.0666  H
ENDBRANCH 1 18
BRANCH 6 22
ATOM     22  C9  CHE L   1       0.749  -2.372   1.622  1.00  0.00    +0.3154  C
ATOM     23 O10  CHE L   1       0.142  -2.436   2.681  1.00  0.00    -0.2500 OA
ATOM     24 O11  CHE L   1       1.629  -3.346   1.315  1.00  0.00    -0.4800 OA
ATOM     25 H30  CHE L   1       1.568  -3.964   2.076  1.00  0.00    +0.2951 HD
ENDBRANCH 6 22
BRANCH 6 26
ATOM     26 C12  CHE L   1      -0.785  -0.781   0.421  1.00  0.00    -0.0303  A
ATOM     27 C13  CHE L   1      -1.750  -1.737   0.049  1.00  0.00    -0.0541  A
ATOM     28 C14  CHE L   1      -3.088  -1.382  -0.142  1.00  0.00    -0.0197  A
ATOM     29 C15  CHE L   1      -3.507  -0.064   0.023  1.00  0.00    +0.1205  A
ATOM     30 C19  CHE L   1      -2.569   0.896   0.390  1.00  0.00    -0.0197  A
ATOM     31 C20  CHE L   1      -1.224   0.542   0.582  1.00  0.00    -0.0541  A
ATOM     32 H31  CHE L   1      -1.473  -2.780  -0.096  1.00  0.00    +0.0622  H
ATOM     33 H32  CHE L   1      -3.811  -2.144  -0.424  1.00  0.00    +0.0654  H
ATOM     34 H38  CHE L   1      -2.843   1.933   0.544  1.00  0.00    +0.0654  H
ATOM     35 H39  CHE L   1      -0.543   1.340   0.863  1.00  0.00    +0.0622  H
BRANCH 29 36
ATOM     36 O16  CHE L   1      -4.840   0.140  -0.192  1.00  0.00    -0.4922 OA
BRANCH 36 37
ATOM     37 C17  CHE L   1      -5.354   1.469  -0.143  1.00  0.00    +0.0868  C
ATOM     38 C18  CHE L   1      -5.762   1.840   1.272  1.00  0.00    -0.0307  C
ATOM     39 H33  CHE L   1      -4.671   2.201  -0.588  1.00  0.00    +0.0694  H
ATOM     40 H34  CHE L   1      -6.251   1.477  -0.773  1.00  0.00    +0.0694  H
ATOM     41 H35  CHE L   1      -6.224   2.831   1.294  1.00  0.00    +0.0262  H
ATOM     42 H36  CHE L   1      -4.902   1.842   1.949  1.00  0.00    +0.0262  H
ATOM     43 H37  CHE L   1      -6.476   1.111   1.668  1.00  0.00    +0.0262  H
ENDBRANCH 36 37
ENDBRANCH 29 36
ENDBRANCH 6 26
TORSDOF 5
