ROOT
ATOM      1  C1  CHE L   1      -1.737   3.115  -0.313  1.00  0.00    -0.0202  C
ATOM      2  C2  CHE L   1      -2.927   2.216  -0.443  1.00  0.00    +0.0678  A
ATOM      3  N3  CHE L   1      -4.148   2.684  -0.794  1.00  0.00    -0.1758 NA
ATOM      4  N4  CHE L   1      -4.968   1.650  -0.901  1.00  0.00    -0.2460  N
ATOM      5  C5  CHE L   1      -4.277   0.535  -0.634  1.00  0.00    +0.2230  A
ATOM      6  C6  CHE L   1      -2.990   0.827  -0.303  1.00  0.00    +0.0525  A
ATOM      7  C7  CHE L   1      -1.979  -0.261   0.065  1.00  0.00    +0.0694  C
ATOM      8 C26  CHE L   1      -2.551  -1.653  -0.311  1.00  0.00    +0.1038  C
ATOM      9 C29  CHE L   1      -3.864  -1.847  -0.639  1.00  0.00    +0.2091  C
ATOM     10 N30  CHE L   1      -4.391  -3.156  -0.890  1.00  0.00    -0.3688  N
ATOM     11 O31  CHE L   1      -4.748  -0.763  -0.750  1.00  0.00    -0.4216 OA
ATOM     12 H32  CHE L   1      -0.788   2.548  -0.330  1.00  0.00    +0.0293  H
ATOM     13 H33  CHE L   1      -1.807   3.694   0.631  1.00  0.00    +0.0293  H
ATOM     14 H34  CHE L   1      -1.722   3.827  -1.163  1.00  0.00    +0.0293  H
ATOM     15 H35  CHE L   1      -5.969   1.712  -1.190  1.00  0.00    +0.1920 HD
ATOM     16 H51  CHE L   1      -5.398  -3.262  -1.140  1.00  0.00    +0.1588 HD
ATOM     17 H52  CHE L   1      -3.812  -4.023  -0.833  1.00  0.00    +0.1588 HD
ENDROOT
BRANCH 7 18
ATOM     18  C8  CHE L   1      -0.697  -0.074  -0.778  1.00  0.00    -0.0288  A
ATOM     19  C9  CHE L   1      -0.808   0.253  -2.150  1.00  0.00    -0.0399  A
ATOM     20 C10  CHE L   1       0.327   0.379  -2.959  1.00  0.00    +0.0532  A
ATOM     21 C13  CHE L   1       1.595   0.142  -2.424  1.00  0.00    -0.0289  A
ATOM     22 C14  CHE L   1       1.728  -0.240  -1.087  1.00  0.00    +0.0264  A
ATOM     23 C22  CHE L   1       0.593  -0.366  -0.276  1.00  0.00    -0.0419  A
ATOM     24 H36  CHE L   1      -1.783   0.408  -2.596  1.00  0.00    +0.0633  H
ATOM     25 H37  CHE L   1       2.475   0.237  -3.051  1.00  0.00    +0.0643  H
ATOM     26 H43  CHE L   1       0.738  -0.696   0.742  1.00  0.00    +0.0633  H
BRANCH 20 27
ATOM     27 C11  CHE L   1       0.187   0.741  -4.345  1.00  0.00    +0.0992  C
ATOM     28 N12  CHE L   1       0.074   1.032  -5.459  1.00  0.00    -0.1909 NA
ENDBRANCH 20 27
BRANCH 22 29
ATOM     29 C15  CHE L   1       3.033  -0.516  -0.547  1.00  0.00    -0.0662  C
ATOM     30 C16  CHE L   1       4.126  -0.745  -0.093  1.00  0.00    -0.0964  C
BRANCH 30 31
ATOM     31 C17  CHE L   1       5.456  -1.023   0.459  1.00  0.00    +0.0195  C
ATOM     32 H38  CHE L   1       5.338  -1.417   1.491  1.00  0.00    +0.0403  H
ATOM     33 H39  CHE L   1       5.948  -1.796  -0.168  1.00  0.00    +0.0403  H
BRANCH 31 34
ATOM     34 C18  CHE L   1       6.300   0.252   0.479  1.00  0.00    +0.0556  C
ATOM     35 H40  CHE L   1       5.800   1.029   1.098  1.00  0.00    +0.0387  H
ATOM     36 H41  CHE L   1       6.410   0.649  -0.554  1.00  0.00    +0.0387  H
BRANCH 34 37
ATOM     37 C19  CHE L   1       7.659  -0.031   1.037  1.00  0.00    +0.3056  C
ATOM     38 O20  CHE L   1       7.868   0.079   2.275  1.00  0.00    -0.2510 OA
ATOM     39 O21  CHE L   1       8.680  -0.457   0.194  1.00  0.00    -0.4806 OA
ATOM     40 H42  CHE L   1       9.601  -0.667   0.559  1.00  0.00    +0.2951 HD
ENDBRANCH 34 37
ENDBRANCH 31 34
ENDBRANCH 30 31
ENDBRANCH 22 29
ENDBRANCH 7 18
BRANCH 7 41
ATOM     41 C23  CHE L   1      -1.752  -0.248   1.634  1.00  0.00    -0.0279  C
ATOM     42 C24  CHE L   1      -1.116   1.045   2.179  1.00  0.00    -0.0612  C
ATOM     43 C25  CHE L   1      -3.045  -0.526   2.433  1.00  0.00    -0.0612  C
ATOM     44 H44  CHE L   1      -1.067  -1.081   1.899  1.00  0.00    +0.0311  H
ATOM     45 H45  CHE L   1      -1.850   1.875   2.181  1.00  0.00    +0.0233  H
ATOM     46 H46  CHE L   1      -0.221   1.346   1.604  1.00  0.00    +0.0233  H
ATOM     47 H47  CHE L   1      -0.791   0.886   3.230  1.00  0.00    +0.0233  H
ATOM     48 H48  CHE L   1      -3.469  -1.518   2.177  1.00  0.00    +0.0233  H
ATOM     49 H49  CHE L   1      -2.826  -0.539   3.522  1.00  0.00    +0.0233  H
ATOM     50 H50  CHE L   1      -3.810   0.255   2.243  1.00  0.00    +0.0233  H
ENDBRANCH 7 41
BRANCH 8 51
ATOM     51 C27  CHE L   1      -1.667  -2.797  -0.199  1.00  0.00    +0.1013  C
ATOM     52 N28  CHE L   1      -0.958  -3.708  -0.108  1.00  0.00    -0.1910 NA
ENDBRANCH 8 51
TORSDOF 8
