ROOT
ATOM      1  C1  CHE L   1       7.800   1.691   1.462  1.00  0.00    -0.0244  C
ATOM      2  C2  CHE L   1       6.673   0.975   0.785  1.00  0.00    +0.0162  A
ATOM      3  C3  CHE L   1       6.283  -0.270   1.098  1.00  0.00    -0.0393  A
ATOM      4  C4  CHE L   1       5.180  -0.914   0.397  1.00  0.00    -0.0388  A
ATOM      5  C5  CHE L   1       4.854  -2.301   0.878  1.00  0.00    -0.0392  C
ATOM      6  C6  CHE L   1       4.529  -0.260  -0.591  1.00  0.00    +0.0389  A
ATOM      7 C27  CHE L   1       4.953   1.141  -0.922  1.00  0.00    +0.2540  A
ATOM      8 O28  CHE L   1       4.373   1.809  -1.774  1.00  0.00    -0.2675 OA
ATOM      9 N29  CHE L   1       6.009   1.649  -0.210  1.00  0.00    -0.3262  N
ATOM     10 H30  CHE L   1       7.435   2.600   1.953  1.00  0.00    +0.0292  H
ATOM     11 H31  CHE L   1       8.281   1.067   2.224  1.00  0.00    +0.0292  H
ATOM     12 H32  CHE L   1       8.567   1.976   0.733  1.00  0.00    +0.0292  H
ATOM     13 H33  CHE L   1       6.789  -0.828   1.882  1.00  0.00    +0.0637  H
ATOM     14 H34  CHE L   1       4.755  -2.315   1.970  1.00  0.00    +0.0278  H
ATOM     15 H35  CHE L   1       3.913  -2.686   0.480  1.00  0.00    +0.0278  H
ATOM     16 H36  CHE L   1       5.650  -2.998   0.595  1.00  0.00    +0.0278  H
ATOM     17 H55  CHE L   1       6.278   2.596  -0.449  1.00  0.00    +0.1686 HD
ENDROOT
BRANCH 6 18
ATOM     18  C7  CHE L   1       3.421  -0.799  -1.445  1.00  0.00    +0.0491  C
ATOM     19 H37  CHE L   1       3.347  -1.888  -1.405  1.00  0.00    +0.0538  H
ATOM     20 H38  CHE L   1       3.583  -0.542  -2.499  1.00  0.00    +0.0538  H
BRANCH 18 21
ATOM     21  N8  CHE L   1       2.179  -0.185  -1.033  1.00  0.00    -0.3478  N
ATOM     22  C9  CHE L   1       1.128  -0.903  -0.519  1.00  0.00    +0.2527  C
ATOM     23 O10  CHE L   1       1.135  -2.119  -0.383  1.00  0.00    -0.2676 OA
ATOM     24 H39  CHE L   1       2.083   0.803  -1.242  1.00  0.00    +0.1630 HD
BRANCH 22 25
ATOM     25 C11  CHE L   1      -0.066  -0.104  -0.136  1.00  0.00    +0.0453  A
ATOM     26 C12  CHE L   1       0.072   1.172   0.432  1.00  0.00    -0.0316  A
ATOM     27 C13  CHE L   1      -1.067   1.907   0.803  1.00  0.00    +0.0544  A
ATOM     28 C16  CHE L   1      -2.352   1.377   0.616  1.00  0.00    -0.0208  A
ATOM     29 C17  CHE L   1      -2.494   0.108   0.070  1.00  0.00    +0.0433  A
ATOM     30 C18  CHE L   1      -1.351  -0.615  -0.302  1.00  0.00    -0.0102  A
ATOM     31 C19  CHE L   1      -1.768  -1.946  -0.837  1.00  0.00    -0.0073  C
ATOM     32 C20  CHE L   1      -3.261  -1.683  -1.081  1.00  0.00    +0.0230  C
ATOM     33 N21  CHE L   1      -3.681  -0.622  -0.145  1.00  0.00    -0.3670  N
ATOM     34 H40  CHE L   1       1.062   1.586   0.621  1.00  0.00    +0.0638  H
ATOM     35 H41  CHE L   1      -3.218   1.957   0.917  1.00  0.00    +0.0651  H
ATOM     36 H42  CHE L   1      -1.259  -2.222  -1.765  1.00  0.00    +0.0331  H
ATOM     37 H43  CHE L   1      -1.624  -2.722  -0.075  1.00  0.00    +0.0331  H
ATOM     38 H44  CHE L   1      -3.840  -2.601  -0.936  1.00  0.00    +0.0491  H
ATOM     39 H45  CHE L   1      -3.409  -1.346  -2.117  1.00  0.00    +0.0491  H
BRANCH 27 40
ATOM     40 C14  CHE L   1      -0.913   3.208   1.391  1.00  0.00    +0.0992  C
ATOM     41 N15  CHE L   1      -0.779   4.267   1.847  1.00  0.00    -0.1909 NA
ENDBRANCH 27 40
BRANCH 33 42
ATOM     42 C22  CHE L   1      -4.945   0.086  -0.350  1.00  0.00    +0.0300  C
ATOM     43 C23  CHE L   1      -5.634   0.407   0.978  1.00  0.00    -0.0325  C
ATOM     44 C24  CHE L   1      -7.065   0.739   0.574  1.00  0.00    -0.0511  C
ATOM     45 C25  CHE L   1      -7.346  -0.099  -0.670  1.00  0.00    -0.0511  C
ATOM     46 C26  CHE L   1      -6.022  -0.769  -1.029  1.00  0.00    -0.0325  C
ATOM     47 H46  CHE L   1      -4.795   0.999  -0.941  1.00  0.00    +0.0524  H
ATOM     48 H47  CHE L   1      -5.623  -0.467   1.641  1.00  0.00    +0.0285  H
ATOM     49 H48  CHE L   1      -5.177   1.235   1.522  1.00  0.00    +0.0285  H
ATOM     50 H49  CHE L   1      -7.775   0.544   1.382  1.00  0.00    +0.0266  H
ATOM     51 H50  CHE L   1      -7.144   1.805   0.322  1.00  0.00    +0.0266  H
ATOM     52 H51  CHE L   1      -7.691   0.544  -1.489  1.00  0.00    +0.0266  H
ATOM     53 H52  CHE L   1      -8.126  -0.847  -0.485  1.00  0.00    +0.0266  H
ATOM     54 H53  CHE L   1      -5.883  -0.834  -2.111  1.00  0.00    +0.0285  H
ATOM     55 H54  CHE L   1      -6.023  -1.792  -0.633  1.00  0.00    +0.0285  H
ENDBRANCH 33 42
ENDBRANCH 22 25
ENDBRANCH 18 21
ENDBRANCH 6 18
TORSDOF 5
