ROOT
ATOM      1  C8  375 L   1       0.854   1.988   1.120  1.00  0.00    +0.1129  C
ATOM      2  C9  375 L   1       1.415   2.852   2.255  1.00  0.00    -0.0220  C
ATOM      3 C10  375 L   1       0.643   2.374   3.481  1.00  0.00    -0.0329  C
ATOM      4 C11  375 L   1      -0.747   2.125   2.918  1.00  0.00    +0.0237  C
ATOM      5 N12  375 L   1      -0.515   1.686   1.553  1.00  0.00    -0.3129  N
ATOM      6 C13  375 L   1      -1.574   1.308   0.763  1.00  0.00    +0.3196  C
ATOM      7 O14  375 L   1      -2.732   1.326   1.171  1.00  0.00    -0.2473 OA
ATOM      8 N15  375 L   1      -1.238   0.936  -0.514  1.00  0.00    -0.3353  N
ATOM      9 H28  375 L   1       0.822   2.562   0.186  1.00  0.00    +0.0624  H
ATOM     10 H29  375 L   1       1.161   3.903   2.071  1.00  0.00    +0.0290  H
ATOM     11 H30  375 L   1       2.500   2.793   2.383  1.00  0.00    +0.0290  H
ATOM     12 H31  375 L   1       1.073   1.439   3.856  1.00  0.00    +0.0283  H
ATOM     13 H32  375 L   1       0.640   3.102   4.295  1.00  0.00    +0.0283  H
ATOM     14 H33  375 L   1      -1.309   1.372   3.479  1.00  0.00    +0.0489  H
ATOM     15 H34  375 L   1      -1.332   3.052   2.883  1.00  0.00    +0.0489  H
ATOM     16 H35  375 L   1      -0.348   0.453  -0.578  1.00  0.00    +0.1643 HD
ENDROOT
BRANCH 1 20
ATOM     17  C4  375 L   1       2.358  -1.118   0.180  1.00  0.00    +0.2659  A
ATOM     18  N5  375 L   1       3.099  -0.848   1.265  1.00  0.00    -0.0375 NA
ATOM     19  O6  375 L   1       2.591   0.357   1.733  1.00  0.00    -0.3340 OA
ATOM     20  C7  375 L   1       1.601   0.716   0.872  1.00  0.00    +0.2515  A
ATOM     21 N21  375 L   1       1.428  -0.150  -0.104  1.00  0.00    -0.1746 NA
BRANCH 17 23
ATOM     22  C1  375 L   1       3.613  -3.066  -0.495  1.00  0.00    +0.0097  C
ATOM     23  N2  375 L   1       2.443  -2.210  -0.623  1.00  0.00    -0.3440  N
ATOM     24  C3  375 L   1       1.786  -2.189  -1.918  1.00  0.00    +0.0097  C
ATOM     25 H22  375 L   1       3.768  -3.373   0.545  1.00  0.00    +0.0452  H
ATOM     26 H23  375 L   1       4.511  -2.553  -0.856  1.00  0.00    +0.0452  H
ATOM     27 H24  375 L   1       3.492  -3.985  -1.080  1.00  0.00    +0.0452  H
ATOM     28 H25  375 L   1       2.306  -1.512  -2.605  1.00  0.00    +0.0452  H
ATOM     29 H26  375 L   1       0.740  -1.874  -1.835  1.00  0.00    +0.0452  H
ATOM     30 H27  375 L   1       1.777  -3.188  -2.366  1.00  0.00    +0.0452  H
ENDBRANCH 17 23
ENDBRANCH 1 20
BRANCH 8 31
ATOM     31 C16  375 L   1      -2.254   0.447  -1.424  1.00  0.00    +0.0313  C
ATOM     32 C17  375 L   1      -2.684  -0.997  -1.122  1.00  0.00    -0.0325  C
ATOM     33 C18  375 L   1      -2.735  -1.717  -2.470  1.00  0.00    -0.0511  C
ATOM     34 C19  375 L   1      -2.655  -0.619  -3.519  1.00  0.00    -0.0511  C
ATOM     35 C20  375 L   1      -1.758   0.418  -2.867  1.00  0.00    -0.0325  C
ATOM     36 H36  375 L   1      -3.131   1.104  -1.352  1.00  0.00    +0.0523  H
ATOM     37 H37  375 L   1      -3.669  -1.003  -0.640  1.00  0.00    +0.0285  H
ATOM     38 H38  375 L   1      -1.991  -1.512  -0.445  1.00  0.00    +0.0285  H
ATOM     39 H39  375 L   1      -1.867  -2.384  -2.562  1.00  0.00    +0.0266  H
ATOM     40 H40  375 L   1      -3.637  -2.330  -2.580  1.00  0.00    +0.0266  H
ATOM     41 H41  375 L   1      -2.252  -0.981  -4.469  1.00  0.00    +0.0266  H
ATOM     42 H42  375 L   1      -3.650  -0.198  -3.705  1.00  0.00    +0.0266  H
ATOM     43 H43  375 L   1      -1.833   1.397  -3.350  1.00  0.00    +0.0285  H
ATOM     44 H44  375 L   1      -0.710   0.098  -2.919  1.00  0.00    +0.0285  H
ENDBRANCH 8 31
TORSDOF 3
