ROOT
ATOM      1  N8  188 L   1      -0.118  -0.186  -0.554  1.00  0.00    -0.2784  N
ATOM      2  C9  188 L   1      -1.014  -0.906   0.223  1.00  0.00    +0.0296  A
ATOM      3 C10  188 L   1      -2.295  -1.078  -0.105  1.00  0.00    +0.0247  A
ATOM      4 N11  188 L   1      -2.832  -0.540  -1.247  1.00  0.00    -0.3091  N
ATOM      5 C16  188 L   1      -2.061   0.232  -2.118  1.00  0.00    +0.3165  A
ATOM      6 O17  188 L   1      -2.507   0.771  -3.127  1.00  0.00    -0.2618 OA
ATOM      7 C18  188 L   1      -0.562   0.391  -1.772  1.00  0.00    +0.3206  A
ATOM      8 O19  188 L   1       0.141   0.972  -2.596  1.00  0.00    -0.2614 OA
ATOM      9 H29  188 L   1      -0.659  -1.315   1.163  1.00  0.00    +0.0829  H
ATOM     10 H30  188 L   1      -2.965  -1.640   0.541  1.00  0.00    +0.0825  H
ENDROOT
BRANCH 1 14
ATOM     11  C4  188 L   1       3.968   0.246   0.699  1.00  0.00    +0.1206  A
ATOM     12  C5  188 L   1       3.360   1.216  -0.095  1.00  0.00    -0.0180  A
ATOM     13  C6  188 L   1       2.030   1.077  -0.515  1.00  0.00    -0.0343  A
ATOM     14  C7  188 L   1       1.265  -0.038  -0.148  1.00  0.00    +0.0499  A
ATOM     15 C20  188 L   1       1.891  -1.003   0.660  1.00  0.00    -0.0343  A
ATOM     16 C21  188 L   1       3.225  -0.865   1.078  1.00  0.00    -0.0180  A
ATOM     17 H27  188 L   1       3.923   2.098  -0.395  1.00  0.00    +0.0655  H
ATOM     18 H28  188 L   1       1.613   1.886  -1.109  1.00  0.00    +0.0639  H
ATOM     19 H38  188 L   1       1.377  -1.914   0.953  1.00  0.00    +0.0639  H
ATOM     20 H39  188 L   1       3.644  -1.649   1.699  1.00  0.00    +0.0655  H
BRANCH 11 21
ATOM     21  O3  188 L   1       5.263   0.515   1.036  1.00  0.00    -0.4922 OA
BRANCH 21 23
ATOM     22  C1  188 L   1       5.900  -0.364   3.203  1.00  0.00    -0.0307  C
ATOM     23  C2  188 L   1       6.027  -0.493   1.695  1.00  0.00    +0.0868  C
ATOM     24 H22  188 L   1       6.187   0.642   3.527  1.00  0.00    +0.0262  H
ATOM     25 H23  188 L   1       6.541  -1.092   3.709  1.00  0.00    +0.0262  H
ATOM     26 H24  188 L   1       4.869  -0.520   3.533  1.00  0.00    +0.0262  H
ATOM     27 H25  188 L   1       7.074  -0.317   1.421  1.00  0.00    +0.0694  H
ATOM     28 H26  188 L   1       5.791  -1.502   1.340  1.00  0.00    +0.0694  H
ENDBRANCH 21 23
ENDBRANCH 11 21
ENDBRANCH 1 14
BRANCH 4 29
ATOM     29 C12  188 L   1      -4.253  -0.716  -1.532  1.00  0.00    +0.0292  C
ATOM     30 H31  188 L   1      -4.431  -0.608  -2.609  1.00  0.00    +0.0495  H
ATOM     31 H32  188 L   1      -4.544  -1.738  -1.263  1.00  0.00    +0.0495  H
BRANCH 29 32
ATOM     32 C13  188 L   1      -5.075   0.270  -0.751  1.00  0.00    -0.0229  C
ATOM     33 C14  188 L   1      -6.421   0.711  -1.268  1.00  0.00    -0.0483  C
ATOM     34 C15  188 L   1      -5.271   1.679  -1.250  1.00  0.00    -0.0483  C
ATOM     35 H33  188 L   1      -4.985   0.123   0.319  1.00  0.00    +0.0318  H
ATOM     36 H34  188 L   1      -7.219   0.862  -0.549  1.00  0.00    +0.0269  H
ATOM     37 H35  188 L   1      -6.759   0.351  -2.233  1.00  0.00    +0.0269  H
ATOM     38 H36  188 L   1      -5.287   2.480  -0.519  1.00  0.00    +0.0269  H
ATOM     39 H37  188 L   1      -4.832   1.962  -2.202  1.00  0.00    +0.0269  H
ENDBRANCH 29 32
ENDBRANCH 4 29
TORSDOF 5
