ROOT
ATOM      1  C1  SEL L   1      -0.229  -3.994  -0.272  1.00  0.00    +0.0145  C
ATOM      2  C2  SEL L   1       1.203  -3.585  -0.514  1.00  0.00    +0.2214  C
ATOM      3  O3  SEL L   1       2.021  -4.482  -0.741  1.00  0.00    -0.2733 OA
ATOM      4  N4  SEL L   1       1.584  -2.247  -0.513  1.00  0.00    -0.3244  N
ATOM      5  C5  SEL L   1       3.028  -2.007  -0.686  1.00  0.00    +0.1008  C
ATOM      6  C6  SEL L   1       3.611  -0.786   0.043  1.00  0.00    +0.2474  C
ATOM      7  O7  SEL L   1       4.776  -0.809   0.439  1.00  0.00    -0.2707 OA
ATOM      8  N8  SEL L   1       2.778   0.345   0.053  1.00  0.00    -0.3070  N
ATOM      9 C15  SEL L   1       1.533   0.254  -0.705  1.00  0.00    +0.0516  C
ATOM     10 C16  SEL L   1       0.724  -1.039  -0.361  1.00  0.00    +0.0813  C
ATOM     11 C17  SEL L   1       0.166  -0.917   1.078  1.00  0.00    -0.0084  C
ATOM     12 C18  SEL L   1      -1.173  -0.214   0.915  1.00  0.00    +0.0238  C
ATOM     13 N19  SEL L   1      -1.641  -0.599  -0.406  1.00  0.00    -0.3358  N
ATOM     14 C20  SEL L   1      -2.837  -0.210  -1.000  1.00  0.00    +0.2580  C
ATOM     15 O21  SEL L   1      -2.978  -0.250  -2.221  1.00  0.00    -0.2673 OA
ATOM     16 C28  SEL L   1      -0.538  -1.017  -1.261  1.00  0.00    +0.0466  C
ATOM     17 H29  SEL L   1      -0.230  -4.879   0.372  1.00  0.00    +0.0325  H
ATOM     18 H30  SEL L   1      -0.838  -3.246   0.223  1.00  0.00    +0.0325  H
ATOM     19 H31  SEL L   1      -0.689  -4.257  -1.229  1.00  0.00    +0.0325  H
ATOM     20 H32  SEL L   1       3.601  -2.877  -0.346  1.00  0.00    +0.0587  H
ATOM     21 H33  SEL L   1       3.211  -1.881  -1.760  1.00  0.00    +0.0587  H
ATOM     22 H38  SEL L   1       0.894   1.123  -0.521  1.00  0.00    +0.0517  H
ATOM     23 H39  SEL L   1       1.808   0.258  -1.768  1.00  0.00    +0.0517  H
ATOM     24 H40  SEL L   1       0.014  -1.896   1.543  1.00  0.00    +0.0306  H
ATOM     25 H41  SEL L   1       0.823  -0.367   1.760  1.00  0.00    +0.0306  H
ATOM     26 H42  SEL L   1      -1.870  -0.509   1.699  1.00  0.00    +0.0489  H
ATOM     27 H43  SEL L   1      -1.062   0.876   0.933  1.00  0.00    +0.0489  H
ATOM     28 H49  SEL L   1      -0.796  -1.975  -1.715  1.00  0.00    +0.0512  H
ATOM     29 H50  SEL L   1      -0.440  -0.306  -2.091  1.00  0.00    +0.0512  H
ENDROOT
BRANCH 8 30
ATOM     30  C9  SEL L   1       3.180   1.593   0.638  1.00  0.00    +0.0628  A
ATOM     31 C10  SEL L   1       4.113   1.657   1.678  1.00  0.00    -0.0352  A
ATOM     32 C11  SEL L   1       4.466   2.883   2.247  1.00  0.00    -0.0416  A
ATOM     33 C12  SEL L   1       3.869   4.031   1.764  1.00  0.00    +0.0277  A
ATOM     34 N13  SEL L   1       2.963   4.030   0.768  1.00  0.00    -0.2612 NA
ATOM     35 C14  SEL L   1       2.652   2.822   0.230  1.00  0.00    +0.0511  A
ATOM     36 H34  SEL L   1       4.571   0.762   2.089  1.00  0.00    +0.0639  H
ATOM     37 H35  SEL L   1       5.190   2.931   3.053  1.00  0.00    +0.0633  H
ATOM     38 H36  SEL L   1       4.110   5.007   2.176  1.00  0.00    +0.0829  H
ATOM     39 H37  SEL L   1       1.956   2.909  -0.597  1.00  0.00    +0.0850  H
ENDBRANCH 8 30
BRANCH 14 40
ATOM     40 C22  SEL L   1      -3.906   0.274  -0.141  1.00  0.00    +0.0797  A
ATOM     41 C23  SEL L   1      -4.409  -0.243   1.090  1.00  0.00    -0.0113  A
ATOM     42 C24  SEL L   1      -5.450   0.572   1.465  1.00  0.00    +0.0928  A
ATOM     43 O25  SEL L   1      -5.645   1.545   0.542  1.00  0.00    -0.4673 OA
ATOM     44 C26  SEL L   1      -4.724   1.352  -0.443  1.00  0.00    +0.1141  A
ATOM     45 C27  SEL L   1      -4.784   2.292  -1.583  1.00  0.00    -0.0056  C
ATOM     46 H44  SEL L   1      -4.072  -1.118   1.626  1.00  0.00    +0.0657  H
ATOM     47 H45  SEL L   1      -6.130   0.583   2.306  1.00  0.00    +0.1029  H
ATOM     48 H46  SEL L   1      -5.312   1.833  -2.424  1.00  0.00    +0.0308  H
ATOM     49 H47  SEL L   1      -5.310   3.211  -1.309  1.00  0.00    +0.0308  H
ATOM     50 H48  SEL L   1      -3.779   2.567  -1.915  1.00  0.00    +0.0308  H
ENDBRANCH 14 40
TORSDOF 2
