ROOT
ATOM      1 C33  WH0 L   1      -1.898   2.111  -0.611  1.00  0.00    -0.0133  A
ATOM      2 C34  WH0 L   1      -0.808   2.972  -0.873  1.00  0.00    -0.0519  A
ATOM      3 C35  WH0 L   1      -1.006   4.337  -1.107  1.00  0.00    -0.0374  A
ATOM      4 C36  WH0 L   1      -2.302   4.801  -1.073  1.00  0.00    +0.0454  A
ATOM      5 C37  WH0 L   1      -3.389   3.970  -0.815  1.00  0.00    -0.0145  A
ATOM      6 C38  WH0 L   1      -3.207   2.620  -0.577  1.00  0.00    -0.0483  A
ATOM      7 C39  WH0 L   1      -4.653   4.777  -0.849  1.00  0.00    +0.0535  C
ATOM      8 C40  WH0 L   1      -4.127   6.183  -1.160  1.00  0.00    +0.2296  C
ATOM      9 O41  WH0 L   1      -4.792   7.198  -1.285  1.00  0.00    -0.2725 OA
ATOM     10 N42  WH0 L   1      -2.745   6.097  -1.275  1.00  0.00    -0.3256  N
ATOM     11 H65  WH0 L   1       0.205   2.576  -0.904  1.00  0.00    +0.0624  H
ATOM     12 H66  WH0 L   1      -0.169   4.995  -1.308  1.00  0.00    +0.0638  H
ATOM     13 H67  WH0 L   1      -4.056   1.977  -0.364  1.00  0.00    +0.0627  H
ATOM     14 H68  WH0 L   1      -5.314   4.447  -1.653  1.00  0.00    +0.0410  H
ATOM     15 H69  WH0 L   1      -5.152   4.777   0.123  1.00  0.00    +0.0410  H
ATOM     16 H70  WH0 L   1      -2.166   6.897  -1.479  1.00  0.00    +0.1686 HD
ENDROOT
BRANCH 1 25
ATOM     17 C18  WH0 L   1      -0.821   0.044   0.597  1.00  0.00    +0.1018  A
ATOM     18 N19  WH0 L   1      -0.916  -1.290   0.489  1.00  0.00    -0.1627 NA
ATOM     19 N20  WH0 L   1      -1.751  -1.499  -0.557  1.00  0.00    -0.1987  N
ATOM     20 C21  WH0 L   1      -2.084  -2.795  -1.068  1.00  0.00    +0.2283  A
ATOM     21 N28  WH0 L   1      -2.875  -2.859  -2.118  1.00  0.00    -0.2207 NA
ATOM     22 C29  WH0 L   1      -3.347  -1.686  -2.660  1.00  0.00    +0.0334  A
ATOM     23 C30  WH0 L   1      -3.072  -0.451  -2.215  1.00  0.00    -0.0173  A
ATOM     24 C31  WH0 L   1      -2.218  -0.322  -1.098  1.00  0.00    +0.0803  A
ATOM     25 C32  WH0 L   1      -1.663   0.701  -0.357  1.00  0.00    +0.0353  A
ATOM     26 H63  WH0 L   1      -3.994  -1.809  -3.527  1.00  0.00    +0.0831  H
ATOM     27 H64  WH0 L   1      -3.479   0.424  -2.710  1.00  0.00    +0.0654  H
BRANCH 17 34
ATOM     28 C11  WH0 L   1       1.409   0.308   1.764  1.00  0.00    -0.0354  A
ATOM     29 C12  WH0 L   1       2.157   0.933   2.780  1.00  0.00    -0.0226  A
ATOM     30 C13  WH0 L   1       1.571   1.879   3.615  1.00  0.00    +0.1237  A
ATOM     31 F14  WH0 L   1       2.311   2.469   4.564  1.00  0.00    -0.2055  F
ATOM     32 C15  WH0 L   1       0.236   2.222   3.476  1.00  0.00    -0.0258  A
ATOM     33 C16  WH0 L   1      -0.528   1.605   2.485  1.00  0.00    -0.0495  A
ATOM     34 C17  WH0 L   1       0.041   0.649   1.619  1.00  0.00    +0.0061  A
ATOM     35 H52  WH0 L   1       3.205   0.691   2.934  1.00  0.00    +0.0649  H
ATOM     36 H53  WH0 L   1      -0.205   2.960   4.139  1.00  0.00    +0.0646  H
ATOM     37 H54  WH0 L   1      -1.580   1.872   2.399  1.00  0.00    +0.0625  H
BRANCH 28 38
ATOM     38 C10  WH0 L   1       2.128  -0.683   0.869  1.00  0.00    -0.0254  C
ATOM     39 H50  WH0 L   1       1.552  -1.613   0.814  1.00  0.00    +0.0314  H
ATOM     40 H51  WH0 L   1       3.072  -0.989   1.340  1.00  0.00    +0.0314  H
BRANCH 38 41
ATOM     41  C9  WH0 L   1       2.414  -0.166  -0.547  1.00  0.00    -0.0315  C
ATOM     42 H48  WH0 L   1       1.482   0.139  -1.035  1.00  0.00    +0.0285  H
ATOM     43 H49  WH0 L   1       2.815  -0.998  -1.139  1.00  0.00    +0.0285  H
BRANCH 41 44
ATOM     44  C8  WH0 L   1       3.394   1.009  -0.601  1.00  0.00    +0.0187  C
ATOM     45 H46  WH0 L   1       3.031   1.859  -0.014  1.00  0.00    +0.0486  H
ATOM     46 H47  WH0 L   1       3.494   1.344  -1.639  1.00  0.00    +0.0486  H
BRANCH 44 49
ATOM     47  C5  WH0 L   1       5.614  -0.036  -0.876  1.00  0.00    +0.2618  C
ATOM     48  O6  WH0 L   1       5.382  -0.396  -2.024  1.00  0.00    -0.2669 OA
ATOM     49  N7  WH0 L   1       4.714   0.669  -0.106  1.00  0.00    -0.3514  N
ATOM     50 H45  WH0 L   1       4.919   0.857   0.867  1.00  0.00    +0.1626 HD
BRANCH 47 52
ATOM     51  C1  WH0 L   1       7.512   0.487   0.621  1.00  0.00    -0.0760  C
ATOM     52  C2  WH0 L   1       6.899  -0.382  -0.203  1.00  0.00    +0.1085  C
ATOM     53 H43  WH0 L   1       8.464   0.241   1.085  1.00  0.00    +0.0549  H
ATOM     54 H44  WH0 L   1       7.116   1.475   0.826  1.00  0.00    +0.0549  H
BRANCH 52 55
ATOM     55  C3  WH0 L   1       7.498  -1.633  -0.521  1.00  0.00    +0.1040  C
ATOM     56  N4  WH0 L   1       8.025  -2.648  -0.732  1.00  0.00    -0.1907 NA
ENDBRANCH 52 55
ENDBRANCH 47 52
ENDBRANCH 44 49
ENDBRANCH 41 44
ENDBRANCH 38 41
ENDBRANCH 28 38
ENDBRANCH 17 34
BRANCH 20 57
ATOM     57 N22  WH0 L   1      -1.578  -3.968  -0.483  1.00  0.00    -0.3359  N
ATOM     58 C23  WH0 L   1      -1.439  -4.066   0.990  1.00  0.00    +0.0449  C
ATOM     59 C24  WH0 L   1      -1.365  -5.527   1.465  1.00  0.00    +0.0653  C
ATOM     60 O25  WH0 L   1      -2.476  -6.326   1.032  1.00  0.00    -0.3763 OA
ATOM     61 C26  WH0 L   1      -2.905  -6.025  -0.307  1.00  0.00    +0.0653  C
ATOM     62 C27  WH0 L   1      -1.856  -5.268  -1.127  1.00  0.00    +0.0449  C
ATOM     63 H55  WH0 L   1      -2.314  -3.598   1.459  1.00  0.00    +0.0511  H
ATOM     64 H56  WH0 L   1      -0.530  -3.557   1.323  1.00  0.00    +0.0511  H
ATOM     65 H57  WH0 L   1      -1.344  -5.562   2.559  1.00  0.00    +0.0577  H
ATOM     66 H58  WH0 L   1      -0.442  -6.003   1.111  1.00  0.00    +0.0577  H
ATOM     67 H59  WH0 L   1      -3.156  -6.974  -0.791  1.00  0.00    +0.0577  H
ATOM     68 H60  WH0 L   1      -3.826  -5.438  -0.229  1.00  0.00    +0.0577  H
ATOM     69 H61  WH0 L   1      -2.190  -5.161  -2.165  1.00  0.00    +0.0511  H
ATOM     70 H62  WH0 L   1      -0.921  -5.840  -1.165  1.00  0.00    +0.0511  H
ENDBRANCH 20 57
ENDBRANCH 1 25
TORSDOF 9
