ROOT
ATOM      1  C8  371 L   1      -1.646  -0.902  -0.240  1.00  0.00    +0.0848  C
ATOM      2  C9  371 L   1      -2.143  -2.217   0.409  1.00  0.00    +0.0724  C
ATOM      3 O10  371 L   1      -1.539  -3.398  -0.143  1.00  0.00    -0.3757 OA
ATOM      4 C11  371 L   1      -0.162  -3.229  -0.502  1.00  0.00    +0.0654  C
ATOM      5 C12  371 L   1       0.519  -2.028   0.168  1.00  0.00    +0.0457  C
ATOM      6 N13  371 L   1      -0.180  -0.788  -0.185  1.00  0.00    -0.3243  N
ATOM      7 C14  371 L   1       0.427   0.194  -0.963  1.00  0.00    +0.2896  C
ATOM      8 O15  371 L   1      -0.175   0.820  -1.835  1.00  0.00    -0.2640 OA
ATOM      9 H29  371 L   1      -1.916  -0.933  -1.304  1.00  0.00    +0.0599  H
ATOM     10 H30  371 L   1      -1.952  -2.230   1.488  1.00  0.00    +0.0584  H
ATOM     11 H31  371 L   1      -3.227  -2.318   0.284  1.00  0.00    +0.0584  H
ATOM     12 H32  371 L   1       0.362  -4.154  -0.241  1.00  0.00    +0.0577  H
ATOM     13 H33  371 L   1      -0.122  -3.125  -1.592  1.00  0.00    +0.0577  H
ATOM     14 H34  371 L   1       1.565  -2.009  -0.148  1.00  0.00    +0.0511  H
ATOM     15 H35  371 L   1       0.479  -2.123   1.258  1.00  0.00    +0.0511  H
ENDROOT
BRANCH 1 22
ATOM     16  C1  371 L   1      -0.963   0.487   2.687  1.00  0.00    -0.0203  C
ATOM     17  C2  371 L   1      -1.996   0.876   1.694  1.00  0.00    +0.0652  A
ATOM     18  N3  371 L   1      -2.796   1.917   1.955  1.00  0.00    -0.1786 NA
ATOM     19  N4  371 L   1      -3.551   2.035   0.856  1.00  0.00    -0.2813  N
ATOM     20  C5  371 L   1      -3.305   1.077  -0.084  1.00  0.00    +0.0384  A
ATOM     21  C6  371 L   1      -4.039   1.028  -1.370  1.00  0.00    -0.0226  C
ATOM     22  C7  371 L   1      -2.283   0.290   0.424  1.00  0.00    +0.0202  A
ATOM     23 H22  371 L   1      -0.972  -0.592   2.862  1.00  0.00    +0.0293  H
ATOM     24 H23  371 L   1       0.032   0.775   2.333  1.00  0.00    +0.0293  H
ATOM     25 H24  371 L   1      -1.131   0.978   3.651  1.00  0.00    +0.0293  H
ATOM     26 H25  371 L   1      -4.221   2.795   0.816  1.00  0.00    +0.1885 HD
ATOM     27 H26  371 L   1      -3.371   1.288  -2.198  1.00  0.00    +0.0292  H
ATOM     28 H27  371 L   1      -4.433   0.023  -1.548  1.00  0.00    +0.0292  H
ATOM     29 H28  371 L   1      -4.882   1.726  -1.382  1.00  0.00    +0.0292  H
ENDBRANCH 1 22
BRANCH 7 30
ATOM     30 C16  371 L   1       1.876   0.505  -0.657  1.00  0.00    +0.1805  C
ATOM     31 C17  371 L   1       2.590   1.158  -1.592  1.00  0.00    -0.0367  C
ATOM     32 C18  371 L   1       3.993   1.617  -1.363  1.00  0.00    -0.0278  C
ATOM     33 C19  371 L   1       4.365   1.525   0.111  1.00  0.00    -0.0151  C
ATOM     34 C20  371 L   1       3.809   0.235   0.693  1.00  0.00    +0.0901  C
ATOM     35 O21  371 L   1       2.384   0.165   0.587  1.00  0.00    -0.4869 OA
ATOM     36 H36  371 L   1       2.138   1.408  -2.549  1.00  0.00    +0.0610  H
ATOM     37 H37  371 L   1       4.669   0.996  -1.964  1.00  0.00    +0.0310  H
ATOM     38 H38  371 L   1       4.109   2.651  -1.705  1.00  0.00    +0.0310  H
ATOM     39 H39  371 L   1       3.930   2.380   0.644  1.00  0.00    +0.0301  H
ATOM     40 H40  371 L   1       5.451   1.574   0.235  1.00  0.00    +0.0301  H
ATOM     41 H41  371 L   1       4.060   0.170   1.757  1.00  0.00    +0.0696  H
ATOM     42 H42  371 L   1       4.245  -0.644   0.202  1.00  0.00    +0.0696  H
ENDBRANCH 7 30
TORSDOF 2
