ROOT
ATOM      1  C1  MCU L   1       6.927  -0.286  -0.315  1.00  0.00    -0.0394  C
ATOM      2  C2  MCU L   1       5.459  -0.190   0.005  1.00  0.00    -0.0456  A
ATOM      3  C3  MCU L   1       5.063  -0.297   1.350  1.00  0.00    -0.0579  A
ATOM      4  C4  MCU L   1       3.720  -0.215   1.713  1.00  0.00    -0.0524  A
ATOM      5  C5  MCU L   1       2.747  -0.023   0.737  1.00  0.00    -0.0009  A
ATOM      6  C6  MCU L   1       1.333   0.064   1.098  1.00  0.00    -0.0424  A
ATOM      7  C7  MCU L   1       0.376   0.242   0.168  1.00  0.00    +0.0421  A
ATOM      8 C24  MCU L   1       0.780   0.390  -1.260  1.00  0.00    +0.2543  A
ATOM      9 O25  MCU L   1      -0.045   0.611  -2.144  1.00  0.00    -0.2675 OA
ATOM     10 N26  MCU L   1       2.110   0.285  -1.560  1.00  0.00    -0.3216  N
ATOM     11 C27  MCU L   1       3.124   0.084  -0.609  1.00  0.00    +0.0524  A
ATOM     12 C28  MCU L   1       4.479  -0.001  -0.997  1.00  0.00    -0.0236  A
ATOM     13 C29  MCU L   1       4.856   0.118  -2.452  1.00  0.00    -0.0375  C
ATOM     14 H30  MCU L   1       7.120  -1.152  -0.956  1.00  0.00    +0.0278  H
ATOM     15 H31  MCU L   1       7.269   0.628  -0.812  1.00  0.00    +0.0278  H
ATOM     16 H32  MCU L   1       7.531  -0.408   0.591  1.00  0.00    +0.0278  H
ATOM     17 H33  MCU L   1       5.807  -0.447   2.131  1.00  0.00    +0.0620  H
ATOM     18 H34  MCU L   1       3.446  -0.304   2.762  1.00  0.00    +0.0624  H
ATOM     19 H35  MCU L   1       1.072  -0.025   2.149  1.00  0.00    +0.0629  H
ATOM     20 H54  MCU L   1       2.341   0.392  -2.537  1.00  0.00    +0.1689 HD
ATOM     21 H55  MCU L   1       5.924  -0.016  -2.635  1.00  0.00    +0.0278  H
ATOM     22 H56  MCU L   1       4.585   1.111  -2.828  1.00  0.00    +0.0278  H
ATOM     23 H57  MCU L   1       4.337  -0.647  -3.039  1.00  0.00    +0.0278  H
ENDROOT
BRANCH 7 24
ATOM     24  C8  MCU L   1      -1.120   0.324   0.478  1.00  0.00    +0.1028  C
ATOM     25 H36  MCU L   1      -1.681   0.403  -0.454  1.00  0.00    +0.0596  H
BRANCH 24 26
ATOM     26  C9  MCU L   1      -1.593  -0.928   1.203  1.00  0.00    +0.1736  A
ATOM     27 N10  MCU L   1      -1.283  -1.237   2.454  1.00  0.00    -0.1114 NA
ATOM     28 N11  MCU L   1      -1.908  -2.409   2.744  1.00  0.00    -0.0229 NA
ATOM     29 N12  MCU L   1      -2.602  -2.838   1.708  1.00  0.00    -0.0433 NA
ATOM     30 N13  MCU L   1      -2.417  -1.930   0.723  1.00  0.00    -0.2221  N
BRANCH 30 31
ATOM     31 C14  MCU L   1      -3.077  -2.148  -0.574  1.00  0.00    +0.0590  C
ATOM     32 C15  MCU L   1      -2.038  -2.265  -1.701  1.00  0.00    -0.0401  C
ATOM     33 C16  MCU L   1      -3.883  -3.478  -0.584  1.00  0.00    -0.0401  C
ATOM     34 C17  MCU L   1      -4.088  -1.027  -0.877  1.00  0.00    -0.0401  C
ATOM     35 H37  MCU L   1      -1.524  -1.323  -1.881  1.00  0.00    +0.0253  H
ATOM     36 H38  MCU L   1      -2.510  -2.552  -2.648  1.00  0.00    +0.0253  H
ATOM     37 H39  MCU L   1      -1.277  -3.018  -1.464  1.00  0.00    +0.0253  H
ATOM     38 H40  MCU L   1      -4.368  -3.640  -1.554  1.00  0.00    +0.0253  H
ATOM     39 H41  MCU L   1      -3.235  -4.343  -0.397  1.00  0.00    +0.0253  H
ATOM     40 H42  MCU L   1      -4.672  -3.477   0.177  1.00  0.00    +0.0253  H
ATOM     41 H43  MCU L   1      -3.610  -0.060  -1.045  1.00  0.00    +0.0253  H
ATOM     42 H44  MCU L   1      -4.799  -0.904  -0.052  1.00  0.00    +0.0253  H
ATOM     43 H45  MCU L   1      -4.664  -1.250  -1.783  1.00  0.00    +0.0253  H
ENDBRANCH 30 31
ENDBRANCH 24 26
BRANCH 24 44
ATOM     44 N18  MCU L   1      -1.421   1.568   1.262  1.00  0.00    -0.2845 NA
ATOM     45 C19  MCU L   1      -1.162   2.815   0.502  1.00  0.00    +0.0234  C
ATOM     46 C20  MCU L   1      -2.428   3.429  -0.117  1.00  0.00    +0.0605  C
ATOM     47 O21  MCU L   1      -3.425   3.771   0.855  1.00  0.00    -0.3772 OA
ATOM     48 C22  MCU L   1      -3.309   3.015   2.068  1.00  0.00    +0.0605  C
ATOM     49 C23  MCU L   1      -2.799   1.589   1.811  1.00  0.00    +0.0234  C
ATOM     50 H46  MCU L   1      -0.743   3.537   1.215  1.00  0.00    +0.0449  H
ATOM     51 H47  MCU L   1      -0.401   2.693  -0.274  1.00  0.00    +0.0449  H
ATOM     52 H48  MCU L   1      -2.174   4.346  -0.659  1.00  0.00    +0.0572  H
ATOM     53 H49  MCU L   1      -2.879   2.739  -0.839  1.00  0.00    +0.0572  H
ATOM     54 H50  MCU L   1      -4.301   2.982   2.528  1.00  0.00    +0.0572  H
ATOM     55 H51  MCU L   1      -2.649   3.556   2.756  1.00  0.00    +0.0572  H
ATOM     56 H52  MCU L   1      -3.496   1.117   1.109  1.00  0.00    +0.0449  H
ATOM     57 H53  MCU L   1      -2.825   1.031   2.753  1.00  0.00    +0.0449  H
ENDBRANCH 24 44
ENDBRANCH 7 24
TORSDOF 4
