ROOT
ATOM      1 C30  WH0 L   1      -1.573   3.038   0.073  1.00  0.00    -0.0133  A
ATOM      2 C31  WH0 L   1      -1.014   3.523   1.278  1.00  0.00    -0.0519  A
ATOM      3 C32  WH0 L   1      -0.641   4.864   1.410  1.00  0.00    -0.0374  A
ATOM      4 C33  WH0 L   1      -0.840   5.683   0.321  1.00  0.00    +0.0454  A
ATOM      5 C34  WH0 L   1      -1.387   5.224  -0.875  1.00  0.00    -0.0145  A
ATOM      6 C35  WH0 L   1      -1.761   3.900  -1.019  1.00  0.00    -0.0483  A
ATOM      7 C36  WH0 L   1      -1.466   6.357  -1.854  1.00  0.00    +0.0535  C
ATOM      8 C37  WH0 L   1      -0.884   7.522  -1.044  1.00  0.00    +0.2296  C
ATOM      9 O38  WH0 L   1      -0.736   8.672  -1.423  1.00  0.00    -0.2725 OA
ATOM     10 N39  WH0 L   1      -0.548   7.033   0.213  1.00  0.00    -0.3256  N
ATOM     11 H63  WH0 L   1      -0.870   2.850   2.122  1.00  0.00    +0.0624  H
ATOM     12 H64  WH0 L   1      -0.214   5.233   2.335  1.00  0.00    +0.0638  H
ATOM     13 H65  WH0 L   1      -2.178   3.539  -1.955  1.00  0.00    +0.0627  H
ATOM     14 H66  WH0 L   1      -0.842   6.171  -2.731  1.00  0.00    +0.0410  H
ATOM     15 H67  WH0 L   1      -2.501   6.578  -2.123  1.00  0.00    +0.0410  H
ATOM     16 H68  WH0 L   1      -0.145   7.612   0.934  1.00  0.00    +0.1686 HD
ENDROOT
BRANCH 1 25
ATOM     17 C14  WH0 L   1      -1.140   0.451   0.101  1.00  0.00    +0.1015  A
ATOM     18 N15  WH0 L   1      -1.900  -0.652  -0.002  1.00  0.00    -0.1627 NA
ATOM     19 N16  WH0 L   1      -3.158  -0.193  -0.212  1.00  0.00    -0.1987  N
ATOM     20 C17  WH0 L   1      -4.297  -1.037  -0.416  1.00  0.00    +0.2282  A
ATOM     21 N25  WH0 L   1      -5.457  -0.465  -0.667  1.00  0.00    -0.2207 NA
ATOM     22 C26  WH0 L   1      -5.523   0.910  -0.677  1.00  0.00    +0.0334  A
ATOM     23 C27  WH0 L   1      -4.492   1.744  -0.474  1.00  0.00    -0.0173  A
ATOM     24 C28  WH0 L   1      -3.216   1.183  -0.248  1.00  0.00    +0.0803  A
ATOM     25 C29  WH0 L   1      -1.933   1.636  -0.031  1.00  0.00    +0.0353  A
ATOM     26 H61  WH0 L   1      -6.514   1.320  -0.860  1.00  0.00    +0.0831  H
ATOM     27 H62  WH0 L   1      -4.632   2.819  -0.491  1.00  0.00    +0.0654  H
BRANCH 17 31
ATOM     28 C10  WH0 L   1       3.083   0.092   0.752  1.00  0.00    -0.0457  A
ATOM     29 C11  WH0 L   1       2.185  -0.771   1.393  1.00  0.00    -0.0579  A
ATOM     30 C12  WH0 L   1       0.809  -0.651   1.176  1.00  0.00    -0.0522  A
ATOM     31 C13  WH0 L   1       0.304   0.335   0.318  1.00  0.00    +0.0027  A
ATOM     32 C40  WH0 L   1       1.205   1.187  -0.333  1.00  0.00    -0.0522  A
ATOM     33 C41  WH0 L   1       2.582   1.068  -0.117  1.00  0.00    -0.0579  A
ATOM     34 H49  WH0 L   1       2.549  -1.548   2.063  1.00  0.00    +0.0620  H
ATOM     35 H50  WH0 L   1       0.129  -1.336   1.678  1.00  0.00    +0.0624  H
ATOM     36 H69  WH0 L   1       0.850   1.942  -1.029  1.00  0.00    +0.0624  H
ATOM     37 H70  WH0 L   1       3.256   1.742  -0.640  1.00  0.00    +0.0620  H
BRANCH 28 38
ATOM     38  C9  WH0 L   1       4.568  -0.052   0.966  1.00  0.00    -0.0102  C
ATOM     39 H47  WH0 L   1       4.767  -0.234   2.030  1.00  0.00    +0.0330  H
ATOM     40 H48  WH0 L   1       5.068   0.897   0.732  1.00  0.00    +0.0330  H
BRANCH 38 41
ATOM     41  C8  WH0 L   1       5.165  -1.179   0.122  1.00  0.00    +0.0224  C
ATOM     42 H45  WH0 L   1       4.726  -2.143   0.403  1.00  0.00    +0.0489  H
ATOM     43 H46  WH0 L   1       4.957  -1.022  -0.943  1.00  0.00    +0.0489  H
BRANCH 41 46
ATOM     44  C5  WH0 L   1       7.291  -2.434   0.197  1.00  0.00    +0.2618  C
ATOM     45  O6  WH0 L   1       6.736  -3.524   0.118  1.00  0.00    -0.2669 OA
ATOM     46  N7  WH0 L   1       6.611  -1.236   0.264  1.00  0.00    -0.3511  N
ATOM     47 H44  WH0 L   1       7.125  -0.382   0.090  1.00  0.00    +0.1627 HD
BRANCH 44 49
ATOM     48  C1  WH0 L   1       9.415  -1.381   0.904  1.00  0.00    -0.0760  C
ATOM     49  C2  WH0 L   1       8.779  -2.323   0.184  1.00  0.00    +0.1085  C
ATOM     50 H42  WH0 L   1      10.501  -1.326   0.917  1.00  0.00    +0.0549  H
ATOM     51 H43  WH0 L   1       8.886  -0.666   1.526  1.00  0.00    +0.0549  H
BRANCH 49 52
ATOM     52  C3  WH0 L   1       9.514  -3.298  -0.549  1.00  0.00    +0.1040  C
ATOM     53  N4  WH0 L   1      10.170  -4.051  -1.142  1.00  0.00    -0.1907 NA
ENDBRANCH 49 52
ENDBRANCH 44 49
ENDBRANCH 41 46
ENDBRANCH 38 41
ENDBRANCH 28 38
ENDBRANCH 17 31
BRANCH 20 54
ATOM     54 N18  WH0 L   1      -4.205  -2.433  -0.376  1.00  0.00    -0.3401  N
ATOM     55 C19  WH0 L   1      -3.210  -3.152   0.422  1.00  0.00    +0.0237  C
ATOM     56 C20  WH0 L   1      -3.811  -4.420   1.030  1.00  0.00    -0.0090  C
ATOM     57 C21  WH0 L   1      -4.363  -5.360  -0.040  1.00  0.00    +0.0585  C
ATOM     58 O22  WH0 L   1      -3.410  -6.378  -0.343  1.00  0.00    -0.3917 OA
ATOM     59 C23  WH0 L   1      -4.722  -4.636  -1.333  1.00  0.00    -0.0090  C
ATOM     60 C24  WH0 L   1      -5.234  -3.233  -1.046  1.00  0.00    +0.0237  C
ATOM     61 H51  WH0 L   1      -2.870  -2.539   1.264  1.00  0.00    +0.0489  H
ATOM     62 H52  WH0 L   1      -2.342  -3.401  -0.199  1.00  0.00    +0.0489  H
ATOM     63 H53  WH0 L   1      -4.633  -4.122   1.694  1.00  0.00    +0.0307  H
ATOM     64 H54  WH0 L   1      -3.060  -4.924   1.649  1.00  0.00    +0.0307  H
ATOM     65 H55  WH0 L   1      -5.252  -5.867   0.356  1.00  0.00    +0.0594  H
ATOM     66 H56  WH0 L   1      -3.291  -6.919   0.457  1.00  0.00    +0.2098 HD
ATOM     67 H57  WH0 L   1      -3.847  -4.587  -1.996  1.00  0.00    +0.0307  H
ATOM     68 H58  WH0 L   1      -5.478  -5.214  -1.878  1.00  0.00    +0.0307  H
ATOM     69 H59  WH0 L   1      -6.138  -3.273  -0.425  1.00  0.00    +0.0489  H
ATOM     70 H60  WH0 L   1      -5.507  -2.767  -2.001  1.00  0.00    +0.0489  H
ENDBRANCH 20 54
ENDBRANCH 1 25
TORSDOF 8
