ROOT
ATOM      1 C11  187 L   1      -1.204   1.167  -2.360  1.00  0.00    +0.1061  A
ATOM      2 N12  187 L   1      -1.114   2.450  -2.756  1.00  0.00    -0.0810 NA
ATOM      3 O13  187 L   1      -1.792   3.194  -1.796  1.00  0.00    -0.3591 OA
ATOM      4 C14  187 L   1      -2.255   2.352  -0.849  1.00  0.00    +0.1408  A
ATOM      5 C15  187 L   1      -1.917   1.059  -1.145  1.00  0.00    +0.0199  A
ATOM      6 C16  187 L   1      -2.269  -0.087  -0.267  1.00  0.00    -0.0174  C
ATOM      7 C17  187 L   1      -3.386   0.301   0.761  1.00  0.00    -0.0303  C
ATOM      8 C18  187 L   1      -4.771   0.242   0.085  1.00  0.00    -0.0595  C
ATOM      9 C19  187 L   1      -3.374  -0.721   1.913  1.00  0.00    -0.0595  C
ATOM     10 C20  187 L   1      -3.134   1.730   1.354  1.00  0.00    -0.0406  C
ATOM     11 C21  187 L   1      -3.037   2.852   0.295  1.00  0.00    +0.0089  C
ATOM     12 H35  187 L   1      -1.362  -0.385   0.274  1.00  0.00    +0.0320  H
ATOM     13 H36  187 L   1      -2.585  -0.949  -0.868  1.00  0.00    +0.0320  H
ATOM     14 H37  187 L   1      -4.990  -0.771  -0.272  1.00  0.00    +0.0235  H
ATOM     15 H38  187 L   1      -4.841   0.913  -0.778  1.00  0.00    +0.0235  H
ATOM     16 H39  187 L   1      -5.562   0.523   0.789  1.00  0.00    +0.0235  H
ATOM     17 H40  187 L   1      -4.158  -0.501   2.645  1.00  0.00    +0.0235  H
ATOM     18 H41  187 L   1      -2.413  -0.712   2.441  1.00  0.00    +0.0235  H
ATOM     19 H42  187 L   1      -3.539  -1.739   1.541  1.00  0.00    +0.0235  H
ATOM     20 H43  187 L   1      -2.190   1.708   1.917  1.00  0.00    +0.0275  H
ATOM     21 H44  187 L   1      -3.918   1.989   2.077  1.00  0.00    +0.0275  H
ATOM     22 H45  187 L   1      -2.570   3.740   0.734  1.00  0.00    +0.0345  H
ATOM     23 H46  187 L   1      -4.040   3.135  -0.041  1.00  0.00    +0.0345  H
ENDROOT
BRANCH 1 24
ATOM     24 C10  187 L   1      -0.567   0.086  -3.163  1.00  0.00    +0.0643  C
ATOM     25 H33  187 L   1      -1.124  -0.852  -3.070  1.00  0.00    +0.0553  H
ATOM     26 H34  187 L   1      -0.532   0.358  -4.223  1.00  0.00    +0.0553  H
BRANCH 24 29
ATOM     27  C7  187 L   1       1.131  -1.042  -1.795  1.00  0.00    +0.2449  C
ATOM     28  O8  187 L   1       0.362  -1.905  -1.393  1.00  0.00    -0.2683 OA
ATOM     29  N9  187 L   1       0.800  -0.082  -2.715  1.00  0.00    -0.3469  N
ATOM     30 H32  187 L   1       1.425   0.693  -2.886  1.00  0.00    +0.1630 HD
BRANCH 27 32
ATOM     31  C5  187 L   1       2.982  -1.722  -0.337  1.00  0.00    -0.0650  C
ATOM     32  C6  187 L   1       2.530  -0.918  -1.312  1.00  0.00    -0.0003  C
ATOM     33 H30  187 L   1       2.322  -2.471   0.099  1.00  0.00    +0.0586  H
ATOM     34 H31  187 L   1       3.166  -0.167  -1.762  1.00  0.00    +0.0669  H
BRANCH 31 35
ATOM     35  C4  187 L   1       4.374  -1.675   0.217  1.00  0.00    +0.0170  C
ATOM     36 H28  187 L   1       4.833  -2.643  -0.026  1.00  0.00    +0.0470  H
ATOM     37 H29  187 L   1       4.980  -0.906  -0.280  1.00  0.00    +0.0470  H
BRANCH 35 39
ATOM     38  C1  187 L   1       5.707  -1.764   2.217  1.00  0.00    -0.0127  C
ATOM     39  N2  187 L   1       4.376  -1.487   1.674  1.00  0.00    -0.3047 NA
ATOM     40  C3  187 L   1       3.961  -0.133   2.047  1.00  0.00    -0.0127  C
ATOM     41 H22  187 L   1       6.006  -2.795   2.001  1.00  0.00    +0.0391  H
ATOM     42 H23  187 L   1       5.705  -1.665   3.309  1.00  0.00    +0.0391  H
ATOM     43 H24  187 L   1       6.469  -1.090   1.810  1.00  0.00    +0.0391  H
ATOM     44 H25  187 L   1       4.622   0.633   1.627  1.00  0.00    +0.0391  H
ATOM     45 H26  187 L   1       2.937   0.076   1.719  1.00  0.00    +0.0391  H
ATOM     46 H27  187 L   1       3.958  -0.021   3.137  1.00  0.00    +0.0391  H
ENDBRANCH 35 39
ENDBRANCH 31 35
ENDBRANCH 27 32
ENDBRANCH 24 29
ENDBRANCH 1 24
TORSDOF 5
