ROOT
ATOM      1  O1  MCU L   1      -2.298   1.687   2.109  1.00  0.00    -0.2717 OA
ATOM      2  C2  MCU L   1      -1.199   1.857   1.517  1.00  0.00    +0.2395  C
ATOM      3  C3  MCU L   1      -0.279   2.957   1.888  1.00  0.00    +0.0758  C
ATOM      4  S4  MCU L   1       1.078   2.949   0.671  1.00  0.00    -0.1088 SA
ATOM      5  C5  MCU L   1       0.580   1.324  -0.009  1.00  0.00    +0.2010  C
ATOM      6  C6  MCU L   1       0.667   1.314  -1.511  1.00  0.00    +0.2665  C
ATOM      7  O7  MCU L   1      -0.024   2.044  -2.270  1.00  0.00    -0.2689 OA
ATOM      8  N8  MCU L   1       1.621   0.377  -1.998  1.00  0.00    -0.3228  N
ATOM      9  C9  MCU L   1       2.156  -0.232  -0.836  1.00  0.00    +0.0486  A
ATOM     10 C10  MCU L   1       3.118  -1.241  -0.800  1.00  0.00    -0.0379  A
ATOM     11 C11  MCU L   1       3.514  -1.739   0.452  1.00  0.00    -0.0598  A
ATOM     12 C12  MCU L   1       2.945  -1.226   1.636  1.00  0.00    -0.0613  A
ATOM     13 C13  MCU L   1       1.975  -0.212   1.576  1.00  0.00    -0.0531  A
ATOM     14 C14  MCU L   1       1.595   0.273   0.322  1.00  0.00    +0.0211  A
ATOM     15 N15  MCU L   1      -0.755   0.985   0.484  1.00  0.00    -0.2840  N
ATOM     16 H22  MCU L   1       0.130   2.779   2.904  1.00  0.00    +0.0474  H
ATOM     17 H23  MCU L   1      -0.809   3.931   1.854  1.00  0.00    +0.0474  H
ATOM     18 H24  MCU L   1       1.859   0.169  -2.993  1.00  0.00    +0.1687 HD
ATOM     19 H25  MCU L   1       3.546  -1.632  -1.713  1.00  0.00    +0.0638  H
ATOM     20 H26  MCU L   1       4.258  -2.522   0.509  1.00  0.00    +0.0618  H
ATOM     21 H27  MCU L   1       3.254  -1.618   2.596  1.00  0.00    +0.0618  H
ATOM     22 H28  MCU L   1       1.529   0.182   2.480  1.00  0.00    +0.0622  H
ENDROOT
BRANCH 15 23
ATOM     23 C16  MCU L   1      -1.612  -0.010  -0.111  1.00  0.00    +0.0468  A
ATOM     24 C17  MCU L   1      -1.196  -1.348  -0.221  1.00  0.00    -0.0380  A
ATOM     25 C18  MCU L   1      -2.029  -2.300  -0.816  1.00  0.00    -0.0598  A
ATOM     26 C19  MCU L   1      -3.283  -1.925  -1.306  1.00  0.00    -0.0616  A
ATOM     27 C20  MCU L   1      -3.707  -0.598  -1.199  1.00  0.00    -0.0598  A
ATOM     28 C21  MCU L   1      -2.876   0.356  -0.604  1.00  0.00    -0.0380  A
ATOM     29 H29  MCU L   1      -0.239  -1.664   0.170  1.00  0.00    +0.0638  H
ATOM     30 H30  MCU L   1      -1.704  -3.329  -0.895  1.00  0.00    +0.0618  H
ATOM     31 H31  MCU L   1      -3.927  -2.664  -1.767  1.00  0.00    +0.0618  H
ATOM     32 H32  MCU L   1      -4.678  -0.308  -1.579  1.00  0.00    +0.0618  H
ATOM     33 H33  MCU L   1      -3.210   1.384  -0.539  1.00  0.00    +0.0638  H
ENDBRANCH 15 23
TORSDOF 1
