ROOT
ATOM      1  C8  370 L   1       1.158   0.054  -1.106  1.00  0.00    +0.2253  C
ATOM      2  O9  370 L   1       1.388  -1.119  -1.401  1.00  0.00    -0.2730 OA
ATOM      3 N10  370 L   1      -0.080   0.456  -0.657  1.00  0.00    -0.3387  N
ATOM      4 C11  370 L   1      -0.500   1.804  -0.312  1.00  0.00    +0.0245  C
ATOM      5 C12  370 L   1      -1.833   1.616   0.401  1.00  0.00    +0.0048  C
ATOM      6 C13  370 L   1      -2.438   0.412  -0.331  1.00  0.00    +0.1554  C
ATOM      7 F14  370 L   1      -2.870   0.885  -1.549  1.00  0.00    -0.2349  F
ATOM      8 C21  370 L   1      -1.207  -0.472  -0.603  1.00  0.00    +0.0593  C
ATOM      9 H30  370 L   1       0.243   2.304   0.315  1.00  0.00    +0.0490  H
ATOM     10 H31  370 L   1      -0.620   2.367  -1.244  1.00  0.00    +0.0490  H
ATOM     11 H32  370 L   1      -2.456   2.512   0.328  1.00  0.00    +0.0317  H
ATOM     12 H33  370 L   1      -1.653   1.404   1.461  1.00  0.00    +0.0317  H
ATOM     13 H39  370 L   1      -1.287  -1.009  -1.555  1.00  0.00    +0.0523  H
ATOM     14 H40  370 L   1      -0.994  -1.191   0.195  1.00  0.00    +0.0523  H
ENDROOT
BRANCH 1 15
ATOM     15  C7  370 L   1       2.217   1.138  -1.198  1.00  0.00    +0.0437  C
ATOM     16 H28  370 L   1       1.835   1.936  -1.844  1.00  0.00    +0.0378  H
ATOM     17 H29  370 L   1       2.391   1.547  -0.197  1.00  0.00    +0.0378  H
BRANCH 15 18
ATOM     18  C6  370 L   1       3.522   0.616  -1.790  1.00  0.00    +0.0268  C
ATOM     19 H26  370 L   1       4.196   1.459  -1.983  1.00  0.00    +0.0491  H
ATOM     20 H27  370 L   1       3.348   0.100  -2.740  1.00  0.00    +0.0491  H
BRANCH 18 23
ATOM     21  C3  370 L   1       4.971   0.102   0.140  1.00  0.00    +0.2443  C
ATOM     22  O4  370 L   1       5.228   1.274   0.380  1.00  0.00    -0.2683 OA
ATOM     23  N5  370 L   1       4.199  -0.319  -0.912  1.00  0.00    -0.3520  N
ATOM     24 H25  370 L   1       3.886  -1.282  -0.957  1.00  0.00    +0.1626 HD
BRANCH 21 26
ATOM     25  C1  370 L   1       6.190  -0.784   2.077  1.00  0.00    -0.0936  C
ATOM     26  C2  370 L   1       5.455  -1.020   0.983  1.00  0.00    -0.0047  C
ATOM     27 H22  370 L   1       6.553  -1.599   2.693  1.00  0.00    +0.0536  H
ATOM     28 H23  370 L   1       6.445   0.228   2.381  1.00  0.00    +0.0536  H
ATOM     29 H24  370 L   1       5.210  -2.033   0.688  1.00  0.00    +0.0666  H
ENDBRANCH 21 26
ENDBRANCH 18 23
ENDBRANCH 15 18
ENDBRANCH 1 15
BRANCH 6 30
ATOM     30 C15  370 L   1      -3.546  -0.282   0.432  1.00  0.00    -0.0091  A
ATOM     31 C16  370 L   1      -3.342  -0.835   1.707  1.00  0.00    -0.0555  A
ATOM     32 C17  370 L   1      -4.383  -1.473   2.385  1.00  0.00    -0.0614  A
ATOM     33 C18  370 L   1      -5.644  -1.567   1.801  1.00  0.00    -0.0617  A
ATOM     34 C19  370 L   1      -5.863  -1.027   0.537  1.00  0.00    -0.0614  A
ATOM     35 C20  370 L   1      -4.823  -0.388  -0.142  1.00  0.00    -0.0555  A
ATOM     36 H34  370 L   1      -2.368  -0.780   2.190  1.00  0.00    +0.0621  H
ATOM     37 H35  370 L   1      -4.210  -1.898   3.372  1.00  0.00    +0.0618  H
ATOM     38 H36  370 L   1      -6.453  -2.064   2.329  1.00  0.00    +0.0618  H
ATOM     39 H37  370 L   1      -6.846  -1.101   0.077  1.00  0.00    +0.0618  H
ATOM     40 H38  370 L   1      -5.019   0.029  -1.129  1.00  0.00    +0.0621  H
ENDBRANCH 6 30
TORSDOF 5
