ROOT
ATOM      1 C18  EUB L   1       4.285  -0.814   0.397  1.00  0.00    +0.2070  C
ATOM      2 O19  EUB L   1       4.371  -2.163  -0.052  1.00  0.00    -0.3686 OA
ATOM      3 C20  EUB L   1       4.459  -0.775   1.916  1.00  0.00    +0.0142  C
ATOM      4 C21  EUB L   1       5.962  -0.657   2.091  1.00  0.00    +0.0250  C
ATOM      5 N22  EUB L   1       6.371   0.163   0.979  1.00  0.00    -0.3419  N
ATOM      6 C23  EUB L   1       7.745   0.571   0.808  1.00  0.00    +0.0098  C
ATOM      7 C24  EUB L   1       5.503  -0.008  -0.101  1.00  0.00    +0.2675  C
ATOM      8 O25  EUB L   1       5.708   0.345  -1.255  1.00  0.00    -0.2688 OA
ATOM      9 H37  EUB L   1       4.356  -2.112  -1.026  1.00  0.00    +0.2119 HD
ATOM     10 H38  EUB L   1       3.976   0.111   2.348  1.00  0.00    +0.0325  H
ATOM     11 H39  EUB L   1       4.067  -1.663   2.424  1.00  0.00    +0.0325  H
ATOM     12 H40  EUB L   1       6.454  -1.632   2.010  1.00  0.00    +0.0490  H
ATOM     13 H41  EUB L   1       6.235  -0.181   3.037  1.00  0.00    +0.0490  H
ATOM     14 H42  EUB L   1       8.087   1.072   1.717  1.00  0.00    +0.0452  H
ATOM     15 H43  EUB L   1       7.833   1.252  -0.043  1.00  0.00    +0.0452  H
ATOM     16 H44  EUB L   1       8.356  -0.316   0.617  1.00  0.00    +0.0452  H
ENDROOT
BRANCH 1 18
ATOM     17 C16  EUB L   1       1.964   0.246  -0.384  1.00  0.00    -0.0629  C
ATOM     18 C17  EUB L   1       3.007  -0.233  -0.031  1.00  0.00    -0.0525  C
BRANCH 17 23
ATOM     19 C11  EUB L   1      -1.720   0.816  -0.786  1.00  0.00    +0.0016  A
ATOM     20 C12  EUB L   1      -1.685   1.957  -1.611  1.00  0.00    -0.0525  A
ATOM     21 C13  EUB L   1      -0.476   2.518  -2.032  1.00  0.00    -0.0600  A
ATOM     22 C14  EUB L   1       0.730   1.950  -1.631  1.00  0.00    -0.0463  A
ATOM     23 C15  EUB L   1       0.726   0.825  -0.807  1.00  0.00    +0.0257  A
ATOM     24 C26  EUB L   1      -0.487   0.265  -0.389  1.00  0.00    -0.0371  A
ATOM     25 H34  EUB L   1      -2.617   2.416  -1.939  1.00  0.00    +0.0624  H
ATOM     26 H35  EUB L   1      -0.478   3.396  -2.672  1.00  0.00    +0.0618  H
ATOM     27 H36  EUB L   1       1.669   2.389  -1.961  1.00  0.00    +0.0630  H
ATOM     28 H45  EUB L   1      -0.462  -0.603   0.268  1.00  0.00    +0.0636  H
BRANCH 19 33
ATOM     29  C3  EUB L   1      -4.453  -1.616   0.197  1.00  0.00    +0.1243  A
ATOM     30  C4  EUB L   1      -5.476  -0.717   0.454  1.00  0.00    +0.0108  A
ATOM     31  C5  EUB L   1      -5.202   0.631   0.283  1.00  0.00    +0.1315  A
ATOM     32  N9  EUB L   1      -4.000   1.128  -0.118  1.00  0.00    -0.2416 NA
ATOM     33 C10  EUB L   1      -3.008   0.237  -0.357  1.00  0.00    +0.0753  A
ATOM     34 C27  EUB L   1      -3.209  -1.134  -0.212  1.00  0.00    +0.0061  A
ATOM     35 H31  EUB L   1      -6.464  -1.021   0.777  1.00  0.00    +0.0677  H
ATOM     36 H46  EUB L   1      -2.414  -1.841  -0.429  1.00  0.00    +0.0676  H
BRANCH 29 38
ATOM     37  C1  EUB L   1      -5.789  -3.520   0.699  1.00  0.00    +0.0788  C
ATOM     38  O2  EUB L   1      -4.533  -2.977   0.304  1.00  0.00    -0.4950 OA
ATOM     39 H28  EUB L   1      -5.688  -4.610   0.727  1.00  0.00    +0.0660  H
ATOM     40 H29  EUB L   1      -6.064  -3.185   1.705  1.00  0.00    +0.0660  H
ATOM     41 H30  EUB L   1      -6.571  -3.276  -0.027  1.00  0.00    +0.0660  H
ENDBRANCH 29 38
BRANCH 31 42
ATOM     42  C6  EUB L   1      -6.272   1.642   0.555  1.00  0.00    +0.2680  C
ATOM     43  N7  EUB L   1      -5.900   2.947   0.382  1.00  0.00    -0.3646  N
ATOM     44  O8  EUB L   1      -7.401   1.330   0.914  1.00  0.00    -0.2662 OA
ATOM     45 H32  EUB L   1      -4.940   3.161   0.132  1.00  0.00    +0.1589 HD
ATOM     46 H33  EUB L   1      -6.555   3.686   0.588  1.00  0.00    +0.1589 HD
ENDBRANCH 31 42
ENDBRANCH 19 33
ENDBRANCH 17 23
ENDBRANCH 1 18
TORSDOF 5
