ROOT
ATOM      1  C5  365 L   1       0.026  -1.304  -0.281  1.00  0.00    +0.2542  C
ATOM      2  O6  365 L   1      -0.354  -2.464  -0.421  1.00  0.00    -0.2676 OA
ATOM      3  N7  365 L   1       1.258  -0.976   0.234  1.00  0.00    -0.3274  N
ATOM      4  C8  365 L   1       2.240  -2.046   0.416  1.00  0.00    +0.0852  C
ATOM      5  C9  365 L   1       3.588  -1.352   0.348  1.00  0.00    +0.2680  C
ATOM      6 F10  365 L   1       4.542  -1.996   1.043  1.00  0.00    -0.2037  F
ATOM      7 F11  365 L   1       4.009  -1.242  -0.935  1.00  0.00    -0.2037  F
ATOM      8 C12  365 L   1       3.308   0.019   0.916  1.00  0.00    +0.0352  C
ATOM      9 C13  365 L   1       1.907   0.340   0.366  1.00  0.00    +0.0615  C
ATOM     10 H25  365 L   1       2.067  -2.499   1.398  1.00  0.00    +0.0548  H
ATOM     11 H26  365 L   1       2.136  -2.811  -0.360  1.00  0.00    +0.0548  H
ATOM     12 H27  365 L   1       4.049   0.760   0.601  1.00  0.00    +0.0344  H
ATOM     13 H28  365 L   1       3.311  -0.027   2.012  1.00  0.00    +0.0344  H
ATOM     14 H29  365 L   1       2.011   0.764  -0.640  1.00  0.00    +0.0549  H
ENDROOT
BRANCH 1 16
ATOM     15  C3  365 L   1      -1.878   0.197   0.103  1.00  0.00    +0.1057  C
ATOM     16  C4  365 L   1      -0.865  -0.197  -0.695  1.00  0.00    +0.0542  C
ATOM     17 C16  365 L   1      -0.690   0.304  -2.095  1.00  0.00    -0.0163  C
ATOM     18 C17  365 L   1      -1.934   1.052  -2.559  1.00  0.00    -0.0144  C
ATOM     19 C18  365 L   1      -2.432   1.943  -1.433  1.00  0.00    +0.0894  C
ATOM     20 O19  365 L   1      -2.774   1.190  -0.265  1.00  0.00    -0.4958 OA
ATOM     21 H33  365 L   1      -0.488  -0.523  -2.785  1.00  0.00    +0.0317  H
ATOM     22 H34  365 L   1       0.173   0.978  -2.132  1.00  0.00    +0.0317  H
ATOM     23 H35  365 L   1      -2.714   0.326  -2.821  1.00  0.00    +0.0301  H
ATOM     24 H36  365 L   1      -1.713   1.642  -3.455  1.00  0.00    +0.0301  H
ATOM     25 H37  365 L   1      -3.331   2.480  -1.751  1.00  0.00    +0.0696  H
ATOM     26 H38  365 L   1      -1.681   2.695  -1.159  1.00  0.00    +0.0696  H
BRANCH 15 28
ATOM     27  C1  365 L   1      -3.365  -1.302   1.459  1.00  0.00    -0.0584  C
ATOM     28  C2  365 L   1      -2.167  -0.364   1.476  1.00  0.00    +0.0025  C
ATOM     29 H20  365 L   1      -4.270  -0.788   1.117  1.00  0.00    +0.0234  H
ATOM     30 H21  365 L   1      -3.189  -2.158   0.799  1.00  0.00    +0.0234  H
ATOM     31 H22  365 L   1      -3.557  -1.686   2.466  1.00  0.00    +0.0234  H
ATOM     32 H23  365 L   1      -1.302  -0.894   1.889  1.00  0.00    +0.0341  H
ATOM     33 H24  365 L   1      -2.364   0.466   2.164  1.00  0.00    +0.0341  H
ENDBRANCH 15 28
ENDBRANCH 1 16
BRANCH 9 34
ATOM     34 C14  365 L   1       1.199   1.347   1.284  1.00  0.00    +0.0648  C
ATOM     35 O15  365 L   1       2.022   2.487   1.518  1.00  0.00    -0.3930 OA
ATOM     36 H30  365 L   1       0.974   0.891   2.254  1.00  0.00    +0.0578  H
ATOM     37 H31  365 L   1       0.259   1.704   0.862  1.00  0.00    +0.0578  H
ATOM     38 H32  365 L   1       1.991   3.046   0.721  1.00  0.00    +0.2095 HD
ENDBRANCH 9 34
TORSDOF 3
