ROOT
ATOM      1  C1  MCU L   1       3.867   6.129  -0.903  1.00  0.00    -0.0396  C
ATOM      2  C2  MCU L   1       3.209   4.789  -0.756  1.00  0.00    -0.0485  A
ATOM      3  C3  MCU L   1       2.913   4.016  -1.889  1.00  0.00    -0.0582  A
ATOM      4  C4  MCU L   1       2.269   2.783  -1.756  1.00  0.00    -0.0524  A
ATOM      5  C5  MCU L   1       1.902   2.315  -0.486  1.00  0.00    -0.0011  A
ATOM      6  C6  MCU L   1       1.256   1.085  -0.332  1.00  0.00    -0.0424  A
ATOM      7  C7  MCU L   1       0.874   0.636   0.941  1.00  0.00    +0.0421  A
ATOM      8 C30  MCU L   1       1.188   1.441   2.060  1.00  0.00    +0.2543  A
ATOM      9 O31  MCU L   1       0.882   1.065   3.224  1.00  0.00    -0.2675 OA
ATOM     10 N32  MCU L   1       1.821   2.637   1.892  1.00  0.00    -0.3218  N
ATOM     11 C33  MCU L   1       2.181   3.092   0.658  1.00  0.00    +0.0494  A
ATOM     12 C34  MCU L   1       2.828   4.329   0.514  1.00  0.00    -0.0348  A
ATOM     13 H35  MCU L   1       4.559   6.316  -0.054  1.00  0.00    +0.0278  H
ATOM     14 H36  MCU L   1       4.456   6.181  -1.843  1.00  0.00    +0.0278  H
ATOM     15 H37  MCU L   1       3.090   6.922  -0.920  1.00  0.00    +0.0278  H
ATOM     16 H38  MCU L   1       3.181   4.368  -2.878  1.00  0.00    +0.0620  H
ATOM     17 H39  MCU L   1       2.055   2.199  -2.643  1.00  0.00    +0.0624  H
ATOM     18 H40  MCU L   1       1.042   0.481  -1.206  1.00  0.00    +0.0629  H
ATOM     19 H69  MCU L   1       2.033   3.214   2.738  1.00  0.00    +0.1689 HD
ATOM     20 H70  MCU L   1       3.037   4.934   1.389  1.00  0.00    +0.0641  H
ENDROOT
BRANCH 7 21
ATOM     21  C8  MCU L   1       0.190  -0.718   1.084  1.00  0.00    +0.1027  C
ATOM     22 H41  MCU L   1      -0.127  -1.078   0.089  1.00  0.00    +0.0596  H
BRANCH 21 23
ATOM     23  C9  MCU L   1       1.226  -1.684   1.615  1.00  0.00    +0.1733  A
ATOM     24 N10  MCU L   1       1.560  -1.795   2.916  1.00  0.00    -0.1114 NA
ATOM     25 N11  MCU L   1       2.480  -2.749   2.960  1.00  0.00    -0.0230 NA
ATOM     26 N12  MCU L   1       2.713  -3.209   1.741  1.00  0.00    -0.0436 NA
ATOM     27 N13  MCU L   1       1.961  -2.543   0.880  1.00  0.00    -0.2244  N
BRANCH 27 28
ATOM     28 C14  MCU L   1       1.864  -2.828  -0.559  1.00  0.00    +0.0564  C
ATOM     29 C15  MCU L   1       0.763  -3.863  -0.826  1.00  0.00    -0.0304  C
ATOM     30 C16  MCU L   1       1.441  -5.089  -1.430  1.00  0.00    -0.0511  C
ATOM     31 C17  MCU L   1       2.926  -4.927  -1.160  1.00  0.00    -0.0511  C
ATOM     32 C18  MCU L   1       3.159  -3.430  -1.110  1.00  0.00    -0.0304  C
ATOM     33 H42  MCU L   1       1.653  -1.888  -1.112  1.00  0.00    +0.0546  H
ATOM     34 H43  MCU L   1       0.008  -3.455  -1.532  1.00  0.00    +0.0286  H
ATOM     35 H44  MCU L   1       0.241  -4.148   0.115  1.00  0.00    +0.0286  H
ATOM     36 H45  MCU L   1       1.053  -6.030  -0.982  1.00  0.00    +0.0266  H
ATOM     37 H46  MCU L   1       1.265  -5.110  -2.528  1.00  0.00    +0.0266  H
ATOM     38 H47  MCU L   1       3.179  -5.378  -0.174  1.00  0.00    +0.0266  H
ATOM     39 H48  MCU L   1       3.539  -5.408  -1.953  1.00  0.00    +0.0266  H
ATOM     40 H49  MCU L   1       3.327  -3.057  -2.145  1.00  0.00    +0.0286  H
ATOM     41 H50  MCU L   1       4.052  -3.174  -0.499  1.00  0.00    +0.0286  H
ENDBRANCH 27 28
ENDBRANCH 21 23
BRANCH 21 42
ATOM     42 N19  MCU L   1      -1.008  -0.662   1.971  1.00  0.00    -0.2884 NA
ATOM     43 C20  MCU L   1      -1.665  -1.968   2.204  1.00  0.00    -0.0001  C
ATOM     44 C21  MCU L   1      -2.520  -2.409   1.017  1.00  0.00    -0.0396  C
ATOM     45 C22  MCU L   1      -3.593  -1.362   0.715  1.00  0.00    -0.0450  C
ATOM     46 C23  MCU L   1      -3.011   0.062   0.503  1.00  0.00    -0.0164  C
ATOM     47 C24  MCU L   1      -2.311   0.169  -0.899  1.00  0.00    -0.0462  C
ATOM     48 C25  MCU L   1      -3.239   0.704  -1.997  1.00  0.00    -0.0525  C
ATOM     49 C26  MCU L   1      -3.720   2.130  -1.678  1.00  0.00    -0.0530  C
ATOM     50 C27  MCU L   1      -3.916   2.379  -0.170  1.00  0.00    -0.0525  C
ATOM     51 C28  MCU L   1      -4.208   1.074   0.581  1.00  0.00    -0.0462  C
ATOM     52 C29  MCU L   1      -2.006   0.396   1.661  1.00  0.00    +0.0055  C
ATOM     53 H51  MCU L   1      -0.928  -2.765   2.433  1.00  0.00    +0.0427  H
ATOM     54 H52  MCU L   1      -2.310  -1.891   3.108  1.00  0.00    +0.0427  H
ATOM     55 H53  MCU L   1      -3.019  -3.369   1.271  1.00  0.00    +0.0278  H
ATOM     56 H54  MCU L   1      -1.886  -2.600   0.129  1.00  0.00    +0.0278  H
ATOM     57 H55  MCU L   1      -4.166  -1.681  -0.182  1.00  0.00    +0.0271  H
ATOM     58 H56  MCU L   1      -4.306  -1.351   1.571  1.00  0.00    +0.0271  H
ATOM     59 H57  MCU L   1      -1.446   0.862  -0.846  1.00  0.00    +0.0271  H
ATOM     60 H58  MCU L   1      -1.922  -0.811  -1.242  1.00  0.00    +0.0271  H
ATOM     61 H59  MCU L   1      -2.702   0.706  -2.971  1.00  0.00    +0.0265  H
ATOM     62 H60  MCU L   1      -4.114   0.025  -2.100  1.00  0.00    +0.0265  H
ATOM     63 H61  MCU L   1      -4.680   2.307  -2.211  1.00  0.00    +0.0265  H
ATOM     64 H62  MCU L   1      -2.983   2.865  -2.069  1.00  0.00    +0.0265  H
ATOM     65 H63  MCU L   1      -4.757   3.090  -0.019  1.00  0.00    +0.0265  H
ATOM     66 H64  MCU L   1      -3.003   2.850   0.254  1.00  0.00    +0.0265  H
ATOM     67 H65  MCU L   1      -5.124   0.627   0.131  1.00  0.00    +0.0271  H
ATOM     68 H66  MCU L   1      -4.475   1.310   1.634  1.00  0.00    +0.0271  H
ATOM     69 H67  MCU L   1      -2.581   0.569   2.597  1.00  0.00    +0.0432  H
ATOM     70 H68  MCU L   1      -1.515   1.370   1.464  1.00  0.00    +0.0432  H
ENDBRANCH 21 42
ENDBRANCH 7 21
TORSDOF 4
