ROOT
ATOM      1 C12  WH0 L   1      -2.228  -1.338   0.484  1.00  0.00    -0.0133  A
ATOM      2 C13  WH0 L   1      -2.122  -2.343   1.474  1.00  0.00    -0.0519  A
ATOM      3 C14  WH0 L   1      -2.995  -3.442   1.473  1.00  0.00    -0.0374  A
ATOM      4 C15  WH0 L   1      -3.963  -3.515   0.474  1.00  0.00    +0.0454  A
ATOM      5 C16  WH0 L   1      -4.074  -2.544  -0.498  1.00  0.00    -0.0145  A
ATOM      6 C17  WH0 L   1      -3.216  -1.445  -0.518  1.00  0.00    -0.0483  A
ATOM      7 C18  WH0 L   1      -5.193  -2.859  -1.437  1.00  0.00    +0.0535  C
ATOM      8 C19  WH0 L   1      -5.676  -4.145  -0.834  1.00  0.00    +0.2296  C
ATOM      9 O20  WH0 L   1      -6.639  -4.819  -1.286  1.00  0.00    -0.2725 OA
ATOM     10 N21  WH0 L   1      -4.931  -4.535   0.315  1.00  0.00    -0.3256  N
ATOM     11 H49  WH0 L   1      -1.377  -2.264   2.256  1.00  0.00    +0.0624  H
ATOM     12 H50  WH0 L   1      -2.922  -4.209   2.232  1.00  0.00    +0.0638  H
ATOM     13 H51  WH0 L   1      -3.314  -0.694  -1.292  1.00  0.00    +0.0627  H
ATOM     14 H52  WH0 L   1      -5.981  -2.078  -1.396  1.00  0.00    +0.0410  H
ATOM     15 H53  WH0 L   1      -4.814  -3.020  -2.469  1.00  0.00    +0.0410  H
ATOM     16 H54  WH0 L   1      -5.074  -5.380   0.911  1.00  0.00    +0.1686 HD
ENDROOT
BRANCH 1 20
ATOM     17  C8  WH0 L   1       2.322  -0.980   0.611  1.00  0.00    +0.0488  A
ATOM     18  C9  WH0 L   1       0.947  -1.275   0.638  1.00  0.00    -0.0140  A
ATOM     19 C10  WH0 L   1       0.067  -0.197   0.563  1.00  0.00    +0.0806  A
ATOM     20 C11  WH0 L   1      -1.315  -0.177   0.504  1.00  0.00    +0.0353  A
ATOM     21 C22  WH0 L   1      -1.622   1.180   0.327  1.00  0.00    +0.1015  A
ATOM     22 N30  WH0 L   1      -0.479   1.904   0.282  1.00  0.00    -0.1627 NA
ATOM     23 N31  WH0 L   1       0.524   1.057   0.440  1.00  0.00    -0.1987  N
ATOM     24 C32  WH0 L   1       1.851   1.347   0.409  1.00  0.00    +0.2285  A
ATOM     25 N40  WH0 L   1       2.741   0.316   0.485  1.00  0.00    -0.2172 NA
ATOM     26 H48  WH0 L   1       0.591  -2.296   0.691  1.00  0.00    +0.0657  H
BRANCH 17 27
ATOM     27  C7  WH0 L   1       3.339  -2.083   0.645  1.00  0.00    +0.0073  C
ATOM     28 H46  WH0 L   1       4.266  -1.712   1.134  1.00  0.00    +0.0345  H
ATOM     29 H47  WH0 L   1       2.955  -2.932   1.251  1.00  0.00    +0.0345  H
BRANCH 27 30
ATOM     30  C6  WH0 L   1       3.667  -2.553  -0.774  1.00  0.00    +0.0235  C
ATOM     31 H44  WH0 L   1       4.046  -1.691  -1.365  1.00  0.00    +0.0490  H
ATOM     32 H45  WH0 L   1       2.754  -2.939  -1.278  1.00  0.00    +0.0490  H
BRANCH 30 35
ATOM     33  O1  WH0 L   1       3.229  -5.293  -0.065  1.00  0.00    -0.2720 OA
ATOM     34  C2  WH0 L   1       4.408  -4.944  -0.345  1.00  0.00    +0.2356  C
ATOM     35  N5  WH0 L   1       4.691  -3.595  -0.741  1.00  0.00    -0.3546  N
ATOM     36 H43  WH0 L   1       5.655  -3.355  -1.065  1.00  0.00    +0.1623 HD
BRANCH 34 37
ATOM     37  C3  WH0 L   1       5.506  -5.957  -0.304  1.00  0.00    +0.1010  C
ATOM     38 CL4  WH0 L   1       5.880  -6.504  -1.956  1.00  0.00    -0.1154 Cl
ATOM     39 H41  WH0 L   1       5.201  -6.833   0.308  1.00  0.00    +0.0527  H
ATOM     40 H42  WH0 L   1       6.415  -5.509   0.149  1.00  0.00    +0.0527  H
ENDBRANCH 34 37
ENDBRANCH 30 35
ENDBRANCH 27 30
ENDBRANCH 17 27
BRANCH 21 41
ATOM     41 C23  WH0 L   1      -2.962   1.798   0.226  1.00  0.00    +0.0029  A
ATOM     42 C24  WH0 L   1      -4.052   1.298   0.961  1.00  0.00    -0.0498  A
ATOM     43 C25  WH0 L   1      -5.308   1.904   0.860  1.00  0.00    -0.0258  A
ATOM     44 C26  WH0 L   1      -5.484   3.021   0.040  1.00  0.00    +0.1234  A
ATOM     45 F27  WH0 L   1      -6.702   3.609  -0.055  1.00  0.00    -0.2055  F
ATOM     46 C28  WH0 L   1      -4.402   3.538  -0.677  1.00  0.00    -0.0258  A
ATOM     47 C29  WH0 L   1      -3.144   2.934  -0.581  1.00  0.00    -0.0498  A
ATOM     48 H55  WH0 L   1      -3.932   0.455   1.627  1.00  0.00    +0.0625  H
ATOM     49 H56  WH0 L   1      -6.143   1.511   1.426  1.00  0.00    +0.0646  H
ATOM     50 H57  WH0 L   1      -4.536   4.408  -1.307  1.00  0.00    +0.0646  H
ATOM     51 H58  WH0 L   1      -2.317   3.346  -1.146  1.00  0.00    +0.0625  H
ENDBRANCH 21 41
BRANCH 24 52
ATOM     52 N33  WH0 L   1       2.318   2.698   0.254  1.00  0.00    -0.3401  N
ATOM     53 C34  WH0 L   1       3.491   2.968  -0.584  1.00  0.00    +0.0237  C
ATOM     54 C35  WH0 L   1       3.320   4.305  -1.312  1.00  0.00    -0.0090  C
ATOM     55 C36  WH0 L   1       2.971   5.431  -0.327  1.00  0.00    +0.0585  C
ATOM     56 O37  WH0 L   1       2.750   6.616  -1.045  1.00  0.00    -0.3917 OA
ATOM     57 C38  WH0 L   1       1.713   5.067   0.482  1.00  0.00    -0.0090  C
ATOM     58 C39  WH0 L   1       1.904   3.733   1.208  1.00  0.00    +0.0237  C
ATOM     59 H59  WH0 L   1       3.621   2.165  -1.344  1.00  0.00    +0.0489  H
ATOM     60 H60  WH0 L   1       4.401   2.996   0.053  1.00  0.00    +0.0489  H
ATOM     61 H61  WH0 L   1       2.510   4.207  -2.069  1.00  0.00    +0.0307  H
ATOM     62 H62  WH0 L   1       4.262   4.556  -1.845  1.00  0.00    +0.0307  H
ATOM     63 H63  WH0 L   1       3.831   5.571   0.371  1.00  0.00    +0.0594  H
ATOM     64 H64  WH0 L   1       2.784   7.360  -0.388  1.00  0.00    +0.2098 HD
ATOM     65 H65  WH0 L   1       1.504   5.863   1.228  1.00  0.00    +0.0307  H
ATOM     66 H66  WH0 L   1       0.837   4.991  -0.200  1.00  0.00    +0.0307  H
ATOM     67 H67  WH0 L   1       2.687   3.843   1.990  1.00  0.00    +0.0489  H
ATOM     68 H68  WH0 L   1       0.959   3.459   1.721  1.00  0.00    +0.0489  H
ENDBRANCH 24 52
ENDBRANCH 1 20
TORSDOF 7
