ROOT
ATOM      1 C11  WH0 L   1       0.538  -2.226  -0.234  1.00  0.00    -0.0468  A
ATOM      2 C12  WH0 L   1       0.144  -3.357   0.520  1.00  0.00    -0.0566  A
ATOM      3 C13  WH0 L   1      -0.763  -3.251   1.579  1.00  0.00    -0.0377  A
ATOM      4 C14  WH0 L   1      -1.263  -2.000   1.862  1.00  0.00    +0.0486  A
ATOM      5 C15  WH0 L   1      -0.897  -0.865   1.133  1.00  0.00    +0.0214  A
ATOM      6 C16  WH0 L   1      -0.008  -0.967   0.073  1.00  0.00    -0.0499  A
ATOM      7 C17  WH0 L   1      -1.603   0.346   1.708  1.00  0.00    +0.2010  C
ATOM      8 S18  WH0 L   1      -0.387   1.351   2.648  1.00  0.00    -0.1088 SA
ATOM      9 C19  WH0 L   1      -0.311   2.604   1.378  1.00  0.00    +0.0758  C
ATOM     10 C20  WH0 L   1      -1.516   2.421   0.484  1.00  0.00    +0.2395  C
ATOM     11 O21  WH0 L   1      -1.761   3.248  -0.391  1.00  0.00    -0.2717 OA
ATOM     12 N22  WH0 L   1      -2.227   1.238   0.738  1.00  0.00    -0.2840  N
ATOM     13 C29  WH0 L   1      -2.537  -0.320   2.791  1.00  0.00    +0.2665  C
ATOM     14 O30  WH0 L   1      -3.392   0.205   3.488  1.00  0.00    -0.2689 OA
ATOM     15 N31  WH0 L   1      -2.204  -1.678   2.831  1.00  0.00    -0.3228  N
ATOM     16 H41  WH0 L   1       0.547  -4.339   0.276  1.00  0.00    +0.0621  H
ATOM     17 H42  WH0 L   1      -1.062  -4.128   2.144  1.00  0.00    +0.0638  H
ATOM     18 H43  WH0 L   1       0.260  -0.081  -0.497  1.00  0.00    +0.0625  H
ATOM     19 H44  WH0 L   1       0.597   2.491   0.782  1.00  0.00    +0.0474  H
ATOM     20 H45  WH0 L   1      -0.339   3.598   1.832  1.00  0.00    +0.0474  H
ATOM     21 H51  WH0 L   1      -2.658  -2.328   3.457  1.00  0.00    +0.1687 HD
ENDROOT
BRANCH 1 22
ATOM     22 C10  WH0 L   1       1.508  -2.405  -1.383  1.00  0.00    -0.0261  C
ATOM     23 H39  WH0 L   1       0.922  -2.437  -2.310  1.00  0.00    +0.0314  H
ATOM     24 H40  WH0 L   1       2.006  -3.378  -1.295  1.00  0.00    +0.0314  H
BRANCH 22 25
ATOM     25  C9  WH0 L   1       2.589  -1.326  -1.516  1.00  0.00    -0.0315  C
ATOM     26 H37  WH0 L   1       3.197  -1.548  -2.403  1.00  0.00    +0.0285  H
ATOM     27 H38  WH0 L   1       2.132  -0.349  -1.711  1.00  0.00    +0.0285  H
BRANCH 25 28
ATOM     28  C8  WH0 L   1       3.507  -1.252  -0.296  1.00  0.00    +0.0187  C
ATOM     29 H35  WH0 L   1       2.937  -1.089   0.625  1.00  0.00    +0.0486  H
ATOM     30 H36  WH0 L   1       4.071  -2.183  -0.184  1.00  0.00    +0.0486  H
BRANCH 28 33
ATOM     31  C5  WH0 L   1       4.125   1.130  -0.149  1.00  0.00    +0.2618  C
ATOM     32  O6  WH0 L   1       2.996   1.465   0.196  1.00  0.00    -0.2669 OA
ATOM     33  N7  WH0 L   1       4.474  -0.177  -0.419  1.00  0.00    -0.3514  N
ATOM     34 H34  WH0 L   1       5.362  -0.384  -0.855  1.00  0.00    +0.1626 HD
BRANCH 31 36
ATOM     35  C1  WH0 L   1       6.491   1.858  -0.082  1.00  0.00    -0.0760  C
ATOM     36  C2  WH0 L   1       5.204   2.141  -0.352  1.00  0.00    +0.1085  C
ATOM     37 H32  WH0 L   1       6.810   0.893   0.297  1.00  0.00    +0.0549  H
ATOM     38 H33  WH0 L   1       7.266   2.612  -0.198  1.00  0.00    +0.0549  H
BRANCH 36 39
ATOM     39  C3  WH0 L   1       4.818   3.450  -0.759  1.00  0.00    +0.1040  C
ATOM     40  N4  WH0 L   1       4.566   4.530  -1.104  1.00  0.00    -0.1907 NA
ENDBRANCH 36 39
ENDBRANCH 31 36
ENDBRANCH 28 33
ENDBRANCH 25 28
ENDBRANCH 22 25
ENDBRANCH 1 22
BRANCH 12 41
ATOM     41 C23  WH0 L   1      -3.467   0.925   0.079  1.00  0.00    +0.0468  A
ATOM     42 C24  WH0 L   1      -3.943  -0.389  -0.050  1.00  0.00    -0.0380  A
ATOM     43 C25  WH0 L   1      -5.160  -0.672  -0.686  1.00  0.00    -0.0598  A
ATOM     44 C26  WH0 L   1      -5.937   0.355  -1.204  1.00  0.00    -0.0616  A
ATOM     45 C27  WH0 L   1      -5.495   1.665  -1.087  1.00  0.00    -0.0598  A
ATOM     46 C28  WH0 L   1      -4.276   1.943  -0.454  1.00  0.00    -0.0380  A
ATOM     47 H46  WH0 L   1      -3.384  -1.247   0.297  1.00  0.00    +0.0638  H
ATOM     48 H47  WH0 L   1      -5.495  -1.703  -0.776  1.00  0.00    +0.0618  H
ATOM     49 H48  WH0 L   1      -6.881   0.136  -1.694  1.00  0.00    +0.0618  H
ATOM     50 H49  WH0 L   1      -6.096   2.482  -1.479  1.00  0.00    +0.0618  H
ATOM     51 H50  WH0 L   1      -4.004   2.991  -0.363  1.00  0.00    +0.0638  H
ENDBRANCH 12 41
TORSDOF 7
