ROOT
ATOM      1  C3  185 L   1       2.823  -0.200   0.162  1.00  0.00    +0.0734  C
ATOM      2  C4  185 L   1       1.990   1.079  -0.031  1.00  0.00    -0.0245  C
ATOM      3  C5  185 L   1       0.872   0.907  -1.051  1.00  0.00    -0.0409  C
ATOM      4  C6  185 L   1      -0.124  -0.198  -0.647  1.00  0.00    +0.0203  C
ATOM      5 C18  185 L   1       0.503  -1.245   0.296  1.00  0.00    -0.0256  C
ATOM      6 C19  185 L   1       1.988  -1.506   0.012  1.00  0.00    +0.0320  C
ATOM      7 N20  185 L   1       2.163  -2.133  -1.310  1.00  0.00    -0.3251 NA
ATOM      8 H24  185 L   1       3.640  -0.223  -0.572  1.00  0.00    +0.0611  H
ATOM      9 H25  185 L   1       2.651   1.893  -0.353  1.00  0.00    +0.0291  H
ATOM     10 H26  185 L   1       1.569   1.404   0.929  1.00  0.00    +0.0291  H
ATOM     11 H27  185 L   1       0.361   1.866  -1.207  1.00  0.00    +0.0273  H
ATOM     12 H28  185 L   1       1.323   0.650  -2.018  1.00  0.00    +0.0273  H
ATOM     13 H29  185 L   1      -0.416  -0.708  -1.572  1.00  0.00    +0.0380  H
ATOM     14 H35  185 L   1       0.412  -0.923   1.343  1.00  0.00    +0.0288  H
ATOM     15 H36  185 L   1      -0.068  -2.182   0.233  1.00  0.00    +0.0288  H
ATOM     16 H37  185 L   1       2.348  -2.237   0.747  1.00  0.00    +0.0484  H
ATOM     17 H38  185 L   1       1.624  -2.999  -1.347  1.00  0.00    +0.1185 HD
ATOM     18 H39  185 L   1       1.819  -1.537  -2.057  1.00  0.00    +0.1185 HD
ENDROOT
BRANCH 1 20
ATOM     19  C1  185 L   1       4.497   0.702   1.612  1.00  0.00    +0.0369  C
ATOM     20  O2  185 L   1       3.409  -0.203   1.476  1.00  0.00    -0.3782 OA
ATOM     21 H21  185 L   1       4.911   0.588   2.618  1.00  0.00    +0.0524  H
ATOM     22 H22  185 L   1       5.283   0.473   0.886  1.00  0.00    +0.0524  H
ATOM     23 H23  185 L   1       4.163   1.737   1.496  1.00  0.00    +0.0524  H
ENDBRANCH 1 20
BRANCH 4 24
ATOM     24  C7  185 L   1      -1.349   0.398  -0.012  1.00  0.00    +0.1314  A
ATOM     25  N8  185 L   1      -1.371   1.114   1.095  1.00  0.00    -0.2160 NA
ATOM     26  C9  185 L   1      -2.688   1.440   1.254  1.00  0.00    +0.1482  A
ATOM     27 C10  185 L   1      -3.176   2.248   2.388  1.00  0.00    -0.0028  C
ATOM     28 N11  185 L   1      -3.493   0.978   0.293  1.00  0.00    -0.1547 NA
ATOM     29 N12  185 L   1      -2.633   0.300  -0.489  1.00  0.00    -0.2400  N
ATOM     30 H30  185 L   1      -2.359   2.492   3.074  1.00  0.00    +0.0309  H
ATOM     31 H31  185 L   1      -3.939   1.701   2.950  1.00  0.00    +0.0309  H
ATOM     32 H32  185 L   1      -3.613   3.186   2.031  1.00  0.00    +0.0309  H
BRANCH 29 33
ATOM     33 C13  185 L   1      -3.121  -0.310  -1.700  1.00  0.00    +0.1384  C
ATOM     34 H33  185 L   1      -2.404  -0.101  -2.500  1.00  0.00    +0.0599  H
ATOM     35 H34  185 L   1      -4.062   0.180  -1.974  1.00  0.00    +0.0599  H
BRANCH 33 36
ATOM     36 C14  185 L   1      -3.334  -1.789  -1.535  1.00  0.00    +0.4090  C
ATOM     37 F15  185 L   1      -4.223  -2.093  -0.571  1.00  0.00    -0.1687  F
ATOM     38 F16  185 L   1      -3.801  -2.316  -2.694  1.00  0.00    -0.1687  F
ATOM     39 F17  185 L   1      -2.176  -2.432  -1.258  1.00  0.00    -0.1687  F
ENDBRANCH 33 36
ENDBRANCH 29 33
ENDBRANCH 4 24
TORSDOF 4
