ROOT
ATOM      1  C7  CHE L   1       1.482   0.002  -0.424  1.00  0.00    +0.0898  A
ATOM      2  C8  CHE L   1       0.869   0.524  -1.545  1.00  0.00    +0.0371  A
ATOM      3  N9  CHE L   1      -0.475   0.520  -1.265  1.00  0.00    -0.3059  N
ATOM      4 C10  CHE L   1      -1.543   0.939  -2.044  1.00  0.00    +0.0131  A
ATOM      5 C11  CHE L   1      -2.790   0.837  -1.551  1.00  0.00    -0.0218  A
ATOM      6 C12  CHE L   1      -3.024   0.286  -0.205  1.00  0.00    +0.0427  A
ATOM      7 C18  CHE L   1      -1.946  -0.105   0.521  1.00  0.00    +0.0044  A
ATOM      8 C19  CHE L   1      -0.623  -0.001   0.009  1.00  0.00    +0.1402  A
ATOM      9 N20  CHE L   1       0.543  -0.319   0.532  1.00  0.00    -0.2278 NA
ATOM     10 H30  CHE L   1       1.244   0.888  -2.488  1.00  0.00    +0.0835  H
ATOM     11 H31  CHE L   1      -1.325   1.340  -3.025  1.00  0.00    +0.0814  H
ATOM     12 H32  CHE L   1      -3.630   1.175  -2.145  1.00  0.00    +0.0653  H
ATOM     13 H41  CHE L   1      -2.048  -0.521   1.515  1.00  0.00    +0.0675  H
ENDROOT
BRANCH 1 17
ATOM     14  C3  CHE L   1       5.672  -0.629   0.237  1.00  0.00    +0.1374  A
ATOM     15  C4  CHE L   1       5.226  -0.085  -0.971  1.00  0.00    -0.0180  A
ATOM     16  C5  CHE L   1       3.859   0.125  -1.197  1.00  0.00    -0.0490  A
ATOM     17  C6  CHE L   1       2.909  -0.203  -0.223  1.00  0.00    +0.0033  A
ATOM     18 C21  CHE L   1       3.360  -0.747   0.987  1.00  0.00    -0.0316  A
ATOM     19 C22  CHE L   1       4.727  -0.961   1.221  1.00  0.00    +0.0939  A
ATOM     20 H28  CHE L   1       5.915   0.189  -1.764  1.00  0.00    +0.0655  H
ATOM     21 H29  CHE L   1       3.557   0.550  -2.151  1.00  0.00    +0.0625  H
ATOM     22 H42  CHE L   1       2.636  -1.010   1.760  1.00  0.00    +0.0638  H
BRANCH 14 24
ATOM     23  C1  CHE L   1       7.965  -0.542  -0.432  1.00  0.00    +0.0788  C
ATOM     24  O2  CHE L   1       6.985  -0.869   0.545  1.00  0.00    -0.4938 OA
ATOM     25 H25  CHE L   1       7.964   0.531  -0.648  1.00  0.00    +0.0660  H
ATOM     26 H26  CHE L   1       8.946  -0.798  -0.020  1.00  0.00    +0.0660  H
ATOM     27 H27  CHE L   1       7.824  -1.131  -1.344  1.00  0.00    +0.0660  H
ENDBRANCH 14 24
BRANCH 19 28
ATOM     28 C23  CHE L   1       5.132  -1.522   2.479  1.00  0.00    +0.1028  C
ATOM     29 N24  CHE L   1       5.428  -1.977   3.506  1.00  0.00    -0.1907 NA
ENDBRANCH 19 28
ENDBRANCH 1 17
BRANCH 6 30
ATOM     30 N13  CHE L   1      -4.337   0.198   0.261  1.00  0.00    -0.3705  N
ATOM     31 C14  CHE L   1      -5.550   0.438  -0.532  1.00  0.00    +0.0187  C
ATOM     32 C15  CHE L   1      -6.688  -0.103   0.326  1.00  0.00    -0.0337  C
ATOM     33 C16  CHE L   1      -6.192   0.143   1.736  1.00  0.00    -0.0337  C
ATOM     34 C17  CHE L   1      -4.708  -0.189   1.630  1.00  0.00    +0.0187  C
ATOM     35 H33  CHE L   1      -5.525  -0.080  -1.496  1.00  0.00    +0.0488  H
ATOM     36 H34  CHE L   1      -5.674   1.513  -0.701  1.00  0.00    +0.0488  H
ATOM     37 H35  CHE L   1      -7.641   0.390   0.116  1.00  0.00    +0.0283  H
ATOM     38 H36  CHE L   1      -6.813  -1.179   0.154  1.00  0.00    +0.0283  H
ATOM     39 H37  CHE L   1      -6.706  -0.468   2.483  1.00  0.00    +0.0283  H
ATOM     40 H38  CHE L   1      -6.325   1.199   2.003  1.00  0.00    +0.0283  H
ATOM     41 H39  CHE L   1      -4.543  -1.263   1.768  1.00  0.00    +0.0488  H
ATOM     42 H40  CHE L   1      -4.139   0.364   2.385  1.00  0.00    +0.0488  H
ENDBRANCH 6 30
TORSDOF 4
