ROOT
ATOM      1 C16  MCU L   1       2.044  -1.413   0.038  1.00  0.00    +0.1414  C
ATOM      2 N17  MCU L   1       2.902  -0.665   0.689  1.00  0.00    -0.2075 NA
ATOM      3 C18  MCU L   1       4.171  -1.133   0.856  1.00  0.00    +0.1972  A
ATOM      4 C19  MCU L   1       5.304  -0.664   1.493  1.00  0.00    +0.2270  A
ATOM      5 N29  MCU L   1       6.346  -1.545   1.317  1.00  0.00    -0.1151 NA
ATOM      6 N30  MCU L   1       5.898  -2.570   0.600  1.00  0.00    -0.0575 NA
ATOM      7 N31  MCU L   1       4.597  -2.339   0.339  1.00  0.00    -0.1927  N
ATOM      8 C32  MCU L   1       3.751  -3.204  -0.357  1.00  0.00    +0.0800  A
ATOM      9 C33  MCU L   1       4.181  -4.440  -0.846  1.00  0.00    -0.0354  A
ATOM     10 C34  MCU L   1       3.257  -5.266  -1.487  1.00  0.00    -0.0597  A
ATOM     11 C35  MCU L   1       1.923  -4.862  -1.620  1.00  0.00    -0.0610  A
ATOM     12 C36  MCU L   1       1.507  -3.622  -1.126  1.00  0.00    -0.0491  A
ATOM     13 C37  MCU L   1       2.428  -2.772  -0.508  1.00  0.00    +0.0427  A
ATOM     14 H62  MCU L   1       5.211  -4.771  -0.725  1.00  0.00    +0.0639  H
ATOM     15 H63  MCU L   1       3.571  -6.237  -1.869  1.00  0.00    +0.0618  H
ATOM     16 H64  MCU L   1       1.205  -5.521  -2.104  1.00  0.00    +0.0618  H
ATOM     17 H65  MCU L   1       0.463  -3.337  -1.218  1.00  0.00    +0.0625  H
ENDROOT
BRANCH 1 21
ATOM     18 N12  MCU L   1      -1.927   0.073  -0.576  1.00  0.00    -0.3669  N
ATOM     19 C13  MCU L   1      -1.177  -0.603  -1.660  1.00  0.00    +0.0363  C
ATOM     20 C14  MCU L   1       0.350  -0.474  -1.490  1.00  0.00    +0.0376  C
ATOM     21 N15  MCU L   1       0.746  -0.961  -0.154  1.00  0.00    -0.3519  N
ATOM     22 C38  MCU L   1       0.073  -0.241   0.959  1.00  0.00    +0.0376  C
ATOM     23 C39  MCU L   1      -1.101   0.657   0.507  1.00  0.00    +0.0363  C
ATOM     24 H53  MCU L   1      -1.470  -0.150  -2.614  1.00  0.00    +0.0505  H
ATOM     25 H54  MCU L   1      -1.429  -1.668  -1.729  1.00  0.00    +0.0505  H
ATOM     26 H55  MCU L   1       0.665   0.570  -1.608  1.00  0.00    +0.0506  H
ATOM     27 H56  MCU L   1       0.846  -1.046  -2.283  1.00  0.00    +0.0506  H
ATOM     28 H66  MCU L   1       0.785   0.392   1.507  1.00  0.00    +0.0506  H
ATOM     29 H67  MCU L   1      -0.292  -0.996   1.667  1.00  0.00    +0.0506  H
ATOM     30 H68  MCU L   1      -1.710   0.942   1.377  1.00  0.00    +0.0505  H
ATOM     31 H69  MCU L   1      -0.690   1.601   0.120  1.00  0.00    +0.0505  H
BRANCH 18 38
ATOM     32  C5  MCU L   1      -4.318   0.007  -0.063  1.00  0.00    +0.0042  A
ATOM     33  C6  MCU L   1      -5.444  -0.705   0.435  1.00  0.00    -0.0431  A
ATOM     34  C7  MCU L   1      -6.821  -0.092   0.460  1.00  0.00    -0.0393  C
ATOM     35  C8  MCU L   1      -5.280  -2.004   0.939  1.00  0.00    -0.0584  A
ATOM     36  C9  MCU L   1      -4.027  -2.609   0.941  1.00  0.00    -0.0596  A
ATOM     37 C10  MCU L   1      -2.925  -1.924   0.433  1.00  0.00    -0.0381  A
ATOM     38 C11  MCU L   1      -3.049  -0.622  -0.083  1.00  0.00    +0.0436  A
ATOM     39 H47  MCU L   1      -6.867   0.712   1.198  1.00  0.00    +0.0278  H
ATOM     40 H48  MCU L   1      -7.585  -0.828   0.729  1.00  0.00    +0.0278  H
ATOM     41 H49  MCU L   1      -7.088   0.290  -0.532  1.00  0.00    +0.0278  H
ATOM     42 H50  MCU L   1      -6.130  -2.549   1.344  1.00  0.00    +0.0620  H
ATOM     43 H51  MCU L   1      -3.906  -3.612   1.343  1.00  0.00    +0.0618  H
ATOM     44 H52  MCU L   1      -1.954  -2.414   0.459  1.00  0.00    +0.0638  H
BRANCH 32 45
ATOM     45  C4  MCU L   1      -4.480   1.413  -0.611  1.00  0.00    +0.0748  C
ATOM     46 H45  MCU L   1      -3.533   1.826  -0.975  1.00  0.00    +0.0611  H
ATOM     47 H46  MCU L   1      -5.167   1.372  -1.465  1.00  0.00    +0.0611  H
BRANCH 45 48
ATOM     48  O3  MCU L   1      -4.984   2.280   0.411  1.00  0.00    -0.3754 OA
BRANCH 48 50
ATOM     49  C1  MCU L   1      -6.453   3.753  -0.858  1.00  0.00    -0.0416  C
ATOM     50  C2  MCU L   1      -5.184   3.619  -0.032  1.00  0.00    +0.0453  C
ATOM     51 H40  MCU L   1      -6.682   4.808  -1.046  1.00  0.00    +0.0252  H
ATOM     52 H41  MCU L   1      -6.349   3.254  -1.828  1.00  0.00    +0.0252  H
ATOM     53 H42  MCU L   1      -7.303   3.289  -0.346  1.00  0.00    +0.0252  H
ATOM     54 H43  MCU L   1      -4.311   3.976  -0.587  1.00  0.00    +0.0557  H
ATOM     55 H44  MCU L   1      -5.279   4.238   0.866  1.00  0.00    +0.0557  H
ENDBRANCH 48 50
ENDBRANCH 45 48
ENDBRANCH 32 45
ENDBRANCH 18 38
ENDBRANCH 1 21
BRANCH 4 56
ATOM     56 S20  MCU L   1       5.462   0.807   2.366  1.00  0.00    +0.2297  S
ATOM     57 O21  MCU L   1       6.833   0.835   2.843  1.00  0.00    -0.2153 OA
ATOM     58 O22  MCU L   1       4.341   0.850   3.285  1.00  0.00    -0.2153 OA
BRANCH 56 59
ATOM     59 C23  MCU L   1       5.267   2.091   1.159  1.00  0.00    +0.0730  A
ATOM     60 C24  MCU L   1       3.992   2.598   0.884  1.00  0.00    -0.0432  A
ATOM     61 C25  MCU L   1       3.847   3.630  -0.044  1.00  0.00    -0.0606  A
ATOM     62 C26  MCU L   1       4.971   4.158  -0.683  1.00  0.00    -0.0617  A
ATOM     63 C27  MCU L   1       6.244   3.661  -0.392  1.00  0.00    -0.0606  A
ATOM     64 C28  MCU L   1       6.397   2.628   0.534  1.00  0.00    -0.0432  A
ATOM     65 H57  MCU L   1       3.113   2.193   1.385  1.00  0.00    +0.0630  H
ATOM     66 H58  MCU L   1       2.861   4.029  -0.266  1.00  0.00    +0.0618  H
ATOM     67 H59  MCU L   1       4.856   4.966  -1.402  1.00  0.00    +0.0618  H
ATOM     68 H60  MCU L   1       7.118   4.085  -0.882  1.00  0.00    +0.0618  H
ATOM     69 H61  MCU L   1       7.393   2.255   0.766  1.00  0.00    +0.0630  H
ENDBRANCH 56 59
ENDBRANCH 4 56
TORSDOF 7
