ROOT
ATOM      1  C1  CHE L   1       0.447  -4.564  -2.433  1.00  0.00    +0.0324  C
ATOM      2  N2  CHE L   1       1.184  -3.579  -1.682  1.00  0.00    -0.2493  N
ATOM      3  N3  CHE L   1       2.531  -3.526  -1.792  1.00  0.00    -0.1773 NA
ATOM      4  C4  CHE L   1       2.866  -2.532  -0.960  1.00  0.00    +0.0622  A
ATOM      5  C5  CHE L   1       1.748  -1.926  -0.351  1.00  0.00    +0.0809  A
ATOM      6  C6  CHE L   1       1.472  -0.897   0.551  1.00  0.00    +0.1474  A
ATOM      7 N18  CHE L   1       0.180  -0.714   0.924  1.00  0.00    -0.1945 NA
ATOM      8 C19  CHE L   1      -0.794  -1.473   0.389  1.00  0.00    +0.2278  A
ATOM      9 N31  CHE L   1      -0.621  -2.449  -0.513  1.00  0.00    -0.1929 NA
ATOM     10 C32  CHE L   1       0.668  -2.641  -0.830  1.00  0.00    +0.1653  A
ATOM     11 H33  CHE L   1       0.951  -5.529  -2.334  1.00  0.00    +0.0473  H
ATOM     12 H34  CHE L   1       0.429  -4.249  -3.479  1.00  0.00    +0.0473  H
ATOM     13 H35  CHE L   1      -0.571  -4.641  -2.046  1.00  0.00    +0.0473  H
ATOM     14 H36  CHE L   1       3.913  -2.286  -0.835  1.00  0.00    +0.0856  H
ENDROOT
BRANCH 6 15
ATOM     15  N7  CHE L   1       2.426  -0.072   1.161  1.00  0.00    -0.3393  N
ATOM     16 H37  CHE L   1       1.948   0.498   1.855  1.00  0.00    +0.1673 HD
BRANCH 15 17
ATOM     17  C8  CHE L   1       3.520   0.606   0.592  1.00  0.00    +0.0409  A
ATOM     18  C9  CHE L   1       3.693   0.778  -0.783  1.00  0.00    -0.0349  A
ATOM     19 C10  CHE L   1       4.814   1.451  -1.283  1.00  0.00    -0.0178  A
ATOM     20 C11  CHE L   1       5.777   1.976  -0.421  1.00  0.00    +0.1270  A
ATOM     21 C16  CHE L   1       5.617   1.807   0.953  1.00  0.00    -0.0178  A
ATOM     22 C17  CHE L   1       4.495   1.132   1.450  1.00  0.00    -0.0349  A
ATOM     23 H38  CHE L   1       2.956   0.414  -1.492  1.00  0.00    +0.0639  H
ATOM     24 H39  CHE L   1       4.929   1.568  -2.358  1.00  0.00    +0.0655  H
ATOM     25 H41  CHE L   1       6.353   2.160   1.669  1.00  0.00    +0.0655  H
ATOM     26 H42  CHE L   1       4.398   0.996   2.526  1.00  0.00    +0.0639  H
BRANCH 20 27
ATOM     27 O12  CHE L   1       6.820   2.602  -1.040  1.00  0.00    -0.4342 OA
BRANCH 27 28
ATOM     28 C13  CHE L   1       7.637   3.426  -0.226  1.00  0.00    +0.3893  C
ATOM     29 F14  CHE L   1       8.415   2.646   0.564  1.00  0.00    -0.1663  F
ATOM     30 F15  CHE L   1       8.478   4.102  -1.050  1.00  0.00    -0.1663  F
ATOM     31 H40  CHE L   1       7.071   4.149   0.372  1.00  0.00    +0.1520  H
ENDBRANCH 27 28
ENDBRANCH 20 27
ENDBRANCH 15 17
ENDBRANCH 6 15
BRANCH 8 32
ATOM     32 N20  CHE L   1      -2.073  -1.174   0.842  1.00  0.00    -0.3519  N
ATOM     33 H43  CHE L   1      -2.000  -0.257   1.277  1.00  0.00    +0.1626 HD
BRANCH 32 34
ATOM     34 C21  CHE L   1      -3.108  -1.263  -0.194  1.00  0.00    +0.0402  C
ATOM     35 H44  CHE L   1      -3.242  -2.317  -0.473  1.00  0.00    +0.0507  H
ATOM     36 H45  CHE L   1      -2.803  -0.732  -1.104  1.00  0.00    +0.0507  H
BRANCH 34 37
ATOM     37 C22  CHE L   1      -4.478  -0.711   0.348  1.00  0.00    +0.0567  C
ATOM     38 C23  CHE L   1      -5.576  -0.976  -0.695  1.00  0.00    -0.0412  C
ATOM     39 N24  CHE L   1      -4.812  -1.487   1.572  1.00  0.00    -0.3199 NA
ATOM     40 H46  CHE L   1      -5.371  -0.443  -1.631  1.00  0.00    +0.0251  H
ATOM     41 H47  CHE L   1      -5.653  -2.043  -0.935  1.00  0.00    +0.0251  H
ATOM     42 H48  CHE L   1      -6.560  -0.645  -0.340  1.00  0.00    +0.0251  H
ATOM     43 H49  CHE L   1      -4.863  -2.476   1.328  1.00  0.00    +0.1191 HD
ATOM     44 H50  CHE L   1      -3.986  -1.429   2.177  1.00  0.00    +0.1191 HD
BRANCH 37 45
ATOM     45 C25  CHE L   1      -4.454   0.799   0.654  1.00  0.00    -0.0262  A
ATOM     46 C26  CHE L   1      -3.712   1.707  -0.123  1.00  0.00    -0.0568  A
ATOM     47 C27  CHE L   1      -3.715   3.077   0.160  1.00  0.00    -0.0614  A
ATOM     48 C28  CHE L   1      -4.471   3.573   1.217  1.00  0.00    -0.0617  A
ATOM     49 C29  CHE L   1      -5.233   2.701   1.986  1.00  0.00    -0.0614  A
ATOM     50 C30  CHE L   1      -5.229   1.332   1.704  1.00  0.00    -0.0568  A
ATOM     51 H51  CHE L   1      -3.122   1.376  -0.973  1.00  0.00    +0.0621  H
ATOM     52 H52  CHE L   1      -3.129   3.758  -0.452  1.00  0.00    +0.0618  H
ATOM     53 H53  CHE L   1      -4.475   4.637   1.434  1.00  0.00    +0.0618  H
ATOM     54 H54  CHE L   1      -5.837   3.081   2.806  1.00  0.00    +0.0618  H
ATOM     55 H55  CHE L   1      -5.847   0.676   2.315  1.00  0.00    +0.0621  H
ENDBRANCH 37 45
ENDBRANCH 34 37
ENDBRANCH 32 34
ENDBRANCH 8 32
TORSDOF 8
