ROOT
ATOM      1  C3  CHE L   1       2.090   1.196  -1.056  1.00  0.00    +0.1623  A
ATOM      2  C4  CHE L   1       0.703   1.356  -0.999  1.00  0.00    -0.0052  A
ATOM      3  C5  CHE L   1      -0.170   0.242  -0.924  1.00  0.00    +0.0271  A
ATOM      4  C6  CHE L   1      -1.588   0.347  -0.860  1.00  0.00    +0.0469  A
ATOM      5 C15  CHE L   1      -2.324  -0.830  -0.692  1.00  0.00    -0.0123  A
ATOM      6 C16  CHE L   1      -1.683  -2.064  -0.667  1.00  0.00    +0.0694  A
ATOM      7 N23  CHE L   1      -0.340  -2.162  -0.783  1.00  0.00    -0.2468 NA
ATOM      8 C24  CHE L   1       0.393  -1.048  -0.895  1.00  0.00    +0.0773  A
ATOM      9 C25  CHE L   1       1.771  -1.196  -0.974  1.00  0.00    +0.0098  A
ATOM     10 C26  CHE L   1       2.629  -0.098  -1.049  1.00  0.00    +0.1639  A
ATOM     11 H39  CHE L   1       0.273   2.351  -0.993  1.00  0.00    +0.0662  H
ATOM     12 H53  CHE L   1      -3.399  -0.794  -0.589  1.00  0.00    +0.0659  H
ATOM     13 H63  CHE L   1       2.152  -2.211  -0.969  1.00  0.00    +0.0677  H
ENDROOT
BRANCH 1 15
ATOM     14  C1  CHE L   1       2.504   3.541  -0.880  1.00  0.00    +0.0790  C
ATOM     15  O2  CHE L   1       2.990   2.230  -1.121  1.00  0.00    -0.4914 OA
ATOM     16 H36  CHE L   1       3.364   4.217  -0.852  1.00  0.00    +0.0660  H
ATOM     17 H37  CHE L   1       1.998   3.608   0.089  1.00  0.00    +0.0660  H
ATOM     18 H38  CHE L   1       1.849   3.873  -1.691  1.00  0.00    +0.0660  H
ENDBRANCH 1 15
BRANCH 4 19
ATOM     19  N7  CHE L   1      -2.190   1.622  -0.896  1.00  0.00    -0.3811  N
ATOM     20 H40  CHE L   1      -1.775   2.170  -1.649  1.00  0.00    +0.1599 HD
BRANCH 19 21
ATOM     21  C8  CHE L   1      -3.646   1.816  -0.804  1.00  0.00    +0.0294  C
ATOM     22  C9  CHE L   1      -4.005   3.193  -1.369  1.00  0.00    -0.0198  C
ATOM     23 C10  CHE L   1      -5.515   3.444  -1.285  1.00  0.00    +0.0005  C
ATOM     24 N11  CHE L   1      -6.154   2.794  -0.133  1.00  0.00    -0.3052 NA
ATOM     25 C12  CHE L   1      -7.393   3.477   0.234  1.00  0.00    -0.0128  C
ATOM     26 C13  CHE L   1      -5.241   2.684   1.003  1.00  0.00    +0.0005  C
ATOM     27 C14  CHE L   1      -4.104   1.717   0.663  1.00  0.00    -0.0198  C
ATOM     28 H41  CHE L   1      -4.168   1.072  -1.420  1.00  0.00    +0.0522  H
ATOM     29 H42  CHE L   1      -3.677   3.281  -2.412  1.00  0.00    +0.0297  H
ATOM     30 H43  CHE L   1      -3.470   3.973  -0.810  1.00  0.00    +0.0297  H
ATOM     31 H44  CHE L   1      -5.673   4.531  -1.275  1.00  0.00    +0.0427  H
ATOM     32 H45  CHE L   1      -5.993   3.063  -2.195  1.00  0.00    +0.0427  H
ATOM     33 H46  CHE L   1      -7.213   4.502   0.578  1.00  0.00    +0.0391  H
ATOM     34 H47  CHE L   1      -8.079   3.513  -0.619  1.00  0.00    +0.0391  H
ATOM     35 H48  CHE L   1      -7.910   2.933   1.032  1.00  0.00    +0.0391  H
ATOM     36 H49  CHE L   1      -5.762   2.297   1.887  1.00  0.00    +0.0427  H
ATOM     37 H50  CHE L   1      -4.838   3.667   1.280  1.00  0.00    +0.0427  H
ATOM     38 H51  CHE L   1      -4.437   0.690   0.861  1.00  0.00    +0.0297  H
ATOM     39 H52  CHE L   1      -3.272   1.904   1.354  1.00  0.00    +0.0297  H
ENDBRANCH 19 21
ENDBRANCH 4 19
BRANCH 6 40
ATOM     40 C17  CHE L   1      -2.425  -3.348  -0.522  1.00  0.00    -0.0258  C
ATOM     41 C18  CHE L   1      -1.775  -4.485  -0.197  1.00  0.00    -0.0788  C
ATOM     42 C19  CHE L   1      -2.439  -5.817  -0.011  1.00  0.00    -0.0341  C
ATOM     43 C20  CHE L   1      -3.961  -5.728   0.078  1.00  0.00    -0.0493  C
ATOM     44 C21  CHE L   1      -4.508  -4.755  -0.957  1.00  0.00    -0.0487  C
ATOM     45 C22  CHE L   1      -3.918  -3.354  -0.767  1.00  0.00    -0.0260  C
ATOM     46 H54  CHE L   1      -0.697  -4.476  -0.046  1.00  0.00    +0.0575  H
ATOM     47 H55  CHE L   1      -2.055  -6.292   0.899  1.00  0.00    +0.0308  H
ATOM     48 H56  CHE L   1      -2.156  -6.461  -0.853  1.00  0.00    +0.0308  H
ATOM     49 H57  CHE L   1      -4.398  -6.722  -0.069  1.00  0.00    +0.0268  H
ATOM     50 H58  CHE L   1      -4.253  -5.396   1.083  1.00  0.00    +0.0268  H
ATOM     51 H59  CHE L   1      -5.601  -4.706  -0.886  1.00  0.00    +0.0268  H
ATOM     52 H60  CHE L   1      -4.272  -5.122  -1.963  1.00  0.00    +0.0268  H
ATOM     53 H61  CHE L   1      -4.416  -2.873   0.085  1.00  0.00    +0.0314  H
ATOM     54 H62  CHE L   1      -4.162  -2.772  -1.663  1.00  0.00    +0.0314  H
ENDBRANCH 6 40
BRANCH 10 55
ATOM     55 O27  CHE L   1       3.996  -0.179  -1.115  1.00  0.00    -0.4882 OA
BRANCH 55 56
ATOM     56 C28  CHE L   1       4.650  -1.406  -0.803  1.00  0.00    +0.0909  C
ATOM     57 H64  CHE L   1       4.235  -2.241  -1.379  1.00  0.00    +0.0697  H
ATOM     58 H65  CHE L   1       5.680  -1.313  -1.165  1.00  0.00    +0.0697  H
BRANCH 56 59
ATOM     59 C29  CHE L   1       4.677  -1.711   0.692  1.00  0.00    -0.0058  C
ATOM     60 H66  CHE L   1       3.683  -2.065   0.994  1.00  0.00    +0.0310  H
ATOM     61 H67  CHE L   1       5.357  -2.553   0.871  1.00  0.00    +0.0310  H
BRANCH 59 62
ATOM     62 C30  CHE L   1       5.033  -0.545   1.623  1.00  0.00    +0.0020  C
ATOM     63 H68  CHE L   1       4.332   0.289   1.499  1.00  0.00    +0.0428  H
ATOM     64 H69  CHE L   1       4.861  -0.925   2.640  1.00  0.00    +0.0428  H
BRANCH 62 65
ATOM     65 N31  CHE L   1       6.431  -0.102   1.532  1.00  0.00    -0.3022 NA
ATOM     66 C32  CHE L   1       6.645   0.918   0.496  1.00  0.00    -0.0011  C
ATOM     67 C33  CHE L   1       8.000   1.503   0.866  1.00  0.00    -0.0390  C
ATOM     68 C34  CHE L   1       8.114   1.314   2.372  1.00  0.00    -0.0390  C
ATOM     69 C35  CHE L   1       6.853   0.563   2.771  1.00  0.00    -0.0011  C
ATOM     70 H70  CHE L   1       5.882   1.705   0.535  1.00  0.00    +0.0426  H
ATOM     71 H71  CHE L   1       6.674   0.508  -0.515  1.00  0.00    +0.0426  H
ATOM     72 H72  CHE L   1       8.076   2.557   0.581  1.00  0.00    +0.0278  H
ATOM     73 H73  CHE L   1       8.807   0.958   0.363  1.00  0.00    +0.0278  H
ATOM     74 H74  CHE L   1       9.013   0.734   2.612  1.00  0.00    +0.0278  H
ATOM     75 H75  CHE L   1       8.185   2.274   2.894  1.00  0.00    +0.0278  H
ATOM     76 H76  CHE L   1       7.053  -0.155   3.573  1.00  0.00    +0.0426  H
ATOM     77 H77  CHE L   1       6.097   1.278   3.124  1.00  0.00    +0.0426  H
ENDBRANCH 62 65
ENDBRANCH 59 62
ENDBRANCH 56 59
ENDBRANCH 55 56
ENDBRANCH 10 55
TORSDOF 9
