ROOT
ATOM      1  C3  MCU L   1       0.432  -0.112  -0.266  1.00  0.00    +0.0325  A
ATOM      2  C4  MCU L   1       1.732  -0.015   0.216  1.00  0.00    +0.0708  A
ATOM      3  C5  MCU L   1       2.868   0.781  -0.244  1.00  0.00    +0.2813  A
ATOM      4  O6  MCU L   1       2.743   1.533  -1.207  1.00  0.00    -0.2651 OA
ATOM      5  N7  MCU L   1       4.053   0.581   0.527  1.00  0.00    -0.1962  N
ATOM      6 N14  MCU L   1       4.119  -0.283   1.646  1.00  0.00    -0.1710 NA
ATOM      7 C15  MCU L   1       3.082  -0.962   2.030  1.00  0.00    +0.0580  A
ATOM      8 C16  MCU L   1       1.844  -0.859   1.324  1.00  0.00    +0.0279  A
ATOM      9 C17  MCU L   1       0.628  -1.470   1.543  1.00  0.00    +0.0261  A
ATOM     10 C18  MCU L   1       0.236  -2.432   2.615  1.00  0.00    -0.0236  C
ATOM     11 N19  MCU L   1      -0.249  -1.002   0.562  1.00  0.00    -0.3347  N
ATOM     12 H40  MCU L   1       3.160  -1.625   2.905  1.00  0.00    +0.0854  H
ATOM     13 H41  MCU L   1      -0.058  -3.393   2.182  1.00  0.00    +0.0292  H
ATOM     14 H42  MCU L   1      -0.595  -2.036   3.208  1.00  0.00    +0.0292  H
ATOM     15 H43  MCU L   1       1.065  -2.623   3.303  1.00  0.00    +0.0292  H
ENDROOT
BRANCH 1 17
ATOM     16  C1  MCU L   1       0.252  -0.016  -2.765  1.00  0.00    -0.0599  C
ATOM     17  C2  MCU L   1      -0.155   0.615  -1.440  1.00  0.00    -0.0144  C
ATOM     18 H30  MCU L   1      -0.203   0.530  -3.597  1.00  0.00    +0.0233  H
ATOM     19 H31  MCU L   1      -0.067  -1.060  -2.830  1.00  0.00    +0.0233  H
ATOM     20 H32  MCU L   1       1.338   0.004  -2.905  1.00  0.00    +0.0233  H
ATOM     21 H33  MCU L   1      -1.242   0.664  -1.384  1.00  0.00    +0.0325  H
ATOM     22 H34  MCU L   1       0.177   1.660  -1.422  1.00  0.00    +0.0325  H
ENDBRANCH 1 17
BRANCH 5 23
ATOM     23  C8  MCU L   1       5.312   1.239   0.255  1.00  0.00    +0.0692  A
ATOM     24  C9  MCU L   1       5.515   2.098  -0.835  1.00  0.00    -0.0361  A
ATOM     25 C10  MCU L   1       6.754   2.714  -1.064  1.00  0.00    -0.0598  A
ATOM     26 C11  MCU L   1       7.823   2.486  -0.207  1.00  0.00    -0.0616  A
ATOM     27 C12  MCU L   1       7.655   1.641   0.881  1.00  0.00    -0.0598  A
ATOM     28 C13  MCU L   1       6.417   1.027   1.106  1.00  0.00    -0.0361  A
ATOM     29 H35  MCU L   1       4.732   2.321  -1.550  1.00  0.00    +0.0639  H
ATOM     30 H36  MCU L   1       6.874   3.374  -1.921  1.00  0.00    +0.0618  H
ATOM     31 H37  MCU L   1       8.781   2.965  -0.387  1.00  0.00    +0.0618  H
ATOM     32 H38  MCU L   1       8.482   1.454   1.561  1.00  0.00    +0.0618  H
ATOM     33 H39  MCU L   1       6.334   0.375   1.973  1.00  0.00    +0.0639  H
ENDBRANCH 5 23
BRANCH 11 34
ATOM     34 C20  MCU L   1      -1.665  -1.415   0.468  1.00  0.00    +0.1121  C
ATOM     35 H44  MCU L   1      -1.779  -2.226   1.198  1.00  0.00    +0.0626  H
BRANCH 34 36
ATOM     36 C21  MCU L   1      -2.032  -2.072  -0.873  1.00  0.00    -0.0262  C
ATOM     37 C22  MCU L   1      -3.306  -2.906  -0.782  1.00  0.00    -0.0629  C
ATOM     38 H45  MCU L   1      -1.217  -2.734  -1.190  1.00  0.00    +0.0287  H
ATOM     39 H46  MCU L   1      -2.161  -1.337  -1.671  1.00  0.00    +0.0287  H
ATOM     40 H47  MCU L   1      -4.168  -2.295  -0.501  1.00  0.00    +0.0231  H
ATOM     41 H48  MCU L   1      -3.198  -3.709  -0.045  1.00  0.00    +0.0231  H
ATOM     42 H49  MCU L   1      -3.523  -3.367  -1.751  1.00  0.00    +0.0231  H
ENDBRANCH 34 36
BRANCH 34 43
ATOM     43 C23  MCU L   1      -2.597  -0.323   1.016  1.00  0.00    +0.2439  C
ATOM     44 O24  MCU L   1      -2.679  -0.108   2.227  1.00  0.00    -0.2710 OA
ATOM     45 N25  MCU L   1      -3.321   0.419   0.107  1.00  0.00    -0.3521  N
ATOM     46 H50  MCU L   1      -3.457   0.059  -0.828  1.00  0.00    +0.1624 HD
BRANCH 45 47
ATOM     47 C26  MCU L   1      -4.321   1.377   0.552  1.00  0.00    +0.0415  C
ATOM     48 H51  MCU L   1      -4.417   2.114  -0.251  1.00  0.00    +0.0509  H
ATOM     49 H52  MCU L   1      -3.963   1.888   1.451  1.00  0.00    +0.0509  H
BRANCH 47 50
ATOM     50 C27  MCU L   1      -5.662   0.693   0.834  1.00  0.00    +0.0647  C
ATOM     51 H53  MCU L   1      -6.393   1.408   1.229  1.00  0.00    +0.0577  H
ATOM     52 H54  MCU L   1      -5.528  -0.093   1.585  1.00  0.00    +0.0577  H
BRANCH 50 53
ATOM     53 O28  MCU L   1      -6.169   0.055  -0.347  1.00  0.00    -0.3812 OA
ATOM     54 C29  MCU L   1      -6.919   0.937  -1.173  1.00  0.00    +0.0365  C
ATOM     55 H55  MCU L   1      -7.268   0.376  -2.044  1.00  0.00    +0.0523  H
ATOM     56 H56  MCU L   1      -6.302   1.769  -1.522  1.00  0.00    +0.0523  H
ATOM     57 H57  MCU L   1      -7.792   1.316  -0.632  1.00  0.00    +0.0523  H
ENDBRANCH 50 53
ENDBRANCH 47 50
ENDBRANCH 45 47
ENDBRANCH 34 43
ENDBRANCH 11 34
TORSDOF 8
