ROOT
ATOM      1 N12  CHE L   1      -3.943  -1.000   1.372  1.00  0.00    -0.3335  N
ATOM      2 C13  CHE L   1      -3.948   0.448   1.506  1.00  0.00    +0.0259  C
ATOM      3 C14  CHE L   1      -2.852   0.920   2.452  1.00  0.00    -0.0077  C
ATOM      4 C15  CHE L   1      -1.519   0.390   1.981  1.00  0.00    -0.0110  A
ATOM      5 C16  CHE L   1      -0.329   1.128   2.110  1.00  0.00    +0.0903  A
ATOM      6 CL17 CHE L   1      -0.292   2.697   2.825  1.00  0.00    -0.0793 Cl
ATOM      7 C18  CHE L   1       0.848   0.566   1.652  1.00  0.00    +0.1856  A
ATOM      8 C19  CHE L   1       0.873  -0.689   1.090  1.00  0.00    +0.1719  A
ATOM      9 C20  CHE L   1      -0.264  -1.471   0.946  1.00  0.00    +0.0077  A
ATOM     10 C21  CHE L   1      -0.162  -2.830   0.316  1.00  0.00    -0.0354  C
ATOM     11 C22  CHE L   1      -1.477  -0.923   1.425  1.00  0.00    +0.0504  A
ATOM     12 C23  CHE L   1      -2.750  -1.718   1.378  1.00  0.00    +0.2556  C
ATOM     13 O24  CHE L   1      -2.714  -2.944   1.380  1.00  0.00    -0.2674 OA
ATOM     14 O25  CHE L   1       2.131  -1.051   0.707  1.00  0.00    -0.4472 OA
ATOM     15 C26  CHE L   1       2.906   0.129   1.043  1.00  0.00    +0.2539  C
ATOM     16 C27  CHE L   1       3.969  -0.295   2.059  1.00  0.00    +0.0131  C
ATOM     17 O37  CHE L   1       2.085   1.141   1.681  1.00  0.00    -0.4460 OA
ATOM     18 H48  CHE L   1      -3.813   0.877   0.507  1.00  0.00    +0.0492  H
ATOM     19 H49  CHE L   1      -4.919   0.768   1.895  1.00  0.00    +0.0492  H
ATOM     20 H50  CHE L   1      -2.878   2.013   2.475  1.00  0.00    +0.0331  H
ATOM     21 H51  CHE L   1      -3.034   0.553   3.469  1.00  0.00    +0.0331  H
ATOM     22 H52  CHE L   1       0.786  -2.959  -0.218  1.00  0.00    +0.0279  H
ATOM     23 H53  CHE L   1      -0.221  -3.608   1.082  1.00  0.00    +0.0279  H
ATOM     24 H54  CHE L   1      -0.951  -2.974  -0.429  1.00  0.00    +0.0279  H
ATOM     25 H55  CHE L   1       4.534   0.562   2.438  1.00  0.00    +0.0305  H
ATOM     26 H56  CHE L   1       4.659  -1.039   1.647  1.00  0.00    +0.0305  H
ATOM     27 H57  CHE L   1       3.493  -0.759   2.931  1.00  0.00    +0.0305  H
ENDROOT
BRANCH 1 28
ATOM     28 C11  CHE L   1      -5.189  -1.708   1.074  1.00  0.00    +0.0527  C
ATOM     29 H46  CHE L   1      -4.994  -2.766   0.862  1.00  0.00    +0.0540  H
ATOM     30 H47  CHE L   1      -5.766  -1.690   2.003  1.00  0.00    +0.0540  H
BRANCH 28 38
ATOM     31  C3  CHE L   1      -7.197  -0.615  -0.079  1.00  0.00    +0.0193  A
ATOM     32  C4  CHE L   1      -7.832  -0.145  -1.299  1.00  0.00    -0.0288  A
ATOM     33  C5  CHE L   1      -7.192  -0.198  -2.476  1.00  0.00    +0.0170  A
ATOM     34  C6  CHE L   1      -7.781   0.261  -3.773  1.00  0.00    -0.0243  C
ATOM     35  N7  CHE L   1      -5.919  -0.703  -2.509  1.00  0.00    -0.3262  N
ATOM     36  C8  CHE L   1      -5.229  -1.166  -1.416  1.00  0.00    +0.2549  A
ATOM     37  O9  CHE L   1      -4.080  -1.578  -1.548  1.00  0.00    -0.2675 OA
ATOM     38 C10  CHE L   1      -5.939  -1.116  -0.093  1.00  0.00    +0.0495  A
ATOM     39 H41  CHE L   1      -8.843   0.245  -1.247  1.00  0.00    +0.0646  H
ATOM     40 H42  CHE L   1      -7.177   1.067  -4.202  1.00  0.00    +0.0292  H
ATOM     41 H43  CHE L   1      -7.817  -0.566  -4.490  1.00  0.00    +0.0292  H
ATOM     42 H44  CHE L   1      -8.802   0.637  -3.646  1.00  0.00    +0.0292  H
ATOM     43 H45  CHE L   1      -5.412  -0.755  -3.385  1.00  0.00    +0.1686 HD
BRANCH 31 45
ATOM     44  C1  CHE L   1      -8.189   1.238   1.665  1.00  0.00    -0.0134  C
ATOM     45  S2  CHE L   1      -8.170  -0.545   1.369  1.00  0.00    -0.1280 SA
ATOM     46 H38  CHE L   1      -8.735   1.438   2.592  1.00  0.00    +0.0344  H
ATOM     47 H39  CHE L   1      -7.172   1.621   1.773  1.00  0.00    +0.0344  H
ATOM     48 H40  CHE L   1      -8.692   1.764   0.849  1.00  0.00    +0.0344  H
ENDBRANCH 31 45
ENDBRANCH 28 38
ENDBRANCH 1 28
BRANCH 15 49
ATOM     49 C28  CHE L   1       3.491   0.723  -0.275  1.00  0.00    +0.0362  C
ATOM     50 C29  CHE L   1       4.375   1.963  -0.080  1.00  0.00    -0.0417  C
ATOM     51 C30  CHE L   1       5.877   1.707   0.068  1.00  0.00    -0.0369  C
ATOM     52 C31  CHE L   1       6.450   0.540  -0.774  1.00  0.00    +0.0099  C
ATOM     53 C35  CHE L   1       5.432   0.125  -1.849  1.00  0.00    -0.0369  C
ATOM     54 C36  CHE L   1       4.133  -0.337  -1.188  1.00  0.00    -0.0417  C
ATOM     55 H58  CHE L   1       2.613   1.092  -0.830  1.00  0.00    +0.0376  H
ATOM     56 H59  CHE L   1       4.021   2.577   0.758  1.00  0.00    +0.0271  H
ATOM     57 H60  CHE L   1       4.247   2.596  -0.970  1.00  0.00    +0.0271  H
ATOM     58 H61  CHE L   1       6.379   2.650  -0.188  1.00  0.00    +0.0280  H
ATOM     59 H62  CHE L   1       6.119   1.529   1.122  1.00  0.00    +0.0280  H
ATOM     60 H63  CHE L   1       6.567  -0.326  -0.106  1.00  0.00    +0.0462  H
ATOM     61 H70  CHE L   1       5.237   0.949  -2.546  1.00  0.00    +0.0280  H
ATOM     62 H71  CHE L   1       5.802  -0.718  -2.444  1.00  0.00    +0.0280  H
ATOM     63 H72  CHE L   1       3.417  -0.618  -1.971  1.00  0.00    +0.0271  H
ATOM     64 H73  CHE L   1       4.339  -1.261  -0.633  1.00  0.00    +0.0271  H
BRANCH 52 65
ATOM     65 N32  CHE L   1       7.796   0.895  -1.293  1.00  0.00    -0.3054 NA
ATOM     66 C33  CHE L   1       8.769   1.040  -0.199  1.00  0.00    -0.0128  C
ATOM     67 C34  CHE L   1       8.318  -0.076  -2.259  1.00  0.00    -0.0128  C
ATOM     68 H64  CHE L   1       8.885   0.111   0.371  1.00  0.00    +0.0391  H
ATOM     69 H65  CHE L   1       9.752   1.325  -0.593  1.00  0.00    +0.0391  H
ATOM     70 H66  CHE L   1       8.483   1.837   0.495  1.00  0.00    +0.0391  H
ATOM     71 H67  CHE L   1       7.742  -0.054  -3.191  1.00  0.00    +0.0391  H
ATOM     72 H68  CHE L   1       9.346   0.175  -2.548  1.00  0.00    +0.0391  H
ATOM     73 H69  CHE L   1       8.317  -1.096  -1.857  1.00  0.00    +0.0391  H
ENDBRANCH 52 65
ENDBRANCH 15 49
TORSDOF 5
