ROOT
ATOM      1 C27  WH0 L   1       1.381  -3.066   0.786  1.00  0.00    -0.0133  A
ATOM      2 C28  WH0 L   1       2.050  -4.012  -0.024  1.00  0.00    -0.0519  A
ATOM      3 C29  WH0 L   1       1.799  -5.381   0.110  1.00  0.00    -0.0374  A
ATOM      4 C30  WH0 L   1       0.876  -5.762   1.058  1.00  0.00    +0.0454  A
ATOM      5 C31  WH0 L   1       0.208  -4.846   1.867  1.00  0.00    -0.0145  A
ATOM      6 C32  WH0 L   1       0.448  -3.489   1.746  1.00  0.00    -0.0483  A
ATOM      7 C33  WH0 L   1      -0.726  -5.578   2.784  1.00  0.00    +0.0535  C
ATOM      8 C34  WH0 L   1      -0.494  -7.039   2.379  1.00  0.00    +0.2296  C
ATOM      9 O35  WH0 L   1      -1.039  -8.022   2.852  1.00  0.00    -0.2725 OA
ATOM     10 N36  WH0 L   1       0.458  -7.046   1.366  1.00  0.00    -0.3256  N
ATOM     11 H62  WH0 L   1       2.763  -3.678  -0.776  1.00  0.00    +0.0624  H
ATOM     12 H63  WH0 L   1       2.309  -6.105  -0.515  1.00  0.00    +0.0638  H
ATOM     13 H64  WH0 L   1      -0.076  -2.776   2.376  1.00  0.00    +0.0627  H
ATOM     14 H65  WH0 L   1      -1.767  -5.305   2.595  1.00  0.00    +0.0410  H
ATOM     15 H66  WH0 L   1      -0.446  -5.439   3.832  1.00  0.00    +0.0410  H
ATOM     16 H67  WH0 L   1       0.781  -7.897   0.929  1.00  0.00    +0.1686 HD
ENDROOT
BRANCH 1 25
ATOM     17 C11  WH0 L   1       0.751  -0.579   0.242  1.00  0.00    +0.1015  A
ATOM     18 N12  WH0 L   1       1.398   0.599   0.228  1.00  0.00    -0.1627 NA
ATOM     19 N13  WH0 L   1       2.672   0.295   0.578  1.00  0.00    -0.1987  N
ATOM     20 C14  WH0 L   1       3.724   1.260   0.646  1.00  0.00    +0.2282  A
ATOM     21 N22  WH0 L   1       4.941   0.843   0.917  1.00  0.00    -0.2207 NA
ATOM     22 C23  WH0 L   1       5.125  -0.498   1.177  1.00  0.00    +0.0334  A
ATOM     23 C24  WH0 L   1       4.170  -1.441   1.143  1.00  0.00    -0.0173  A
ATOM     24 C25  WH0 L   1       2.858  -1.049   0.798  1.00  0.00    +0.0803  A
ATOM     25 C26  WH0 L   1       1.632  -1.648   0.606  1.00  0.00    +0.0353  A
ATOM     26 H60  WH0 L   1       6.144  -0.779   1.433  1.00  0.00    +0.0831  H
ATOM     27 H61  WH0 L   1       4.400  -2.477   1.368  1.00  0.00    +0.0654  H
BRANCH 17 30
ATOM     28  C8  WH0 L   1      -2.911   0.341   0.049  1.00  0.00    -0.0099  A
ATOM     29  C9  WH0 L   1      -1.540   0.376   0.350  1.00  0.00    -0.0465  A
ATOM     30 C10  WH0 L   1      -0.674  -0.637  -0.097  1.00  0.00    +0.0032  A
ATOM     31 C37  WH0 L   1      -1.193  -1.681  -0.875  1.00  0.00    -0.0498  A
ATOM     32 C38  WH0 L   1      -2.554  -1.722  -1.183  1.00  0.00    -0.0256  A
ATOM     33 C39  WH0 L   1      -3.397  -0.718  -0.721  1.00  0.00    +0.1266  A
ATOM     34 F40  WH0 L   1      -4.698  -0.775  -1.040  1.00  0.00    -0.2052  F
ATOM     35 H49  WH0 L   1      -1.140   1.197   0.943  1.00  0.00    +0.0628  H
ATOM     36 H68  WH0 L   1      -0.546  -2.465  -1.261  1.00  0.00    +0.0625  H
ATOM     37 H69  WH0 L   1      -2.960  -2.528  -1.786  1.00  0.00    +0.0646  H
BRANCH 28 38
ATOM     38  C7  WH0 L   1      -3.830   1.440   0.527  1.00  0.00    -0.0074  C
ATOM     39 H47  WH0 L   1      -4.824   1.025   0.736  1.00  0.00    +0.0331  H
ATOM     40 H48  WH0 L   1      -3.455   1.817   1.487  1.00  0.00    +0.0331  H
BRANCH 38 41
ATOM     41  C6  WH0 L   1      -3.921   2.608  -0.463  1.00  0.00    +0.0224  C
ATOM     42 H45  WH0 L   1      -2.925   2.946  -0.770  1.00  0.00    +0.0489  H
ATOM     43 H46  WH0 L   1      -4.429   3.450   0.021  1.00  0.00    +0.0489  H
BRANCH 41 46
ATOM     44  C3  WH0 L   1      -6.021   2.268  -1.691  1.00  0.00    +0.2443  C
ATOM     45  O4  WH0 L   1      -6.728   2.621  -0.754  1.00  0.00    -0.2683 OA
ATOM     46  N5  WH0 L   1      -4.651   2.273  -1.671  1.00  0.00    -0.3522  N
ATOM     47 H44  WH0 L   1      -4.158   1.759  -2.389  1.00  0.00    +0.1626 HD
BRANCH 44 49
ATOM     48  C1  WH0 L   1      -6.084   1.740  -4.145  1.00  0.00    -0.0936  C
ATOM     49  C2  WH0 L   1      -6.642   1.729  -2.928  1.00  0.00    -0.0047  C
ATOM     50 H41  WH0 L   1      -5.103   2.159  -4.339  1.00  0.00    +0.0536  H
ATOM     51 H42  WH0 L   1      -6.632   1.347  -4.997  1.00  0.00    +0.0536  H
ATOM     52 H43  WH0 L   1      -7.652   1.356  -2.788  1.00  0.00    +0.0666  H
ENDBRANCH 44 49
ENDBRANCH 41 46
ENDBRANCH 38 41
ENDBRANCH 28 38
ENDBRANCH 17 30
BRANCH 20 53
ATOM     53 N15  WH0 L   1       3.468   2.608   0.383  1.00  0.00    -0.3401  N
ATOM     54 C16  WH0 L   1       4.582   3.469  -0.037  1.00  0.00    +0.0237  C
ATOM     55 C17  WH0 L   1       4.088   4.861  -0.447  1.00  0.00    -0.0090  C
ATOM     56 C18  WH0 L   1       2.657   4.822  -0.979  1.00  0.00    +0.0585  C
ATOM     57 O19  WH0 L   1       2.622   4.051  -2.183  1.00  0.00    -0.3917 OA
ATOM     58 C20  WH0 L   1       1.678   4.232   0.044  1.00  0.00    -0.0090  C
ATOM     59 C21  WH0 L   1       2.381   3.323   1.053  1.00  0.00    +0.0237  C
ATOM     60 H50  WH0 L   1       5.323   3.564   0.765  1.00  0.00    +0.0489  H
ATOM     61 H51  WH0 L   1       5.082   3.004  -0.896  1.00  0.00    +0.0489  H
ATOM     62 H52  WH0 L   1       4.771   5.271  -1.200  1.00  0.00    +0.0307  H
ATOM     63 H53  WH0 L   1       4.129   5.531   0.421  1.00  0.00    +0.0307  H
ATOM     64 H54  WH0 L   1       2.334   5.833  -1.254  1.00  0.00    +0.0594  H
ATOM     65 H55  WH0 L   1       2.687   3.112  -1.919  1.00  0.00    +0.2098 HD
ATOM     66 H56  WH0 L   1       0.887   3.672  -0.470  1.00  0.00    +0.0307  H
ATOM     67 H57  WH0 L   1       1.189   5.041   0.600  1.00  0.00    +0.0307  H
ATOM     68 H58  WH0 L   1       1.650   2.666   1.536  1.00  0.00    +0.0489  H
ATOM     69 H59  WH0 L   1       2.803   3.925   1.869  1.00  0.00    +0.0489  H
ENDBRANCH 20 53
ENDBRANCH 1 25
TORSDOF 7
