ROOT
ATOM      1  N3  MCU L   1       2.494   2.634  -0.142  1.00  0.00    -0.3277  N
ATOM      2  C4  MCU L   1       2.397   3.065  -1.529  1.00  0.00    +0.0114  C
ATOM      3  C5  MCU L   1       1.610   1.746   0.465  1.00  0.00    +0.3216  C
ATOM      4  O6  MCU L   1       1.706   1.402   1.640  1.00  0.00    -0.2471 OA
ATOM      5  N7  MCU L   1       0.562   1.324  -0.362  1.00  0.00    -0.3168  N
ATOM      6  C8  MCU L   1      -0.556   2.271  -0.349  1.00  0.00    +0.0283  C
ATOM      7  C9  MCU L   1      -1.720   1.565   0.354  1.00  0.00    +0.0009  C
ATOM      8 C10  MCU L   1      -2.836   1.125  -0.600  1.00  0.00    +0.0235  C
ATOM      9 N11  MCU L   1      -3.191  -0.225  -0.165  1.00  0.00    -0.3676  N
ATOM     10 C19  MCU L   1      -2.276  -0.739   0.852  1.00  0.00    +0.0241  C
ATOM     11 C20  MCU L   1      -1.127   0.256   0.886  1.00  0.00    +0.0073  C
ATOM     12 C21  MCU L   1      -0.008  -0.011  -0.127  1.00  0.00    +0.0641  C
ATOM     13 H35  MCU L   1       1.831   2.358  -2.139  1.00  0.00    +0.0453  H
ATOM     14 H36  MCU L   1       1.905   4.041  -1.560  1.00  0.00    +0.0453  H
ATOM     15 H37  MCU L   1       3.403   3.149  -1.952  1.00  0.00    +0.0453  H
ATOM     16 H38  MCU L   1      -0.287   3.191   0.184  1.00  0.00    +0.0493  H
ATOM     17 H39  MCU L   1      -0.791   2.537  -1.385  1.00  0.00    +0.0493  H
ATOM     18 H40  MCU L   1      -2.139   2.173   1.164  1.00  0.00    +0.0339  H
ATOM     19 H41  MCU L   1      -2.502   1.104  -1.644  1.00  0.00    +0.0491  H
ATOM     20 H42  MCU L   1      -3.682   1.817  -0.513  1.00  0.00    +0.0491  H
ATOM     21 H46  MCU L   1      -1.923  -1.750   0.622  1.00  0.00    +0.0491  H
ATOM     22 H47  MCU L   1      -2.784  -0.753   1.823  1.00  0.00    +0.0491  H
ATOM     23 H48  MCU L   1      -0.736   0.386   1.901  1.00  0.00    +0.0345  H
ATOM     24 H49  MCU L   1      -0.483  -0.281  -1.083  1.00  0.00    +0.0579  H
ENDROOT
BRANCH 1 26
ATOM     25  C1  MCU L   1       2.960   4.597   1.282  1.00  0.00    -0.0473  C
ATOM     26  C2  MCU L   1       3.488   3.297   0.695  1.00  0.00    +0.0197  C
ATOM     27 H30  MCU L   1       3.720   5.064   1.916  1.00  0.00    +0.0247  H
ATOM     28 H31  MCU L   1       2.067   4.420   1.891  1.00  0.00    +0.0247  H
ATOM     29 H32  MCU L   1       2.691   5.306   0.493  1.00  0.00    +0.0247  H
ATOM     30 H33  MCU L   1       3.783   2.629   1.513  1.00  0.00    +0.0486  H
ATOM     31 H34  MCU L   1       4.387   3.484   0.097  1.00  0.00    +0.0486  H
ENDBRANCH 1 26
BRANCH 9 32
ATOM     32 C12  MCU L   1      -4.288  -0.914  -0.644  1.00  0.00    +0.0765  A
ATOM     33 C13  MCU L   1      -4.662  -2.155  -0.106  1.00  0.00    -0.0175  A
ATOM     34 C14  MCU L   1      -5.772  -2.835  -0.601  1.00  0.00    +0.0297  A
ATOM     35 N15  MCU L   1      -6.551  -2.380  -1.601  1.00  0.00    -0.2603 NA
ATOM     36 C16  MCU L   1      -6.192  -1.188  -2.122  1.00  0.00    +0.0648  A
ATOM     37 C17  MCU L   1      -5.103  -0.443  -1.688  1.00  0.00    +0.1644  A
ATOM     38 F18  MCU L   1      -4.851   0.724  -2.303  1.00  0.00    -0.2017  F
ATOM     39 H43  MCU L   1      -4.109  -2.611   0.707  1.00  0.00    +0.0654  H
ATOM     40 H44  MCU L   1      -6.065  -3.795  -0.186  1.00  0.00    +0.0830  H
ATOM     41 H45  MCU L   1      -6.817  -0.821  -2.930  1.00  0.00    +0.0859  H
ENDBRANCH 9 32
BRANCH 12 42
ATOM     42 C22  MCU L   1       0.996  -1.118   0.123  1.00  0.00    -0.0244  A
ATOM     43 C23  MCU L   1       1.156  -1.741   1.366  1.00  0.00    -0.0531  A
ATOM     44 C24  MCU L   1       2.088  -2.771   1.532  1.00  0.00    -0.0196  A
ATOM     45 C25  MCU L   1       2.883  -3.197   0.468  1.00  0.00    +0.1201  A
ATOM     46 C28  MCU L   1       2.742  -2.579  -0.772  1.00  0.00    -0.0196  A
ATOM     47 C29  MCU L   1       1.810  -1.548  -0.940  1.00  0.00    -0.0531  A
ATOM     48 H50  MCU L   1       0.584  -1.424   2.232  1.00  0.00    +0.0622  H
ATOM     49 H51  MCU L   1       2.204  -3.236   2.508  1.00  0.00    +0.0654  H
ATOM     50 H55  MCU L   1       3.341  -2.868  -1.629  1.00  0.00    +0.0654  H
ATOM     51 H56  MCU L   1       1.722  -1.072  -1.915  1.00  0.00    +0.0622  H
BRANCH 45 52
ATOM     52 O26  MCU L   1       3.749  -4.213   0.769  1.00  0.00    -0.4951 OA
ATOM     53 C27  MCU L   1       4.613  -4.648  -0.273  1.00  0.00    +0.0788  C
ATOM     54 H52  MCU L   1       4.043  -5.068  -1.108  1.00  0.00    +0.0660  H
ATOM     55 H53  MCU L   1       5.248  -5.443   0.130  1.00  0.00    +0.0660  H
ATOM     56 H54  MCU L   1       5.268  -3.837  -0.609  1.00  0.00    +0.0660  H
ENDBRANCH 45 52
ENDBRANCH 12 42
TORSDOF 4
