ROOT
ATOM      1  N4  SEL L   1      -0.420   0.338   1.103  1.00  0.00    -0.2864 NA
ATOM      2  C5  SEL L   1      -0.310   1.773   0.734  1.00  0.00    +0.0026  C
ATOM      3  C6  SEL L   1      -1.335   2.189  -0.317  1.00  0.00    -0.0108  C
ATOM      4  C7  SEL L   1      -2.768   1.911   0.158  1.00  0.00    +0.0718  C
ATOM      5  O8  SEL L   1      -3.034   2.737   1.302  1.00  0.00    -0.3882 OA
ATOM      6  C9  SEL L   1      -3.800   2.291  -0.918  1.00  0.00    -0.0236  C
ATOM      7 C10  SEL L   1      -3.803   1.347  -2.115  1.00  0.00    -0.0504  C
ATOM      8 C11  SEL L   1      -3.983  -0.096  -1.664  1.00  0.00    -0.0526  C
ATOM      9 C12  SEL L   1      -2.931  -0.507  -0.638  1.00  0.00    -0.0459  C
ATOM     10 C13  SEL L   1      -2.906   0.431   0.593  1.00  0.00    +0.0076  C
ATOM     11 C14  SEL L   1      -1.789   0.079   1.639  1.00  0.00    +0.0415  C
ATOM     12 H35  SEL L   1      -0.426   2.405   1.624  1.00  0.00    +0.0428  H
ATOM     13 H36  SEL L   1       0.683   1.984   0.324  1.00  0.00    +0.0428  H
ATOM     14 H37  SEL L   1      -1.124   1.652  -1.254  1.00  0.00    +0.0305  H
ATOM     15 H38  SEL L   1      -1.208   3.262  -0.526  1.00  0.00    +0.0305  H
ATOM     16 H39  SEL L   1      -3.090   3.663   0.997  1.00  0.00    +0.2102 HD
ATOM     17 H40  SEL L   1      -4.802   2.304  -0.467  1.00  0.00    +0.0293  H
ATOM     18 H41  SEL L   1      -3.625   3.322  -1.260  1.00  0.00    +0.0293  H
ATOM     19 H42  SEL L   1      -4.612   1.620  -2.799  1.00  0.00    +0.0266  H
ATOM     20 H43  SEL L   1      -2.870   1.453  -2.671  1.00  0.00    +0.0266  H
ATOM     21 H44  SEL L   1      -4.979  -0.215  -1.213  1.00  0.00    +0.0265  H
ATOM     22 H45  SEL L   1      -3.946  -0.769  -2.531  1.00  0.00    +0.0265  H
ATOM     23 H46  SEL L   1      -3.170  -1.528  -0.330  1.00  0.00    +0.0269  H
ATOM     24 H47  SEL L   1      -1.950  -0.535  -1.121  1.00  0.00    +0.0269  H
ATOM     25 H48  SEL L   1      -3.873   0.323   1.105  1.00  0.00    +0.0347  H
ATOM     26 H49  SEL L   1      -1.922   0.747   2.504  1.00  0.00    +0.0516  H
ENDROOT
BRANCH 1 27
ATOM     27  C3  SEL L   1       0.633   0.067   2.129  1.00  0.00    +0.0787  C
ATOM     28 H33  SEL L   1       0.595   0.801   2.943  1.00  0.00    +0.0524  H
ATOM     29 H34  SEL L   1       0.535  -0.929   2.575  1.00  0.00    +0.0524  H
BRANCH 27 31
ATOM     30  O1  SEL L   1       2.990   0.585   2.081  1.00  0.00    -0.2715 OA
ATOM     31  C2  SEL L   1       2.034   0.091   1.492  1.00  0.00    +0.2393  C
ATOM     32 N22  SEL L   1       2.058  -0.552   0.264  1.00  0.00    -0.3245  N
ATOM     33 H54  SEL L   1       1.231  -1.114   0.088  1.00  0.00    +0.1686 HD
BRANCH 32 34
ATOM     34 C23  SEL L   1       3.177  -0.767  -0.570  1.00  0.00    +0.0495  A
ATOM     35 C24  SEL L   1       3.199  -2.023  -1.199  1.00  0.00    -0.0377  A
ATOM     36 C25  SEL L   1       4.264  -2.395  -2.011  1.00  0.00    -0.0592  A
ATOM     37 C26  SEL L   1       5.307  -1.502  -2.233  1.00  0.00    -0.0539  A
ATOM     38 C27  SEL L   1       5.283  -0.211  -1.676  1.00  0.00    -0.0159  A
ATOM     39 C28  SEL L   1       6.319   0.690  -1.982  1.00  0.00    -0.0540  A
ATOM     40 C29  SEL L   1       6.298   2.003  -1.508  1.00  0.00    -0.0612  A
ATOM     41 C30  SEL L   1       5.238   2.431  -0.724  1.00  0.00    -0.0611  A
ATOM     42 C31  SEL L   1       4.204   1.541  -0.409  1.00  0.00    -0.0521  A
ATOM     43 C32  SEL L   1       4.204   0.188  -0.840  1.00  0.00    +0.0055  A
ATOM     44 H55  SEL L   1       2.405  -2.746  -1.023  1.00  0.00    +0.0638  H
ATOM     45 H56  SEL L   1       4.283  -3.382  -2.468  1.00  0.00    +0.0618  H
ATOM     46 H57  SEL L   1       6.133  -1.812  -2.878  1.00  0.00    +0.0624  H
ATOM     47 H58  SEL L   1       7.148   0.383  -2.621  1.00  0.00    +0.0624  H
ATOM     48 H59  SEL L   1       7.104   2.687  -1.761  1.00  0.00    +0.0618  H
ATOM     49 H60  SEL L   1       5.203   3.459  -0.363  1.00  0.00    +0.0618  H
ATOM     50 H61  SEL L   1       3.383   1.928   0.182  1.00  0.00    +0.0624  H
ENDBRANCH 32 34
ENDBRANCH 27 31
ENDBRANCH 1 27
BRANCH 11 51
ATOM     51 C15  SEL L   1      -2.002  -1.343   2.169  1.00  0.00    -0.0297  A
ATOM     52 C16  SEL L   1      -2.758  -1.528   3.341  1.00  0.00    -0.0544  A
ATOM     53 C17  SEL L   1      -2.997  -2.809   3.841  1.00  0.00    -0.0261  A
ATOM     54 C18  SEL L   1      -2.492  -3.913   3.169  1.00  0.00    +0.1234  A
ATOM     55 F19  SEL L   1      -2.733  -5.141   3.646  1.00  0.00    -0.2055  F
ATOM     56 C20  SEL L   1      -1.741  -3.762   2.011  1.00  0.00    -0.0261  A
ATOM     57 C21  SEL L   1      -1.494  -2.481   1.513  1.00  0.00    -0.0544  A
ATOM     58 H50  SEL L   1      -3.166  -0.672   3.884  1.00  0.00    +0.0622  H
ATOM     59 H51  SEL L   1      -3.578  -2.945   4.748  1.00  0.00    +0.0646  H
ATOM     60 H52  SEL L   1      -1.360  -4.640   1.500  1.00  0.00    +0.0646  H
ATOM     61 H53  SEL L   1      -0.913  -2.372   0.602  1.00  0.00    +0.0622  H
ENDBRANCH 11 51
TORSDOF 4
