ROOT
ATOM      1 C11  CHE L   1      -1.549  -1.375   0.596  1.00  0.00    +0.0489  A
ATOM      2 C12  CHE L   1      -0.474  -0.520   0.291  1.00  0.00    -0.0410  A
ATOM      3 C13  CHE L   1       0.847  -0.975   0.314  1.00  0.00    -0.0137  A
ATOM      4 C26  CHE L   1       1.089  -2.320   0.646  1.00  0.00    -0.0298  A
ATOM      5 C27  CHE L   1       0.011  -3.179   0.946  1.00  0.00    +0.0509  A
ATOM      6 C28  CHE L   1      -1.319  -2.730   0.933  1.00  0.00    +0.0151  A
ATOM      7 C29  CHE L   1      -2.144  -3.840   1.318  1.00  0.00    -0.0245  A
ATOM      8 C30  CHE L   1      -3.625  -3.869   1.466  1.00  0.00    -0.0377  C
ATOM      9 C31  CHE L   1      -1.302  -4.911   1.531  1.00  0.00    +0.0089  A
ATOM     10 N32  CHE L   1      -0.012  -4.520   1.282  1.00  0.00    -0.3438  N
ATOM     11 H49  CHE L   1      -0.688   0.515   0.029  1.00  0.00    +0.0631  H
ATOM     12 H62  CHE L   1       2.109  -2.695   0.654  1.00  0.00    +0.0644  H
ATOM     13 H63  CHE L   1      -3.975  -3.023   2.065  1.00  0.00    +0.0278  H
ATOM     14 H64  CHE L   1      -3.951  -4.785   1.970  1.00  0.00    +0.0278  H
ATOM     15 H65  CHE L   1      -4.109  -3.839   0.485  1.00  0.00    +0.0278  H
ATOM     16 H66  CHE L   1      -1.532  -5.925   1.832  1.00  0.00    +0.0812  H
ENDROOT
BRANCH 1 18
ATOM     17  N8  CHE L   1      -3.119   0.248   1.411  1.00  0.00    -0.3478  N
ATOM     18  C9  CHE L   1      -2.915  -0.816   0.558  1.00  0.00    +0.2530  C
ATOM     19 O10  CHE L   1      -3.763  -1.285  -0.187  1.00  0.00    -0.2676 OA
ATOM     20 H48  CHE L   1      -2.409   0.451   2.101  1.00  0.00    +0.1630 HD
BRANCH 17 21
ATOM     21  C7  CHE L   1      -4.439   0.819   1.607  1.00  0.00    +0.0491  C
ATOM     22 H46  CHE L   1      -4.430   1.360   2.559  1.00  0.00    +0.0538  H
ATOM     23 H47  CHE L   1      -5.134  -0.022   1.709  1.00  0.00    +0.0538  H
BRANCH 21 29
ATOM     24  C1  CHE L   1      -6.449   4.044  -2.805  1.00  0.00    -0.0244  C
ATOM     25  C2  CHE L   1      -5.848   3.293  -1.658  1.00  0.00    +0.0162  A
ATOM     26  C3  CHE L   1      -4.591   3.468  -1.226  1.00  0.00    -0.0393  A
ATOM     27  C4  CHE L   1      -4.062   2.697  -0.109  1.00  0.00    -0.0388  A
ATOM     28  C5  CHE L   1      -2.657   3.058   0.282  1.00  0.00    -0.0392  C
ATOM     29  C6  CHE L   1      -4.826   1.757   0.496  1.00  0.00    +0.0389  A
ATOM     30 C36  CHE L   1      -6.255   1.613   0.048  1.00  0.00    +0.2540  A
ATOM     31 O37  CHE L   1      -7.056   0.877   0.619  1.00  0.00    -0.2675 OA
ATOM     32 N38  CHE L   1      -6.648   2.381  -1.018  1.00  0.00    -0.3262  N
ATOM     33 H39  CHE L   1      -6.776   3.350  -3.587  1.00  0.00    +0.0292  H
ATOM     34 H40  CHE L   1      -5.735   4.741  -3.255  1.00  0.00    +0.0292  H
ATOM     35 H41  CHE L   1      -7.316   4.623  -2.470  1.00  0.00    +0.0292  H
ATOM     36 H42  CHE L   1      -3.935   4.183  -1.716  1.00  0.00    +0.0637  H
ATOM     37 H43  CHE L   1      -2.391   2.709   1.283  1.00  0.00    +0.0278  H
ATOM     38 H44  CHE L   1      -2.526   4.147   0.299  1.00  0.00    +0.0278  H
ATOM     39 H45  CHE L   1      -1.943   2.641  -0.436  1.00  0.00    +0.0278  H
ATOM     40 H74  CHE L   1      -7.607   2.249  -1.310  1.00  0.00    +0.1686 HD
ENDBRANCH 21 29
ENDBRANCH 17 21
ENDBRANCH 1 18
BRANCH 3 41
ATOM     41 C14  CHE L   1       1.960  -0.068  -0.002  1.00  0.00    +0.0004  A
ATOM     42 C15  CHE L   1       3.053   0.087   0.849  1.00  0.00    -0.0491  A
ATOM     43 C16  CHE L   1       4.084   0.971   0.516  1.00  0.00    -0.0189  A
ATOM     44 C17  CHE L   1       4.037   1.698  -0.674  1.00  0.00    +0.1296  A
ATOM     45 N24  CHE L   1       2.972   1.573  -1.495  1.00  0.00    -0.2376 NA
ATOM     46 C25  CHE L   1       1.984   0.706  -1.157  1.00  0.00    +0.0376  A
ATOM     47 H50  CHE L   1       3.105  -0.455   1.790  1.00  0.00    +0.0625  H
ATOM     48 H51  CHE L   1       4.900   1.108   1.217  1.00  0.00    +0.0654  H
ATOM     49 H61  CHE L   1       1.178   0.651  -1.886  1.00  0.00    +0.0836  H
BRANCH 44 50
ATOM     50 N18  CHE L   1       5.052   2.605  -0.998  1.00  0.00    -0.3535  N
ATOM     51 C19  CHE L   1       6.436   2.111  -0.919  1.00  0.00    +0.0325  C
ATOM     52 C20  CHE L   1       7.429   3.306  -0.926  1.00  0.00    +0.0136  C
ATOM     53 N21  CHE L   1       6.936   4.553  -1.553  1.00  0.00    -0.3126 NA
ATOM     54 C22  CHE L   1       6.034   4.201  -2.666  1.00  0.00    +0.0136  C
ATOM     55 C23  CHE L   1       4.781   3.405  -2.216  1.00  0.00    +0.0325  C
ATOM     56 H52  CHE L   1       6.630   1.520  -0.019  1.00  0.00    +0.0501  H
ATOM     57 H53  CHE L   1       6.635   1.465  -1.784  1.00  0.00    +0.0501  H
ATOM     58 H54  CHE L   1       7.703   3.546   0.109  1.00  0.00    +0.0441  H
ATOM     59 H55  CHE L   1       8.357   2.995  -1.420  1.00  0.00    +0.0441  H
ATOM     60 H56  CHE L   1       6.346   5.007  -0.850  1.00  0.00    +0.1221 HD
ATOM     61 H57  CHE L   1       5.713   5.116  -3.177  1.00  0.00    +0.0441  H
ATOM     62 H58  CHE L   1       6.595   3.619  -3.408  1.00  0.00    +0.0441  H
ATOM     63 H59  CHE L   1       4.470   2.775  -3.059  1.00  0.00    +0.0501  H
ATOM     64 H60  CHE L   1       3.974   4.115  -1.993  1.00  0.00    +0.0501  H
ENDBRANCH 44 50
ENDBRANCH 3 41
BRANCH 10 65
ATOM     65 C33  CHE L   1       1.151  -5.404   1.382  1.00  0.00    +0.0289  C
ATOM     66 C34  CHE L   1       1.008  -6.648   0.500  1.00  0.00    -0.0445  C
ATOM     67 C35  CHE L   1       1.439  -5.779   2.836  1.00  0.00    -0.0445  C
ATOM     68 H67  CHE L   1       2.015  -4.847   1.004  1.00  0.00    +0.0522  H
ATOM     69 H68  CHE L   1       0.792  -6.368  -0.537  1.00  0.00    +0.0249  H
ATOM     70 H69  CHE L   1       1.936  -7.231   0.506  1.00  0.00    +0.0249  H
ATOM     71 H70  CHE L   1       0.201  -7.303   0.847  1.00  0.00    +0.0249  H
ATOM     72 H71  CHE L   1       2.359  -6.370   2.908  1.00  0.00    +0.0249  H
ATOM     73 H72  CHE L   1       1.565  -4.883   3.454  1.00  0.00    +0.0249  H
ATOM     74 H73  CHE L   1       0.625  -6.371   3.270  1.00  0.00    +0.0249  H
ENDBRANCH 10 65
TORSDOF 6
