ROOT
ATOM      1 C24  CHE L   1       5.523   0.845   0.260  1.00  0.00    +0.1351  A
ATOM      2 C25  CHE L   1       5.950   0.764   1.522  1.00  0.00    +0.0341  A
ATOM      3 C26  CHE L   1       6.440  -0.532   2.008  1.00  0.00    +0.2590  A
ATOM      4 O27  CHE L   1       6.835  -0.616   3.170  1.00  0.00    -0.2672 OA
ATOM      5 N28  CHE L   1       6.410  -1.572   1.091  1.00  0.00    -0.2682  N
ATOM      6 C29  CHE L   1       6.858  -2.830   1.479  1.00  0.00    +0.0146  A
ATOM      7 C30  CHE L   1       6.851  -3.872   0.639  1.00  0.00    -0.0450  A
ATOM      8 C31  CHE L   1       6.371  -3.704  -0.707  1.00  0.00    -0.0569  A
ATOM      9 C32  CHE L   1       5.931  -2.512  -1.127  1.00  0.00    -0.0187  A
ATOM     10 C33  CHE L   1       5.936  -1.347  -0.197  1.00  0.00    +0.1410  A
ATOM     11 N34  CHE L   1       5.505  -0.204  -0.631  1.00  0.00    -0.2242 NA
ATOM     12 H58  CHE L   1       5.959   1.596   2.214  1.00  0.00    +0.0695  H
ATOM     13 H59  CHE L   1       7.216  -2.934   2.501  1.00  0.00    +0.0814  H
ATOM     14 H60  CHE L   1       7.202  -4.850   0.952  1.00  0.00    +0.0632  H
ATOM     15 H61  CHE L   1       6.374  -4.564  -1.369  1.00  0.00    +0.0619  H
ATOM     16 H62  CHE L   1       5.563  -2.347  -2.132  1.00  0.00    +0.0654  H
ENDROOT
BRANCH 1 18
ATOM     17  O1  CHE L   1       4.964   3.171   0.543  1.00  0.00    -0.2659 OA
ATOM     18  C2  CHE L   1       5.025   2.196  -0.196  1.00  0.00    +0.2709  C
ATOM     19  N3  CHE L   1       4.640   2.195  -1.512  1.00  0.00    -0.3452  N
ATOM     20 H35  CHE L   1       4.594   1.290  -1.971  1.00  0.00    +0.1631 HD
BRANCH 19 21
ATOM     21  C4  CHE L   1       3.924   3.295  -2.109  1.00  0.00    +0.0623  C
ATOM     22 H36  CHE L   1       4.239   3.367  -3.155  1.00  0.00    +0.0552  H
ATOM     23 H37  CHE L   1       4.169   4.234  -1.603  1.00  0.00    +0.0552  H
BRANCH 21 24
ATOM     24  C5  CHE L   1       2.466   3.004  -2.027  1.00  0.00    +0.0791  A
ATOM     25  C6  CHE L   1       1.556   3.416  -1.072  1.00  0.00    +0.0342  A
ATOM     26  N7  CHE L   1       0.357   2.862  -1.435  1.00  0.00    -0.3060  N
ATOM     27  C8  CHE L   1      -0.886   2.960  -0.817  1.00  0.00    +0.0156  A
ATOM     28  C9  CHE L   1      -1.947   2.317  -1.347  1.00  0.00    -0.0170  A
ATOM     29 C20  CHE L   1      -1.740   1.562  -2.586  1.00  0.00    -0.0525  A
ATOM     30 C21  CHE L   1      -0.532   1.474  -3.175  1.00  0.00    -0.0185  A
ATOM     31 C22  CHE L   1       0.586   2.137  -2.598  1.00  0.00    +0.1379  A
ATOM     32 N23  CHE L   1       1.848   2.204  -2.968  1.00  0.00    -0.2310 NA
ATOM     33 H38  CHE L   1       1.669   4.027  -0.188  1.00  0.00    +0.0832  H
ATOM     34 H39  CHE L   1      -0.942   3.561   0.083  1.00  0.00    +0.0816  H
ATOM     35 H56  CHE L   1      -2.597   1.064  -3.032  1.00  0.00    +0.0622  H
ATOM     36 H57  CHE L   1      -0.383   0.914  -4.091  1.00  0.00    +0.0654  H
BRANCH 28 37
ATOM     37 C10  CHE L   1      -3.335   2.402  -0.763  1.00  0.00    +0.0226  C
ATOM     38 H40  CHE L   1      -4.092   2.440  -1.557  1.00  0.00    +0.0474  H
ATOM     39 H41  CHE L   1      -3.435   3.359  -0.236  1.00  0.00    +0.0474  H
BRANCH 37 40
ATOM     40 N11  CHE L   1      -3.646   1.350   0.202  1.00  0.00    -0.3117 NA
ATOM     41 H42  CHE L   1      -2.895   1.280   0.887  1.00  0.00    +0.1223 HD
BRANCH 40 42
ATOM     42 C12  CHE L   1      -3.892   0.044  -0.405  1.00  0.00    -0.0007  C
ATOM     43 H43  CHE L   1      -4.641   0.134  -1.199  1.00  0.00    +0.0427  H
ATOM     44 H44  CHE L   1      -2.972  -0.346  -0.856  1.00  0.00    +0.0427  H
BRANCH 42 45
ATOM     45 C13  CHE L   1      -4.370  -0.956   0.660  1.00  0.00    -0.0254  C
ATOM     46 C14  CHE L   1      -4.628  -2.356   0.053  1.00  0.00    -0.0459  C
ATOM     47 C15  CHE L   1      -6.080  -2.656   0.464  1.00  0.00    -0.0405  C
ATOM     48 C16  CHE L   1      -6.139  -2.879   1.984  1.00  0.00    -0.0499  C
ATOM     49 C17  CHE L   1      -5.937  -1.466   2.549  1.00  0.00    -0.0497  C
ATOM     50 C18  CHE L   1      -5.749  -0.610   1.281  1.00  0.00    -0.0368  C
ATOM     51 C19  CHE L   1      -6.733  -1.283   0.321  1.00  0.00    -0.0471  C
ATOM     52 H45  CHE L   1      -3.603  -1.028   1.443  1.00  0.00    +0.0316  H
ATOM     53 H46  CHE L   1      -4.536  -2.345  -1.039  1.00  0.00    +0.0271  H
ATOM     54 H47  CHE L   1      -3.927  -3.101   0.444  1.00  0.00    +0.0271  H
ATOM     55 H48  CHE L   1      -6.540  -3.459  -0.115  1.00  0.00    +0.0301  H
ATOM     56 H49  CHE L   1      -5.372  -3.577   2.336  1.00  0.00    +0.0268  H
ATOM     57 H50  CHE L   1      -7.118  -3.268   2.285  1.00  0.00    +0.0268  H
ATOM     58 H51  CHE L   1      -5.081  -1.410   3.228  1.00  0.00    +0.0268  H
ATOM     59 H52  CHE L   1      -6.830  -1.150   3.101  1.00  0.00    +0.0268  H
ATOM     60 H53  CHE L   1      -5.923   0.453   1.455  1.00  0.00    +0.0304  H
ATOM     61 H54  CHE L   1      -6.692  -0.888  -0.698  1.00  0.00    +0.0271  H
ATOM     62 H55  CHE L   1      -7.768  -1.259   0.679  1.00  0.00    +0.0271  H
ENDBRANCH 42 45
ENDBRANCH 40 42
ENDBRANCH 37 40
ENDBRANCH 28 37
ENDBRANCH 21 24
ENDBRANCH 19 21
ENDBRANCH 1 18
TORSDOF 7
