ROOT
ATOM      1 C13  CHE L   1       3.443  -0.317   0.635  1.00  0.00    -0.0251  A
ATOM      2 C14  CHE L   1       4.371   0.378  -0.159  1.00  0.00    -0.0570  A
ATOM      3 C15  CHE L   1       5.732   0.348   0.148  1.00  0.00    -0.0615  A
ATOM      4 C16  CHE L   1       6.183  -0.371   1.252  1.00  0.00    -0.0617  A
ATOM      5 C17  CHE L   1       5.274  -1.056   2.056  1.00  0.00    -0.0615  A
ATOM      6 C18  CHE L   1       3.912  -1.028   1.752  1.00  0.00    -0.0570  A
ATOM      7 H35  CHE L   1       4.039   0.959  -1.019  1.00  0.00    +0.0621  H
ATOM      8 H36  CHE L   1       6.440   0.894  -0.471  1.00  0.00    +0.0618  H
ATOM      9 H37  CHE L   1       7.243  -0.388   1.494  1.00  0.00    +0.0618  H
ATOM     10 H38  CHE L   1       5.627  -1.606   2.925  1.00  0.00    +0.0618  H
ATOM     11 H39  CHE L   1       3.219  -1.560   2.401  1.00  0.00    +0.0621  H
ENDROOT
BRANCH 1 12
ATOM     12  C9  CHE L   1       1.955  -0.306   0.310  1.00  0.00    +0.1141  C
ATOM     13 H32  CHE L   1       1.454  -1.055   0.937  1.00  0.00    +0.0563  H
BRANCH 12 14
ATOM     14  S8  CHE L   1       1.231   1.333   0.718  1.00  0.00    -0.0868 SA
BRANCH 14 17
ATOM     15  C3  CHE L   1      -2.570   1.618  -0.771  1.00  0.00    -0.0068  A
ATOM     16  C4  CHE L   1      -1.239   1.957  -0.442  1.00  0.00    +0.0881  A
ATOM     17  C7  CHE L   1      -0.470   1.028   0.259  1.00  0.00    +0.1179  A
ATOM     18 N19  CHE L   1      -0.951  -0.175   0.659  1.00  0.00    -0.2211 NA
ATOM     19 C20  CHE L   1      -2.222  -0.518   0.349  1.00  0.00    +0.1482  A
ATOM     20 C24  CHE L   1      -3.064   0.359  -0.357  1.00  0.00    +0.0982  A
BRANCH 15 22
ATOM     21  C1  CHE L   1      -4.216   3.521  -0.581  1.00  0.00    -0.0612  C
ATOM     22  C2  CHE L   1      -3.460   2.595  -1.524  1.00  0.00    -0.0279  C
ATOM     23 H27  CHE L   1      -4.847   4.208  -1.154  1.00  0.00    +0.0233  H
ATOM     24 H28  CHE L   1      -4.863   2.957   0.100  1.00  0.00    +0.0233  H
ATOM     25 H29  CHE L   1      -3.531   4.119   0.028  1.00  0.00    +0.0233  H
ATOM     26 H30  CHE L   1      -4.169   2.054  -2.160  1.00  0.00    +0.0311  H
ATOM     27 H31  CHE L   1      -2.866   3.188  -2.228  1.00  0.00    +0.0311  H
ENDBRANCH 15 22
BRANCH 16 28
ATOM     28  C5  CHE L   1      -0.685   3.227  -0.816  1.00  0.00    +0.1021  C
ATOM     29  N6  CHE L   1      -0.283   4.272  -1.123  1.00  0.00    -0.1908 NA
ENDBRANCH 16 28
BRANCH 19 30
ATOM     30 N21  CHE L   1      -2.683  -1.792   0.751  1.00  0.00    -0.3609  N
ATOM     31 C22  CHE L   1      -2.521  -2.760  -0.341  1.00  0.00    +0.0082  C
ATOM     32 C23  CHE L   1      -2.069  -2.237   2.006  1.00  0.00    +0.0082  C
ATOM     33 H40  CHE L   1      -2.931  -3.730  -0.040  1.00  0.00    +0.0452  H
ATOM     34 H41  CHE L   1      -1.464  -2.902  -0.599  1.00  0.00    +0.0452  H
ATOM     35 H42  CHE L   1      -3.061  -2.452  -1.243  1.00  0.00    +0.0452  H
ATOM     36 H43  CHE L   1      -2.563  -3.153   2.349  1.00  0.00    +0.0452  H
ATOM     37 H44  CHE L   1      -1.001  -2.457   1.891  1.00  0.00    +0.0452  H
ATOM     38 H45  CHE L   1      -2.201  -1.489   2.796  1.00  0.00    +0.0452  H
ENDBRANCH 19 30
BRANCH 20 39
ATOM     39 C25  CHE L   1      -4.424  -0.023  -0.619  1.00  0.00    +0.1031  C
ATOM     40 N26  CHE L   1      -5.526  -0.291  -0.867  1.00  0.00    -0.1907 NA
ENDBRANCH 20 39
ENDBRANCH 14 17
ENDBRANCH 12 14
BRANCH 12 41
ATOM     41 C10  CHE L   1       1.687  -0.712  -1.156  1.00  0.00    +0.2362  C
ATOM     42 N11  CHE L   1       2.079  -1.986  -1.492  1.00  0.00    -0.3686  N
ATOM     43 O12  CHE L   1       1.142  -0.015  -2.010  1.00  0.00    -0.2719 OA
ATOM     44 H33  CHE L   1       2.831  -2.430  -0.978  1.00  0.00    +0.1586 HD
ATOM     45 H34  CHE L   1       2.019  -2.208  -2.478  1.00  0.00    +0.1586 HD
ENDBRANCH 12 41
ENDBRANCH 1 12
TORSDOF 8
