ROOT
ATOM      1  C9  MCU L   1       0.166  -0.344   0.196  1.00  0.00    +0.0973  A
ATOM      2 C10  MCU L   1      -0.593  -1.184  -0.606  1.00  0.00    +0.0667  A
ATOM      3 C11  MCU L   1      -0.164  -2.345  -1.422  1.00  0.00    -0.0202  C
ATOM      4 N12  MCU L   1      -1.915  -0.811  -0.600  1.00  0.00    -0.2291 NA
ATOM      5 C13  MCU L   1      -1.993   0.248   0.185  1.00  0.00    +0.1783  A
ATOM      6 C14  MCU L   1      -3.122   1.068   0.559  1.00  0.00    +0.0843  A
ATOM      7 C21  MCU L   1      -2.850   2.104   1.375  1.00  0.00    -0.0151  A
ATOM      8 C22  MCU L   1      -1.464   2.331   1.827  1.00  0.00    +0.0505  A
ATOM      9 N23  MCU L   1      -0.432   1.622   1.515  1.00  0.00    -0.1728 NA
ATOM     10 N24  MCU L   1      -0.740   0.582   0.684  1.00  0.00    -0.2103  N
ATOM     11 H36  MCU L   1      -0.037  -3.229  -0.790  1.00  0.00    +0.0293  H
ATOM     12 H37  MCU L   1      -0.912  -2.578  -2.187  1.00  0.00    +0.0293  H
ATOM     13 H38  MCU L   1       0.782  -2.139  -1.932  1.00  0.00    +0.0293  H
ATOM     14 H47  MCU L   1      -3.603   2.783   1.750  1.00  0.00    +0.0655  H
ATOM     15 H48  MCU L   1      -1.329   3.197   2.496  1.00  0.00    +0.0848  H
ENDROOT
BRANCH 1 19
ATOM     16  C5  MCU L   1       4.317  -0.322   1.037  1.00  0.00    +0.0435  A
ATOM     17  C6  MCU L   1       3.614  -1.518   1.152  1.00  0.00    -0.0397  A
ATOM     18  C7  MCU L   1       2.245  -1.530   0.879  1.00  0.00    -0.0494  A
ATOM     19  C8  MCU L   1       1.595  -0.352   0.508  1.00  0.00    +0.0203  A
ATOM     20 C25  MCU L   1       2.377   0.797   0.439  1.00  0.00    +0.0371  A
ATOM     21 N26  MCU L   1       3.709   0.840   0.694  1.00  0.00    -0.2592 NA
ATOM     22 H34  MCU L   1       4.112  -2.435   1.447  1.00  0.00    +0.0636  H
ATOM     23 H35  MCU L   1       1.695  -2.462   0.972  1.00  0.00    +0.0625  H
ATOM     24 H49  MCU L   1       1.947   1.754   0.158  1.00  0.00    +0.0836  H
BRANCH 16 25
ATOM     25  C4  MCU L   1       5.793  -0.246   1.334  1.00  0.00    +0.0131  C
ATOM     26 H32  MCU L   1       5.942  -0.476   2.397  1.00  0.00    +0.0351  H
ATOM     27 H33  MCU L   1       6.128   0.788   1.194  1.00  0.00    +0.0351  H
BRANCH 25 28
ATOM     28  C3  MCU L   1       6.660  -1.184   0.490  1.00  0.00    +0.0527  C
ATOM     29 H30  MCU L   1       6.405  -2.227   0.707  1.00  0.00    +0.0563  H
ATOM     30 H31  MCU L   1       7.715  -1.062   0.763  1.00  0.00    +0.0563  H
BRANCH 28 32
ATOM     31  C1  MCU L   1       6.982   0.240  -1.397  1.00  0.00    +0.0365  C
ATOM     32  O2  MCU L   1       6.525  -1.018  -0.922  1.00  0.00    -0.3826 OA
ATOM     33 H27  MCU L   1       6.983   0.211  -2.490  1.00  0.00    +0.0523  H
ATOM     34 H28  MCU L   1       6.311   1.043  -1.082  1.00  0.00    +0.0523  H
ATOM     35 H29  MCU L   1       8.002   0.439  -1.054  1.00  0.00    +0.0523  H
ENDBRANCH 28 32
ENDBRANCH 25 28
ENDBRANCH 16 25
ENDBRANCH 1 19
BRANCH 6 36
ATOM     36 N15  MCU L   1      -4.431   0.797   0.107  1.00  0.00    -0.3633  N
ATOM     37 C16  MCU L   1      -4.799  -0.499  -0.513  1.00  0.00    +0.0422  C
ATOM     38 C17  MCU L   1      -6.317  -0.731  -0.426  1.00  0.00    +0.0653  C
ATOM     39 O18  MCU L   1      -7.104   0.278  -1.075  1.00  0.00    -0.3763 OA
ATOM     40 C19  MCU L   1      -6.441   1.546  -1.142  1.00  0.00    +0.0653  C
ATOM     41 C20  MCU L   1      -5.504   1.812   0.046  1.00  0.00    +0.0422  C
ATOM     42 H39  MCU L   1      -4.309  -1.329   0.008  1.00  0.00    +0.0510  H
ATOM     43 H40  MCU L   1      -4.483  -0.495  -1.563  1.00  0.00    +0.0510  H
ATOM     44 H41  MCU L   1      -6.633  -0.770   0.623  1.00  0.00    +0.0577  H
ATOM     45 H42  MCU L   1      -6.577  -1.693  -0.880  1.00  0.00    +0.0577  H
ATOM     46 H43  MCU L   1      -5.885   1.585  -2.086  1.00  0.00    +0.0577  H
ATOM     47 H44  MCU L   1      -7.216   2.318  -1.189  1.00  0.00    +0.0577  H
ATOM     48 H45  MCU L   1      -5.084   2.817  -0.071  1.00  0.00    +0.0510  H
ATOM     49 H46  MCU L   1      -6.068   1.777   0.985  1.00  0.00    +0.0510  H
ENDBRANCH 6 36
TORSDOF 5
