ROOT
ATOM      1 C13  677 L   1       2.203   0.080   0.058  1.00  0.00    +0.0576  C
ATOM      2 C14  677 L   1       3.085   0.990  -0.395  1.00  0.00    +0.0276  C
ATOM      3 C15  677 L   1       2.949   1.818  -1.640  1.00  0.00    -0.0238  C
ATOM      4 N16  677 L   1       4.259   1.161   0.304  1.00  0.00    -0.3117  N
ATOM      5 C17  677 L   1       4.567   0.550   1.483  1.00  0.00    +0.3207  C
ATOM      6 O18  677 L   1       5.623   0.758   2.070  1.00  0.00    -0.2471 OA
ATOM      7 N19  677 L   1       3.617  -0.278   1.995  1.00  0.00    -0.3313  N
ATOM      8 C20  677 L   1       2.535  -0.842   1.201  1.00  0.00    +0.0605  C
ATOM      9 C21  677 L   1       1.361  -1.165   2.125  1.00  0.00    -0.0402  C
ATOM     10 H38  677 L   1       2.971   2.884  -1.390  1.00  0.00    +0.0292  H
ATOM     11 H39  677 L   1       2.025   1.622  -2.190  1.00  0.00    +0.0292  H
ATOM     12 H40  677 L   1       3.782   1.613  -2.321  1.00  0.00    +0.0292  H
ATOM     13 H41  677 L   1       4.964   1.804  -0.036  1.00  0.00    +0.1701 HD
ATOM     14 H42  677 L   1       3.946  -0.795   2.800  1.00  0.00    +0.1647 HD
ATOM     15 H43  677 L   1       2.918  -1.783   0.785  1.00  0.00    +0.0573  H
ATOM     16 H44  677 L   1       1.683  -1.827   2.938  1.00  0.00    +0.0253  H
ATOM     17 H45  677 L   1       0.953  -0.260   2.589  1.00  0.00    +0.0253  H
ATOM     18 H46  677 L   1       0.553  -1.674   1.590  1.00  0.00    +0.0253  H
ENDROOT
BRANCH 1 20
ATOM     19  N3  677 L   1      -0.155   0.594  -0.423  1.00  0.00    -0.3384  N
ATOM     20 C11  677 L   1       0.953  -0.206  -0.682  1.00  0.00    +0.2542  C
ATOM     21 O12  677 L   1       0.944  -1.154  -1.465  1.00  0.00    -0.2676 OA
BRANCH 19 23
ATOM     22  C1  677 L   1      -0.244   3.076  -0.212  1.00  0.00    -0.0474  C
ATOM     23  C2  677 L   1      -0.181   1.734   0.504  1.00  0.00    +0.0186  C
ATOM     24 H22  677 L   1       0.600   3.207  -0.892  1.00  0.00    +0.0247  H
ATOM     25 H23  677 L   1      -1.161   3.175  -0.801  1.00  0.00    +0.0247  H
ATOM     26 H24  677 L   1      -0.225   3.892   0.517  1.00  0.00    +0.0247  H
ATOM     27 H25  677 L   1       0.695   1.725   1.156  1.00  0.00    +0.0486  H
ATOM     28 H26  677 L   1      -1.056   1.625   1.154  1.00  0.00    +0.0486  H
ENDBRANCH 19 23
BRANCH 19 29
ATOM     29  C4  677 L   1      -1.402   0.254  -1.115  1.00  0.00    +0.0244  C
ATOM     30 H27  677 L   1      -2.076   1.117  -1.094  1.00  0.00    +0.0491  H
ATOM     31 H28  677 L   1      -1.153   0.074  -2.169  1.00  0.00    +0.0491  H
BRANCH 29 32
ATOM     32  C5  677 L   1      -2.112  -0.990  -0.546  1.00  0.00    -0.0192  C
ATOM     33  C6  677 L   1      -3.282  -1.394  -1.463  1.00  0.00    -0.0249  C
ATOM     34  C7  677 L   1      -4.397  -2.115  -0.711  1.00  0.00    +0.0480  C
ATOM     35  O8  677 L   1      -3.859  -2.873   0.363  1.00  0.00    -0.3797 OA
ATOM     36  C9  677 L   1      -3.319  -2.053   1.398  1.00  0.00    +0.0480  C
ATOM     37 C10  677 L   1      -2.623  -0.792   0.882  1.00  0.00    -0.0249  C
ATOM     38 H29  677 L   1      -1.401  -1.827  -0.525  1.00  0.00    +0.0319  H
ATOM     39 H30  677 L   1      -2.886  -2.055  -2.245  1.00  0.00    +0.0291  H
ATOM     40 H31  677 L   1      -3.710  -0.530  -1.984  1.00  0.00    +0.0291  H
ATOM     41 H32  677 L   1      -4.927  -2.794  -1.387  1.00  0.00    +0.0560  H
ATOM     42 H33  677 L   1      -5.137  -1.404  -0.322  1.00  0.00    +0.0560  H
ATOM     43 H34  677 L   1      -4.120  -1.788   2.097  1.00  0.00    +0.0560  H
ATOM     44 H35  677 L   1      -2.604  -2.673   1.950  1.00  0.00    +0.0560  H
ATOM     45 H36  677 L   1      -3.337   0.042   0.898  1.00  0.00    +0.0291  H
ATOM     46 H37  677 L   1      -1.819  -0.524   1.574  1.00  0.00    +0.0291  H
ENDBRANCH 29 32
ENDBRANCH 19 29
ENDBRANCH 1 20
TORSDOF 4
