ROOT
ATOM      1 C11  CHE L   1      -4.013   0.195  -0.235  1.00  0.00    -0.0080  A
ATOM      2 C12  CHE L   1      -4.889  -0.027  -1.313  1.00  0.00    -0.0553  A
ATOM      3 C13  CHE L   1      -5.810   0.947  -1.706  1.00  0.00    -0.0614  A
ATOM      4 C14  CHE L   1      -5.865   2.163  -1.033  1.00  0.00    -0.0607  A
ATOM      5 C15  CHE L   1      -4.994   2.408   0.028  1.00  0.00    -0.0474  A
ATOM      6 C16  CHE L   1      -4.070   1.434   0.423  1.00  0.00    +0.0232  A
ATOM      7 BR17 CHE L   1      -2.917   1.874   1.868  1.00  0.00    -0.0499 Br
ATOM      8 H35  CHE L   1      -4.852  -0.966  -1.863  1.00  0.00    +0.0621  H
ATOM      9 H36  CHE L   1      -6.479   0.756  -2.542  1.00  0.00    +0.0618  H
ATOM     10 H37  CHE L   1      -6.578   2.924  -1.340  1.00  0.00    +0.0618  H
ATOM     11 H38  CHE L   1      -5.039   3.367   0.538  1.00  0.00    +0.0629  H
ENDROOT
BRANCH 1 12
ATOM     12 C10  CHE L   1      -3.032  -0.889   0.134  1.00  0.00    +0.0741  C
ATOM     13 H33  CHE L   1      -2.932  -0.972   1.220  1.00  0.00    +0.0610  H
ATOM     14 H34  CHE L   1      -3.397  -1.859  -0.225  1.00  0.00    +0.0610  H
BRANCH 12 15
ATOM     15  O9  CHE L   1      -1.785  -0.597  -0.491  1.00  0.00    -0.3719 OA
BRANCH 15 19
ATOM     16  N5  CHE L   1       2.201  -1.195   0.235  1.00  0.00    -0.3010 NA
ATOM     17  C6  CHE L   1       1.189  -0.445   0.999  1.00  0.00    +0.0013  C
ATOM     18  C7  CHE L   1      -0.105  -1.238   1.173  1.00  0.00    -0.0137  C
ATOM     19  C8  CHE L   1      -0.757  -1.545  -0.181  1.00  0.00    +0.0614  C
ATOM     20 C18  CHE L   1       0.260  -1.490  -1.324  1.00  0.00    -0.0137  C
ATOM     21 C19  CHE L   1       1.624  -1.988  -0.864  1.00  0.00    +0.0013  C
ATOM     22 H28  CHE L   1       0.956   0.514   0.516  1.00  0.00    +0.0427  H
ATOM     23 H29  CHE L   1       1.587  -0.219   1.995  1.00  0.00    +0.0427  H
ATOM     24 H30  CHE L   1       0.129  -2.183   1.681  1.00  0.00    +0.0302  H
ATOM     25 H31  CHE L   1      -0.780  -0.683   1.832  1.00  0.00    +0.0302  H
ATOM     26 H32  CHE L   1      -1.196  -2.551  -0.148  1.00  0.00    +0.0597  H
ATOM     27 H39  CHE L   1      -0.104  -2.101  -2.159  1.00  0.00    +0.0302  H
ATOM     28 H40  CHE L   1       0.344  -0.470  -1.723  1.00  0.00    +0.0302  H
ATOM     29 H41  CHE L   1       1.519  -3.020  -0.507  1.00  0.00    +0.0427  H
ATOM     30 H42  CHE L   1       2.301  -2.047  -1.725  1.00  0.00    +0.0427  H
BRANCH 16 31
ATOM     31  C4  CHE L   1       3.283  -0.315  -0.254  1.00  0.00    +0.0114  C
ATOM     32 H26  CHE L   1       2.884   0.424  -0.962  1.00  0.00    +0.0439  H
ATOM     33 H27  CHE L   1       4.004  -0.932  -0.807  1.00  0.00    +0.0439  H
BRANCH 31 34
ATOM     34  C3  CHE L   1       4.065   0.410   0.867  1.00  0.00    +0.0084  C
ATOM     35 H24  CHE L   1       3.402   1.114   1.382  1.00  0.00    +0.0436  H
ATOM     36 H25  CHE L   1       4.415  -0.329   1.598  1.00  0.00    +0.0436  H
BRANCH 34 38
ATOM     37  C1  CHE L   1       5.944   1.831   1.371  1.00  0.00    -0.0157  C
ATOM     38  N2  CHE L   1       5.211   1.146   0.314  1.00  0.00    -0.3178 NA
ATOM     39 H20  CHE L   1       6.339   1.125   2.109  1.00  0.00    +0.0388  H
ATOM     40 H21  CHE L   1       5.311   2.565   1.880  1.00  0.00    +0.0388  H
ATOM     41 H22  CHE L   1       6.790   2.372   0.936  1.00  0.00    +0.0388  H
ATOM     42 H23  CHE L   1       5.836   0.488  -0.152  1.00  0.00    +0.1217 HD
ENDBRANCH 34 38
ENDBRANCH 31 34
ENDBRANCH 16 31
ENDBRANCH 15 19
ENDBRANCH 12 15
ENDBRANCH 1 12
TORSDOF 6
