ROOT
ATOM      1  C3  MCU L   1       4.496  -2.208  -1.001  1.00  0.00    +0.1616  A
ATOM      2  C4  MCU L   1       3.722  -3.359  -0.814  1.00  0.00    -0.0156  A
ATOM      3  C5  MCU L   1       2.324  -3.278  -0.786  1.00  0.00    -0.0457  A
ATOM      4  C6  MCU L   1       1.687  -2.044  -0.931  1.00  0.00    +0.0427  A
ATOM      5  C7  MCU L   1       2.449  -0.891  -1.125  1.00  0.00    -0.0040  A
ATOM      6  C8  MCU L   1       3.845  -0.970  -1.133  1.00  0.00    +0.1633  A
ATOM      7  O9  MCU L   1       4.488   0.212  -1.384  1.00  0.00    -0.4789 OA
ATOM      8 C10  MCU L   1       5.484   0.567  -0.422  1.00  0.00    +0.1674  C
ATOM      9 C11  MCU L   1       5.062   1.919   0.140  1.00  0.00    +0.2588  C
ATOM     10 O12  MCU L   1       5.368   2.986  -0.384  1.00  0.00    -0.2695 OA
ATOM     11 N13  MCU L   1       4.259   1.828   1.261  1.00  0.00    -0.3492  N
ATOM     12 C14  MCU L   1       3.493   2.961   1.735  1.00  0.00    +0.0436  C
ATOM     13 C15  MCU L   1       2.037   2.755   1.390  1.00  0.00    -0.0246  A
ATOM     14 C16  MCU L   1       1.103   2.435   2.383  1.00  0.00    -0.0532  A
ATOM     15 C17  MCU L   1      -0.217   2.148   2.039  1.00  0.00    -0.0160  A
ATOM     16 C18  MCU L   1      -0.603   2.148   0.696  1.00  0.00    +0.1625  A
ATOM     17 C19  MCU L   1       0.302   2.519  -0.309  1.00  0.00    +0.1618  A
ATOM     18 C22  MCU L   1       1.620   2.819   0.047  1.00  0.00    -0.0114  A
ATOM     19 O23  MCU L   1      -1.885   1.816   0.336  1.00  0.00    -0.4813 OA
ATOM     20 C24  MCU L   1      -2.233   0.464   0.657  1.00  0.00    +0.1395  C
ATOM     21 C25  MCU L   1      -3.756   0.319   0.597  1.00  0.00    +0.0605  C
ATOM     22 N26  MCU L   1      -3.990  -1.081   0.287  1.00  0.00    -0.3326  N
ATOM     23 C27  MCU L   1      -5.207  -1.724   0.186  1.00  0.00    +0.2548  C
ATOM     24 O28  MCU L   1      -5.348  -2.862  -0.248  1.00  0.00    -0.2674 OA
ATOM     25 C35  MCU L   1      -2.770  -1.715  -0.197  1.00  0.00    +0.0454  C
ATOM     26 C36  MCU L   1      -1.765  -0.566  -0.400  1.00  0.00    +0.0860  C
ATOM     27 N37  MCU L   1      -0.359  -0.936  -0.239  1.00  0.00    -0.3440  N
ATOM     28 C38  MCU L   1       0.203  -1.995  -0.919  1.00  0.00    +0.2525  C
ATOM     29 O39  MCU L   1      -0.441  -2.880  -1.467  1.00  0.00    -0.2676 OA
ATOM     30 H43  MCU L   1       4.172  -4.340  -0.700  1.00  0.00    +0.0655  H
ATOM     31 H44  MCU L   1       1.732  -4.184  -0.658  1.00  0.00    +0.0626  H
ATOM     32 H45  MCU L   1       1.974   0.067  -1.309  1.00  0.00    +0.0663  H
ATOM     33 H46  MCU L   1       5.593  -0.147   0.403  1.00  0.00    +0.0797  H
ATOM     34 H47  MCU L   1       6.451   0.676  -0.925  1.00  0.00    +0.0797  H
ATOM     35 H48  MCU L   1       3.935   0.911   1.538  1.00  0.00    +0.1627 HD
ATOM     36 H49  MCU L   1       3.854   3.902   1.306  1.00  0.00    +0.0536  H
ATOM     37 H50  MCU L   1       3.631   3.012   2.820  1.00  0.00    +0.0536  H
ATOM     38 H51  MCU L   1       1.398   2.401   3.429  1.00  0.00    +0.0622  H
ATOM     39 H52  MCU L   1      -0.936   1.921   2.821  1.00  0.00    +0.0655  H
ATOM     40 H56  MCU L   1       2.362   3.075  -0.706  1.00  0.00    +0.0659  H
ATOM     41 H57  MCU L   1      -1.892   0.169   1.658  1.00  0.00    +0.0772  H
ATOM     42 H58  MCU L   1      -4.220   0.602   1.545  1.00  0.00    +0.0526  H
ATOM     43 H59  MCU L   1      -4.198   0.934  -0.196  1.00  0.00    +0.0526  H
ATOM     44 H64  MCU L   1      -2.965  -2.266  -1.122  1.00  0.00    +0.0510  H
ATOM     45 H65  MCU L   1      -2.439  -2.422   0.573  1.00  0.00    +0.0510  H
ATOM     46 H66  MCU L   1      -1.870  -0.144  -1.408  1.00  0.00    +0.0577  H
ATOM     47 H67  MCU L   1       0.263  -0.201   0.070  1.00  0.00    +0.1631 HD
ENDROOT
BRANCH 1 49
ATOM     48  C1  MCU L   1       6.517  -3.451  -1.230  1.00  0.00    +0.0790  C
ATOM     49  O2  MCU L   1       5.864  -2.196  -1.079  1.00  0.00    -0.4915 OA
ATOM     50 H40  MCU L   1       6.431  -4.048  -0.317  1.00  0.00    +0.0660  H
ATOM     51 H41  MCU L   1       6.136  -3.997  -2.100  1.00  0.00    +0.0660  H
ATOM     52 H42  MCU L   1       7.580  -3.255  -1.400  1.00  0.00    +0.0660  H
ENDBRANCH 1 49
BRANCH 17 53
ATOM     53 O20  MCU L   1      -0.174   2.488  -1.593  1.00  0.00    -0.4914 OA
ATOM     54 C21  MCU L   1       0.668   3.012  -2.612  1.00  0.00    +0.0790  C
ATOM     55 H53  MCU L   1       0.102   3.007  -3.548  1.00  0.00    +0.0660  H
ATOM     56 H54  MCU L   1       0.953   4.048  -2.400  1.00  0.00    +0.0660  H
ATOM     57 H55  MCU L   1       1.550   2.379  -2.754  1.00  0.00    +0.0660  H
ENDBRANCH 17 53
BRANCH 23 58
ATOM     58 C29  MCU L   1      -6.415  -0.990   0.606  1.00  0.00    +0.0420  A
ATOM     59 C30  MCU L   1      -7.370  -0.668  -0.354  1.00  0.00    -0.0313  A
ATOM     60 C31  MCU L   1      -8.497   0.004   0.075  1.00  0.00    +0.0283  A
ATOM     61 N32  MCU L   1      -8.719   0.351   1.363  1.00  0.00    -0.2632 NA
ATOM     62 C33  MCU L   1      -7.784  -0.008   2.271  1.00  0.00    +0.0283  A
ATOM     63 C34  MCU L   1      -6.621  -0.680   1.947  1.00  0.00    -0.0313  A
ATOM     64 H60  MCU L   1      -7.238  -0.937  -1.395  1.00  0.00    +0.0640  H
ATOM     65 H61  MCU L   1      -9.280   0.289  -0.622  1.00  0.00    +0.0830  H
ATOM     66 H62  MCU L   1      -8.008   0.266   3.298  1.00  0.00    +0.0830  H
ATOM     67 H63  MCU L   1      -5.907  -0.962   2.712  1.00  0.00    +0.0640  H
ENDBRANCH 23 58
TORSDOF 3
