ROOT
ATOM      1 C14  EUB L   1       2.217   0.132   0.259  1.00  0.00    -0.0035  A
ATOM      2 C15  EUB L   1       2.951  -0.214   1.410  1.00  0.00    -0.0415  A
ATOM      3 C16  EUB L   1       4.356  -0.219   1.419  1.00  0.00    +0.0574  A
ATOM      4 C21  EUB L   1       5.066   0.146   0.261  1.00  0.00    -0.0246  A
ATOM      5 C22  EUB L   1       4.324   0.489  -0.875  1.00  0.00    +0.0668  A
ATOM      6 N23  EUB L   1       4.715   0.876  -2.132  1.00  0.00    -0.2769  N
ATOM      7 N24  EUB L   1       3.696   1.125  -2.970  1.00  0.00    -0.1812 NA
ATOM      8 C25  EUB L   1       2.614   0.891  -2.224  1.00  0.00    +0.0575  A
ATOM      9 C26  EUB L   1       2.933   0.491  -0.904  1.00  0.00    +0.0273  A
ATOM     10 H39  EUB L   1       2.412  -0.489   2.319  1.00  0.00    +0.0629  H
ATOM     11 H40  EUB L   1       6.153   0.159   0.248  1.00  0.00    +0.0644  H
ATOM     12 H41  EUB L   1       5.661   0.987  -2.480  1.00  0.00    +0.1889 HD
ATOM     13 H42  EUB L   1       1.634   1.019  -2.667  1.00  0.00    +0.0854  H
ENDROOT
BRANCH 1 20
ATOM     14  C1  EUB L   1       0.579  -2.302  -0.385  1.00  0.00    -0.0216  C
ATOM     15  C2  EUB L   1      -0.026  -0.968  -0.050  1.00  0.00    +0.0512  A
ATOM     16  N3  EUB L   1      -1.380  -0.921  -0.054  1.00  0.00    -0.2170 NA
ATOM     17  C4  EUB L   1      -1.988   0.240   0.237  1.00  0.00    +0.2269  A
ATOM     18 N11  EUB L   1      -1.307   1.358   0.526  1.00  0.00    -0.2201 NA
ATOM     19 C12  EUB L   1       0.039   1.281   0.524  1.00  0.00    +0.0408  A
ATOM     20 C13  EUB L   1       0.759   0.137   0.242  1.00  0.00    +0.0221  A
ATOM     21 H27  EUB L   1       1.176  -2.674   0.454  1.00  0.00    +0.0293  H
ATOM     22 H28  EUB L   1       1.208  -2.226  -1.276  1.00  0.00    +0.0293  H
ATOM     23 H29  EUB L   1      -0.203  -3.041  -0.591  1.00  0.00    +0.0293  H
ATOM     24 H38  EUB L   1       0.540   2.214   0.768  1.00  0.00    +0.0837  H
BRANCH 17 25
ATOM     25  N5  EUB L   1      -3.357   0.280   0.256  1.00  0.00    -0.3378  N
ATOM     26  C6  EUB L   1      -4.044   1.558   0.257  1.00  0.00    +0.0238  C
ATOM     27  C7  EUB L   1      -5.503   1.158   0.073  1.00  0.00    -0.0074  C
ATOM     28  C8  EUB L   1      -5.409  -0.029  -0.878  1.00  0.00    +0.0744  C
ATOM     29  O9  EUB L   1      -6.563  -0.851  -0.789  1.00  0.00    -0.3900 OA
ATOM     30 C10  EUB L   1      -4.129  -0.755  -0.421  1.00  0.00    +0.0474  C
ATOM     31 H30  EUB L   1      -3.717   2.182  -0.584  1.00  0.00    +0.0489  H
ATOM     32 H31  EUB L   1      -3.902   2.108   1.193  1.00  0.00    +0.0489  H
ATOM     33 H32  EUB L   1      -6.115   1.971  -0.330  1.00  0.00    +0.0308  H
ATOM     34 H33  EUB L   1      -5.950   0.852   1.027  1.00  0.00    +0.0308  H
ATOM     35 H34  EUB L   1      -5.297   0.314  -1.914  1.00  0.00    +0.0611  H
ATOM     36 H35  EUB L   1      -7.335  -0.294  -0.988  1.00  0.00    +0.2099 HD
ATOM     37 H36  EUB L   1      -3.621  -1.172  -1.299  1.00  0.00    +0.0514  H
ATOM     38 H37  EUB L   1      -4.357  -1.575   0.268  1.00  0.00    +0.0514  H
ENDBRANCH 17 25
ENDBRANCH 1 20
BRANCH 3 39
ATOM     39 C17  EUB L   1       5.099  -0.581   2.685  1.00  0.00    +0.4175  C
ATOM     40 F18  EUB L   1       6.379  -0.990   2.458  1.00  0.00    -0.1659  F
ATOM     41 F19  EUB L   1       5.189   0.468   3.548  1.00  0.00    -0.1659  F
ATOM     42 F20  EUB L   1       4.504  -1.590   3.379  1.00  0.00    -0.1659  F
ENDBRANCH 3 39
TORSDOF 3
