ROOT
ATOM      1  C1  161 L   1       2.086  -1.914  -0.115  1.00  0.00    -0.0468  C
ATOM      2  C2  161 L   1       0.755  -1.704  -0.841  1.00  0.00    -0.0374  C
ATOM      3  C3  161 L   1      -0.054  -0.460  -0.432  1.00  0.00    +0.0082  C
ATOM      4 C14  161 L   1       0.753   0.856  -0.492  1.00  0.00    -0.0327  C
ATOM      5 C15  161 L   1       1.818   0.952   0.601  1.00  0.00    +0.0028  C
ATOM      6 C16  161 L   1       3.188   0.385   0.216  1.00  0.00    +0.1702  C
ATOM      7 C17  161 L   1       3.161  -0.930  -0.568  1.00  0.00    +0.0015  C
ATOM      8 O18  161 L   1       3.888   1.353  -0.594  1.00  0.00    -0.3463 OA
ATOM      9 C19  161 L   1       4.869   1.922   0.272  1.00  0.00    +0.0744  C
ATOM     10 C20  161 L   1       5.190   0.801   1.219  1.00  0.00    +0.0744  C
ATOM     11 O21  161 L   1       3.922   0.187   1.443  1.00  0.00    -0.3463 OA
ATOM     12 H22  161 L   1       1.950  -1.895   0.972  1.00  0.00    +0.0267  H
ATOM     13 H23  161 L   1       2.435  -2.924  -0.364  1.00  0.00    +0.0267  H
ATOM     14 H24  161 L   1       0.152  -2.599  -0.646  1.00  0.00    +0.0280  H
ATOM     15 H25  161 L   1       0.937  -1.691  -1.924  1.00  0.00    +0.0280  H
ATOM     16 H26  161 L   1      -0.398  -0.583   0.601  1.00  0.00    +0.0460  H
ATOM     17 H35  161 L   1       1.189   1.010  -1.486  1.00  0.00    +0.0282  H
ATOM     18 H36  161 L   1       0.061   1.695  -0.327  1.00  0.00    +0.0282  H
ATOM     19 H37  161 L   1       1.946   2.014   0.851  1.00  0.00    +0.0317  H
ATOM     20 H38  161 L   1       1.453   0.484   1.524  1.00  0.00    +0.0317  H
ATOM     21 H39  161 L   1       3.060  -0.733  -1.643  1.00  0.00    +0.0317  H
ATOM     22 H40  161 L   1       4.137  -1.421  -0.454  1.00  0.00    +0.0317  H
ATOM     23 H41  161 L   1       4.414   2.772   0.791  1.00  0.00    +0.0584  H
ATOM     24 H42  161 L   1       5.734   2.269  -0.299  1.00  0.00    +0.0584  H
ATOM     25 H43  161 L   1       5.853   0.061   0.759  1.00  0.00    +0.0584  H
ATOM     26 H44  161 L   1       5.627   1.141   2.162  1.00  0.00    +0.0584  H
ENDROOT
BRANCH 3 27
ATOM     27  N4  161 L   1      -1.224  -0.285  -1.321  1.00  0.00    -0.3065 NA
ATOM     28 H27  161 L   1      -1.647   0.625  -1.148  1.00  0.00    +0.1226 HD
BRANCH 27 29
ATOM     29  C5  161 L   1      -2.256  -1.324  -1.215  1.00  0.00    +0.0582  C
ATOM     30 H28  161 L   1      -2.980  -1.148  -2.020  1.00  0.00    +0.0505  H
ATOM     31 H29  161 L   1      -1.841  -2.313  -1.433  1.00  0.00    +0.0505  H
BRANCH 29 32
ATOM     32  C6  161 L   1      -2.960  -1.353   0.091  1.00  0.00    +0.1653  A
ATOM     33  N7  161 L   1      -2.634  -2.047   1.166  1.00  0.00    -0.1121 NA
ATOM     34  N8  161 L   1      -3.600  -1.777   2.106  1.00  0.00    -0.0230 NA
ATOM     35  N9  161 L   1      -4.512  -0.943   1.626  1.00  0.00    -0.0436 NA
ATOM     36 N10  161 L   1      -4.111  -0.670   0.379  1.00  0.00    -0.2249  N
BRANCH 36 37
ATOM     37 C11  161 L   1      -4.859   0.216  -0.535  1.00  0.00    +0.0565  C
ATOM     38 C12  161 L   1      -5.620   1.427  -0.048  1.00  0.00    -0.0284  C
ATOM     39 C13  161 L   1      -4.382   1.609  -0.874  1.00  0.00    -0.0284  C
ATOM     40 H30  161 L   1      -5.341  -0.350  -1.328  1.00  0.00    +0.0546  H
ATOM     41 H31  161 L   1      -5.571   1.681   1.007  1.00  0.00    +0.0286  H
ATOM     42 H32  161 L   1      -6.579   1.642  -0.506  1.00  0.00    +0.0286  H
ATOM     43 H33  161 L   1      -3.508   2.008  -0.370  1.00  0.00    +0.0286  H
ATOM     44 H34  161 L   1      -4.500   1.953  -1.896  1.00  0.00    +0.0286  H
ENDBRANCH 36 37
ENDBRANCH 29 32
ENDBRANCH 27 29
ENDBRANCH 3 27
TORSDOF 4
