ROOT
ATOM      1 C10  WH0 L   1       1.346  -0.444  -0.108  1.00  0.00    -0.0437  A
ATOM      2 C11  WH0 L   1       0.880   0.748   0.495  1.00  0.00    -0.0580  A
ATOM      3 C12  WH0 L   1      -0.328   1.337   0.106  1.00  0.00    -0.0528  A
ATOM      4 C13  WH0 L   1      -1.061   0.721  -0.895  1.00  0.00    +0.0212  A
ATOM      5 C14  WH0 L   1      -0.598  -0.462  -1.483  1.00  0.00    +0.0488  A
ATOM      6 C15  WH0 L   1       0.591  -1.059  -1.117  1.00  0.00    -0.0347  A
ATOM      7 N16  WH0 L   1      -1.510  -0.934  -2.418  1.00  0.00    -0.3228  N
ATOM      8 C17  WH0 L   1      -2.640  -0.113  -2.493  1.00  0.00    +0.2665  C
ATOM      9 O18  WH0 L   1      -3.619  -0.340  -3.186  1.00  0.00    -0.2689 OA
ATOM     10 C19  WH0 L   1      -2.372   1.116  -1.542  1.00  0.00    +0.2010  C
ATOM     11 S20  WH0 L   1      -2.063   2.549  -2.653  1.00  0.00    -0.1088 SA
ATOM     12 C21  WH0 L   1      -2.910   3.688  -1.574  1.00  0.00    +0.0758  C
ATOM     13 C22  WH0 L   1      -3.699   2.880  -0.572  1.00  0.00    +0.2395  C
ATOM     14 O23  WH0 L   1      -4.439   3.457   0.222  1.00  0.00    -0.2717 OA
ATOM     15 N24  WH0 L   1      -3.444   1.504  -0.634  1.00  0.00    -0.2840  N
ATOM     16 H38  WH0 L   1       1.469   1.222   1.281  1.00  0.00    +0.0620  H
ATOM     17 H39  WH0 L   1      -0.670   2.251   0.582  1.00  0.00    +0.0622  H
ATOM     18 H40  WH0 L   1       0.924  -1.978  -1.589  1.00  0.00    +0.0641  H
ATOM     19 H41  WH0 L   1      -1.430  -1.791  -2.946  1.00  0.00    +0.1687 HD
ATOM     20 H42  WH0 L   1      -2.187   4.312  -1.042  1.00  0.00    +0.0474  H
ATOM     21 H43  WH0 L   1      -3.590   4.318  -2.153  1.00  0.00    +0.0474  H
ENDROOT
BRANCH 1 22
ATOM     22  C9  WH0 L   1       2.667  -1.034   0.326  1.00  0.00    -0.0101  C
ATOM     23 H36  WH0 L   1       2.757  -0.949   1.417  1.00  0.00    +0.0330  H
ATOM     24 H37  WH0 L   1       2.680  -2.111   0.116  1.00  0.00    +0.0330  H
BRANCH 22 25
ATOM     25  C8  WH0 L   1       3.848  -0.353  -0.371  1.00  0.00    +0.0224  C
ATOM     26 H34  WH0 L   1       3.862   0.721  -0.147  1.00  0.00    +0.0489  H
ATOM     27 H35  WH0 L   1       3.772  -0.465  -1.458  1.00  0.00    +0.0489  H
BRANCH 25 30
ATOM     28  C5  WH0 L   1       5.707  -0.594   1.231  1.00  0.00    +0.2618  C
ATOM     29  O6  WH0 L   1       5.201   0.187   2.030  1.00  0.00    -0.2669 OA
ATOM     30  N7  WH0 L   1       5.124  -0.921   0.026  1.00  0.00    -0.3511  N
ATOM     31 H33  WH0 L   1       5.506  -1.672  -0.534  1.00  0.00    +0.1627 HD
BRANCH 28 33
ATOM     32  C1  WH0 L   1       7.900  -1.520   0.573  1.00  0.00    -0.0760  C
ATOM     33  C2  WH0 L   1       6.987  -1.295   1.534  1.00  0.00    +0.1085  C
ATOM     34 H31  WH0 L   1       8.847  -2.003   0.803  1.00  0.00    +0.0549  H
ATOM     35 H32  WH0 L   1       7.756  -1.200  -0.453  1.00  0.00    +0.0549  H
BRANCH 33 36
ATOM     36  C3  WH0 L   1       7.245  -1.652   2.888  1.00  0.00    +0.1040  C
ATOM     37  N4  WH0 L   1       7.494  -1.989   3.971  1.00  0.00    -0.1907 NA
ENDBRANCH 33 36
ENDBRANCH 28 33
ENDBRANCH 25 30
ENDBRANCH 22 25
ENDBRANCH 1 22
BRANCH 15 38
ATOM     38 C25  WH0 L   1      -4.193   0.545   0.137  1.00  0.00    +0.0468  A
ATOM     39 C26  WH0 L   1      -5.484   0.846   0.603  1.00  0.00    -0.0380  A
ATOM     40 C27  WH0 L   1      -6.238  -0.075   1.341  1.00  0.00    -0.0598  A
ATOM     41 C28  WH0 L   1      -5.718  -1.328   1.632  1.00  0.00    -0.0616  A
ATOM     42 C29  WH0 L   1      -4.446  -1.656   1.183  1.00  0.00    -0.0598  A
ATOM     43 C30  WH0 L   1      -3.696  -0.731   0.443  1.00  0.00    -0.0380  A
ATOM     44 H44  WH0 L   1      -5.962   1.796   0.379  1.00  0.00    +0.0638  H
ATOM     45 H45  WH0 L   1      -7.235   0.196   1.680  1.00  0.00    +0.0618  H
ATOM     46 H46  WH0 L   1      -6.301  -2.043   2.205  1.00  0.00    +0.0618  H
ATOM     47 H47  WH0 L   1      -4.027  -2.632   1.412  1.00  0.00    +0.0618  H
ATOM     48 H48  WH0 L   1      -2.702  -1.052   0.163  1.00  0.00    +0.0638  H
ENDBRANCH 15 38
TORSDOF 6
