ROOT
ATOM      1 C14  952 L   1       1.829  -0.214  -1.732  1.00  0.00    +0.0924  C
ATOM      2 C15  952 L   1       2.188   1.267  -1.622  1.00  0.00    +0.0142  C
ATOM      3 S16  952 L   1       2.978   1.825  -0.072  1.00  0.00    -0.1584 SA
ATOM      4 C17  952 L   1       3.956   0.347   0.362  1.00  0.00    +0.0028  C
ATOM      5 C18  952 L   1       4.509  -0.403  -0.840  1.00  0.00    +0.0034  C
ATOM      6 S19  952 L   1       3.278  -1.337  -1.811  1.00  0.00    -0.1462 SA
ATOM      7 H30  952 L   1       1.333  -0.361  -2.700  1.00  0.00    +0.0517  H
ATOM      8 H31  952 L   1       1.283   1.875  -1.733  1.00  0.00    +0.0392  H
ATOM      9 H32  952 L   1       2.846   1.556  -2.450  1.00  0.00    +0.0392  H
ATOM     10 H33  952 L   1       3.367  -0.308   1.011  1.00  0.00    +0.0384  H
ATOM     11 H34  952 L   1       4.795   0.704   0.971  1.00  0.00    +0.0384  H
ATOM     12 H35  952 L   1       5.044   0.276  -1.515  1.00  0.00    +0.0384  H
ATOM     13 H36  952 L   1       5.245  -1.136  -0.492  1.00  0.00    +0.0384  H
ENDROOT
BRANCH 1 15
ATOM     14  O1  952 L   1       1.118  -1.286   0.344  1.00  0.00    -0.2720 OA
ATOM     15  C2  952 L   1       0.817  -0.657  -0.665  1.00  0.00    +0.2355  C
ATOM     16  N3  952 L   1      -0.489  -0.276  -0.947  1.00  0.00    -0.3425  N
ATOM     17 H20  952 L   1      -0.587   0.506  -1.580  1.00  0.00    +0.1633 HD
BRANCH 16 18
ATOM     18  C4  952 L   1      -1.542  -0.321   0.084  1.00  0.00    +0.1037  C
ATOM     19 C10  952 L   1      -2.914  -0.162  -0.601  1.00  0.00    -0.0224  C
ATOM     20 C11  952 L   1      -3.918  -0.723   0.397  1.00  0.00    -0.0504  C
ATOM     21 C12  952 L   1      -3.173  -1.822   1.147  1.00  0.00    -0.0504  C
ATOM     22 C13  952 L   1      -1.699  -1.701   0.749  1.00  0.00    -0.0224  C
ATOM     23 H22  952 L   1      -2.954  -0.757  -1.523  1.00  0.00    +0.0292  H
ATOM     24 H23  952 L   1      -3.149   0.874  -0.873  1.00  0.00    +0.0292  H
ATOM     25 H24  952 L   1      -4.817  -1.101  -0.098  1.00  0.00    +0.0266  H
ATOM     26 H25  952 L   1      -4.234   0.058   1.098  1.00  0.00    +0.0266  H
ATOM     27 H26  952 L   1      -3.301  -1.700   2.228  1.00  0.00    +0.0266  H
ATOM     28 H27  952 L   1      -3.559  -2.813   0.885  1.00  0.00    +0.0266  H
ATOM     29 H28  952 L   1      -1.468  -2.498   0.030  1.00  0.00    +0.0292  H
ATOM     30 H29  952 L   1      -1.046  -1.851   1.615  1.00  0.00    +0.0292  H
BRANCH 18 31
ATOM     31  C5  952 L   1      -1.287   0.827   1.039  1.00  0.00    +0.1967  A
ATOM     32  N6  952 L   1      -0.811   2.043   0.582  1.00  0.00    -0.1964 NA
ATOM     33  C7  952 L   1      -0.694   2.719   1.698  1.00  0.00    +0.2145  A
ATOM     34  O8  952 L   1      -1.103   2.041   2.801  1.00  0.00    -0.3414 OA
ATOM     35  N9  952 L   1      -1.515   0.782   2.361  1.00  0.00    -0.0592 NA
ATOM     36 H21  952 L   1      -0.328   3.722   1.851  1.00  0.00    +0.1283  H
ENDBRANCH 18 31
ENDBRANCH 16 18
ENDBRANCH 1 15
TORSDOF 3
