ROOT
ATOM      1 C22  CHE L   1       4.728   0.681  -0.540  1.00  0.00    +0.0426  A
ATOM      2 C23  CHE L   1       5.266   1.702  -1.366  1.00  0.00    -0.0473  A
ATOM      3 C24  CHE L   1       6.645   1.811  -1.576  1.00  0.00    -0.0339  A
ATOM      4 C25  CHE L   1       7.437   0.889  -0.937  1.00  0.00    +0.0873  A
ATOM      5 N26  CHE L   1       8.791   0.729  -0.933  1.00  0.00    -0.2880  N
ATOM      6 C27  CHE L   1       9.087  -0.339  -0.120  1.00  0.00    +0.4186  A
ATOM      7 O28  CHE L   1      10.213  -0.754   0.106  1.00  0.00    -0.2229 OA
ATOM      8 O29  CHE L   1       7.922  -0.899   0.425  1.00  0.00    -0.4076 OA
ATOM      9 C30  CHE L   1       6.929  -0.100  -0.119  1.00  0.00    +0.1575  A
ATOM     10 C31  CHE L   1       5.575  -0.232   0.107  1.00  0.00    -0.0048  A
ATOM     11 H56  CHE L   1       4.595   2.414  -1.845  1.00  0.00    +0.0626  H
ATOM     12 H57  CHE L   1       7.056   2.590  -2.207  1.00  0.00    +0.0639  H
ATOM     13 H58  CHE L   1       9.486   1.275  -1.416  1.00  0.00    +0.1721 HD
ATOM     14 H59  CHE L   1       5.209  -0.997   0.779  1.00  0.00    +0.0663  H
ENDROOT
BRANCH 1 16
ATOM     15  O1  CHE L   1       2.591   1.663  -0.489  1.00  0.00    -0.2676 OA
ATOM     16  C2  CHE L   1       3.249   0.637  -0.366  1.00  0.00    +0.2524  C
ATOM     17  N3  CHE L   1       2.695  -0.597  -0.096  1.00  0.00    -0.3491  N
ATOM     18 H32  CHE L   1       3.274  -1.422  -0.147  1.00  0.00    +0.1629 HD
BRANCH 17 19
ATOM     19  C4  CHE L   1       1.251  -0.773   0.050  1.00  0.00    +0.0337  C
ATOM     20  C5  CHE L   1       0.859  -2.256  -0.094  1.00  0.00    -0.0113  C
ATOM     21  C6  CHE L   1      -0.555  -2.568   0.435  1.00  0.00    +0.0425  C
ATOM     22  C7  CHE L   1      -0.507  -3.107   1.866  1.00  0.00    -0.0298  C
ATOM     23  C8  CHE L   1      -0.465  -1.864   2.749  1.00  0.00    -0.0298  C
ATOM     24  C9  CHE L   1      -0.636  -0.677   1.787  1.00  0.00    +0.0425  C
ATOM     25 C10  CHE L   1       0.728  -0.120   1.345  1.00  0.00    -0.0113  C
ATOM     26 N11  CHE L   1      -1.274  -1.271   0.576  1.00  0.00    -0.2946 NA
ATOM     27 H33  CHE L   1       0.794  -0.234  -0.792  1.00  0.00    +0.0524  H
ATOM     28 H34  CHE L   1       0.901  -2.509  -1.162  1.00  0.00    +0.0305  H
ATOM     29 H35  CHE L   1       1.601  -2.908   0.384  1.00  0.00    +0.0305  H
ATOM     30 H36  CHE L   1      -1.051  -3.274  -0.237  1.00  0.00    +0.0532  H
ATOM     31 H37  CHE L   1       0.340  -3.777   2.049  1.00  0.00    +0.0286  H
ATOM     32 H38  CHE L   1      -1.420  -3.675   2.082  1.00  0.00    +0.0286  H
ATOM     33 H39  CHE L   1      -1.294  -1.897   3.467  1.00  0.00    +0.0286  H
ATOM     34 H40  CHE L   1       0.459  -1.810   3.336  1.00  0.00    +0.0286  H
ATOM     35 H41  CHE L   1      -1.229   0.117   2.248  1.00  0.00    +0.0532  H
ATOM     36 H42  CHE L   1       1.463  -0.205   2.156  1.00  0.00    +0.0305  H
ATOM     37 H43  CHE L   1       0.620   0.958   1.164  1.00  0.00    +0.0305  H
BRANCH 26 38
ATOM     38 S12  CHE L   1      -2.970  -1.324   0.512  1.00  0.00    +0.2330  S
ATOM     39 O13  CHE L   1      -3.326  -2.143  -0.626  1.00  0.00    -0.2053 OA
ATOM     40 O14  CHE L   1      -3.460  -1.627   1.838  1.00  0.00    -0.2053 OA
BRANCH 38 41
ATOM     41 C15  CHE L   1      -3.351   0.388   0.123  1.00  0.00    +0.0716  C
ATOM     42 H44  CHE L   1      -2.876   0.993   0.902  1.00  0.00    +0.0446  H
ATOM     43 H45  CHE L   1      -2.885   0.621  -0.839  1.00  0.00    +0.0446  H
BRANCH 41 44
ATOM     44 C16  CHE L   1      -4.863   0.670   0.103  1.00  0.00    -0.0234  C
ATOM     45 C17  CHE L   1      -5.561  -0.030  -1.080  1.00  0.00    -0.0366  C
ATOM     46 C18  CHE L   1      -6.784   0.750  -1.553  1.00  0.00    -0.0038  C
ATOM     47 N19  CHE L   1      -6.427   2.080  -2.054  1.00  0.00    -0.3160 NA
ATOM     48 C20  CHE L   1      -5.327   2.719  -1.333  1.00  0.00    -0.0038  C
ATOM     49 C21  CHE L   1      -5.139   2.188   0.086  1.00  0.00    -0.0366  C
ATOM     50 H46  CHE L   1      -5.293   0.280   1.035  1.00  0.00    +0.0312  H
ATOM     51 H47  CHE L   1      -5.867  -1.041  -0.783  1.00  0.00    +0.0280  H
ATOM     52 H48  CHE L   1      -4.868  -0.148  -1.925  1.00  0.00    +0.0280  H
ATOM     53 H49  CHE L   1      -7.504   0.846  -0.729  1.00  0.00    +0.0424  H
ATOM     54 H50  CHE L   1      -7.288   0.197  -2.354  1.00  0.00    +0.0424  H
ATOM     55 H51  CHE L   1      -7.256   2.677  -2.039  1.00  0.00    +0.1219 HD
ATOM     56 H52  CHE L   1      -5.500   3.801  -1.302  1.00  0.00    +0.0424  H
ATOM     57 H53  CHE L   1      -4.403   2.570  -1.904  1.00  0.00    +0.0424  H
ATOM     58 H54  CHE L   1      -4.338   2.742   0.590  1.00  0.00    +0.0280  H
ATOM     59 H55  CHE L   1      -6.053   2.390   0.663  1.00  0.00    +0.0280  H
ENDBRANCH 41 44
ENDBRANCH 38 41
ENDBRANCH 26 38
ENDBRANCH 17 19
ENDBRANCH 1 16
TORSDOF 5
