ROOT
ATOM      1  C3  679 L   1      -1.899   0.515   0.590  1.00  0.00    +0.0051  C
ATOM      2  C4  679 L   1      -1.603  -0.691   1.506  1.00  0.00    +0.0266  C
ATOM      3  N5  679 L   1      -0.329  -1.308   1.141  1.00  0.00    -0.3403  N
ATOM      4  C6  679 L   1       0.808  -0.973   1.872  1.00  0.00    +0.2450  C
ATOM      5  O7  679 L   1       0.753  -0.229   2.857  1.00  0.00    -0.2710 OA
ATOM      6 C16  679 L   1      -0.316  -1.840  -0.218  1.00  0.00    +0.0238  C
ATOM      7 C17  679 L   1      -0.541  -0.703  -1.211  1.00  0.00    -0.0062  C
ATOM      8 C18  679 L   1      -1.843   0.071  -0.907  1.00  0.00    +0.0693  C
ATOM      9 C19  679 L   1      -1.947   1.265  -1.865  1.00  0.00    -0.0357  C
ATOM     10 O20  679 L   1      -2.950  -0.801  -1.172  1.00  0.00    -0.3885 OA
ATOM     11 H26  679 L   1      -1.102   1.257   0.746  1.00  0.00    +0.0345  H
ATOM     12 H27  679 L   1      -2.384  -1.456   1.416  1.00  0.00    +0.0492  H
ATOM     13 H28  679 L   1      -1.573  -0.389   2.557  1.00  0.00    +0.0492  H
ATOM     14 H35  679 L   1       0.617  -2.356  -0.446  1.00  0.00    +0.0489  H
ATOM     15 H36  679 L   1      -1.115  -2.587  -0.293  1.00  0.00    +0.0489  H
ATOM     16 H37  679 L   1       0.309  -0.011  -1.173  1.00  0.00    +0.0310  H
ATOM     17 H38  679 L   1      -0.579  -1.129  -2.221  1.00  0.00    +0.0310  H
ATOM     18 H39  679 L   1      -1.809   0.942  -2.904  1.00  0.00    +0.0257  H
ATOM     19 H40  679 L   1      -1.191   2.026  -1.643  1.00  0.00    +0.0257  H
ATOM     20 H41  679 L   1      -2.938   1.728  -1.830  1.00  0.00    +0.0257  H
ATOM     21 H42  679 L   1      -2.993  -0.954  -2.132  1.00  0.00    +0.2102 HD
ENDROOT
BRANCH 1 23
ATOM     22  C1  679 L   1      -3.284   1.732   2.384  1.00  0.00    -0.0649  C
ATOM     23  C2  679 L   1      -3.246   1.173   0.966  1.00  0.00    -0.0488  C
ATOM     24 H21  679 L   1      -3.272   0.935   3.133  1.00  0.00    +0.0230  H
ATOM     25 H22  679 L   1      -4.204   2.306   2.534  1.00  0.00    +0.0230  H
ATOM     26 H23  679 L   1      -2.435   2.398   2.567  1.00  0.00    +0.0230  H
ATOM     27 H24  679 L   1      -4.067   0.456   0.847  1.00  0.00    +0.0267  H
ATOM     28 H25  679 L   1      -3.451   2.006   0.287  1.00  0.00    +0.0267  H
ENDBRANCH 1 23
BRANCH 4 29
ATOM     29  C8  679 L   1       2.145  -1.549   1.460  1.00  0.00    +0.1199  C
ATOM     30 H29  679 L   1       2.055  -2.557   1.049  1.00  0.00    +0.0607  H
ATOM     31 H30  679 L   1       2.785  -1.627   2.347  1.00  0.00    +0.0607  H
BRANCH 29 32
ATOM     32  N9  679 L   1       2.824  -0.685   0.517  1.00  0.00    -0.2607  N
ATOM     33 C10  679 L   1       3.345   0.552   0.769  1.00  0.00    +0.0446  A
ATOM     34 C11  679 L   1       3.917   0.968  -0.407  1.00  0.00    +0.0812  A
ATOM     35 CL12 679 L   1       4.712   2.432  -0.707  1.00  0.00    -0.0801 Cl
ATOM     36 C13  679 L   1       3.702  -0.090  -1.321  1.00  0.00    +0.0782  A
ATOM     37 C14  679 L   1       4.118  -0.171  -2.742  1.00  0.00    -0.0192  C
ATOM     38 N15  679 L   1       3.036  -1.105  -0.750  1.00  0.00    -0.1746 NA
ATOM     39 H31  679 L   1       3.261   1.021   1.740  1.00  0.00    +0.0841  H
ATOM     40 H32  679 L   1       5.208  -0.225  -2.816  1.00  0.00    +0.0294  H
ATOM     41 H33  679 L   1       3.776   0.711  -3.293  1.00  0.00    +0.0294  H
ATOM     42 H34  679 L   1       3.700  -1.055  -3.234  1.00  0.00    +0.0294  H
ENDBRANCH 29 32
ENDBRANCH 4 29
TORSDOF 3
