ROOT
ATOM      1 C15  WH0 L   1      -2.374  -2.397   0.304  1.00  0.00    -0.0133  A
ATOM      2 C16  WH0 L   1      -3.201  -2.784   1.386  1.00  0.00    -0.0519  A
ATOM      3 C17  WH0 L   1      -3.655  -4.108   1.498  1.00  0.00    -0.0374  A
ATOM      4 C18  WH0 L   1      -3.265  -5.026   0.526  1.00  0.00    +0.0454  A
ATOM      5 C19  WH0 L   1      -2.452  -4.662  -0.526  1.00  0.00    -0.0145  A
ATOM      6 C20  WH0 L   1      -1.991  -3.352  -0.661  1.00  0.00    -0.0483  A
ATOM      7 C21  WH0 L   1      -2.188  -5.833  -1.417  1.00  0.00    +0.0535  C
ATOM      8 C22  WH0 L   1      -2.980  -6.885  -0.700  1.00  0.00    +0.2296  C
ATOM      9 O23  WH0 L   1      -3.071  -8.081  -1.079  1.00  0.00    -0.2725 OA
ATOM     10 N24  WH0 L   1      -3.625  -6.393   0.470  1.00  0.00    -0.3256  N
ATOM     11 H57  WH0 L   1      -3.486  -2.062   2.140  1.00  0.00    +0.0624  H
ATOM     12 H58  WH0 L   1      -4.289  -4.406   2.322  1.00  0.00    +0.0638  H
ATOM     13 H59  WH0 L   1      -1.366  -3.081  -1.502  1.00  0.00    +0.0627  H
ATOM     14 H60  WH0 L   1      -1.107  -6.085  -1.428  1.00  0.00    +0.0410  H
ATOM     15 H61  WH0 L   1      -2.586  -5.660  -2.438  1.00  0.00    +0.0410  H
ATOM     16 H62  WH0 L   1      -4.238  -6.920   1.130  1.00  0.00    +0.1686 HD
ENDROOT
BRANCH 1 20
ATOM     17 C11  WH0 L   1       1.774  -0.538  -0.079  1.00  0.00    +0.0472  A
ATOM     18 C12  WH0 L   1       0.575  -1.273  -0.052  1.00  0.00    -0.0141  A
ATOM     19 C13  WH0 L   1      -0.612  -0.551   0.064  1.00  0.00    +0.0806  A
ATOM     20 C14  WH0 L   1      -1.915  -0.996   0.188  1.00  0.00    +0.0353  A
ATOM     21 C25  WH0 L   1      -2.653   0.181   0.374  1.00  0.00    +0.1015  A
ATOM     22 N36  WH0 L   1      -1.820   1.248   0.370  1.00  0.00    -0.1627 NA
ATOM     23 N37  WH0 L   1      -0.597   0.786   0.172  1.00  0.00    -0.1987  N
ATOM     24 C38  WH0 L   1       0.561   1.501   0.178  1.00  0.00    +0.2285  A
ATOM     25 N46  WH0 L   1       1.739   0.824   0.062  1.00  0.00    -0.2173 NA
ATOM     26 H56  WH0 L   1       0.578  -2.353  -0.105  1.00  0.00    +0.0657  H
BRANCH 17 27
ATOM     27 C10  WH0 L   1       3.091  -1.265  -0.181  1.00  0.00    -0.0086  C
ATOM     28 H54  WH0 L   1       3.338  -1.692   0.817  1.00  0.00    +0.0329  H
ATOM     29 H55  WH0 L   1       2.984  -2.107  -0.903  1.00  0.00    +0.0329  H
BRANCH 27 30
ATOM     30  C9  WH0 L   1       4.232  -0.348  -0.645  1.00  0.00    -0.0301  C
ATOM     31 H52  WH0 L   1       4.392   0.453   0.111  1.00  0.00    +0.0286  H
ATOM     32 H53  WH0 L   1       3.956   0.125  -1.614  1.00  0.00    +0.0286  H
BRANCH 30 33
ATOM     33  C8  WH0 L   1       5.539  -1.127  -0.821  1.00  0.00    +0.0187  C
ATOM     34 H50  WH0 L   1       5.400  -1.909  -1.600  1.00  0.00    +0.0486  H
ATOM     35 H51  WH0 L   1       5.807  -1.622   0.140  1.00  0.00    +0.0486  H
BRANCH 33 38
ATOM     36  C5  WH0 L   1       7.957  -0.725  -1.445  1.00  0.00    +0.2618  C
ATOM     37  O6  WH0 L   1       8.176  -1.965  -1.371  1.00  0.00    -0.2669 OA
ATOM     38  N7  WH0 L   1       6.627  -0.231  -1.220  1.00  0.00    -0.3514  N
ATOM     39 H49  WH0 L   1       6.429   0.788  -1.346  1.00  0.00    +0.1626 HD
BRANCH 36 41
ATOM     40  C1  WH0 L   1      10.292  -0.257  -2.066  1.00  0.00    -0.0760  C
ATOM     41  C2  WH0 L   1       9.075   0.203  -1.758  1.00  0.00    +0.1085  C
ATOM     42 H47  WH0 L   1      10.502  -1.319  -2.105  1.00  0.00    +0.0549  H
ATOM     43 H48  WH0 L   1      11.104   0.425  -2.290  1.00  0.00    +0.0549  H
BRANCH 41 44
ATOM     44  C3  WH0 L   1       8.865   1.632  -1.726  1.00  0.00    +0.1040  C
ATOM     45  N4  WH0 L   1       8.696   2.776  -1.698  1.00  0.00    -0.1907 NA
ENDBRANCH 41 44
ENDBRANCH 36 41
ENDBRANCH 33 38
ENDBRANCH 30 33
ENDBRANCH 27 30
ENDBRANCH 17 27
BRANCH 21 46
ATOM     46 C26  WH0 L   1      -4.116   0.307   0.557  1.00  0.00    +0.0028  A
ATOM     47 C27  WH0 L   1      -4.634   1.336   1.357  1.00  0.00    -0.0520  A
ATOM     48 C28  WH0 L   1      -6.014   1.456   1.555  1.00  0.00    -0.0495  A
ATOM     49 C29  WH0 L   1      -6.904   0.568   0.932  1.00  0.00    +0.0548  A
ATOM     50 C34  WH0 L   1      -6.384  -0.458   0.125  1.00  0.00    -0.0495  A
ATOM     51 C35  WH0 L   1      -5.007  -0.574  -0.078  1.00  0.00    -0.0520  A
ATOM     52 H63  WH0 L   1      -3.969   2.035   1.849  1.00  0.00    +0.0624  H
ATOM     53 H64  WH0 L   1      -6.384   2.240   2.203  1.00  0.00    +0.0623  H
ATOM     54 H65  WH0 L   1      -7.043  -1.174  -0.349  1.00  0.00    +0.0623  H
ATOM     55 H66  WH0 L   1      -4.642  -1.352  -0.735  1.00  0.00    +0.0624  H
BRANCH 49 56
ATOM     56 C30  WH0 L   1      -8.383   0.643   1.215  1.00  0.00    +0.4174  C
ATOM     57 F31  WH0 L   1      -9.111   0.173   0.136  1.00  0.00    -0.1659  F
ATOM     58 F32  WH0 L   1      -8.772   1.948   1.468  1.00  0.00    -0.1659  F
ATOM     59 F33  WH0 L   1      -8.671  -0.134   2.323  1.00  0.00    -0.1659  F
ENDBRANCH 49 56
ENDBRANCH 21 46
BRANCH 24 60
ATOM     60 N39  WH0 L   1       0.569   2.927   0.358  1.00  0.00    -0.3401  N
ATOM     61 C40  WH0 L   1      -0.408   3.773  -0.336  1.00  0.00    +0.0237  C
ATOM     62 C41  WH0 L   1       0.232   5.110  -0.729  1.00  0.00    -0.0090  C
ATOM     63 C42  WH0 L   1       0.914   5.781   0.477  1.00  0.00    +0.0585  C
ATOM     64 O43  WH0 L   1      -0.043   6.144   1.443  1.00  0.00    -0.3917 OA
ATOM     65 C44  WH0 L   1       1.949   4.833   1.101  1.00  0.00    -0.0090  C
ATOM     66 C45  WH0 L   1       1.320   3.492   1.489  1.00  0.00    +0.0237  C
ATOM     67 H67  WH0 L   1      -0.770   3.271  -1.260  1.00  0.00    +0.0489  H
ATOM     68 H68  WH0 L   1      -1.282   3.954   0.329  1.00  0.00    +0.0489  H
ATOM     69 H69  WH0 L   1      -0.547   5.785  -1.149  1.00  0.00    +0.0307  H
ATOM     70 H70  WH0 L   1       0.992   4.933  -1.525  1.00  0.00    +0.0307  H
ATOM     71 H71  WH0 L   1       1.456   6.690   0.123  1.00  0.00    +0.0594  H
ATOM     72 H72  WH0 L   1      -0.489   6.964   1.108  1.00  0.00    +0.2098 HD
ATOM     73 H73  WH0 L   1       2.774   4.653   0.372  1.00  0.00    +0.0307  H
ATOM     74 H74  WH0 L   1       2.392   5.309   2.005  1.00  0.00    +0.0307  H
ATOM     75 H75  WH0 L   1       2.129   2.801   1.813  1.00  0.00    +0.0489  H
ATOM     76 H76  WH0 L   1       0.628   3.635   2.350  1.00  0.00    +0.0489  H
ENDBRANCH 24 60
ENDBRANCH 1 20
TORSDOF 10
