ROOT
ATOM      1  C9  SEL L   1      -2.638   0.426   0.260  1.00  0.00    +0.0381  A
ATOM      2 C10  SEL L   1      -3.700   0.920   1.039  1.00  0.00    -0.0358  A
ATOM      3 C11  SEL L   1      -4.775   1.615   0.473  1.00  0.00    -0.0245  A
ATOM      4 C12  SEL L   1      -4.809   1.822  -0.895  1.00  0.00    +0.1235  A
ATOM      5 F13  SEL L   1      -5.836   2.485  -1.443  1.00  0.00    -0.2055  F
ATOM      6 C14  SEL L   1      -3.791   1.344  -1.703  1.00  0.00    -0.0245  A
ATOM      7 C15  SEL L   1      -2.720   0.649  -1.126  1.00  0.00    -0.0358  A
ATOM      8 H30  SEL L   1      -3.713   0.763   2.114  1.00  0.00    +0.0639  H
ATOM      9 H31  SEL L   1      -5.581   1.988   1.096  1.00  0.00    +0.0647  H
ATOM     10 H32  SEL L   1      -3.830   1.508  -2.774  1.00  0.00    +0.0647  H
ATOM     11 H33  SEL L   1      -1.940   0.291  -1.791  1.00  0.00    +0.0639  H
ENDROOT
BRANCH 1 14
ATOM     12  C6  SEL L   1       0.351  -1.555   1.120  1.00  0.00    +0.0097  C
ATOM     13  C7  SEL L   1      -0.441  -0.767   0.071  1.00  0.00    +0.0243  C
ATOM     14  N8  SEL L   1      -1.591  -0.269   0.826  1.00  0.00    -0.3678  N
ATOM     15 C16  SEL L   1      -1.278  -0.208   2.266  1.00  0.00    +0.0449  C
ATOM     16 C17  SEL L   1       0.182  -0.701   2.384  1.00  0.00    +0.0774  C
ATOM     17 O18  SEL L   1       1.059   0.413   2.506  1.00  0.00    -0.3897 OA
ATOM     18 H27  SEL L   1      -0.203  -2.487   1.314  1.00  0.00    +0.0347  H
ATOM     19 H28  SEL L   1      -0.744  -1.430  -0.747  1.00  0.00    +0.0491  H
ATOM     20 H29  SEL L   1       0.121   0.080  -0.337  1.00  0.00    +0.0491  H
ATOM     21 H34  SEL L   1      -1.377   0.808   2.664  1.00  0.00    +0.0513  H
ATOM     22 H35  SEL L   1      -1.950  -0.887   2.802  1.00  0.00    +0.0513  H
ATOM     23 H36  SEL L   1       0.312  -1.302   3.290  1.00  0.00    +0.0614  H
ATOM     24 H37  SEL L   1       1.666   0.445   1.734  1.00  0.00    +0.2099 HD
BRANCH 12 25
ATOM     25  C5  SEL L   1       1.767  -1.973   0.722  1.00  0.00    -0.0018  C
ATOM     26 H25  SEL L   1       1.687  -2.889   0.120  1.00  0.00    +0.0333  H
ATOM     27 H26  SEL L   1       2.333  -2.255   1.620  1.00  0.00    +0.0333  H
BRANCH 25 31
ATOM     28  C1  SEL L   1       4.525   0.514  -2.797  1.00  0.00    -0.0229  C
ATOM     29  C2  SEL L   1       3.752   0.046  -1.626  1.00  0.00    +0.0332  A
ATOM     30  C3  SEL L   1       3.126  -1.149  -1.351  1.00  0.00    -0.0183  A
ATOM     31  C4  SEL L   1       2.561  -0.984  -0.066  1.00  0.00    +0.0634  A
ATOM     32 N19  SEL L   1       2.812   0.234   0.429  1.00  0.00    -0.1787 NA
ATOM     33 N20  SEL L   1       3.538   0.835  -0.530  1.00  0.00    -0.2816  N
ATOM     34 H21  SEL L   1       4.535  -0.244  -3.588  1.00  0.00    +0.0292  H
ATOM     35 H22  SEL L   1       4.085   1.428  -3.210  1.00  0.00    +0.0292  H
ATOM     36 H23  SEL L   1       5.562   0.725  -2.513  1.00  0.00    +0.0292  H
ATOM     37 H24  SEL L   1       3.086  -2.023  -1.987  1.00  0.00    +0.0654  H
ATOM     38 H38  SEL L   1       3.857   1.785  -0.368  1.00  0.00    +0.1885 HD
ENDBRANCH 25 31
ENDBRANCH 12 25
ENDBRANCH 1 14
TORSDOF 3
