ROOT
ATOM      1  C7  722 L   1      -1.659  -0.239   0.383  1.00  0.00    +0.0722  C
ATOM      2  C8  722 L   1      -1.638  -1.699  -0.103  1.00  0.00    -0.0272  C
ATOM      3  C9  722 L   1      -0.307  -2.092  -0.745  1.00  0.00    -0.0333  C
ATOM      4 C10  722 L   1       0.878  -1.383  -0.096  1.00  0.00    +0.0216  C
ATOM      5 N11  722 L   1       0.747   0.077  -0.174  1.00  0.00    -0.3364  N
ATOM      6 C12  722 L   1       1.814   0.953  -0.306  1.00  0.00    +0.2536  C
ATOM      7 O13  722 L   1       1.680   2.129  -0.638  1.00  0.00    -0.2676 OA
ATOM      8 C20  722 L   1      -0.605   0.628  -0.311  1.00  0.00    +0.0439  C
ATOM      9 H28  722 L   1      -1.374  -0.263   1.446  1.00  0.00    +0.0563  H
ATOM     10 H29  722 L   1      -1.829  -2.352   0.759  1.00  0.00    +0.0287  H
ATOM     11 H30  722 L   1      -2.447  -1.910  -0.812  1.00  0.00    +0.0287  H
ATOM     12 H31  722 L   1      -0.338  -1.833  -1.812  1.00  0.00    +0.0283  H
ATOM     13 H32  722 L   1      -0.176  -3.179  -0.688  1.00  0.00    +0.0283  H
ATOM     14 H33  722 L   1       1.803  -1.705  -0.583  1.00  0.00    +0.0489  H
ATOM     15 H34  722 L   1       0.939  -1.649   0.966  1.00  0.00    +0.0489  H
ATOM     16 H42  722 L   1      -0.626   1.648   0.093  1.00  0.00    +0.0510  H
ATOM     17 H43  722 L   1      -0.792   0.709  -1.387  1.00  0.00    +0.0510  H
ENDROOT
BRANCH 1 23
ATOM     18  C1  722 L   1      -5.903   1.353   2.057  1.00  0.00    -0.0028  C
ATOM     19  C2  722 L   1      -4.821   0.998   1.120  1.00  0.00    +0.1482  A
ATOM     20  N3  722 L   1      -4.931   1.167  -0.231  1.00  0.00    -0.2166 NA
ATOM     21  C4  722 L   1      -3.775   0.739  -0.699  1.00  0.00    +0.1253  A
ATOM     22  C5  722 L   1      -3.390   0.708  -2.128  1.00  0.00    -0.0048  C
ATOM     23  N6  722 L   1      -2.995   0.335   0.356  1.00  0.00    -0.2445  N
ATOM     24 N21  722 L   1      -3.657   0.481   1.523  1.00  0.00    -0.1547 NA
ATOM     25 H22  722 L   1      -6.762   1.770   1.522  1.00  0.00    +0.0309  H
ATOM     26 H23  722 L   1      -6.242   0.468   2.606  1.00  0.00    +0.0309  H
ATOM     27 H24  722 L   1      -5.558   2.099   2.779  1.00  0.00    +0.0309  H
ATOM     28 H25  722 L   1      -2.765   1.572  -2.373  1.00  0.00    +0.0308  H
ATOM     29 H26  722 L   1      -2.851  -0.206  -2.388  1.00  0.00    +0.0308  H
ATOM     30 H27  722 L   1      -4.283   0.754  -2.760  1.00  0.00    +0.0308  H
ENDBRANCH 1 23
BRANCH 6 31
ATOM     31 C14  722 L   1       3.179   0.429  -0.059  1.00  0.00    +0.0510  C
ATOM     32 C15  722 L   1       3.502  -0.073   1.141  1.00  0.00    +0.0928  C
ATOM     33 O16  722 L   1       4.740  -0.548   1.492  1.00  0.00    -0.4990 OA
ATOM     34 C17  722 L   1       5.793  -0.197   0.581  1.00  0.00    +0.0891  C
ATOM     35 C18  722 L   1       5.381  -0.349  -0.879  1.00  0.00    -0.0144  C
ATOM     36 C19  722 L   1       4.170   0.533  -1.171  1.00  0.00    -0.0166  C
ATOM     37 H35  722 L   1       2.810  -0.171   1.969  1.00  0.00    +0.1028  H
ATOM     38 H36  722 L   1       6.643  -0.853   0.798  1.00  0.00    +0.0696  H
ATOM     39 H37  722 L   1       6.110   0.831   0.795  1.00  0.00    +0.0696  H
ATOM     40 H38  722 L   1       6.211  -0.088  -1.544  1.00  0.00    +0.0301  H
ATOM     41 H39  722 L   1       5.116  -1.396  -1.072  1.00  0.00    +0.0301  H
ATOM     42 H40  722 L   1       3.720   0.226  -2.122  1.00  0.00    +0.0317  H
ATOM     43 H41  722 L   1       4.486   1.578  -1.278  1.00  0.00    +0.0317  H
ENDBRANCH 6 31
TORSDOF 2
