ROOT
ATOM      1 C12  CHE L   1       1.528   0.174   1.610  1.00  0.00    +0.0614  C
ATOM      2 C13  CHE L   1       1.422   0.280   0.086  1.00  0.00    -0.0137  C
ATOM      3 C14  CHE L   1       2.671  -0.280  -0.590  1.00  0.00    +0.0013  C
ATOM      4 N15  CHE L   1       3.885   0.475  -0.238  1.00  0.00    -0.3010 NA
ATOM      5 C20  CHE L   1       3.824   1.081   1.102  1.00  0.00    +0.0013  C
ATOM      6 C21  CHE L   1       2.980   0.280   2.090  1.00  0.00    -0.0137  C
ATOM      7 H39  CHE L   1       1.135  -0.795   1.945  1.00  0.00    +0.0597  H
ATOM      8 H40  CHE L   1       1.263   1.321  -0.222  1.00  0.00    +0.0302  H
ATOM      9 H41  CHE L   1       0.538  -0.271  -0.259  1.00  0.00    +0.0302  H
ATOM     10 H42  CHE L   1       2.529  -0.242  -1.676  1.00  0.00    +0.0427  H
ATOM     11 H43  CHE L   1       2.770  -1.337  -0.310  1.00  0.00    +0.0427  H
ATOM     12 H52  CHE L   1       4.826   1.246   1.516  1.00  0.00    +0.0427  H
ATOM     13 H53  CHE L   1       3.390   2.083   0.997  1.00  0.00    +0.0427  H
ATOM     14 H54  CHE L   1       3.026   0.749   3.079  1.00  0.00    +0.0302  H
ATOM     15 H55  CHE L   1       3.409  -0.725   2.190  1.00  0.00    +0.0302  H
ENDROOT
BRANCH 1 16
ATOM     16 O11  CHE L   1       0.786   1.251   2.199  1.00  0.00    -0.3719 OA
BRANCH 16 17
ATOM     17 C10  CHE L   1      -0.410   0.840   2.863  1.00  0.00    +0.0730  C
ATOM     18 H37  CHE L   1      -0.730   1.670   3.503  1.00  0.00    +0.0610  H
ATOM     19 H38  CHE L   1      -0.195  -0.003   3.531  1.00  0.00    +0.0610  H
BRANCH 17 23
ATOM     20  C6  CHE L   1      -3.697  -0.012   0.138  1.00  0.00    -0.0417  A
ATOM     21  C7  CHE L   1      -3.352  -0.902   1.168  1.00  0.00    -0.0577  A
ATOM     22  C8  CHE L   1      -2.290  -0.632   2.040  1.00  0.00    -0.0561  A
ATOM     23  C9  CHE L   1      -1.532   0.534   1.904  1.00  0.00    -0.0219  A
ATOM     24 C22  CHE L   1      -1.866   1.432   0.886  1.00  0.00    -0.0561  A
ATOM     25 C23  CHE L   1      -2.924   1.158   0.014  1.00  0.00    -0.0577  A
ATOM     26 H35  CHE L   1      -3.901  -1.827   1.325  1.00  0.00    +0.0621  H
ATOM     27 H36  CHE L   1      -2.065  -1.346   2.831  1.00  0.00    +0.0621  H
ATOM     28 H56  CHE L   1      -1.294   2.351   0.762  1.00  0.00    +0.0621  H
ATOM     29 H57  CHE L   1      -3.136   1.883  -0.770  1.00  0.00    +0.0621  H
BRANCH 20 30
ATOM     30  C3  CHE L   1      -4.861  -0.278  -0.836  1.00  0.00    -0.0101  C
ATOM     31  C4  CHE L   1      -5.644  -1.578  -0.531  1.00  0.00    -0.0558  C
ATOM     32  C5  CHE L   1      -4.273  -0.443  -2.259  1.00  0.00    -0.0558  C
ATOM     33 H29  CHE L   1      -6.058  -1.586   0.483  1.00  0.00    +0.0238  H
ATOM     34 H30  CHE L   1      -6.483  -1.705  -1.226  1.00  0.00    +0.0238  H
ATOM     35 H31  CHE L   1      -5.007  -2.465  -0.634  1.00  0.00    +0.0238  H
ATOM     36 H32  CHE L   1      -5.058  -0.687  -2.985  1.00  0.00    +0.0238  H
ATOM     37 H33  CHE L   1      -3.529  -1.249  -2.291  1.00  0.00    +0.0238  H
ATOM     38 H34  CHE L   1      -3.782   0.472  -2.612  1.00  0.00    +0.0238  H
BRANCH 30 40
ATOM     39  C1  CHE L   1      -6.542   1.228   0.469  1.00  0.00    -0.0645  C
ATOM     40  C2  CHE L   1      -5.867   0.914  -0.864  1.00  0.00    -0.0467  C
ATOM     41 H24  CHE L   1      -7.217   2.083   0.349  1.00  0.00    +0.0230  H
ATOM     42 H25  CHE L   1      -7.142   0.386   0.828  1.00  0.00    +0.0230  H
ATOM     43 H26  CHE L   1      -5.813   1.489   1.241  1.00  0.00    +0.0230  H
ATOM     44 H27  CHE L   1      -6.654   0.705  -1.601  1.00  0.00    +0.0271  H
ATOM     45 H28  CHE L   1      -5.371   1.827  -1.217  1.00  0.00    +0.0271  H
ENDBRANCH 30 40
ENDBRANCH 20 30
ENDBRANCH 17 23
ENDBRANCH 16 17
ENDBRANCH 1 16
BRANCH 4 46
ATOM     46 C16  CHE L   1       5.116  -0.314  -0.432  1.00  0.00    +0.0114  C
ATOM     47 H44  CHE L   1       5.112  -1.191   0.229  1.00  0.00    +0.0439  H
ATOM     48 H45  CHE L   1       5.971   0.306  -0.137  1.00  0.00    +0.0439  H
BRANCH 46 49
ATOM     49 C17  CHE L   1       5.349  -0.765  -1.896  1.00  0.00    +0.0084  C
ATOM     50 H46  CHE L   1       4.515  -1.400  -2.216  1.00  0.00    +0.0436  H
ATOM     51 H47  CHE L   1       5.347   0.104  -2.565  1.00  0.00    +0.0436  H
BRANCH 49 52
ATOM     52 N18  CHE L   1       6.568  -1.560  -2.101  1.00  0.00    -0.3178 NA
ATOM     53 C19  CHE L   1       7.780  -0.756  -2.027  1.00  0.00    -0.0157  C
ATOM     54 H48  CHE L   1       6.611  -2.309  -1.411  1.00  0.00    +0.1217 HD
ATOM     55 H49  CHE L   1       7.750   0.078  -2.736  1.00  0.00    +0.0388  H
ATOM     56 H50  CHE L   1       8.641  -1.377  -2.293  1.00  0.00    +0.0388  H
ATOM     57 H51  CHE L   1       7.952  -0.367  -1.020  1.00  0.00    +0.0388  H
ENDBRANCH 49 52
ENDBRANCH 46 49
ENDBRANCH 4 46
TORSDOF 8
