ROOT
ATOM      1  C1  CHE L   1       1.191  -3.980   2.851  1.00  0.00    +0.0324  C
ATOM      2  N2  CHE L   1       1.700  -3.030   1.894  1.00  0.00    -0.2493  N
ATOM      3  N3  CHE L   1       2.892  -3.256   1.296  1.00  0.00    -0.1773 NA
ATOM      4  C4  CHE L   1       3.034  -2.197   0.489  1.00  0.00    +0.0622  A
ATOM      5  C5  CHE L   1       1.961  -1.288   0.585  1.00  0.00    +0.0809  A
ATOM      6  C6  CHE L   1       1.563  -0.071   0.030  1.00  0.00    +0.1474  A
ATOM      7 N18  CHE L   1       0.357   0.430   0.401  1.00  0.00    -0.1945 NA
ATOM      8 C19  CHE L   1      -0.393  -0.214   1.314  1.00  0.00    +0.2278  A
ATOM      9 N30  CHE L   1      -0.080  -1.376   1.903  1.00  0.00    -0.1929 NA
ATOM     10 C31  CHE L   1       1.102  -1.865   1.498  1.00  0.00    +0.1653  A
ATOM     11 H32  CHE L   1       0.113  -3.844   2.968  1.00  0.00    +0.0473  H
ATOM     12 H33  CHE L   1       1.699  -3.811   3.803  1.00  0.00    +0.0473  H
ATOM     13 H34  CHE L   1       1.392  -4.991   2.485  1.00  0.00    +0.0473  H
ATOM     14 H35  CHE L   1       3.916  -2.129  -0.135  1.00  0.00    +0.0856  H
ENDROOT
BRANCH 6 15
ATOM     15  N7  CHE L   1       2.283   0.654  -0.932  1.00  0.00    -0.3393  N
ATOM     16 H36  CHE L   1       1.730   1.481  -1.152  1.00  0.00    +0.1673 HD
BRANCH 15 17
ATOM     17  C8  CHE L   1       3.659   0.956  -0.943  1.00  0.00    +0.0407  A
ATOM     18  C9  CHE L   1       4.453   0.957   0.208  1.00  0.00    -0.0378  A
ATOM     19 C10  CHE L   1       5.808   1.300   0.143  1.00  0.00    -0.0482  A
ATOM     20 C11  CHE L   1       6.395   1.669  -1.076  1.00  0.00    +0.0549  A
ATOM     21 C16  CHE L   1       5.597   1.686  -2.227  1.00  0.00    -0.0482  A
ATOM     22 C17  CHE L   1       4.244   1.342  -2.156  1.00  0.00    -0.0378  A
ATOM     23 H37  CHE L   1       4.029   0.709   1.178  1.00  0.00    +0.0638  H
ATOM     24 H38  CHE L   1       6.404   1.286   1.054  1.00  0.00    +0.0624  H
ATOM     25 H39  CHE L   1       6.024   1.967  -3.188  1.00  0.00    +0.0624  H
ATOM     26 H40  CHE L   1       3.645   1.362  -3.064  1.00  0.00    +0.0638  H
BRANCH 20 27
ATOM     27 C12  CHE L   1       7.861   2.025  -1.134  1.00  0.00    +0.4174  C
ATOM     28 F13  CHE L   1       8.665   0.939  -0.969  1.00  0.00    -0.1659  F
ATOM     29 F14  CHE L   1       8.225   2.911  -0.165  1.00  0.00    -0.1659  F
ATOM     30 F15  CHE L   1       8.236   2.592  -2.315  1.00  0.00    -0.1659  F
ENDBRANCH 20 27
ENDBRANCH 15 17
ENDBRANCH 6 15
BRANCH 8 31
ATOM     31 N20  CHE L   1      -1.582   0.413   1.618  1.00  0.00    -0.3525  N
ATOM     32 H41  CHE L   1      -1.763   1.141   0.940  1.00  0.00    +0.1626 HD
BRANCH 31 33
ATOM     33 C21  CHE L   1      -2.712  -0.371   2.079  1.00  0.00    +0.0337  C
ATOM     34 H42  CHE L   1      -3.406   0.308   2.587  1.00  0.00    +0.0501  H
ATOM     35 H43  CHE L   1      -2.398  -1.076   2.860  1.00  0.00    +0.0501  H
BRANCH 33 36
ATOM     36 C22  CHE L   1      -3.480  -1.149   0.966  1.00  0.00    +0.0253  C
ATOM     37 N23  CHE L   1      -2.663  -2.177   0.295  1.00  0.00    -0.3256 NA
ATOM     38 H44  CHE L   1      -4.252  -1.710   1.510  1.00  0.00    +0.0478  H
ATOM     39 H45  CHE L   1      -1.981  -1.718  -0.311  1.00  0.00    +0.1185 HD
ATOM     40 H46  CHE L   1      -2.082  -2.638   1.000  1.00  0.00    +0.1185 HD
BRANCH 36 41
ATOM     41 C24  CHE L   1      -4.254  -0.293  -0.082  1.00  0.00    -0.0242  C
ATOM     42 C25  CHE L   1      -3.401   0.265  -1.244  1.00  0.00    -0.0487  C
ATOM     43 C26  CHE L   1      -3.990   1.520  -1.895  1.00  0.00    -0.0528  C
ATOM     44 C27  CHE L   1      -5.510   1.511  -1.868  1.00  0.00    -0.0530  C
ATOM     45 C28  CHE L   1      -6.053   1.468  -0.440  1.00  0.00    -0.0528  C
ATOM     46 C29  CHE L   1      -5.093   0.821   0.562  1.00  0.00    -0.0487  C
ATOM     47 H47  CHE L   1      -4.974  -0.985  -0.548  1.00  0.00    +0.0316  H
ATOM     48 H48  CHE L   1      -3.313  -0.517  -2.010  1.00  0.00    +0.0268  H
ATOM     49 H49  CHE L   1      -2.378   0.492  -0.937  1.00  0.00    +0.0268  H
ATOM     50 H50  CHE L   1      -3.630   1.599  -2.928  1.00  0.00    +0.0265  H
ATOM     51 H51  CHE L   1      -3.623   2.409  -1.368  1.00  0.00    +0.0265  H
ATOM     52 H52  CHE L   1      -5.874   0.637  -2.423  1.00  0.00    +0.0265  H
ATOM     53 H53  CHE L   1      -5.905   2.393  -2.385  1.00  0.00    +0.0265  H
ATOM     54 H54  CHE L   1      -7.007   0.926  -0.443  1.00  0.00    +0.0265  H
ATOM     55 H55  CHE L   1      -6.282   2.485  -0.099  1.00  0.00    +0.0265  H
ATOM     56 H56  CHE L   1      -4.430   1.600   0.960  1.00  0.00    +0.0268  H
ATOM     57 H57  CHE L   1      -5.670   0.433   1.409  1.00  0.00    +0.0268  H
ENDBRANCH 36 41
ENDBRANCH 33 36
ENDBRANCH 31 33
ENDBRANCH 8 31
TORSDOF 7
