ROOT
ATOM      1 C14  CHE L   1       4.961  -0.572  -0.347  1.00  0.00    +0.0389  A
ATOM      2 C15  CHE L   1       4.997   0.679   0.175  1.00  0.00    -0.0388  A
ATOM      3 C16  CHE L   1       3.923   1.324   1.007  1.00  0.00    -0.0392  C
ATOM      4 C17  CHE L   1       6.162   1.531  -0.038  1.00  0.00    -0.0393  A
ATOM      5 C18  CHE L   1       7.238   1.093  -0.704  1.00  0.00    +0.0162  A
ATOM      6 C19  CHE L   1       8.457   1.924  -0.960  1.00  0.00    -0.0244  C
ATOM      7 N20  CHE L   1       7.239  -0.188  -1.187  1.00  0.00    -0.3262  N
ATOM      8 C21  CHE L   1       6.198  -1.070  -1.055  1.00  0.00    +0.2540  A
ATOM      9 O22  CHE L   1       6.294  -2.220  -1.476  1.00  0.00    -0.2675 OA
ATOM     10 H44  CHE L   1       3.278   1.944   0.377  1.00  0.00    +0.0278  H
ATOM     11 H45  CHE L   1       3.315   0.595   1.548  1.00  0.00    +0.0278  H
ATOM     12 H46  CHE L   1       4.356   1.968   1.782  1.00  0.00    +0.0278  H
ATOM     13 H47  CHE L   1       6.133   2.546   0.348  1.00  0.00    +0.0637  H
ATOM     14 H48  CHE L   1       9.333   1.471  -0.485  1.00  0.00    +0.0292  H
ATOM     15 H49  CHE L   1       8.647   2.004  -2.035  1.00  0.00    +0.0292  H
ATOM     16 H50  CHE L   1       8.347   2.938  -0.563  1.00  0.00    +0.0292  H
ATOM     17 H51  CHE L   1       8.044  -0.546  -1.688  1.00  0.00    +0.1686 HD
ENDROOT
BRANCH 1 18
ATOM     18 C13  CHE L   1       3.869  -1.612  -0.349  1.00  0.00    +0.0491  C
ATOM     19 H42  CHE L   1       4.061  -2.352   0.433  1.00  0.00    +0.0538  H
ATOM     20 H43  CHE L   1       3.844  -2.139  -1.309  1.00  0.00    +0.0538  H
BRANCH 18 23
ATOM     21 C10  CHE L   1       1.713  -0.736  -1.168  1.00  0.00    +0.2527  C
ATOM     22 O11  CHE L   1       2.015  -0.744  -2.353  1.00  0.00    -0.2676 OA
ATOM     23 N12  CHE L   1       2.542  -1.080  -0.124  1.00  0.00    -0.3478  N
ATOM     24 H41  CHE L   1       2.162  -1.118   0.812  1.00  0.00    +0.1630 HD
BRANCH 21 27
ATOM     25  C7  CHE L   1      -1.110   1.332   0.158  1.00  0.00    +0.0452  A
ATOM     26  C8  CHE L   1       0.157   0.925  -0.238  1.00  0.00    -0.0256  A
ATOM     27  C9  CHE L   1       0.344  -0.361  -0.755  1.00  0.00    +0.0457  A
ATOM     28 C23  CHE L   1      -0.723  -1.273  -0.892  1.00  0.00    -0.0149  A
ATOM     29 C24  CHE L   1      -0.449  -2.658  -1.424  1.00  0.00    -0.0370  C
ATOM     30 C25  CHE L   1      -2.011  -0.867  -0.487  1.00  0.00    +0.0437  A
ATOM     31 C35  CHE L   1      -2.179   0.434   0.030  1.00  0.00    -0.0147  A
ATOM     32 H40  CHE L   1       1.013   1.590  -0.185  1.00  0.00    +0.0646  H
ATOM     33 H52  CHE L   1      -1.348  -3.281  -1.485  1.00  0.00    +0.0278  H
ATOM     34 H53  CHE L   1      -0.028  -2.601  -2.434  1.00  0.00    +0.0278  H
ATOM     35 H54  CHE L   1       0.255  -3.179  -0.764  1.00  0.00    +0.0278  H
ATOM     36 H69  CHE L   1      -3.176   0.756   0.318  1.00  0.00    +0.0659  H
BRANCH 25 39
ATOM     37  C4  CHE L   1      -0.516   3.642   0.909  1.00  0.00    +0.3008  C
ATOM     38  O5  CHE L   1       0.702   3.624   0.817  1.00  0.00    -0.2577 OA
ATOM     39  N6  CHE L   1      -1.401   2.614   0.664  1.00  0.00    -0.3154  N
ATOM     40 H39  CHE L   1      -2.373   2.822   0.852  1.00  0.00    +0.1695 HD
BRANCH 37 43
ATOM     41  C1  CHE L   1      -2.365   7.122   2.089  1.00  0.00    -0.0021  C
ATOM     42  C2  CHE L   1      -1.706   5.881   1.684  1.00  0.00    -0.0957  C
ATOM     43  C3  CHE L   1      -1.159   4.867   1.341  1.00  0.00    -0.0056  C
ATOM     44 H36  CHE L   1      -1.915   7.523   3.003  1.00  0.00    +0.0362  H
ATOM     45 H37  CHE L   1      -3.429   6.952   2.281  1.00  0.00    +0.0362  H
ATOM     46 H38  CHE L   1      -2.278   7.881   1.306  1.00  0.00    +0.0362  H
ENDBRANCH 37 43
ENDBRANCH 25 39
BRANCH 30 47
ATOM     47 N26  CHE L   1      -3.106  -1.748  -0.616  1.00  0.00    -0.3675  N
BRANCH 47 48
ATOM     48 C27  CHE L   1      -3.699  -1.690  -1.971  1.00  0.00    +0.0161  C
ATOM     49 C28  CHE L   1      -4.649  -0.517  -2.172  1.00  0.00    -0.0475  C
ATOM     50 H55  CHE L   1      -2.912  -1.643  -2.736  1.00  0.00    +0.0485  H
ATOM     51 H56  CHE L   1      -4.229  -2.627  -2.173  1.00  0.00    +0.0485  H
ATOM     52 H57  CHE L   1      -5.446  -0.502  -1.423  1.00  0.00    +0.0247  H
ATOM     53 H58  CHE L   1      -4.121   0.439  -2.125  1.00  0.00    +0.0247  H
ATOM     54 H59  CHE L   1      -5.119  -0.584  -3.158  1.00  0.00    +0.0247  H
ENDBRANCH 47 48
BRANCH 47 55
ATOM     55 C29  CHE L   1      -3.998  -1.928   0.562  1.00  0.00    +0.0341  C
ATOM     56 C30  CHE L   1      -5.040  -3.034   0.319  1.00  0.00    -0.0089  C
ATOM     57 C31  CHE L   1      -5.855  -3.299   1.576  1.00  0.00    +0.0495  C
ATOM     58 O32  CHE L   1      -5.012  -3.654   2.665  1.00  0.00    -0.3796 OA
ATOM     59 C33  CHE L   1      -4.089  -2.619   2.989  1.00  0.00    +0.0495  C
ATOM     60 C34  CHE L   1      -3.178  -2.311   1.811  1.00  0.00    -0.0089  C
ATOM     61 H60  CHE L   1      -4.539  -0.994   0.765  1.00  0.00    +0.0525  H
ATOM     62 H61  CHE L   1      -5.726  -2.763  -0.490  1.00  0.00    +0.0307  H
ATOM     63 H62  CHE L   1      -4.526  -3.956   0.021  1.00  0.00    +0.0307  H
ATOM     64 H63  CHE L   1      -6.460  -2.427   1.850  1.00  0.00    +0.0560  H
ATOM     65 H64  CHE L   1      -6.542  -4.134   1.402  1.00  0.00    +0.0560  H
ATOM     66 H65  CHE L   1      -3.491  -2.961   3.840  1.00  0.00    +0.0560  H
ATOM     67 H66  CHE L   1      -4.639  -1.727   3.310  1.00  0.00    +0.0560  H
ATOM     68 H67  CHE L   1      -2.489  -1.511   2.101  1.00  0.00    +0.0307  H
ATOM     69 H68  CHE L   1      -2.568  -3.197   1.584  1.00  0.00    +0.0307  H
ENDBRANCH 47 55
ENDBRANCH 30 47
ENDBRANCH 21 27
ENDBRANCH 18 23
ENDBRANCH 1 18
TORSDOF 8
