ROOT
ATOM      1  O1  SEL L   1      -7.615   3.675   0.301  1.00  0.00    -0.2725 OA
ATOM      2  C2  SEL L   1      -6.609   2.989   0.359  1.00  0.00    +0.2296  C
ATOM      3  C3  SEL L   1      -5.174   3.437   0.054  1.00  0.00    +0.0535  C
ATOM      4  C4  SEL L   1      -4.395   2.179   0.292  1.00  0.00    -0.0145  A
ATOM      5  C5  SEL L   1      -3.036   1.945   0.182  1.00  0.00    -0.0483  A
ATOM      6  C6  SEL L   1      -2.556   0.657   0.472  1.00  0.00    -0.0118  A
ATOM      7 C30  SEL L   1      -3.457  -0.359   0.871  1.00  0.00    -0.0519  A
ATOM      8 C31  SEL L   1      -4.830  -0.110   0.976  1.00  0.00    -0.0374  A
ATOM      9 C32  SEL L   1      -5.264   1.163   0.681  1.00  0.00    +0.0454  A
ATOM     10 N33  SEL L   1      -6.561   1.646   0.716  1.00  0.00    -0.3256  N
ATOM     11 H34  SEL L   1      -4.880   4.226   0.750  1.00  0.00    +0.0410  H
ATOM     12 H35  SEL L   1      -5.103   3.759  -0.988  1.00  0.00    +0.0410  H
ATOM     13 H36  SEL L   1      -2.360   2.742  -0.115  1.00  0.00    +0.0627  H
ATOM     14 H52  SEL L   1      -3.088  -1.354   1.110  1.00  0.00    +0.0624  H
ATOM     15 H53  SEL L   1      -5.515  -0.892   1.284  1.00  0.00    +0.0638  H
ATOM     16 H54  SEL L   1      -7.383   1.119   0.968  1.00  0.00    +0.1686 HD
ENDROOT
BRANCH 6 17
ATOM     17  C7  SEL L   1      -1.137   0.360   0.356  1.00  0.00    +0.0541  A
ATOM     18  C8  SEL L   1      -0.445  -0.713  -0.296  1.00  0.00    +0.1031  A
ATOM     19 N16  SEL L   1       0.878  -0.641  -0.076  1.00  0.00    -0.1613 NA
ATOM     20 N17  SEL L   1       1.034   0.484   0.655  1.00  0.00    -0.1803  N
ATOM     21 C18  SEL L   1       2.271   0.982   1.138  1.00  0.00    +0.2310  A
ATOM     22 N26  SEL L   1       2.226   2.047   1.898  1.00  0.00    -0.2008 NA
ATOM     23 C27  SEL L   1       1.010   2.634   2.163  1.00  0.00    +0.1221  A
ATOM     24 N28  SEL L   1      -0.148   2.231   1.734  1.00  0.00    -0.2157 NA
ATOM     25 C29  SEL L   1      -0.147   1.112   0.960  1.00  0.00    +0.1691  A
ATOM     26 H51  SEL L   1       1.039   3.535   2.799  1.00  0.00    +0.1049  H
BRANCH 18 27
ATOM     27  C9  SEL L   1      -0.991  -1.797  -1.116  1.00  0.00    +0.0030  A
ATOM     28 C10  SEL L   1      -2.001  -1.552  -2.059  1.00  0.00    -0.0498  A
ATOM     29 C11  SEL L   1      -2.514  -2.596  -2.833  1.00  0.00    -0.0258  A
ATOM     30 C12  SEL L   1      -2.012  -3.882  -2.669  1.00  0.00    +0.1234  A
ATOM     31 F13  SEL L   1      -2.504  -4.881  -3.412  1.00  0.00    -0.2055  F
ATOM     32 C14  SEL L   1      -1.004  -4.144  -1.750  1.00  0.00    -0.0258  A
ATOM     33 C15  SEL L   1      -0.491  -3.102  -0.976  1.00  0.00    -0.0498  A
ATOM     34 H37  SEL L   1      -2.392  -0.547  -2.209  1.00  0.00    +0.0625  H
ATOM     35 H38  SEL L   1      -3.296  -2.413  -3.563  1.00  0.00    +0.0646  H
ATOM     36 H39  SEL L   1      -0.622  -5.154  -1.643  1.00  0.00    +0.0646  H
ATOM     37 H40  SEL L   1       0.302  -3.309  -0.259  1.00  0.00    +0.0625  H
ENDBRANCH 18 27
BRANCH 21 38
ATOM     38 N19  SEL L   1       3.495   0.366   0.841  1.00  0.00    -0.3400  N
ATOM     39 C20  SEL L   1       3.694  -0.458  -0.359  1.00  0.00    +0.0237  C
ATOM     40 C21  SEL L   1       5.151  -0.468  -0.802  1.00  0.00    -0.0090  C
ATOM     41 C22  SEL L   1       6.062  -0.957   0.317  1.00  0.00    +0.0585  C
ATOM     42 O23  SEL L   1       7.400  -0.574  -0.000  1.00  0.00    -0.3917 OA
ATOM     43 C24  SEL L   1       5.669  -0.404   1.686  1.00  0.00    -0.0090  C
ATOM     44 C25  SEL L   1       4.704   0.772   1.567  1.00  0.00    +0.0237  C
ATOM     45 H41  SEL L   1       3.371  -1.485  -0.152  1.00  0.00    +0.0489  H
ATOM     46 H42  SEL L   1       3.104  -0.065  -1.194  1.00  0.00    +0.0489  H
ATOM     47 H43  SEL L   1       5.454   0.538  -1.123  1.00  0.00    +0.0307  H
ATOM     48 H44  SEL L   1       5.276  -1.106  -1.685  1.00  0.00    +0.0307  H
ATOM     49 H45  SEL L   1       6.045  -2.053   0.352  1.00  0.00    +0.0594  H
ATOM     50 H46  SEL L   1       7.990  -0.997   0.647  1.00  0.00    +0.2098 HD
ATOM     51 H47  SEL L   1       5.169  -1.200   2.254  1.00  0.00    +0.0307  H
ATOM     52 H48  SEL L   1       6.551  -0.103   2.262  1.00  0.00    +0.0307  H
ATOM     53 H49  SEL L   1       4.454   1.098   2.584  1.00  0.00    +0.0489  H
ATOM     54 H50  SEL L   1       5.178   1.621   1.061  1.00  0.00    +0.0489  H
ENDBRANCH 21 38
ENDBRANCH 6 17
TORSDOF 3
