ROOT
ATOM      1  C9  314 L   1      -0.839   0.687  -1.482  1.00  0.00    +0.2474  C
ATOM      2 O10  314 L   1      -0.894   1.463  -2.433  1.00  0.00    -0.2680 OA
ATOM      3 N11  314 L   1      -1.968   0.129  -0.895  1.00  0.00    -0.3387  N
ATOM      4 C12  314 L   1      -3.261   0.382  -1.532  1.00  0.00    +0.0221  C
ATOM      5 C13  314 L   1      -4.229  -0.769  -1.284  1.00  0.00    -0.0239  C
ATOM      6 C14  314 L   1      -4.503  -0.960   0.215  1.00  0.00    +0.0407  C
ATOM      7 C18  314 L   1      -3.306  -0.545   1.086  1.00  0.00    -0.0239  C
ATOM      8 C19  314 L   1      -1.976  -0.644   0.347  1.00  0.00    +0.0221  C
ATOM      9 H29  314 L   1      -3.652   1.322  -1.127  1.00  0.00    +0.0489  H
ATOM     10 H30  314 L   1      -3.123   0.520  -2.611  1.00  0.00    +0.0489  H
ATOM     11 H31  314 L   1      -5.155  -0.609  -1.848  1.00  0.00    +0.0290  H
ATOM     12 H32  314 L   1      -3.784  -1.692  -1.679  1.00  0.00    +0.0290  H
ATOM     13 H33  314 L   1      -4.722  -2.024   0.377  1.00  0.00    +0.0397  H
ATOM     14 H36  314 L   1      -3.433   0.489   1.434  1.00  0.00    +0.0290  H
ATOM     15 H37  314 L   1      -3.273  -1.168   1.988  1.00  0.00    +0.0290  H
ATOM     16 H38  314 L   1      -1.177  -0.295   1.009  1.00  0.00    +0.0489  H
ATOM     17 H39  314 L   1      -1.764  -1.687   0.083  1.00  0.00    +0.0489  H
ENDROOT
BRANCH 1 19
ATOM     18  C7  314 L   1       1.568   1.021  -1.186  1.00  0.00    -0.0495  C
ATOM     19  C8  314 L   1       0.479   0.282  -0.920  1.00  0.00    +0.0032  C
ATOM     20 H27  314 L   1       1.487   1.914  -1.804  1.00  0.00    +0.0625  H
ATOM     21 H28  314 L   1       0.542  -0.636  -0.355  1.00  0.00    +0.0672  H
BRANCH 18 25
ATOM     22  C3  314 L   1       5.545   0.120   0.137  1.00  0.00    +0.1201  A
ATOM     23  C4  314 L   1       4.468  -0.085   0.998  1.00  0.00    -0.0194  A
ATOM     24  C5  314 L   1       3.162   0.200   0.574  1.00  0.00    -0.0511  A
ATOM     25  C6  314 L   1       2.917   0.684  -0.716  1.00  0.00    -0.0246  A
ATOM     26 C20  314 L   1       4.004   0.903  -1.569  1.00  0.00    -0.0511  A
ATOM     27 C21  314 L   1       5.305   0.617  -1.145  1.00  0.00    -0.0194  A
ATOM     28 H25  314 L   1       4.605  -0.458   2.007  1.00  0.00    +0.0654  H
ATOM     29 H26  314 L   1       2.344   0.052   1.274  1.00  0.00    +0.0625  H
ATOM     30 H40  314 L   1       3.850   1.291  -2.573  1.00  0.00    +0.0625  H
ATOM     31 H41  314 L   1       6.139   0.785  -1.823  1.00  0.00    +0.0654  H
BRANCH 22 33
ATOM     32  C1  314 L   1       7.159  -0.613   1.721  1.00  0.00    +0.0788  C
ATOM     33  O2  314 L   1       6.861  -0.116   0.422  1.00  0.00    -0.4951 OA
ATOM     34 H22  314 L   1       8.243  -0.747   1.787  1.00  0.00    +0.0660  H
ATOM     35 H23  314 L   1       6.693  -1.590   1.886  1.00  0.00    +0.0660  H
ATOM     36 H24  314 L   1       6.863   0.102   2.495  1.00  0.00    +0.0660  H
ENDBRANCH 22 33
ENDBRANCH 18 25
ENDBRANCH 1 19
BRANCH 6 37
ATOM     37 C15  314 L   1      -5.740  -0.186   0.654  1.00  0.00    +0.2216  C
ATOM     38 N16  314 L   1      -6.179  -0.472   1.915  1.00  0.00    -0.3696  N
ATOM     39 O17  314 L   1      -6.316   0.652  -0.029  1.00  0.00    -0.2732 OA
ATOM     40 H34  314 L   1      -7.044  -0.029   2.199  1.00  0.00    +0.1586 HD
ATOM     41 H35  314 L   1      -5.896  -1.308   2.406  1.00  0.00    +0.1586 HD
ENDBRANCH 6 37
TORSDOF 4
