ROOT
ATOM      1  C3  CHE L   1       0.927  -2.525   0.377  1.00  0.00    +0.1623  A
ATOM      2  C4  CHE L   1      -0.281  -1.824   0.382  1.00  0.00    -0.0036  A
ATOM      3  C5  CHE L   1      -0.308  -0.445   0.108  1.00  0.00    +0.0456  A
ATOM      4  C6  CHE L   1       0.881   0.254  -0.148  1.00  0.00    +0.0781  A
ATOM      5  C7  CHE L   1       2.085  -0.463  -0.164  1.00  0.00    +0.0098  A
ATOM      6  C8  CHE L   1       2.122  -1.835   0.108  1.00  0.00    +0.1639  A
ATOM      7 N18  CHE L   1       0.970   1.628  -0.436  1.00  0.00    -0.2535 NA
ATOM      8 C19  CHE L   1       0.240   2.476   0.229  1.00  0.00    +0.0439  C
ATOM      9 C26  CHE L   1      -0.721   2.062   1.333  1.00  0.00    +0.0803  C
ATOM     10 N27  CHE L   1      -1.851   1.380   0.709  1.00  0.00    -0.2609 NA
ATOM     11 C28  CHE L   1      -1.643   0.240   0.129  1.00  0.00    +0.1321  C
ATOM     12 H42  CHE L   1      -1.212  -2.323   0.627  1.00  0.00    +0.0663  H
ATOM     13 H43  CHE L   1       2.989   0.090  -0.403  1.00  0.00    +0.0677  H
ATOM     14 H69  CHE L   1      -1.091   2.943   1.863  1.00  0.00    +0.0571  H
ATOM     15 H70  CHE L   1      -0.216   1.439   2.080  1.00  0.00    +0.0571  H
ENDROOT
BRANCH 1 17
ATOM     16  C1  CHE L   1      -0.145  -4.614   0.834  1.00  0.00    +0.0790  C
ATOM     17  O2  CHE L   1       1.048  -3.866   0.641  1.00  0.00    -0.4914 OA
ATOM     18 H39  CHE L   1       0.137  -5.661   0.980  1.00  0.00    +0.0660  H
ATOM     19 H40  CHE L   1      -0.792  -4.563  -0.048  1.00  0.00    +0.0660  H
ATOM     20 H41  CHE L   1      -0.675  -4.286   1.734  1.00  0.00    +0.0660  H
ENDBRANCH 1 17
BRANCH 6 21
ATOM     21  O9  CHE L   1       3.271  -2.588   0.112  1.00  0.00    -0.4882 OA
BRANCH 21 22
ATOM     22 C10  CHE L   1       4.513  -1.884   0.193  1.00  0.00    +0.0909  C
ATOM     23 H44  CHE L   1       4.487  -1.169   1.024  1.00  0.00    +0.0697  H
ATOM     24 H45  CHE L   1       4.694  -1.366  -0.754  1.00  0.00    +0.0697  H
BRANCH 22 25
ATOM     25 C11  CHE L   1       5.614  -2.907   0.435  1.00  0.00    -0.0058  C
ATOM     26 H46  CHE L   1       5.288  -3.603   1.220  1.00  0.00    +0.0310  H
ATOM     27 H47  CHE L   1       5.733  -3.525  -0.464  1.00  0.00    +0.0310  H
BRANCH 25 28
ATOM     28 C12  CHE L   1       6.965  -2.315   0.847  1.00  0.00    +0.0020  C
ATOM     29 H48  CHE L   1       7.623  -3.175   1.028  1.00  0.00    +0.0428  H
ATOM     30 H49  CHE L   1       6.878  -1.799   1.812  1.00  0.00    +0.0428  H
BRANCH 28 31
ATOM     31 N13  CHE L   1       7.568  -1.455  -0.176  1.00  0.00    -0.3022 NA
ATOM     32 C14  CHE L   1       7.259  -0.030  -0.004  1.00  0.00    -0.0011  C
ATOM     33 C15  CHE L   1       8.287   0.659  -0.891  1.00  0.00    -0.0390  C
ATOM     34 C16  CHE L   1       9.456  -0.314  -0.973  1.00  0.00    -0.0390  C
ATOM     35 C17  CHE L   1       9.035  -1.504  -0.127  1.00  0.00    -0.0011  C
ATOM     36 H50  CHE L   1       7.397   0.293   1.036  1.00  0.00    +0.0426  H
ATOM     37 H51  CHE L   1       6.244   0.230  -0.314  1.00  0.00    +0.0426  H
ATOM     38 H52  CHE L   1       8.592   1.625  -0.474  1.00  0.00    +0.0278  H
ATOM     39 H53  CHE L   1       7.880   0.838  -1.893  1.00  0.00    +0.0278  H
ATOM     40 H54  CHE L   1       9.617  -0.614  -2.015  1.00  0.00    +0.0278  H
ATOM     41 H55  CHE L   1      10.384   0.133  -0.603  1.00  0.00    +0.0278  H
ATOM     42 H56  CHE L   1       9.428  -2.442  -0.531  1.00  0.00    +0.0426  H
ATOM     43 H57  CHE L   1       9.407  -1.382   0.899  1.00  0.00    +0.0426  H
ENDBRANCH 28 31
ENDBRANCH 25 28
ENDBRANCH 22 25
ENDBRANCH 21 22
ENDBRANCH 6 21
BRANCH 8 44
ATOM     44 C20  CHE L   1       0.356   3.952  -0.150  1.00  0.00    -0.0007  C
ATOM     45 C21  CHE L   1       0.927   4.793   1.004  1.00  0.00    -0.0450  C
ATOM     46 C22  CHE L   1      -0.080   5.785   1.579  1.00  0.00    -0.0525  C
ATOM     47 C23  CHE L   1      -0.675   6.700   0.510  1.00  0.00    -0.0530  C
ATOM     48 C24  CHE L   1      -0.924   6.006  -0.831  1.00  0.00    -0.0525  C
ATOM     49 C25  CHE L   1      -0.971   4.489  -0.703  1.00  0.00    -0.0450  C
ATOM     50 H58  CHE L   1       1.092   4.002  -0.967  1.00  0.00    +0.0361  H
ATOM     51 H59  CHE L   1       1.787   5.362   0.627  1.00  0.00    +0.0271  H
ATOM     52 H60  CHE L   1       1.316   4.156   1.808  1.00  0.00    +0.0271  H
ATOM     53 H61  CHE L   1       0.395   6.392   2.358  1.00  0.00    +0.0265  H
ATOM     54 H62  CHE L   1      -0.891   5.236   2.073  1.00  0.00    +0.0265  H
ATOM     55 H63  CHE L   1      -0.008   7.556   0.343  1.00  0.00    +0.0265  H
ATOM     56 H64  CHE L   1      -1.615   7.118   0.889  1.00  0.00    +0.0265  H
ATOM     57 H65  CHE L   1      -1.858   6.378  -1.271  1.00  0.00    +0.0265  H
ATOM     58 H66  CHE L   1      -0.124   6.281  -1.530  1.00  0.00    +0.0265  H
ATOM     59 H67  CHE L   1      -1.168   4.038  -1.683  1.00  0.00    +0.0271  H
ATOM     60 H68  CHE L   1      -1.816   4.207  -0.064  1.00  0.00    +0.0271  H
ENDBRANCH 8 44
BRANCH 11 61
ATOM     61 N29  CHE L   1      -2.691  -0.406  -0.497  1.00  0.00    -0.3666  N
ATOM     62 H71  CHE L   1      -2.517  -1.312  -0.916  1.00  0.00    +0.1613 HD
BRANCH 61 63
ATOM     63 C30  CHE L   1      -4.095  -0.079  -0.266  1.00  0.00    +0.0308  C
ATOM     64 C31  CHE L   1      -4.943  -0.553  -1.452  1.00  0.00    -0.0198  C
ATOM     65 C32  CHE L   1      -5.450  -1.981  -1.258  1.00  0.00    +0.0010  C
ATOM     66 N33  CHE L   1      -6.195  -2.185  -0.012  1.00  0.00    -0.2998 NA
ATOM     67 C37  CHE L   1      -6.009  -1.135   0.993  1.00  0.00    +0.0010  C
ATOM     68 C38  CHE L   1      -4.550  -0.698   1.060  1.00  0.00    -0.0198  C
ATOM     69 H72  CHE L   1      -4.205   1.012  -0.216  1.00  0.00    +0.0523  H
ATOM     70 H73  CHE L   1      -5.810   0.113  -1.561  1.00  0.00    +0.0297  H
ATOM     71 H74  CHE L   1      -4.380  -0.482  -2.390  1.00  0.00    +0.0297  H
ATOM     72 H75  CHE L   1      -6.024  -2.269  -2.145  1.00  0.00    +0.0427  H
ATOM     73 H76  CHE L   1      -4.588  -2.660  -1.238  1.00  0.00    +0.0427  H
ATOM     74 H84  CHE L   1      -6.638  -0.261   0.787  1.00  0.00    +0.0427  H
ATOM     75 H85  CHE L   1      -6.302  -1.518   1.978  1.00  0.00    +0.0427  H
ATOM     76 H86  CHE L   1      -3.927  -1.562   1.328  1.00  0.00    +0.0297  H
ATOM     77 H87  CHE L   1      -4.417   0.031   1.869  1.00  0.00    +0.0297  H
BRANCH 66 78
ATOM     78 C34  CHE L   1      -7.598  -2.608  -0.150  1.00  0.00    +0.0048  C
ATOM     79 C35  CHE L   1      -8.481  -1.643  -0.950  1.00  0.00    -0.0497  C
ATOM     80 C36  CHE L   1      -7.681  -4.022  -0.738  1.00  0.00    -0.0497  C
ATOM     81 H77  CHE L   1      -8.028  -2.683   0.859  1.00  0.00    +0.0457  H
ATOM     82 H78  CHE L   1      -8.459  -0.633  -0.530  1.00  0.00    +0.0245  H
ATOM     83 H79  CHE L   1      -8.180  -1.580  -2.001  1.00  0.00    +0.0245  H
ATOM     84 H80  CHE L   1      -9.524  -1.979  -0.929  1.00  0.00    +0.0245  H
ATOM     85 H81  CHE L   1      -7.059  -4.721  -0.167  1.00  0.00    +0.0245  H
ATOM     86 H82  CHE L   1      -8.712  -4.392  -0.695  1.00  0.00    +0.0245  H
ATOM     87 H83  CHE L   1      -7.362  -4.060  -1.785  1.00  0.00    +0.0245  H
ENDBRANCH 66 78
ENDBRANCH 61 63
ENDBRANCH 11 61
TORSDOF 10
