ROOT
ATOM      1 C29  WH0 L   1      -2.674   2.762  -0.057  1.00  0.00    -0.0133  A
ATOM      2 C30  WH0 L   1      -2.196   3.552  -1.130  1.00  0.00    -0.0519  A
ATOM      3 C31  WH0 L   1      -2.538   4.910  -1.225  1.00  0.00    -0.0374  A
ATOM      4 C32  WH0 L   1      -3.361   5.453  -0.241  1.00  0.00    +0.0454  A
ATOM      5 C33  WH0 L   1      -3.833   4.693   0.809  1.00  0.00    -0.0145  A
ATOM      6 C34  WH0 L   1      -3.503   3.343   0.925  1.00  0.00    -0.0483  A
ATOM      7 C35  WH0 L   1      -4.689   5.516   1.718  1.00  0.00    +0.0535  C
ATOM      8 C36  WH0 L   1      -4.620   6.834   1.004  1.00  0.00    +0.2296  C
ATOM      9 O37  WH0 L   1      -5.207   7.878   1.392  1.00  0.00    -0.2725 OA
ATOM     10 N38  WH0 L   1      -3.815   6.790  -0.170  1.00  0.00    -0.3256  N
ATOM     11 H63  WH0 L   1      -1.564   3.112  -1.893  1.00  0.00    +0.0624  H
ATOM     12 H64  WH0 L   1      -2.178   5.516  -2.047  1.00  0.00    +0.0638  H
ATOM     13 H65  WH0 L   1      -3.869   2.763   1.760  1.00  0.00    +0.0627  H
ATOM     14 H66  WH0 L   1      -4.240   5.590   2.732  1.00  0.00    +0.0410  H
ATOM     15 H67  WH0 L   1      -5.730   5.131   1.750  1.00  0.00    +0.0410  H
ATOM     16 H68  WH0 L   1      -3.646   7.560  -0.858  1.00  0.00    +0.1686 HD
ENDROOT
BRANCH 1 25
ATOM     17 C14  WH0 L   1      -1.031   0.760  -0.085  1.00  0.00    +0.1015  A
ATOM     18 N15  WH0 L   1      -1.136  -0.586  -0.012  1.00  0.00    -0.1627 NA
ATOM     19 N16  WH0 L   1      -2.415  -0.881   0.150  1.00  0.00    -0.1987  N
ATOM     20 C17  WH0 L   1      -2.983  -2.121   0.272  1.00  0.00    +0.2283  A
ATOM     21 N24  WH0 L   1      -4.338  -2.178   0.431  1.00  0.00    -0.2207 NA
ATOM     22 C25  WH0 L   1      -5.111  -1.054   0.455  1.00  0.00    +0.0334  A
ATOM     23 C26  WH0 L   1      -4.526   0.209   0.324  1.00  0.00    -0.0173  A
ATOM     24 C27  WH0 L   1      -3.142   0.249   0.189  1.00  0.00    +0.0803  A
ATOM     25 C28  WH0 L   1      -2.299   1.337   0.042  1.00  0.00    +0.0353  A
ATOM     26 H61  WH0 L   1      -6.181  -1.141   0.580  1.00  0.00    +0.0831  H
ATOM     27 H62  WH0 L   1      -5.130   1.106   0.327  1.00  0.00    +0.0654  H
BRANCH 17 30
ATOM     28 C11  WH0 L   1       2.509   1.481  -1.221  1.00  0.00    -0.0115  A
ATOM     29 C12  WH0 L   1       1.260   0.860  -1.053  1.00  0.00    -0.0466  A
ATOM     30 C13  WH0 L   1       0.265   1.451  -0.260  1.00  0.00    +0.0032  A
ATOM     31 C39  WH0 L   1       0.541   2.662   0.394  1.00  0.00    -0.0498  A
ATOM     32 C40  WH0 L   1       1.781   3.284   0.234  1.00  0.00    -0.0256  A
ATOM     33 C41  WH0 L   1       2.765   2.700  -0.568  1.00  0.00    +0.1266  A
ATOM     34 F42  WH0 L   1       3.968   3.317  -0.700  1.00  0.00    -0.2052  F
ATOM     35 H52  WH0 L   1       1.065  -0.088  -1.542  1.00  0.00    +0.0628  H
ATOM     36 H69  WH0 L   1      -0.192   3.119   1.046  1.00  0.00    +0.0625  H
ATOM     37 H70  WH0 L   1       1.982   4.219   0.742  1.00  0.00    +0.0646  H
BRANCH 28 38
ATOM     38 C10  WH0 L   1       3.577   0.811  -2.051  1.00  0.00    -0.0234  C
ATOM     39 H50  WH0 L   1       3.119   0.123  -2.796  1.00  0.00    +0.0315  H
ATOM     40 H51  WH0 L   1       4.127   1.582  -2.632  1.00  0.00    +0.0315  H
BRANCH 38 41
ATOM     41  C9  WH0 L   1       4.578   0.033  -1.184  1.00  0.00    -0.0314  C
ATOM     42 H48  WH0 L   1       5.040   0.717  -0.439  1.00  0.00    +0.0285  H
ATOM     43 H49  WH0 L   1       5.389  -0.339  -1.845  1.00  0.00    +0.0285  H
BRANCH 41 44
ATOM     44  C8  WH0 L   1       3.931  -1.156  -0.459  1.00  0.00    +0.0187  C
ATOM     45 H46  WH0 L   1       3.406  -1.816  -1.182  1.00  0.00    +0.0486  H
ATOM     46 H47  WH0 L   1       3.182  -0.781   0.270  1.00  0.00    +0.0486  H
BRANCH 44 49
ATOM     47  C5  WH0 L   1       5.801  -2.873  -0.377  1.00  0.00    +0.2618  C
ATOM     48  O6  WH0 L   1       5.768  -2.992  -1.633  1.00  0.00    -0.2669 OA
ATOM     49  N7  WH0 L   1       4.943  -1.918   0.271  1.00  0.00    -0.3514  N
ATOM     50 H45  WH0 L   1       5.064  -1.710   1.286  1.00  0.00    +0.1626 HD
BRANCH 47 52
ATOM     51  C1  WH0 L   1       6.544  -4.011   1.677  1.00  0.00    -0.0760  C
ATOM     52  C2  WH0 L   1       6.756  -3.699   0.397  1.00  0.00    +0.1085  C
ATOM     53 H43  WH0 L   1       7.257  -4.620   2.223  1.00  0.00    +0.0549  H
ATOM     54 H44  WH0 L   1       5.650  -3.695   2.198  1.00  0.00    +0.0549  H
BRANCH 52 55
ATOM     55  C3  WH0 L   1       7.939  -4.203  -0.261  1.00  0.00    +0.1040  C
ATOM     56  N4  WH0 L   1       8.891  -4.598  -0.792  1.00  0.00    -0.1907 NA
ENDBRANCH 52 55
ENDBRANCH 47 52
ENDBRANCH 44 49
ENDBRANCH 41 44
ENDBRANCH 38 41
ENDBRANCH 28 38
ENDBRANCH 17 30
BRANCH 20 57
ATOM     57 N18  WH0 L   1      -2.209  -3.351   0.277  1.00  0.00    -0.3359  N
ATOM     58 C19  WH0 L   1      -0.803  -3.376  -0.164  1.00  0.00    +0.0449  C
ATOM     59 C20  WH0 L   1      -0.310  -4.798  -0.449  1.00  0.00    +0.0653  C
ATOM     60 O21  WH0 L   1      -0.684  -5.676   0.590  1.00  0.00    -0.3763 OA
ATOM     61 C22  WH0 L   1      -2.088  -5.822   0.580  1.00  0.00    +0.0653  C
ATOM     62 C23  WH0 L   1      -2.775  -4.516   0.986  1.00  0.00    +0.0449  C
ATOM     63 H53  WH0 L   1      -0.690  -2.795  -1.105  1.00  0.00    +0.0511  H
ATOM     64 H54  WH0 L   1      -0.164  -2.929   0.629  1.00  0.00    +0.0511  H
ATOM     65 H55  WH0 L   1      -0.681  -5.152  -1.440  1.00  0.00    +0.0577  H
ATOM     66 H56  WH0 L   1       0.800  -4.784  -0.518  1.00  0.00    +0.0577  H
ATOM     67 H57  WH0 L   1      -2.366  -6.613   1.311  1.00  0.00    +0.0577  H
ATOM     68 H58  WH0 L   1      -2.457  -6.165  -0.416  1.00  0.00    +0.0577  H
ATOM     69 H59  WH0 L   1      -2.664  -4.360   2.082  1.00  0.00    +0.0511  H
ATOM     70 H60  WH0 L   1      -3.860  -4.625   0.756  1.00  0.00    +0.0511  H
ENDBRANCH 20 57
ENDBRANCH 1 25
TORSDOF 9
