ROOT
ATOM      1  C9  CHE L   1       2.275  -0.428  -0.638  1.00  0.00    +0.1051  A
ATOM      2 C10  CHE L   1       3.417  -0.858  -1.294  1.00  0.00    -0.0239  A
ATOM      3 C11  CHE L   1       4.554  -0.401  -0.576  1.00  0.00    +0.0018  A
ATOM      4 C12  CHE L   1       5.944  -0.519  -0.765  1.00  0.00    -0.0342  A
ATOM      5 C13  CHE L   1       6.803   0.067   0.170  1.00  0.00    +0.0417  A
ATOM      6 CL14 CHE L   1       8.507  -0.068  -0.050  1.00  0.00    -0.0835 Cl
ATOM      7 C15  CHE L   1       6.307   0.755   1.275  1.00  0.00    -0.0414  A
ATOM      8 C16  CHE L   1       4.929   0.880   1.481  1.00  0.00    -0.0364  A
ATOM      9 C17  CHE L   1       4.080   0.293   0.536  1.00  0.00    +0.0471  A
ATOM     10 N18  CHE L   1       2.706   0.249   0.482  1.00  0.00    -0.3504  N
ATOM     11 H32  CHE L   1       3.421  -1.441  -2.208  1.00  0.00    +0.0646  H
ATOM     12 H33  CHE L   1       6.337  -1.056  -1.623  1.00  0.00    +0.0639  H
ATOM     13 H34  CHE L   1       6.994   1.201   1.991  1.00  0.00    +0.0633  H
ATOM     14 H35  CHE L   1       4.542   1.414   2.343  1.00  0.00    +0.0639  H
ATOM     15 H36  CHE L   1       2.096   0.633   1.189  1.00  0.00    +0.1660 HD
ENDROOT
BRANCH 1 17
ATOM     16  N6  CHE L   1      -0.012   0.174  -0.401  1.00  0.00    -0.3443  N
ATOM     17  C7  CHE L   1       0.897  -0.670  -1.008  1.00  0.00    +0.2687  C
ATOM     18  O8  CHE L   1       0.563  -1.540  -1.803  1.00  0.00    -0.2660 OA
ATOM     19 H31  CHE L   1       0.350   1.089  -0.167  1.00  0.00    +0.1631 HD
BRANCH 16 22
ATOM     20  N3  CHE L   1      -3.568  -0.692  -0.798  1.00  0.00    -0.2980 NA
ATOM     21  C4  CHE L   1      -2.172  -1.125  -0.717  1.00  0.00    +0.0218  C
ATOM     22  C5  CHE L   1      -1.408   0.199  -0.830  1.00  0.00    +0.0700  C
ATOM     23 C19  CHE L   1      -2.250   1.111   0.077  1.00  0.00    +0.0923  C
ATOM     24 C22  CHE L   1      -3.687   0.602  -0.125  1.00  0.00    +0.0272  C
ATOM     25 H28  CHE L   1      -1.936  -1.612   0.236  1.00  0.00    +0.0447  H
ATOM     26 H29  CHE L   1      -1.929  -1.814  -1.532  1.00  0.00    +0.0447  H
ATOM     27 H30  CHE L   1      -1.419   0.567  -1.865  1.00  0.00    +0.0561  H
ATOM     28 H37  CHE L   1      -1.946   0.959   1.123  1.00  0.00    +0.0630  H
ATOM     29 H41  CHE L   1      -4.273   1.286  -0.749  1.00  0.00    +0.0453  H
ATOM     30 H42  CHE L   1      -4.182   0.537   0.850  1.00  0.00    +0.0453  H
BRANCH 20 32
ATOM     31  C1  CHE L   1      -4.523  -2.267   0.944  1.00  0.00    -0.0524  C
ATOM     32  C2  CHE L   1      -4.574  -1.691  -0.467  1.00  0.00    -0.0038  C
ATOM     33 H23  CHE L   1      -5.356  -2.964   1.088  1.00  0.00    +0.0242  H
ATOM     34 H24  CHE L   1      -4.609  -1.490   1.709  1.00  0.00    +0.0242  H
ATOM     35 H25  CHE L   1      -3.599  -2.826   1.121  1.00  0.00    +0.0242  H
ATOM     36 H26  CHE L   1      -4.492  -2.519  -1.182  1.00  0.00    +0.0424  H
ATOM     37 H27  CHE L   1      -5.568  -1.259  -0.635  1.00  0.00    +0.0424  H
ENDBRANCH 20 32
BRANCH 23 38
ATOM     38 O20  CHE L   1      -2.033   2.477  -0.279  1.00  0.00    -0.3764 OA
ATOM     39 C21  CHE L   1      -2.677   3.385   0.607  1.00  0.00    +0.0369  C
ATOM     40 H38  CHE L   1      -3.763   3.266   0.568  1.00  0.00    +0.0524  H
ATOM     41 H39  CHE L   1      -2.429   4.402   0.291  1.00  0.00    +0.0524  H
ATOM     42 H40  CHE L   1      -2.318   3.241   1.630  1.00  0.00    +0.0524  H
ENDBRANCH 23 38
ENDBRANCH 16 22
ENDBRANCH 1 17
TORSDOF 4
