ROOT
ATOM      1 C13  T70 L   1      -3.467   0.887   0.974  1.00  0.00    +0.0883  C
ATOM      2 C14  T70 L   1      -3.972   1.609  -0.295  1.00  0.00    +0.0239  C
ATOM      3 N15  T70 L   1      -5.446   1.714  -0.322  1.00  0.00    -0.3113 NA
ATOM      4 C16  T70 L   1      -6.008   0.359  -0.175  1.00  0.00    +0.0195  C
ATOM      5 C17  T70 L   1      -5.485  -0.352   1.082  1.00  0.00    +0.0606  C
ATOM      6 O18  T70 L   1      -4.053  -0.428   1.087  1.00  0.00    -0.3723 OA
ATOM      7 H34  T70 L   1      -3.754   1.465   1.862  1.00  0.00    +0.0626  H
ATOM      8 H35  T70 L   1      -3.653   1.076  -1.199  1.00  0.00    +0.0450  H
ATOM      9 H36  T70 L   1      -3.547   2.617  -0.348  1.00  0.00    +0.0450  H
ATOM     10 H37  T70 L   1      -5.751   2.282   0.468  1.00  0.00    +0.1221 HD
ATOM     11 H38  T70 L   1      -5.751  -0.227  -1.065  1.00  0.00    +0.0446  H
ATOM     12 H39  T70 L   1      -7.101   0.427  -0.135  1.00  0.00    +0.0446  H
ATOM     13 H40  T70 L   1      -5.871  -1.375   1.118  1.00  0.00    +0.0572  H
ATOM     14 H41  T70 L   1      -5.817   0.161   1.993  1.00  0.00    +0.0572  H
ENDROOT
BRANCH 1 15
ATOM     15 C12  T70 L   1      -1.931   0.739   0.978  1.00  0.00    +0.0430  C
ATOM     16 H32  T70 L   1      -1.628   0.306   1.939  1.00  0.00    +0.0511  H
ATOM     17 H33  T70 L   1      -1.471   1.727   0.871  1.00  0.00    +0.0511  H
BRANCH 15 18
ATOM     18 N11  T70 L   1      -1.497  -0.156  -0.102  1.00  0.00    -0.3813  N
ATOM     19 H31  T70 L   1      -2.158  -0.939  -0.186  1.00  0.00    +0.1597 HD
BRANCH 18 22
ATOM     20  C8  T70 L   1       2.226  -0.208   0.182  1.00  0.00    +0.1343  A
ATOM     21  C9  T70 L   1       0.889   0.158   0.380  1.00  0.00    +0.0043  A
ATOM     22 C10  T70 L   1      -0.161  -0.548  -0.229  1.00  0.00    +0.0521  A
ATOM     23 C19  T70 L   1       0.190  -1.584  -1.104  1.00  0.00    +0.0959  A
ATOM     24 C24  T70 L   1       1.539  -1.869  -1.267  1.00  0.00    +0.0435  A
ATOM     25 N25  T70 L   1       2.540  -1.217  -0.641  1.00  0.00    -0.2374 NA
ATOM     26 H30  T70 L   1       0.680   1.015   1.010  1.00  0.00    +0.0675  H
ATOM     27 H42  T70 L   1       1.876  -2.658  -1.939  1.00  0.00    +0.0836  H
BRANCH 20 28
ATOM     28  N7  T70 L   1       3.215   0.568   0.835  1.00  0.00    -0.3237  N
ATOM     29 H29  T70 L   1       2.947   0.683   1.805  1.00  0.00    +0.1688 HD
BRANCH 28 33
ATOM     30  C3  T70 L   1       7.344   0.404   0.642  1.00  0.00    +0.1582  A
ATOM     31  C4  T70 L   1       6.575  -0.477  -0.097  1.00  0.00    +0.0657  A
ATOM     32  N5  T70 L   1       5.219  -0.471  -0.059  1.00  0.00    -0.2337 NA
ATOM     33  C6  T70 L   1       4.620   0.434   0.744  1.00  0.00    +0.1507  A
ATOM     34 C26  T70 L   1       5.423   1.328   1.468  1.00  0.00    +0.0713  A
ATOM     35 N27  T70 L   1       6.782   1.334   1.450  1.00  0.00    -0.2395 NA
ATOM     36 H28  T70 L   1       7.016  -1.222  -0.752  1.00  0.00    +0.0859  H
ATOM     37 H43  T70 L   1       4.977   2.093   2.095  1.00  0.00    +0.0867  H
BRANCH 30 39
ATOM     38  N1  T70 L   1       9.932   0.304   0.506  1.00  0.00    -0.1892 NA
ATOM     39  C2  T70 L   1       8.774   0.366   0.580  1.00  0.00    +0.1206  C
ENDBRANCH 30 39
ENDBRANCH 28 33
ENDBRANCH 20 28
BRANCH 23 40
ATOM     40 C20  T70 L   1      -0.798  -2.367  -1.909  1.00  0.00    +0.4207  C
ATOM     41 F21  T70 L   1      -1.997  -2.545  -1.282  1.00  0.00    -0.1658  F
ATOM     42 F22  T70 L   1      -1.084  -1.787  -3.108  1.00  0.00    -0.1658  F
ATOM     43 F23  T70 L   1      -0.364  -3.626  -2.208  1.00  0.00    -0.1658  F
ENDBRANCH 23 40
ENDBRANCH 18 22
ENDBRANCH 15 18
ENDBRANCH 1 15
TORSDOF 7
