ROOT
ATOM      1  C3  CHE L   1       3.006  -0.198  -0.708  1.00  0.00    +0.0595  A
ATOM      2  C4  CHE L   1       3.458   1.127  -0.714  1.00  0.00    -0.0437  A
ATOM      3  C5  CHE L   1       2.584   2.159  -0.411  1.00  0.00    -0.0599  A
ATOM      4  C6  CHE L   1       1.256   1.869  -0.096  1.00  0.00    -0.0536  A
ATOM      5  C7  CHE L   1       0.756   0.545  -0.071  1.00  0.00    -0.0120  A
ATOM      6  C8  CHE L   1      -0.601   0.239   0.257  1.00  0.00    -0.0226  A
ATOM      7  C9  CHE L   1      -1.053  -1.098   0.215  1.00  0.00    -0.0412  A
ATOM      8 C10  CHE L   1      -0.162  -2.125  -0.091  1.00  0.00    -0.0576  A
ATOM      9 C11  CHE L   1       1.167  -1.835  -0.387  1.00  0.00    -0.0525  A
ATOM     10 C12  CHE L   1       1.656  -0.509  -0.392  1.00  0.00    -0.0002  A
ATOM     11 C13  CHE L   1      -2.484  -1.441   0.552  1.00  0.00    -0.0148  C
ATOM     12 C14  CHE L   1      -3.409  -0.229   0.451  1.00  0.00    +0.0002  C
ATOM     13 N15  CHE L   1      -2.850   0.891   1.204  1.00  0.00    -0.3117 NA
ATOM     14 C16  CHE L   1      -1.594   1.343   0.593  1.00  0.00    +0.0221  C
ATOM     15 H17  CHE L   1       4.494   1.358  -0.957  1.00  0.00    +0.0631  H
ATOM     16 H18  CHE L   1       2.930   3.190  -0.417  1.00  0.00    +0.0618  H
ATOM     17 H19  CHE L   1       0.610   2.715   0.130  1.00  0.00    +0.0624  H
ATOM     18 H20  CHE L   1      -0.496  -3.160  -0.099  1.00  0.00    +0.0621  H
ATOM     19 H21  CHE L   1       1.819  -2.675  -0.620  1.00  0.00    +0.0624  H
ATOM     20 H22  CHE L   1      -2.509  -1.844   1.572  1.00  0.00    +0.0326  H
ATOM     21 H23  CHE L   1      -2.850  -2.221  -0.126  1.00  0.00    +0.0326  H
ATOM     22 H24  CHE L   1      -3.567   0.056  -0.597  1.00  0.00    +0.0427  H
ATOM     23 H25  CHE L   1      -4.389  -0.491   0.862  1.00  0.00    +0.0427  H
ATOM     24 H26  CHE L   1      -3.510   1.666   1.208  1.00  0.00    +0.1223 HD
ATOM     25 H27  CHE L   1      -1.140   2.034   1.310  1.00  0.00    +0.0474  H
ATOM     26 H28  CHE L   1      -1.818   1.898  -0.327  1.00  0.00    +0.0474  H
ENDROOT
BRANCH 1 28
ATOM     27  N1  CHE L   1       4.735  -2.043  -1.305  1.00  0.00    -0.1909 NA
ATOM     28  C2  CHE L   1       3.960  -1.222  -1.036  1.00  0.00    +0.0998  C
ENDBRANCH 1 28
TORSDOF 1
