ROOT
ATOM      1  H1  CHE L   1       1.433  -5.589   1.118  1.00  0.00    +0.0473  H
ATOM      2  C2  CHE L   1       1.172  -4.658   1.628  1.00  0.00    +0.0324  C
ATOM      3  H3  CHE L   1       1.617  -4.631   2.626  1.00  0.00    +0.0473  H
ATOM      4  H4  CHE L   1       0.087  -4.568   1.704  1.00  0.00    +0.0473  H
ATOM      5  N5  CHE L   1       1.707  -3.559   0.864  1.00  0.00    -0.2493  N
ATOM      6  N6  CHE L   1       3.044  -3.473   0.668  1.00  0.00    -0.1773 NA
ATOM      7  C7  CHE L   1       3.171  -2.379  -0.092  1.00  0.00    +0.0622  A
ATOM      8  C8  CHE L   1       1.938  -1.746  -0.351  1.00  0.00    +0.0809  A
ATOM      9  C9  CHE L   1       1.454  -0.629  -1.036  1.00  0.00    +0.1474  A
ATOM     10 N21  CHE L   1       0.111  -0.446  -1.077  1.00  0.00    -0.1945 NA
ATOM     11 C22  CHE L   1      -0.709  -1.297  -0.434  1.00  0.00    +0.2278  A
ATOM     12 N34  CHE L   1      -0.327  -2.365   0.280  1.00  0.00    -0.1929 NA
ATOM     13 C35  CHE L   1       1.002  -2.547   0.272  1.00  0.00    +0.1653  A
ATOM     14 H36  CHE L   1       4.158  -2.084  -0.424  1.00  0.00    +0.0856  H
ENDROOT
BRANCH 9 15
ATOM     15 N10  CHE L   1       2.240   0.293  -1.741  1.00  0.00    -0.3393  N
ATOM     16 H37  CHE L   1       1.607   0.939  -2.208  1.00  0.00    +0.1673 HD
BRANCH 15 17
ATOM     17 C11  CHE L   1       3.428   0.936  -1.342  1.00  0.00    +0.0407  A
ATOM     18 C12  CHE L   1       4.195   1.580  -2.322  1.00  0.00    -0.0378  A
ATOM     19 C13  CHE L   1       5.384   2.239  -1.993  1.00  0.00    -0.0482  A
ATOM     20 C14  CHE L   1       5.837   2.267  -0.668  1.00  0.00    +0.0549  A
ATOM     21 C19  CHE L   1       5.064   1.637   0.318  1.00  0.00    -0.0482  A
ATOM     22 C20  CHE L   1       3.874   0.981  -0.017  1.00  0.00    -0.0378  A
ATOM     23 H38  CHE L   1       3.872   1.562  -3.361  1.00  0.00    +0.0638  H
ATOM     24 H39  CHE L   1       5.958   2.725  -2.781  1.00  0.00    +0.0624  H
ATOM     25 H40  CHE L   1       5.384   1.658   1.359  1.00  0.00    +0.0624  H
ATOM     26 H41  CHE L   1       3.294   0.529   0.783  1.00  0.00    +0.0638  H
BRANCH 20 27
ATOM     27 C15  CHE L   1       7.110   2.984  -0.291  1.00  0.00    +0.4174  C
ATOM     28 F16  CHE L   1       6.872   4.156   0.360  1.00  0.00    -0.1659  F
ATOM     29 F17  CHE L   1       7.902   2.248   0.540  1.00  0.00    -0.1659  F
ATOM     30 F18  CHE L   1       7.891   3.303  -1.362  1.00  0.00    -0.1659  F
ENDBRANCH 20 27
ENDBRANCH 15 17
ENDBRANCH 9 15
BRANCH 11 31
ATOM     31 N23  CHE L   1      -2.060  -0.993  -0.548  1.00  0.00    -0.3519  N
ATOM     32 H42  CHE L   1      -2.099  -0.027  -0.865  1.00  0.00    +0.1626 HD
BRANCH 31 33
ATOM     33 C24  CHE L   1      -2.849  -1.273   0.649  1.00  0.00    +0.0402  C
ATOM     34 H43  CHE L   1      -2.368  -0.821   1.526  1.00  0.00    +0.0507  H
ATOM     35 H44  CHE L   1      -2.877  -2.357   0.826  1.00  0.00    +0.0507  H
BRANCH 33 36
ATOM     36 C25  CHE L   1      -4.329  -0.745   0.519  1.00  0.00    +0.0567  C
ATOM     37 C26  CHE L   1      -5.031  -1.558  -0.594  1.00  0.00    -0.0412  C
ATOM     38 N27  CHE L   1      -5.092  -1.048   1.754  1.00  0.00    -0.3199 NA
ATOM     39 H45  CHE L   1      -4.979  -2.635  -0.395  1.00  0.00    +0.0251  H
ATOM     40 H46  CHE L   1      -4.569  -1.390  -1.574  1.00  0.00    +0.0251  H
ATOM     41 H47  CHE L   1      -6.093  -1.298  -0.680  1.00  0.00    +0.0251  H
ATOM     42 H48  CHE L   1      -5.057  -2.048   1.943  1.00  0.00    +0.1191 HD
ATOM     43 H49  CHE L   1      -4.660  -0.585   2.550  1.00  0.00    +0.1191 HD
BRANCH 36 44
ATOM     44 C28  CHE L   1      -4.349   0.779   0.295  1.00  0.00    -0.0262  A
ATOM     45 C29  CHE L   1      -3.715   1.640   1.216  1.00  0.00    -0.0568  A
ATOM     46 C30  CHE L   1      -3.698   3.025   1.029  1.00  0.00    -0.0614  A
ATOM     47 C31  CHE L   1      -4.320   3.585  -0.081  1.00  0.00    -0.0617  A
ATOM     48 C32  CHE L   1      -4.961   2.761  -1.000  1.00  0.00    -0.0614  A
ATOM     49 C33  CHE L   1      -4.977   1.375  -0.813  1.00  0.00    -0.0568  A
ATOM     50 H50  CHE L   1      -3.225   1.242   2.101  1.00  0.00    +0.0621  H
ATOM     51 H51  CHE L   1      -3.203   3.666   1.754  1.00  0.00    +0.0618  H
ATOM     52 H52  CHE L   1      -4.311   4.662  -0.228  1.00  0.00    +0.0618  H
ATOM     53 H53  CHE L   1      -5.455   3.195  -1.866  1.00  0.00    +0.0618  H
ATOM     54 H54  CHE L   1      -5.497   0.776  -1.557  1.00  0.00    +0.0621  H
ENDBRANCH 36 44
ENDBRANCH 33 36
ENDBRANCH 31 33
ENDBRANCH 11 31
TORSDOF 7
