ROOT
ATOM      1  N3  WH0 L   1      -3.718   1.545   2.074  1.00  0.00    -0.3335  N
ATOM      2  C4  WH0 L   1      -3.740   0.093   2.310  1.00  0.00    +0.0811  C
ATOM      3  C5  WH0 L   1      -2.490  -0.572   1.843  1.00  0.00    +0.1540  A
ATOM      4  N6  WH0 L   1      -2.173  -1.851   2.112  1.00  0.00    -0.1321 NA
ATOM      5  N7  WH0 L   1      -1.022  -2.094   1.505  1.00  0.00    -0.1289 NA
ATOM      6  C8  WH0 L   1      -0.653  -0.958   0.877  1.00  0.00    +0.1686  A
ATOM      7 N28  WH0 L   1      -1.571   0.021   1.064  1.00  0.00    -0.2971  N
ATOM      8 C29  WH0 L   1      -1.647   1.387   0.530  1.00  0.00    +0.1160  C
ATOM      9 C34  WH0 L   1      -2.772   2.168   1.171  1.00  0.00    +0.2469  C
ATOM     10 O35  WH0 L   1      -2.856   3.404   0.930  1.00  0.00    -0.2707 OA
ATOM     11 H41  WH0 L   1      -4.606  -0.354   1.780  1.00  0.00    +0.0569  H
ATOM     12 H42  WH0 L   1      -3.853  -0.108   3.397  1.00  0.00    +0.0569  H
ATOM     13 H60  WH0 L   1      -0.725   1.926   0.820  1.00  0.00    +0.0627  H
ENDROOT
BRANCH 1 15
ATOM     14  C1  WH0 L   1      -5.898   2.652   1.738  1.00  0.00    -0.0474  C
ATOM     15  C2  WH0 L   1      -4.759   2.364   2.715  1.00  0.00    +0.0188  C
ATOM     16 H36  WH0 L   1      -6.663   3.290   2.229  1.00  0.00    +0.0247  H
ATOM     17 H37  WH0 L   1      -5.521   3.186   0.842  1.00  0.00    +0.0247  H
ATOM     18 H38  WH0 L   1      -6.375   1.701   1.413  1.00  0.00    +0.0247  H
ATOM     19 H39  WH0 L   1      -4.325   3.322   3.072  1.00  0.00    +0.0486  H
ATOM     20 H40  WH0 L   1      -5.174   1.844   3.604  1.00  0.00    +0.0486  H
ENDBRANCH 1 15
BRANCH 6 21
ATOM     21  C9  WH0 L   1       0.577  -0.866   0.061  1.00  0.00    +0.0650  A
ATOM     22 C10  WH0 L   1       1.462   0.203   0.232  1.00  0.00    -0.0406  A
ATOM     23 C11  WH0 L   1       2.630   0.301  -0.533  1.00  0.00    +0.0005  A
ATOM     24 C19  WH0 L   1       2.968  -0.727  -1.439  1.00  0.00    +0.1684  A
ATOM     25 C22  WH0 L   1       2.106  -1.844  -1.575  1.00  0.00    +0.2045  A
ATOM     26 C25  WH0 L   1       0.889  -1.882  -0.858  1.00  0.00    +0.1759  A
ATOM     27 H43  WH0 L   1       1.257   0.955   0.981  1.00  0.00    +0.0630  H
BRANCH 23 28
ATOM     28 C12  WH0 L   1       3.558   1.477  -0.323  1.00  0.00    -0.0066  C
ATOM     29 H44  WH0 L   1       3.984   1.792  -1.300  1.00  0.00    +0.0331  H
ATOM     30 H45  WH0 L   1       3.000   2.357   0.067  1.00  0.00    +0.0331  H
BRANCH 28 31
ATOM     31 C13  WH0 L   1       4.707   1.124   0.632  1.00  0.00    +0.0222  C
ATOM     32 H46  WH0 L   1       5.482   1.920   0.568  1.00  0.00    +0.0489  H
ATOM     33 H47  WH0 L   1       5.175   0.162   0.327  1.00  0.00    +0.0489  H
BRANCH 31 34
ATOM     34 N14  WH0 L   1       4.244   1.031   2.018  1.00  0.00    -0.3547  N
ATOM     35 C15  WH0 L   1       5.131   0.657   3.080  1.00  0.00    +0.2356  C
ATOM     36 O16  WH0 L   1       6.306   0.277   2.824  1.00  0.00    -0.2720 OA
ATOM     37 H48  WH0 L   1       3.263   1.296   2.264  1.00  0.00    +0.1623 HD
BRANCH 35 38
ATOM     38 C17  WH0 L   1       4.651   0.674   4.497  1.00  0.00    +0.1010  C
ATOM     39 CL18 WH0 L   1       3.645  -0.763   4.806  1.00  0.00    -0.1154 Cl
ATOM     40 H49  WH0 L   1       5.511   0.677   5.200  1.00  0.00    +0.0527  H
ATOM     41 H50  WH0 L   1       4.045   1.589   4.675  1.00  0.00    +0.0527  H
ENDBRANCH 35 38
ENDBRANCH 31 34
ENDBRANCH 28 31
ENDBRANCH 23 28
BRANCH 24 42
ATOM     42 O20  WH0 L   1       4.178  -0.589  -2.149  1.00  0.00    -0.4910 OA
ATOM     43 C21  WH0 L   1       4.737  -1.511  -3.079  1.00  0.00    +0.0790  C
ATOM     44 H51  WH0 L   1       4.049  -1.666  -3.938  1.00  0.00    +0.0660  H
ATOM     45 H52  WH0 L   1       5.690  -1.097  -3.468  1.00  0.00    +0.0660  H
ATOM     46 H53  WH0 L   1       4.966  -2.473  -2.575  1.00  0.00    +0.0660  H
ENDBRANCH 24 42
BRANCH 25 47
ATOM     47 O23  WH0 L   1       2.465  -2.913  -2.403  1.00  0.00    -0.4885 OA
ATOM     48 C24  WH0 L   1       2.654  -4.237  -1.911  1.00  0.00    +0.0791  C
ATOM     49 H54  WH0 L   1       1.710  -4.657  -1.515  1.00  0.00    +0.0660  H
ATOM     50 H55  WH0 L   1       3.000  -4.884  -2.743  1.00  0.00    +0.0660  H
ATOM     51 H56  WH0 L   1       3.427  -4.236  -1.115  1.00  0.00    +0.0660  H
ENDBRANCH 25 47
BRANCH 26 52
ATOM     52 O26  WH0 L   1      -0.021  -2.927  -1.052  1.00  0.00    -0.4906 OA
ATOM     53 C27  WH0 L   1      -0.682  -3.143  -2.294  1.00  0.00    +0.0790  C
ATOM     54 H57  WH0 L   1      -1.409  -2.328  -2.478  1.00  0.00    +0.0660  H
ATOM     55 H58  WH0 L   1       0.041  -3.183  -3.132  1.00  0.00    +0.0660  H
ATOM     56 H59  WH0 L   1      -1.232  -4.105  -2.251  1.00  0.00    +0.0660  H
ENDBRANCH 26 52
ENDBRANCH 6 21
BRANCH 8 57
ATOM     57 C30  WH0 L   1      -1.723   1.407  -1.017  1.00  0.00    -0.0209  C
ATOM     58 H61  WH0 L   1      -0.721   1.110  -1.394  1.00  0.00    +0.0292  H
ATOM     59 H62  WH0 L   1      -1.872   2.453  -1.370  1.00  0.00    +0.0292  H
BRANCH 57 60
ATOM     60 C31  WH0 L   1      -2.785   0.482  -1.664  1.00  0.00    -0.0444  C
ATOM     61 C32  WH0 L   1      -2.512   0.360  -3.171  1.00  0.00    -0.0626  C
ATOM     62 C33  WH0 L   1      -4.217   0.993  -1.448  1.00  0.00    -0.0626  C
ATOM     63 H63  WH0 L   1      -2.707  -0.537  -1.228  1.00  0.00    +0.0296  H
ATOM     64 H64  WH0 L   1      -2.650   1.341  -3.675  1.00  0.00    +0.0232  H
ATOM     65 H65  WH0 L   1      -1.473   0.010  -3.352  1.00  0.00    +0.0232  H
ATOM     66 H66  WH0 L   1      -3.201  -0.382  -3.627  1.00  0.00    +0.0232  H
ATOM     67 H67  WH0 L   1      -4.936   0.409  -2.062  1.00  0.00    +0.0232  H
ATOM     68 H68  WH0 L   1      -4.303   2.067  -1.723  1.00  0.00    +0.0232  H
ATOM     69 H69  WH0 L   1      -4.522   0.865  -0.395  1.00  0.00    +0.0232  H
ENDBRANCH 57 60
ENDBRANCH 8 57
TORSDOF 11
