ROOT
ATOM      1  C3  CHE L   1       1.450  -0.046  -0.095  1.00  0.00    +0.0783  C
ATOM      2  O4  CHE L   1       1.940  -0.416   1.204  1.00  0.00    -0.3873 OA
ATOM      3  C5  CHE L   1       0.793   1.357  -0.021  1.00  0.00    -0.0228  C
ATOM      4  C6  CHE L   1      -0.278   1.565   1.056  1.00  0.00    -0.0504  C
ATOM      5  C7  CHE L   1      -1.650   1.938   0.491  1.00  0.00    -0.0530  C
ATOM      6  C8  CHE L   1      -2.329   0.862  -0.358  1.00  0.00    -0.0531  C
ATOM      7  C9  CHE L   1      -2.701  -0.400   0.425  1.00  0.00    -0.0531  C
ATOM      8 C10  CHE L   1      -1.969  -1.671  -0.013  1.00  0.00    -0.0530  C
ATOM      9 C11  CHE L   1      -0.497  -1.741   0.403  1.00  0.00    -0.0504  C
ATOM     10 C12  CHE L   1       0.480  -1.136  -0.616  1.00  0.00    -0.0228  C
ATOM     11 H17  CHE L   1       2.517   0.300   1.518  1.00  0.00    +0.2102 HD
ATOM     12 H18  CHE L   1       0.418   1.641  -1.012  1.00  0.00    +0.0293  H
ATOM     13 H19  CHE L   1       1.588   2.081   0.208  1.00  0.00    +0.0293  H
ATOM     14 H20  CHE L   1       0.042   2.406   1.685  1.00  0.00    +0.0266  H
ATOM     15 H21  CHE L   1      -0.358   0.719   1.741  1.00  0.00    +0.0266  H
ATOM     16 H22  CHE L   1      -2.311   2.202   1.326  1.00  0.00    +0.0265  H
ATOM     17 H23  CHE L   1      -1.549   2.847  -0.115  1.00  0.00    +0.0265  H
ATOM     18 H24  CHE L   1      -1.736   0.631  -1.247  1.00  0.00    +0.0265  H
ATOM     19 H25  CHE L   1      -3.260   1.302  -0.740  1.00  0.00    +0.0265  H
ATOM     20 H26  CHE L   1      -2.584  -0.252   1.505  1.00  0.00    +0.0265  H
ATOM     21 H27  CHE L   1      -3.772  -0.581   0.267  1.00  0.00    +0.0265  H
ATOM     22 H28  CHE L   1      -2.484  -2.513   0.468  1.00  0.00    +0.0265  H
ATOM     23 H29  CHE L   1      -2.079  -1.828  -1.093  1.00  0.00    +0.0265  H
ATOM     24 H30  CHE L   1      -0.246  -2.809   0.485  1.00  0.00    +0.0266  H
ATOM     25 H31  CHE L   1      -0.366  -1.350   1.415  1.00  0.00    +0.0266  H
ATOM     26 H32  CHE L   1      -0.037  -0.771  -1.510  1.00  0.00    +0.0293  H
ATOM     27 H33  CHE L   1       1.077  -1.986  -0.973  1.00  0.00    +0.0293  H
ENDROOT
BRANCH 1 29
ATOM     28  N1  CHE L   1       3.494  -1.154  -1.092  1.00  0.00    -0.3274 NA
ATOM     29  C2  CHE L   1       2.690   0.071  -1.045  1.00  0.00    +0.0222  C
ATOM     30 H13  CHE L   1       4.445  -0.938  -1.383  1.00  0.00    +0.1183 HD
ATOM     31 H14  CHE L   1       3.547  -1.537  -0.145  1.00  0.00    +0.1183 HD
ATOM     32 H15  CHE L   1       2.375   0.336  -2.060  1.00  0.00    +0.0450  H
ATOM     33 H16  CHE L   1       3.347   0.869  -0.678  1.00  0.00    +0.0450  H
ENDBRANCH 1 29
TORSDOF 1
