ROOT
ATOM      1 C21  WH0 L   1      -1.792  -2.590  -0.003  1.00  0.00    +0.0869  A
ATOM      2 C22  WH0 L   1      -1.861  -3.471  -1.091  1.00  0.00    -0.0399  A
ATOM      3 C23  WH0 L   1      -0.992  -4.561  -1.172  1.00  0.00    -0.0368  A
ATOM      4 C24  WH0 L   1      -0.036  -4.776  -0.171  1.00  0.00    +0.0450  A
ATOM      5 C25  WH0 L   1       0.043  -3.894   0.925  1.00  0.00    -0.0223  A
ATOM      6 C26  WH0 L   1      -0.837  -2.803   1.001  1.00  0.00    -0.0367  A
ATOM      7 C27  WH0 L   1       1.157  -4.049   1.932  1.00  0.00    -0.0172  C
ATOM      8 C28  WH0 L   1       1.539  -5.518   2.151  1.00  0.00    +0.0305  C
ATOM      9 C29  WH0 L   1       1.718  -6.220   0.837  1.00  0.00    +0.2256  C
ATOM     10 O30  WH0 L   1       2.571  -7.140   0.720  1.00  0.00    -0.2729 OA
ATOM     11 N31  WH0 L   1       0.867  -5.886  -0.264  1.00  0.00    -0.3259  N
ATOM     12 H60  WH0 L   1      -2.580  -3.314  -1.884  1.00  0.00    +0.0631  H
ATOM     13 H61  WH0 L   1      -1.056  -5.232  -2.019  1.00  0.00    +0.0638  H
ATOM     14 H62  WH0 L   1      -0.769  -2.112   1.831  1.00  0.00    +0.0634  H
ATOM     15 H63  WH0 L   1       2.047  -3.499   1.558  1.00  0.00    +0.0318  H
ATOM     16 H64  WH0 L   1       0.862  -3.606   2.908  1.00  0.00    +0.0318  H
ATOM     17 H65  WH0 L   1       0.734  -6.030   2.722  1.00  0.00    +0.0364  H
ATOM     18 H66  WH0 L   1       2.479  -5.570   2.742  1.00  0.00    +0.0364  H
ATOM     19 H67  WH0 L   1       0.905  -6.462  -1.135  1.00  0.00    +0.1686 HD
ENDROOT
BRANCH 1 20
ATOM     20 S18  WH0 L   1      -2.857  -1.189   0.077  1.00  0.00    +0.2598  S
ATOM     21 O19  WH0 L   1      -3.913  -1.300  -0.989  1.00  0.00    -0.2003 OA
ATOM     22 O20  WH0 L   1      -3.544  -1.150   1.415  1.00  0.00    -0.2003 OA
BRANCH 20 23
ATOM     23 N17  WH0 L   1      -1.921   0.255  -0.210  1.00  0.00    -0.2943 NA
ATOM     24 H59  WH0 L   1      -2.522   0.886  -0.787  1.00  0.00    +0.1736 HD
BRANCH 23 25
ATOM     25 C16  WH0 L   1      -1.490   0.915   1.041  1.00  0.00    +0.1411  C
ATOM     26 H58  WH0 L   1      -1.540   0.191   1.882  1.00  0.00    +0.0678  H
BRANCH 25 32
ATOM     27 C10  WH0 L   1      -2.449   3.312   0.581  1.00  0.00    -0.0401  A
ATOM     28 C11  WH0 L   1      -3.377   4.312   0.937  1.00  0.00    -0.0582  A
ATOM     29 C12  WH0 L   1      -4.178   4.180   2.069  1.00  0.00    -0.0615  A
ATOM     30 C13  WH0 L   1      -4.082   3.040   2.860  1.00  0.00    -0.0614  A
ATOM     31 C14  WH0 L   1      -3.196   2.020   2.516  1.00  0.00    -0.0559  A
ATOM     32 C15  WH0 L   1      -2.373   2.123   1.377  1.00  0.00    -0.0124  A
ATOM     33 H54  WH0 L   1      -3.486   5.202   0.331  1.00  0.00    +0.0620  H
ATOM     34 H55  WH0 L   1      -4.881   4.962   2.331  1.00  0.00    +0.0618  H
ATOM     35 H56  WH0 L   1      -4.707   2.941   3.739  1.00  0.00    +0.0618  H
ATOM     36 H57  WH0 L   1      -3.163   1.140   3.147  1.00  0.00    +0.0621  H
BRANCH 27 37
ATOM     37  C9  WH0 L   1      -1.599   3.562  -0.655  1.00  0.00    -0.0098  C
ATOM     38 H52  WH0 L   1      -1.136   2.634  -1.028  1.00  0.00    +0.0330  H
ATOM     39 H53  WH0 L   1      -2.253   3.916  -1.481  1.00  0.00    +0.0330  H
BRANCH 37 40
ATOM     40  C8  WH0 L   1      -0.469   4.578  -0.412  1.00  0.00    +0.0224  C
ATOM     41 H50  WH0 L   1       0.201   4.609  -1.299  1.00  0.00    +0.0489  H
ATOM     42 H51  WH0 L   1       0.150   4.253   0.448  1.00  0.00    +0.0489  H
BRANCH 40 45
ATOM     43  C5  WH0 L   1      -1.496   6.775  -1.179  1.00  0.00    +0.2618  C
ATOM     44  O6  WH0 L   1      -1.641   6.321  -2.348  1.00  0.00    -0.2669 OA
ATOM     45  N7  WH0 L   1      -0.985   5.920  -0.143  1.00  0.00    -0.3511  N
ATOM     46 H49  WH0 L   1      -0.956   6.257   0.844  1.00  0.00    +0.1627 HD
BRANCH 43 48
ATOM     47  C1  WH0 L   1      -1.363   8.875   0.111  1.00  0.00    -0.0760  C
ATOM     48  C2  WH0 L   1      -1.884   8.178  -0.903  1.00  0.00    +0.1085  C
ATOM     49 H47  WH0 L   1      -1.656   9.906   0.285  1.00  0.00    +0.0549  H
ATOM     50 H48  WH0 L   1      -0.613   8.456   0.768  1.00  0.00    +0.0549  H
BRANCH 48 51
ATOM     51  C3  WH0 L   1      -2.820   8.833  -1.782  1.00  0.00    +0.1040  C
ATOM     52  N4  WH0 L   1      -3.572   9.358  -2.487  1.00  0.00    -0.1907 NA
ENDBRANCH 48 51
ENDBRANCH 43 48
ENDBRANCH 40 45
ENDBRANCH 37 40
ENDBRANCH 27 37
ENDBRANCH 25 32
BRANCH 25 53
ATOM     53 C32  WH0 L   1      -0.019   1.262   1.012  1.00  0.00    +0.2511  C
ATOM     54 O33  WH0 L   1       0.410   2.178   1.765  1.00  0.00    -0.2704 OA
ATOM     55 N34  WH0 L   1       0.928   0.404   0.359  1.00  0.00    -0.3369  N
ATOM     56 C35  WH0 L   1       1.941  -0.262   1.189  1.00  0.00    +0.0388  C
ATOM     57 C36  WH0 L   1       3.072  -0.870   0.350  1.00  0.00    +0.0363  C
ATOM     58 N37  WH0 L   1       2.550  -1.566  -0.840  1.00  0.00    -0.3672  N
ATOM     59 C45  WH0 L   1       1.433  -0.974  -1.599  1.00  0.00    +0.0363  C
ATOM     60 C46  WH0 L   1       1.080   0.428  -1.096  1.00  0.00    +0.0388  C
ATOM     61 H68  WH0 L   1       2.388   0.461   1.904  1.00  0.00    +0.0506  H
ATOM     62 H69  WH0 L   1       1.451  -1.062   1.781  1.00  0.00    +0.0506  H
ATOM     63 H70  WH0 L   1       3.631  -1.570   1.006  1.00  0.00    +0.0505  H
ATOM     64 H71  WH0 L   1       3.767  -0.066   0.023  1.00  0.00    +0.0505  H
ATOM     65 H76  WH0 L   1       0.536  -1.619  -1.496  1.00  0.00    +0.0505  H
ATOM     66 H77  WH0 L   1       1.701  -0.906  -2.675  1.00  0.00    +0.0505  H
ATOM     67 H78  WH0 L   1       0.152   0.768  -1.597  1.00  0.00    +0.0506  H
ATOM     68 H79  WH0 L   1       1.889   1.138  -1.367  1.00  0.00    +0.0506  H
BRANCH 58 69
ATOM     69 C38  WH0 L   1       3.220  -2.746  -1.355  1.00  0.00    +0.0381  A
ATOM     70 C39  WH0 L   1       4.587  -2.980  -1.092  1.00  0.00    -0.0358  A
ATOM     71 C40  WH0 L   1       5.218  -4.134  -1.567  1.00  0.00    -0.0245  A
ATOM     72 C41  WH0 L   1       4.505  -5.062  -2.326  1.00  0.00    +0.1235  A
ATOM     73 F42  WH0 L   1       5.120  -6.181  -2.783  1.00  0.00    -0.2055  F
ATOM     74 C43  WH0 L   1       3.160  -4.834  -2.619  1.00  0.00    -0.0245  A
ATOM     75 C44  WH0 L   1       2.522  -3.685  -2.142  1.00  0.00    -0.0358  A
ATOM     76 H72  WH0 L   1       5.180  -2.267  -0.534  1.00  0.00    +0.0639  H
ATOM     77 H73  WH0 L   1       6.266  -4.302  -1.352  1.00  0.00    +0.0647  H
ATOM     78 H74  WH0 L   1       2.606  -5.548  -3.213  1.00  0.00    +0.0647  H
ATOM     79 H75  WH0 L   1       1.478  -3.543  -2.381  1.00  0.00    +0.0639  H
ENDBRANCH 58 69
ENDBRANCH 25 53
ENDBRANCH 23 25
ENDBRANCH 20 23
ENDBRANCH 1 20
TORSDOF 11
