ROOT
ATOM      1 C15  CHE L   1      -0.317   0.580  -0.932  1.00  0.00    +0.0671  A
ATOM      2 C16  CHE L   1       0.989   0.310  -1.340  1.00  0.00    +0.0294  A
ATOM      3 C17  CHE L   1       1.412  -0.455  -2.551  1.00  0.00    -0.0235  C
ATOM      4 N18  CHE L   1       1.851   0.882  -0.419  1.00  0.00    -0.3402  N
ATOM      5 C29  CHE L   1       1.110   1.484   0.597  1.00  0.00    +0.0503  A
ATOM      6 C30  CHE L   1       1.521   2.168   1.759  1.00  0.00    -0.0376  A
ATOM      7 C31  CHE L   1       0.547   2.707   2.602  1.00  0.00    -0.0598  A
ATOM      8 C32  CHE L   1      -0.802   2.579   2.302  1.00  0.00    -0.0611  A
ATOM      9 C33  CHE L   1      -1.205   1.897   1.150  1.00  0.00    -0.0518  A
ATOM     10 C34  CHE L   1      -0.241   1.324   0.287  1.00  0.00    +0.0125  A
ATOM     11 H46  CHE L   1       0.610  -1.103  -2.917  1.00  0.00    +0.0292  H
ATOM     12 H47  CHE L   1       1.684   0.229  -3.361  1.00  0.00    +0.0292  H
ATOM     13 H48  CHE L   1       2.251  -1.120  -2.344  1.00  0.00    +0.0292  H
ATOM     14 H64  CHE L   1       2.571   2.288   2.010  1.00  0.00    +0.0638  H
ATOM     15 H65  CHE L   1       0.852   3.241   3.499  1.00  0.00    +0.0618  H
ATOM     16 H66  CHE L   1      -1.548   3.014   2.961  1.00  0.00    +0.0618  H
ATOM     17 H67  CHE L   1      -2.264   1.820   0.924  1.00  0.00    +0.0624  H
ENDROOT
BRANCH 1 19
ATOM     18 N12  CHE L   1      -2.553  -0.236  -0.845  1.00  0.00    -0.3477  N
ATOM     19 C13  CHE L   1      -1.521   0.171  -1.658  1.00  0.00    +0.2546  C
ATOM     20 O14  CHE L   1      -1.589   0.161  -2.883  1.00  0.00    -0.2675 OA
ATOM     21 H45  CHE L   1      -2.297  -0.496   0.102  1.00  0.00    +0.1630 HD
BRANCH 18 22
ATOM     22 C11  CHE L   1      -3.730  -0.875  -1.391  1.00  0.00    +0.0499  C
ATOM     23 H43  CHE L   1      -3.522  -1.949  -1.467  1.00  0.00    +0.0538  H
ATOM     24 H44  CHE L   1      -3.901  -0.526  -2.414  1.00  0.00    +0.0538  H
BRANCH 22 32
ATOM     25  C3  CHE L   1      -5.971   0.162  -0.728  1.00  0.00    +0.0192  A
ATOM     26  C4  CHE L   1      -7.058   0.256   0.231  1.00  0.00    -0.0288  A
ATOM     27  C5  CHE L   1      -7.024  -0.430   1.383  1.00  0.00    +0.0170  A
ATOM     28  C6  CHE L   1      -8.111  -0.388   2.412  1.00  0.00    -0.0243  C
ATOM     29  N7  CHE L   1      -5.935  -1.219   1.651  1.00  0.00    -0.3262  N
ATOM     30  C8  CHE L   1      -4.855  -1.359   0.818  1.00  0.00    +0.2548  A
ATOM     31  O9  CHE L   1      -3.890  -2.045   1.142  1.00  0.00    -0.2675 OA
ATOM     32 C10  CHE L   1      -4.897  -0.619  -0.483  1.00  0.00    +0.0493  A
ATOM     33 H38  CHE L   1      -7.910   0.887  -0.009  1.00  0.00    +0.0646  H
ATOM     34 H39  CHE L   1      -8.530  -1.389   2.565  1.00  0.00    +0.0292  H
ATOM     35 H40  CHE L   1      -8.929   0.276   2.114  1.00  0.00    +0.0292  H
ATOM     36 H41  CHE L   1      -7.718  -0.027   3.368  1.00  0.00    +0.0292  H
ATOM     37 H42  CHE L   1      -5.880  -1.732   2.523  1.00  0.00    +0.1686 HD
BRANCH 25 39
ATOM     38  C1  CHE L   1      -5.090   2.484  -1.847  1.00  0.00    -0.0134  C
ATOM     39  S2  CHE L   1      -6.176   1.078  -2.197  1.00  0.00    -0.1280 SA
ATOM     40 H35  CHE L   1      -5.170   3.209  -2.662  1.00  0.00    +0.0344  H
ATOM     41 H36  CHE L   1      -4.048   2.164  -1.772  1.00  0.00    +0.0344  H
ATOM     42 H37  CHE L   1      -5.385   2.975  -0.915  1.00  0.00    +0.0344  H
ENDBRANCH 25 39
ENDBRANCH 22 32
ENDBRANCH 18 22
ENDBRANCH 1 19
BRANCH 4 43
ATOM     43 C19  CHE L   1       3.326   0.911  -0.426  1.00  0.00    +0.0375  C
ATOM     44 C20  CHE L   1       3.974   1.072  -1.808  1.00  0.00    -0.0439  C
ATOM     45 H49  CHE L   1       3.562   1.867   0.062  1.00  0.00    +0.0529  H
ATOM     46 H50  CHE L   1       4.996   1.454  -1.710  1.00  0.00    +0.0250  H
ATOM     47 H51  CHE L   1       3.423   1.795  -2.420  1.00  0.00    +0.0250  H
ATOM     48 H52  CHE L   1       4.041   0.133  -2.361  1.00  0.00    +0.0250  H
BRANCH 43 49
ATOM     49 C21  CHE L   1       3.931  -0.205   0.473  1.00  0.00    +0.0130  C
ATOM     50 C22  CHE L   1       3.757  -1.635  -0.060  1.00  0.00    -0.0328  C
ATOM     51 C23  CHE L   1       4.396  -2.666   0.880  1.00  0.00    -0.0009  C
ATOM     52 N24  CHE L   1       5.809  -2.408   1.185  1.00  0.00    -0.3026 NA
ATOM     53 C25  CHE L   1       6.688  -2.726   0.062  1.00  0.00    -0.0127  C
ATOM     54 C26  CHE L   1       6.001  -1.034   1.672  1.00  0.00    +0.0301  C
ATOM     55 C27  CHE L   1       5.414   0.057   0.766  1.00  0.00    +0.1183  C
ATOM     56 F28  CHE L   1       5.525   1.257   1.402  1.00  0.00    -0.2438  F
ATOM     57 H53  CHE L   1       3.408  -0.156   1.439  1.00  0.00    +0.0349  H
ATOM     58 H54  CHE L   1       2.692  -1.873  -0.152  1.00  0.00    +0.0282  H
ATOM     59 H55  CHE L   1       4.197  -1.732  -1.058  1.00  0.00    +0.0282  H
ATOM     60 H56  CHE L   1       4.276  -3.673   0.460  1.00  0.00    +0.0427  H
ATOM     61 H57  CHE L   1       3.837  -2.676   1.825  1.00  0.00    +0.0427  H
ATOM     62 H58  CHE L   1       7.737  -2.591   0.349  1.00  0.00    +0.0391  H
ATOM     63 H59  CHE L   1       6.577  -3.779  -0.223  1.00  0.00    +0.0391  H
ATOM     64 H60  CHE L   1       6.498  -2.112  -0.824  1.00  0.00    +0.0391  H
ATOM     65 H61  CHE L   1       5.541  -0.949   2.666  1.00  0.00    +0.0455  H
ATOM     66 H62  CHE L   1       7.065  -0.831   1.846  1.00  0.00    +0.0455  H
ATOM     67 H63  CHE L   1       6.000   0.122  -0.156  1.00  0.00    +0.0667  H
ENDBRANCH 43 49
ENDBRANCH 4 43
TORSDOF 6
