ROOT
ATOM      1 C31  WH0 L   1      -0.545  -2.039   0.197  1.00  0.00    -0.0133  A
ATOM      2 C32  WH0 L   1      -0.193  -2.698  -1.003  1.00  0.00    -0.0519  A
ATOM      3 C33  WH0 L   1       0.049  -4.075  -1.022  1.00  0.00    -0.0374  A
ATOM      4 C34  WH0 L   1      -0.082  -4.754   0.170  1.00  0.00    +0.0454  A
ATOM      5 C35  WH0 L   1      -0.442  -4.123   1.358  1.00  0.00    -0.0145  A
ATOM      6 C36  WH0 L   1      -0.683  -2.762   1.392  1.00  0.00    -0.0483  A
ATOM      7 C37  WH0 L   1      -0.501  -5.138   2.461  1.00  0.00    +0.0535  C
ATOM      8 C38  WH0 L   1      -0.124  -6.431   1.729  1.00  0.00    +0.2296  C
ATOM      9 O39  WH0 L   1      -0.039  -7.545   2.218  1.00  0.00    -0.2725 OA
ATOM     10 N40  WH0 L   1       0.104  -6.107   0.397  1.00  0.00    -0.3256  N
ATOM     11 H62  WH0 L   1      -0.102  -2.133  -1.929  1.00  0.00    +0.0624  H
ATOM     12 H63  WH0 L   1       0.326  -4.579  -1.941  1.00  0.00    +0.0638  H
ATOM     13 H64  WH0 L   1      -0.970  -2.270   2.317  1.00  0.00    +0.0627  H
ATOM     14 H65  WH0 L   1      -1.512  -5.226   2.867  1.00  0.00    +0.0410  H
ATOM     15 H66  WH0 L   1       0.238  -4.925   3.238  1.00  0.00    +0.0410  H
ATOM     16 H67  WH0 L   1       0.369  -6.793  -0.294  1.00  0.00    +0.1686 HD
ENDROOT
BRANCH 1 24
ATOM     17 C10  WH0 L   1       1.287   0.436   1.378  1.00  0.00    -0.0014  A
ATOM     18 C11  WH0 L   1       1.657   1.665   1.802  1.00  0.00    +0.0366  A
ATOM     19 N12  WH0 L   1       0.983   2.845   1.609  1.00  0.00    -0.2204 NA
ATOM     20 C13  WH0 L   1      -0.140   2.828   0.929  1.00  0.00    +0.2284  A
ATOM     21 N20  WH0 L   1      -0.620   1.563   0.470  1.00  0.00    -0.1984  N
ATOM     22 N21  WH0 L   1      -1.779   1.413  -0.215  1.00  0.00    -0.1627 NA
ATOM     23 C22  WH0 L   1      -1.913   0.092  -0.391  1.00  0.00    +0.1015  A
ATOM     24 C30  WH0 L   1      -0.808  -0.614   0.179  1.00  0.00    +0.0356  A
ATOM     25 C41  WH0 L   1       0.026   0.361   0.701  1.00  0.00    +0.0835  A
ATOM     26 H49  WH0 L   1       2.596   1.793   2.339  1.00  0.00    +0.0834  H
BRANCH 17 27
ATOM     27  C9  WH0 L   1       2.224  -0.726   1.665  1.00  0.00    -0.0067  C
ATOM     28 H47  WH0 L   1       1.652  -1.553   2.096  1.00  0.00    +0.0331  H
ATOM     29 H48  WH0 L   1       2.953  -0.450   2.440  1.00  0.00    +0.0331  H
BRANCH 27 30
ATOM     30  C8  WH0 L   1       2.985  -1.213   0.429  1.00  0.00    +0.0225  C
ATOM     31 H45  WH0 L   1       2.313  -1.421  -0.408  1.00  0.00    +0.0489  H
ATOM     32 H46  WH0 L   1       3.504  -2.148   0.672  1.00  0.00    +0.0489  H
BRANCH 30 35
ATOM     33  C5  WH0 L   1       4.980  -0.653  -0.894  1.00  0.00    +0.2618  C
ATOM     34  O6  WH0 L   1       5.161  -1.832  -1.190  1.00  0.00    -0.2669 OA
ATOM     35  N7  WH0 L   1       3.968  -0.252  -0.048  1.00  0.00    -0.3511  N
ATOM     36 H44  WH0 L   1       3.721   0.730   0.013  1.00  0.00    +0.1627 HD
BRANCH 33 38
ATOM     37  C1  WH0 L   1       6.805   0.098  -2.335  1.00  0.00    -0.0760  C
ATOM     38  C2  WH0 L   1       5.848   0.434  -1.452  1.00  0.00    +0.1085  C
ATOM     39 H42  WH0 L   1       7.468   0.840  -2.770  1.00  0.00    +0.0549  H
ATOM     40 H43  WH0 L   1       6.954  -0.933  -2.645  1.00  0.00    +0.0549  H
BRANCH 38 41
ATOM     41  C3  WH0 L   1       5.675   1.786  -1.054  1.00  0.00    +0.1040  C
ATOM     42  N4  WH0 L   1       5.508   2.884  -0.718  1.00  0.00    -0.1907 NA
ENDBRANCH 38 41
ENDBRANCH 33 38
ENDBRANCH 30 35
ENDBRANCH 27 30
ENDBRANCH 17 27
BRANCH 20 43
ATOM     43 N14  WH0 L   1      -0.827   4.022   0.699  1.00  0.00    -0.3359  N
ATOM     44 C15  WH0 L   1      -0.459   5.238   1.441  1.00  0.00    +0.0449  C
ATOM     45 C16  WH0 L   1      -1.672   6.172   1.551  1.00  0.00    +0.0653  C
ATOM     46 O17  WH0 L   1      -2.197   6.598   0.286  1.00  0.00    -0.3763 OA
ATOM     47 C18  WH0 L   1      -1.887   5.699  -0.785  1.00  0.00    +0.0653  C
ATOM     48 C19  WH0 L   1      -1.825   4.222  -0.360  1.00  0.00    +0.0449  C
ATOM     49 H50  WH0 L   1       0.362   5.740   0.915  1.00  0.00    +0.0511  H
ATOM     50 H51  WH0 L   1      -0.121   4.992   2.454  1.00  0.00    +0.0511  H
ATOM     51 H52  WH0 L   1      -2.485   5.674   2.093  1.00  0.00    +0.0577  H
ATOM     52 H53  WH0 L   1      -1.407   7.071   2.116  1.00  0.00    +0.0577  H
ATOM     53 H54  WH0 L   1      -0.928   6.012  -1.216  1.00  0.00    +0.0577  H
ATOM     54 H55  WH0 L   1      -2.649   5.835  -1.559  1.00  0.00    +0.0577  H
ATOM     55 H56  WH0 L   1      -2.806   3.910   0.014  1.00  0.00    +0.0511  H
ATOM     56 H57  WH0 L   1      -1.569   3.643  -1.253  1.00  0.00    +0.0511  H
ENDBRANCH 20 43
BRANCH 23 57
ATOM     57 C23  WH0 L   1      -3.079  -0.438  -1.102  1.00  0.00    +0.0029  A
ATOM     58 C24  WH0 L   1      -3.552   0.218  -2.252  1.00  0.00    -0.0498  A
ATOM     59 C25  WH0 L   1      -4.658  -0.276  -2.947  1.00  0.00    -0.0258  A
ATOM     60 C26  WH0 L   1      -5.297  -1.421  -2.491  1.00  0.00    +0.1234  A
ATOM     61 F27  WH0 L   1      -6.358  -1.896  -3.156  1.00  0.00    -0.2055  F
ATOM     62 C28  WH0 L   1      -4.854  -2.080  -1.350  1.00  0.00    -0.0258  A
ATOM     63 C29  WH0 L   1      -3.748  -1.587  -0.653  1.00  0.00    -0.0498  A
ATOM     64 H58  WH0 L   1      -3.056   1.118  -2.610  1.00  0.00    +0.0625  H
ATOM     65 H59  WH0 L   1      -5.024   0.228  -3.836  1.00  0.00    +0.0646  H
ATOM     66 H60  WH0 L   1      -5.376  -2.968  -1.006  1.00  0.00    +0.0646  H
ATOM     67 H61  WH0 L   1      -3.429  -2.103   0.250  1.00  0.00    +0.0625  H
ENDBRANCH 23 57
ENDBRANCH 1 24
TORSDOF 8
