ROOT
ATOM      1  C1  245 L   1       6.692   0.590  -1.002  1.00  0.00    -0.0396  C
ATOM      2  C2  245 L   1       5.436   0.514  -0.184  1.00  0.00    -0.0483  A
ATOM      3  C3  245 L   1       5.433   0.954   1.149  1.00  0.00    -0.0568  A
ATOM      4  C4  245 L   1       4.272   0.924   1.933  1.00  0.00    -0.0360  A
ATOM      5  C5  245 L   1       3.115   0.444   1.320  1.00  0.00    +0.0662  A
ATOM      6  N6  245 L   1       1.831   0.276   1.770  1.00  0.00    -0.3415  N
ATOM      7  C7  245 L   1       1.074  -0.234   0.741  1.00  0.00    +0.1125  A
ATOM      8 N20  245 L   1       1.809  -0.400  -0.340  1.00  0.00    -0.2322 NA
ATOM      9 C21  245 L   1       3.074   0.013   0.001  1.00  0.00    +0.0894  A
ATOM     10 C22  245 L   1       4.245   0.050  -0.770  1.00  0.00    -0.0313  A
ATOM     11 H23  245 L   1       6.755   1.563  -1.500  1.00  0.00    +0.0278  H
ATOM     12 H24  245 L   1       6.711  -0.198  -1.762  1.00  0.00    +0.0278  H
ATOM     13 H25  245 L   1       7.578   0.455  -0.373  1.00  0.00    +0.0278  H
ATOM     14 H26  245 L   1       6.353   1.330   1.594  1.00  0.00    +0.0621  H
ATOM     15 H27  245 L   1       4.282   1.262   2.964  1.00  0.00    +0.0639  H
ATOM     16 H28  245 L   1       1.499   0.485   2.699  1.00  0.00    +0.1671 HD
ATOM     17 H44  245 L   1       4.212  -0.282  -1.802  1.00  0.00    +0.0642  H
ENDROOT
BRANCH 7 18
ATOM     18  C8  245 L   1      -0.385  -0.538   0.902  1.00  0.00    +0.0299  C
ATOM     19  C9  245 L   1      -0.590  -1.865   1.648  1.00  0.00    -0.0410  C
ATOM     20 C10  245 L   1      -1.920  -2.528   1.291  1.00  0.00    -0.0395  C
ATOM     21 C11  245 L   1      -2.971  -1.498   0.875  1.00  0.00    -0.0003  C
ATOM     22 N12  245 L   1      -2.586  -0.751  -0.335  1.00  0.00    -0.2906 NA
ATOM     23 C19  245 L   1      -1.120  -0.569  -0.452  1.00  0.00    +0.0093  C
ATOM     24 H29  245 L   1      -0.825   0.273   1.501  1.00  0.00    +0.0391  H
ATOM     25 H30  245 L   1       0.221  -2.575   1.443  1.00  0.00    +0.0273  H
ATOM     26 H31  245 L   1      -0.554  -1.671   2.728  1.00  0.00    +0.0273  H
ATOM     27 H32  245 L   1      -1.765  -3.242   0.472  1.00  0.00    +0.0278  H
ATOM     28 H33  245 L   1      -2.281  -3.112   2.145  1.00  0.00    +0.0278  H
ATOM     29 H34  245 L   1      -3.138  -0.817   1.720  1.00  0.00    +0.0427  H
ATOM     30 H35  245 L   1      -3.906  -2.035   0.683  1.00  0.00    +0.0427  H
ATOM     31 H42  245 L   1      -0.736  -1.407  -1.051  1.00  0.00    +0.0434  H
ATOM     32 H43  245 L   1      -0.868   0.327  -1.032  1.00  0.00    +0.0434  H
BRANCH 22 33
ATOM     33 C13  245 L   1      -3.324   0.523  -0.487  1.00  0.00    +0.0910  C
ATOM     34 C14  245 L   1      -3.210   1.081  -1.921  1.00  0.00    -0.0111  C
ATOM     35 C15  245 L   1      -4.484   1.876  -2.113  1.00  0.00    +0.0200  C
ATOM     36 N16  245 L   1      -5.447   1.142  -1.358  1.00  0.00    -0.3546  N
ATOM     37 C17  245 L   1      -4.856   0.414  -0.339  1.00  0.00    +0.2383  C
ATOM     38 O18  245 L   1      -5.494  -0.128   0.550  1.00  0.00    -0.2715 OA
ATOM     39 H36  245 L   1      -2.986   1.270   0.243  1.00  0.00    +0.0561  H
ATOM     40 H37  245 L   1      -3.182   0.260  -2.651  1.00  0.00    +0.0302  H
ATOM     41 H38  245 L   1      -2.319   1.696  -2.075  1.00  0.00    +0.0302  H
ATOM     42 H39  245 L   1      -4.795   1.941  -3.158  1.00  0.00    +0.0487  H
ATOM     43 H40  245 L   1      -4.405   2.881  -1.686  1.00  0.00    +0.0487  H
ATOM     44 H41  245 L   1      -6.445   1.308  -1.344  1.00  0.00    +0.1623 HD
ENDBRANCH 22 33
ENDBRANCH 7 18
TORSDOF 2
