ROOT
ATOM      1 C21  WH0 L   1       0.051  -0.539  -1.298  1.00  0.00    +0.1689  A
ATOM      2 N22  WH0 L   1       0.389  -1.104  -2.475  1.00  0.00    -0.1289 NA
ATOM      3 N23  WH0 L   1      -0.421  -2.139  -2.656  1.00  0.00    -0.1321 NA
ATOM      4 C24  WH0 L   1      -1.240  -2.182  -1.589  1.00  0.00    +0.1540  A
ATOM      5 N25  WH0 L   1      -0.976  -1.197  -0.720  1.00  0.00    -0.2971  N
ATOM      6 C26  WH0 L   1      -1.785  -0.855   0.452  1.00  0.00    +0.1160  C
ATOM      7 C31  WH0 L   1      -2.532  -2.087   0.902  1.00  0.00    +0.2469  C
ATOM      8 O32  WH0 L   1      -2.817  -2.221   2.123  1.00  0.00    -0.2707 OA
ATOM      9 N33  WH0 L   1      -2.929  -3.101  -0.053  1.00  0.00    -0.3335  N
ATOM     10 C36  WH0 L   1      -2.381  -3.135  -1.422  1.00  0.00    +0.0811  C
ATOM     11 H57  WH0 L   1      -1.110  -0.530   1.267  1.00  0.00    +0.0627  H
ATOM     12 H72  WH0 L   1      -3.182  -2.869  -2.145  1.00  0.00    +0.0569  H
ATOM     13 H73  WH0 L   1      -2.018  -4.160  -1.653  1.00  0.00    +0.0569  H
ENDROOT
BRANCH 1 19
ATOM     14  C9  WH0 L   1       1.321   0.774   0.438  1.00  0.00    -0.0294  A
ATOM     15 C10  WH0 L   1       1.762   2.015   0.919  1.00  0.00    -0.0122  A
ATOM     16 C11  WH0 L   1       1.563   3.199   0.187  1.00  0.00    +0.1655  A
ATOM     17 C14  WH0 L   1       0.923   3.132  -1.074  1.00  0.00    +0.2042  A
ATOM     18 C17  WH0 L   1       0.471   1.891  -1.555  1.00  0.00    +0.1761  A
ATOM     19 C20  WH0 L   1       0.637   0.719  -0.796  1.00  0.00    +0.0679  A
ATOM     20 H47  WH0 L   1       2.283   2.044   1.867  1.00  0.00    +0.0658  H
BRANCH 14 21
ATOM     21  C8  WH0 L   1       1.698  -0.472   1.218  1.00  0.00    -0.0252  C
ATOM     22 H45  WH0 L   1       1.065  -1.343   0.961  1.00  0.00    +0.0314  H
ATOM     23 H46  WH0 L   1       1.530  -0.281   2.301  1.00  0.00    +0.0314  H
BRANCH 21 24
ATOM     24  C7  WH0 L   1       3.170  -0.856   1.010  1.00  0.00    -0.0315  C
ATOM     25 H43  WH0 L   1       3.413  -1.681   1.714  1.00  0.00    +0.0285  H
ATOM     26 H44  WH0 L   1       3.828   0.004   1.260  1.00  0.00    +0.0285  H
BRANCH 24 27
ATOM     27  C6  WH0 L   1       3.451  -1.317  -0.427  1.00  0.00    +0.0187  C
ATOM     28 H41  WH0 L   1       3.292  -0.465  -1.123  1.00  0.00    +0.0486  H
ATOM     29 H42  WH0 L   1       2.755  -2.132  -0.721  1.00  0.00    +0.0486  H
BRANCH 27 32
ATOM     30  C3  WH0 L   1       5.268  -3.050  -0.056  1.00  0.00    +0.2443  C
ATOM     31  O4  WH0 L   1       4.439  -3.845   0.465  1.00  0.00    -0.2683 OA
ATOM     32  N5  WH0 L   1       4.832  -1.777  -0.553  1.00  0.00    -0.3525  N
ATOM     33 H40  WH0 L   1       5.511  -1.174  -1.072  1.00  0.00    +0.1626 HD
BRANCH 30 35
ATOM     34  C1  WH0 L   1       7.161  -4.590   0.278  1.00  0.00    -0.0936  C
ATOM     35  C2  WH0 L   1       6.689  -3.429  -0.171  1.00  0.00    -0.0047  C
ATOM     36 H37  WH0 L   1       6.517  -5.317   0.757  1.00  0.00    +0.0536  H
ATOM     37 H38  WH0 L   1       8.213  -4.824   0.169  1.00  0.00    +0.0536  H
ATOM     38 H39  WH0 L   1       7.377  -2.736  -0.640  1.00  0.00    +0.0666  H
ENDBRANCH 30 35
ENDBRANCH 27 32
ENDBRANCH 24 27
ENDBRANCH 21 24
ENDBRANCH 14 21
BRANCH 16 39
ATOM     39 O12  WH0 L   1       2.008   4.435   0.684  1.00  0.00    -0.4913 OA
ATOM     40 C13  WH0 L   1       2.662   4.627   1.935  1.00  0.00    +0.0790  C
ATOM     41 H48  WH0 L   1       2.890   5.705   2.061  1.00  0.00    +0.0660  H
ATOM     42 H49  WH0 L   1       2.002   4.302   2.767  1.00  0.00    +0.0660  H
ATOM     43 H50  WH0 L   1       3.618   4.061   1.957  1.00  0.00    +0.0660  H
ENDBRANCH 16 39
BRANCH 17 44
ATOM     44 O15  WH0 L   1       0.714   4.249  -1.906  1.00  0.00    -0.4885 OA
ATOM     45 C16  WH0 L   1       1.052   5.602  -1.613  1.00  0.00    +0.0791  C
ATOM     46 H51  WH0 L   1       0.521   5.944  -0.699  1.00  0.00    +0.0660  H
ATOM     47 H52  WH0 L   1       2.152   5.706  -1.499  1.00  0.00    +0.0660  H
ATOM     48 H53  WH0 L   1       0.729   6.242  -2.460  1.00  0.00    +0.0660  H
ENDBRANCH 17 44
BRANCH 18 49
ATOM     49 O18  WH0 L   1      -0.123   1.819  -2.820  1.00  0.00    -0.4906 OA
ATOM     50 C19  WH0 L   1      -1.458   2.254  -3.060  1.00  0.00    +0.0790  C
ATOM     51 H54  WH0 L   1      -1.629   3.262  -2.626  1.00  0.00    +0.0660  H
ATOM     52 H55  WH0 L   1      -1.633   2.299  -4.155  1.00  0.00    +0.0660  H
ATOM     53 H56  WH0 L   1      -2.173   1.529  -2.620  1.00  0.00    +0.0660  H
ENDBRANCH 18 49
ENDBRANCH 1 19
BRANCH 6 54
ATOM     54 C27  WH0 L   1      -2.757   0.290   0.097  1.00  0.00    -0.0209  C
ATOM     55 H58  WH0 L   1      -2.169   1.137  -0.313  1.00  0.00    +0.0292  H
ATOM     56 H59  WH0 L   1      -3.437  -0.064  -0.711  1.00  0.00    +0.0292  H
BRANCH 54 57
ATOM     57 C28  WH0 L   1      -3.599   0.819   1.283  1.00  0.00    -0.0444  C
ATOM     58 C29  WH0 L   1      -2.722   1.475   2.361  1.00  0.00    -0.0626  C
ATOM     59 C30  WH0 L   1      -4.633   1.829   0.771  1.00  0.00    -0.0626  C
ATOM     60 H60  WH0 L   1      -4.160  -0.021   1.745  1.00  0.00    +0.0296  H
ATOM     61 H61  WH0 L   1      -2.103   0.714   2.879  1.00  0.00    +0.0232  H
ATOM     62 H62  WH0 L   1      -2.054   2.243   1.914  1.00  0.00    +0.0232  H
ATOM     63 H63  WH0 L   1      -3.357   1.963   3.132  1.00  0.00    +0.0232  H
ATOM     64 H64  WH0 L   1      -4.130   2.700   0.298  1.00  0.00    +0.0232  H
ATOM     65 H65  WH0 L   1      -5.301   1.349   0.024  1.00  0.00    +0.0232  H
ATOM     66 H66  WH0 L   1      -5.264   2.192   1.610  1.00  0.00    +0.0232  H
ENDBRANCH 54 57
ENDBRANCH 6 54
BRANCH 9 67
ATOM     67 C34  WH0 L   1      -3.930  -4.106   0.321  1.00  0.00    +0.0188  C
ATOM     68 C35  WH0 L   1      -5.316  -3.474   0.410  1.00  0.00    -0.0474  C
ATOM     69 H67  WH0 L   1      -3.658  -4.572   1.293  1.00  0.00    +0.0486  H
ATOM     70 H68  WH0 L   1      -3.966  -4.921  -0.436  1.00  0.00    +0.0486  H
ATOM     71 H69  WH0 L   1      -5.579  -2.999  -0.560  1.00  0.00    +0.0247  H
ATOM     72 H70  WH0 L   1      -6.069  -4.256   0.643  1.00  0.00    +0.0247  H
ATOM     73 H71  WH0 L   1      -5.343  -2.704   1.210  1.00  0.00    +0.0247  H
ENDBRANCH 9 67
TORSDOF 12
