ROOT
ATOM      1  C3  CHE L   1       1.723  -1.380  -0.065  1.00  0.00    +0.1623  A
ATOM      2  C4  CHE L   1       0.371  -1.385  -0.408  1.00  0.00    -0.0036  A
ATOM      3  C5  CHE L   1      -0.529  -0.466   0.184  1.00  0.00    +0.0461  A
ATOM      4  C6  CHE L   1      -1.907  -0.389  -0.102  1.00  0.00    +0.1391  A
ATOM      5 N15  CHE L   1      -2.695   0.540   0.458  1.00  0.00    -0.2071 NA
ATOM      6 C16  CHE L   1      -2.122   1.369   1.344  1.00  0.00    +0.1982  A
ATOM      7 N23  CHE L   1      -0.833   1.358   1.711  1.00  0.00    -0.2244 NA
ATOM      8 C24  CHE L   1      -0.049   0.453   1.125  1.00  0.00    +0.0807  A
ATOM      9 C25  CHE L   1       1.298   0.427   1.471  1.00  0.00    +0.0099  A
ATOM     10 C26  CHE L   1       2.195  -0.476   0.892  1.00  0.00    +0.1639  A
ATOM     11 H39  CHE L   1       0.005  -2.103  -1.135  1.00  0.00    +0.0663  H
ATOM     12 H58  CHE L   1       1.628   1.142   2.218  1.00  0.00    +0.0677  H
ENDROOT
BRANCH 1 14
ATOM     13  C1  CHE L   1       2.558  -2.348  -2.021  1.00  0.00    +0.0790  C
ATOM     14  O2  CHE L   1       2.607  -2.283  -0.598  1.00  0.00    -0.4914 OA
ATOM     15 H36  CHE L   1       3.498  -2.789  -2.367  1.00  0.00    +0.0660  H
ATOM     16 H37  CHE L   1       2.465  -1.355  -2.475  1.00  0.00    +0.0660  H
ATOM     17 H38  CHE L   1       1.743  -3.002  -2.348  1.00  0.00    +0.0660  H
ENDBRANCH 1 14
BRANCH 4 18
ATOM     18  N7  CHE L   1      -2.467  -1.283  -1.036  1.00  0.00    -0.3663  N
ATOM     19 H40  CHE L   1      -2.216  -2.237  -0.787  1.00  0.00    +0.1613 HD
BRANCH 18 20
ATOM     20  C8  CHE L   1      -3.904  -1.157  -1.317  1.00  0.00    +0.0308  C
ATOM     21  C9  CHE L   1      -4.187  -1.833  -2.662  1.00  0.00    -0.0198  C
ATOM     22 C10  CHE L   1      -5.683  -1.823  -2.969  1.00  0.00    +0.0005  C
ATOM     23 N11  CHE L   1      -6.442  -2.478  -1.896  1.00  0.00    -0.3052 NA
ATOM     24 C12  CHE L   1      -7.868  -2.511  -2.224  1.00  0.00    -0.0128  C
ATOM     25 C13  CHE L   1      -6.226  -1.811  -0.605  1.00  0.00    +0.0005  C
ATOM     26 C14  CHE L   1      -4.747  -1.821  -0.224  1.00  0.00    -0.0198  C
ATOM     27 H41  CHE L   1      -4.185  -0.100  -1.418  1.00  0.00    +0.0523  H
ATOM     28 H42  CHE L   1      -3.644  -1.317  -3.463  1.00  0.00    +0.0297  H
ATOM     29 H43  CHE L   1      -3.819  -2.868  -2.653  1.00  0.00    +0.0297  H
ATOM     30 H44  CHE L   1      -6.024  -0.790  -3.119  1.00  0.00    +0.0427  H
ATOM     31 H45  CHE L   1      -5.841  -2.358  -3.914  1.00  0.00    +0.0427  H
ATOM     32 H46  CHE L   1      -8.429  -3.048  -1.450  1.00  0.00    +0.0391  H
ATOM     33 H47  CHE L   1      -8.294  -1.505  -2.324  1.00  0.00    +0.0391  H
ATOM     34 H48  CHE L   1      -8.035  -3.051  -3.162  1.00  0.00    +0.0391  H
ATOM     35 H49  CHE L   1      -6.784  -2.337   0.180  1.00  0.00    +0.0427  H
ATOM     36 H50  CHE L   1      -6.596  -0.777  -0.631  1.00  0.00    +0.0427  H
ATOM     37 H51  CHE L   1      -4.620  -1.306   0.735  1.00  0.00    +0.0297  H
ATOM     38 H52  CHE L   1      -4.415  -2.856  -0.064  1.00  0.00    +0.0297  H
ENDBRANCH 18 20
ENDBRANCH 4 18
BRANCH 6 39
ATOM     39 C17  CHE L   1      -3.002   2.354   1.958  1.00  0.00    +0.1720  A
ATOM     40 C18  CHE L   1      -4.341   2.661   1.800  1.00  0.00    -0.0125  A
ATOM     41 C19  CHE L   1      -4.627   3.725   2.690  1.00  0.00    -0.0203  A
ATOM     42 C20  CHE L   1      -3.448   4.008   3.342  1.00  0.00    +0.1028  A
ATOM     43 C21  CHE L   1      -3.066   4.987   4.379  1.00  0.00    -0.0063  C
ATOM     44 O22  CHE L   1      -2.458   3.181   2.904  1.00  0.00    -0.4568 OA
ATOM     45 H53  CHE L   1      -5.020   2.167   1.119  1.00  0.00    +0.0656  H
ATOM     46 H54  CHE L   1      -5.575   4.223   2.838  1.00  0.00    +0.0652  H
ATOM     47 H55  CHE L   1      -2.250   5.624   4.023  1.00  0.00    +0.0308  H
ATOM     48 H56  CHE L   1      -3.911   5.631   4.641  1.00  0.00    +0.0308  H
ATOM     49 H57  CHE L   1      -2.734   4.473   5.286  1.00  0.00    +0.0308  H
ENDBRANCH 6 39
BRANCH 10 50
ATOM     50 O27  CHE L   1       3.530  -0.551   1.188  1.00  0.00    -0.4882 OA
BRANCH 50 51
ATOM     51 C28  CHE L   1       4.099   0.497   1.973  1.00  0.00    +0.0909  C
ATOM     52 H59  CHE L   1       3.837   1.484   1.576  1.00  0.00    +0.0697  H
ATOM     53 H60  CHE L   1       3.720   0.403   2.999  1.00  0.00    +0.0697  H
BRANCH 51 54
ATOM     54 C29  CHE L   1       5.618   0.324   2.003  1.00  0.00    -0.0058  C
ATOM     55 H61  CHE L   1       5.879  -0.740   2.021  1.00  0.00    +0.0310  H
ATOM     56 H62  CHE L   1       5.996   0.761   2.935  1.00  0.00    +0.0310  H
BRANCH 54 57
ATOM     57 C30  CHE L   1       6.350   1.031   0.848  1.00  0.00    +0.0020  C
ATOM     58 H63  CHE L   1       6.239   2.110   1.018  1.00  0.00    +0.0428  H
ATOM     59 H64  CHE L   1       7.422   0.817   0.937  1.00  0.00    +0.0428  H
BRANCH 57 60
ATOM     60 N31  CHE L   1       5.850   0.730  -0.500  1.00  0.00    -0.3022 NA
ATOM     61 C32  CHE L   1       6.558   1.512  -1.525  1.00  0.00    -0.0011  C
ATOM     62 C33  CHE L   1       7.802   0.711  -1.880  1.00  0.00    -0.0390  C
ATOM     63 C34  CHE L   1       7.490  -0.718  -1.456  1.00  0.00    -0.0390  C
ATOM     64 C35  CHE L   1       6.072  -0.665  -0.906  1.00  0.00    -0.0011  C
ATOM     65 H65  CHE L   1       5.911   1.592  -2.408  1.00  0.00    +0.0426  H
ATOM     66 H66  CHE L   1       6.793   2.536  -1.215  1.00  0.00    +0.0426  H
ATOM     67 H67  CHE L   1       8.026   0.774  -2.950  1.00  0.00    +0.0278  H
ATOM     68 H68  CHE L   1       8.675   1.080  -1.331  1.00  0.00    +0.0278  H
ATOM     69 H69  CHE L   1       8.195  -1.039  -0.681  1.00  0.00    +0.0278  H
ATOM     70 H70  CHE L   1       7.570  -1.416  -2.294  1.00  0.00    +0.0278  H
ATOM     71 H71  CHE L   1       5.364  -0.905  -1.709  1.00  0.00    +0.0426  H
ATOM     72 H72  CHE L   1       5.906  -1.404  -0.117  1.00  0.00    +0.0426  H
ENDBRANCH 57 60
ENDBRANCH 54 57
ENDBRANCH 51 54
ENDBRANCH 50 51
ENDBRANCH 10 50
TORSDOF 9
