ROOT
ATOM      1  C9  CHE L   1      -3.661  -0.769  -0.275  1.00  0.00    +0.0948  A
ATOM      2 C10  CHE L   1      -2.959  -1.805  -0.853  1.00  0.00    +0.0387  A
ATOM      3 N11  CHE L   1      -1.681  -1.672  -0.379  1.00  0.00    -0.2902  N
ATOM      4 C12  CHE L   1      -0.564  -2.455  -0.603  1.00  0.00    +0.0161  A
ATOM      5 C13  CHE L   1       0.591  -2.124  -0.010  1.00  0.00    -0.0028  A
ATOM      6 C14  CHE L   1       0.587  -0.896   0.875  1.00  0.00    +0.1348  A
ATOM      7 N28  CHE L   1      -0.493  -0.168   1.052  1.00  0.00    -0.1947 NA
ATOM      8 C29  CHE L   1      -1.645  -0.549   0.437  1.00  0.00    +0.2372  A
ATOM      9 N30  CHE L   1      -2.837   0.011   0.495  1.00  0.00    -0.2102 NA
ATOM     10 H42  CHE L   1      -3.250  -2.610  -1.510  1.00  0.00    +0.0835  H
ATOM     11 H43  CHE L   1      -0.672  -3.313  -1.254  1.00  0.00    +0.0815  H
ATOM     12 H44  CHE L   1       1.498  -2.693  -0.144  1.00  0.00    +0.0669  H
ENDROOT
BRANCH 1 16
ATOM     13  C3  CHE L   1      -7.821   0.039  -0.850  1.00  0.00    +0.1409  A
ATOM     14  C4  CHE L   1      -7.302  -0.089   0.441  1.00  0.00    +0.0237  A
ATOM     15  C5  CHE L   1      -5.938  -0.336   0.633  1.00  0.00    +0.1328  A
ATOM     16  C8  CHE L   1      -5.073  -0.502  -0.458  1.00  0.00    +0.0450  A
ATOM     17 C31  CHE L   1      -5.595  -0.376  -1.750  1.00  0.00    -0.0280  A
ATOM     18 C32  CHE L   1      -6.957  -0.101  -1.949  1.00  0.00    +0.0941  A
ATOM     19 H38  CHE L   1      -7.929  -0.004   1.324  1.00  0.00    +0.0691  H
ATOM     20 H62  CHE L   1      -4.933  -0.473  -2.612  1.00  0.00    +0.0639  H
BRANCH 13 22
ATOM     21  C1  CHE L   1     -10.041   0.395  -0.046  1.00  0.00    +0.0788  C
ATOM     22  O2  CHE L   1      -9.136   0.300  -1.135  1.00  0.00    -0.4937 OA
ATOM     23 H35  CHE L   1     -11.038   0.586  -0.456  1.00  0.00    +0.0660  H
ATOM     24 H36  CHE L   1     -10.085  -0.543   0.515  1.00  0.00    +0.0660  H
ATOM     25 H37  CHE L   1      -9.783   1.235   0.606  1.00  0.00    +0.0660  H
ENDBRANCH 13 22
BRANCH 15 26
ATOM     26  O6  CHE L   1      -5.497  -0.508   1.923  1.00  0.00    -0.4943 OA
ATOM     27  C7  CHE L   1      -5.198   0.761   2.515  1.00  0.00    +0.0788  C
ATOM     28 H39  CHE L   1      -4.617   0.580   3.425  1.00  0.00    +0.0660  H
ATOM     29 H40  CHE L   1      -6.122   1.274   2.792  1.00  0.00    +0.0660  H
ATOM     30 H41  CHE L   1      -4.606   1.406   1.859  1.00  0.00    +0.0660  H
ENDBRANCH 15 26
BRANCH 18 31
ATOM     31 C33  CHE L   1      -7.438   0.037  -3.294  1.00  0.00    +0.1028  C
ATOM     32 N34  CHE L   1      -7.780   0.144  -4.398  1.00  0.00    -0.1907 NA
ENDBRANCH 18 31
ENDBRANCH 1 16
BRANCH 6 33
ATOM     33 N15  CHE L   1       1.743  -0.505   1.529  1.00  0.00    -0.3537  N
ATOM     34 C16  CHE L   1       1.755   0.616   2.472  1.00  0.00    +0.0220  C
ATOM     35 C17  CHE L   1       3.055   0.459   3.254  1.00  0.00    -0.0131  C
ATOM     36 C18  CHE L   1       3.973  -0.270   2.286  1.00  0.00    +0.0519  C
ATOM     37 C27  CHE L   1       3.008  -1.232   1.571  1.00  0.00    +0.0404  C
ATOM     38 H45  CHE L   1       0.902   0.592   3.159  1.00  0.00    +0.0489  H
ATOM     39 H46  CHE L   1       1.738   1.563   1.918  1.00  0.00    +0.0489  H
ATOM     40 H47  CHE L   1       2.872  -0.174   4.131  1.00  0.00    +0.0303  H
ATOM     41 H48  CHE L   1       3.447   1.417   3.604  1.00  0.00    +0.0303  H
ATOM     42 H49  CHE L   1       4.755  -0.826   2.816  1.00  0.00    +0.0542  H
ATOM     43 H60  CHE L   1       3.365  -1.492   0.570  1.00  0.00    +0.0508  H
ATOM     44 H61  CHE L   1       2.878  -2.148   2.157  1.00  0.00    +0.0508  H
BRANCH 36 45
ATOM     45 N19  CHE L   1       4.621   0.651   1.365  1.00  0.00    -0.3173  N
ATOM     46 C20  CHE L   1       5.707   0.273   0.639  1.00  0.00    +0.4095  C
ATOM     47 O21  CHE L   1       6.318  -0.771   0.803  1.00  0.00    -0.2237 OA
ATOM     48 H50  CHE L   1       4.099   1.422   0.966  1.00  0.00    +0.1660 HD
BRANCH 46 49
ATOM     49 O22  CHE L   1       5.969   1.228  -0.279  1.00  0.00    -0.4430 OA
BRANCH 49 50
ATOM     50 C23  CHE L   1       7.107   1.099  -1.170  1.00  0.00    +0.1070  C
ATOM     51 C24  CHE L   1       8.425   1.054  -0.391  1.00  0.00    -0.0253  C
ATOM     52 C25  CHE L   1       6.947  -0.108  -2.099  1.00  0.00    -0.0253  C
ATOM     53 C26  CHE L   1       7.086   2.378  -2.020  1.00  0.00    -0.0253  C
ATOM     54 H51  CHE L   1       8.528   0.129   0.181  1.00  0.00    +0.0268  H
ATOM     55 H52  CHE L   1       9.288   1.124  -1.062  1.00  0.00    +0.0268  H
ATOM     56 H53  CHE L   1       8.478   1.876   0.329  1.00  0.00    +0.0268  H
ATOM     57 H54  CHE L   1       7.018  -1.056  -1.557  1.00  0.00    +0.0268  H
ATOM     58 H55  CHE L   1       7.716  -0.117  -2.876  1.00  0.00    +0.0268  H
ATOM     59 H56  CHE L   1       5.963  -0.098  -2.581  1.00  0.00    +0.0268  H
ATOM     60 H57  CHE L   1       6.147   2.460  -2.579  1.00  0.00    +0.0268  H
ATOM     61 H58  CHE L   1       7.918   2.407  -2.733  1.00  0.00    +0.0268  H
ATOM     62 H59  CHE L   1       7.145   3.267  -1.383  1.00  0.00    +0.0268  H
ENDBRANCH 49 50
ENDBRANCH 46 49
ENDBRANCH 36 45
ENDBRANCH 6 33
TORSDOF 8
