ROOT
ATOM      1  C3  961 L   1      -1.863   1.458   0.798  1.00  0.00    +0.0658  C
ATOM      2  C4  961 L   1      -2.151   0.635   2.054  1.00  0.00    -0.0085  C
ATOM      3  C5  961 L   1      -2.332  -0.857   1.799  1.00  0.00    +0.0238  C
ATOM      4  N6  961 L   1      -2.529  -1.187   0.390  1.00  0.00    -0.3378  N
ATOM      5  C7  961 L   1      -3.375  -2.254   0.090  1.00  0.00    +0.2207  C
ATOM      6  C8  961 L   1      -3.522  -2.629  -1.364  1.00  0.00    +0.0145  C
ATOM      7  O9  961 L   1      -4.001  -2.871   0.951  1.00  0.00    -0.2733 OA
ATOM      8 C10  961 L   1      -1.518  -0.684  -0.554  1.00  0.00    +0.0515  C
ATOM      9 C11  961 L   1      -0.255  -1.573  -0.612  1.00  0.00    +0.0202  C
ATOM     10 N12  961 L   1       0.868  -0.627  -0.629  1.00  0.00    -0.2957 NA
ATOM     11 C20  961 L   1       0.453   0.463   0.264  1.00  0.00    +0.0064  C
ATOM     12 C21  961 L   1      -0.981   0.709  -0.196  1.00  0.00    +0.0198  C
ATOM     13 H25  961 L   1      -2.827   1.680   0.321  1.00  0.00    +0.0600  H
ATOM     14 H26  961 L   1      -3.059   1.037   2.522  1.00  0.00    +0.0307  H
ATOM     15 H27  961 L   1      -1.369   0.781   2.811  1.00  0.00    +0.0307  H
ATOM     16 H28  961 L   1      -1.444  -1.404   2.137  1.00  0.00    +0.0489  H
ATOM     17 H29  961 L   1      -3.166  -1.224   2.408  1.00  0.00    +0.0489  H
ATOM     18 H30  961 L   1      -4.275  -3.417  -1.457  1.00  0.00    +0.0325  H
ATOM     19 H31  961 L   1      -2.578  -3.014  -1.757  1.00  0.00    +0.0325  H
ATOM     20 H32  961 L   1      -3.862  -1.769  -1.946  1.00  0.00    +0.0325  H
ATOM     21 H33  961 L   1      -1.968  -0.628  -1.551  1.00  0.00    +0.0541  H
ATOM     22 H34  961 L   1      -0.207  -2.242   0.256  1.00  0.00    +0.0447  H
ATOM     23 H35  961 L   1      -0.253  -2.193  -1.515  1.00  0.00    +0.0447  H
ATOM     24 H42  961 L   1       0.500   0.160   1.317  1.00  0.00    +0.0431  H
ATOM     25 H43  961 L   1       1.067   1.360   0.130  1.00  0.00    +0.0431  H
ATOM     26 H44  961 L   1      -0.922   1.293  -1.126  1.00  0.00    +0.0359  H
ENDROOT
BRANCH 1 28
ATOM     27  C1  961 L   1      -1.321   3.723   0.258  1.00  0.00    +0.0368  C
ATOM     28  O2  961 L   1      -1.265   2.686   1.230  1.00  0.00    -0.3793 OA
ATOM     29 H22  961 L   1      -0.703   3.480  -0.610  1.00  0.00    +0.0524  H
ATOM     30 H23  961 L   1      -2.354   3.908  -0.052  1.00  0.00    +0.0524  H
ATOM     31 H24  961 L   1      -0.927   4.636   0.712  1.00  0.00    +0.0524  H
ENDBRANCH 1 28
BRANCH 10 32
ATOM     32 C13  961 L   1       2.126  -1.259  -0.223  1.00  0.00    +0.0256  C
ATOM     33 H36  961 L   1       2.069  -1.615   0.815  1.00  0.00    +0.0476  H
ATOM     34 H37  961 L   1       2.305  -2.150  -0.840  1.00  0.00    +0.0476  H
BRANCH 32 35
ATOM     35 C14  961 L   1       3.318  -0.355  -0.398  1.00  0.00    -0.0153  A
ATOM     36 C15  961 L   1       4.092   0.063   0.689  1.00  0.00    -0.0545  A
ATOM     37 C16  961 L   1       5.189   0.893   0.476  1.00  0.00    -0.0433  A
ATOM     38 C17  961 L   1       5.480   1.278  -0.822  1.00  0.00    +0.0276  A
ATOM     39 N18  961 L   1       4.759   0.897  -1.897  1.00  0.00    -0.2629 NA
ATOM     40 C19  961 L   1       3.695   0.095  -1.660  1.00  0.00    +0.0320  A
ATOM     41 H38  961 L   1       3.844  -0.251   1.700  1.00  0.00    +0.0622  H
ATOM     42 H39  961 L   1       5.803   1.231   1.303  1.00  0.00    +0.0633  H
ATOM     43 H40  961 L   1       6.326   1.924  -1.038  1.00  0.00    +0.0829  H
ATOM     44 H41  961 L   1       3.129  -0.186  -2.545  1.00  0.00    +0.0833  H
ENDBRANCH 32 35
ENDBRANCH 10 32
TORSDOF 3
