ROOT
ATOM      1  N4  MCU L   1      -0.661   1.189   0.842  1.00  0.00    -0.2806  N
ATOM      2  C5  MCU L   1       0.118   0.317   0.064  1.00  0.00    +0.3336  A
ATOM      3  O6  MCU L   1      -0.212   0.081  -1.104  1.00  0.00    -0.2462 OA
ATOM      4  N7  MCU L   1       1.251  -0.271   0.657  1.00  0.00    -0.2503  N
ATOM      5 C21  MCU L   1       1.714   0.027   1.950  1.00  0.00    +0.3002  A
ATOM      6 O22  MCU L   1       2.755  -0.413   2.429  1.00  0.00    -0.2634 OA
ATOM      7 C23  MCU L   1       0.830   0.887   2.668  1.00  0.00    +0.2168  A
ATOM      8 O24  MCU L   1       1.041   1.250   3.955  1.00  0.00    -0.4478 OA
ATOM      9 C25  MCU L   1      -0.022   2.026   4.307  1.00  0.00    +0.1380  A
ATOM     10 C26  MCU L   1      -0.204   2.599   5.564  1.00  0.00    -0.0187  A
ATOM     11 C27  MCU L   1      -1.369   3.346   5.752  1.00  0.00    -0.0582  A
ATOM     12 C28  MCU L   1      -2.300   3.494   4.723  1.00  0.00    -0.0609  A
ATOM     13 C29  MCU L   1      -2.089   2.905   3.466  1.00  0.00    -0.0490  A
ATOM     14 C30  MCU L   1      -0.914   2.160   3.240  1.00  0.00    +0.0447  A
ATOM     15 C31  MCU L   1      -0.321   1.431   2.169  1.00  0.00    +0.1051  A
ATOM     16 H56  MCU L   1       0.523   2.461   6.355  1.00  0.00    +0.0654  H
ATOM     17 H57  MCU L   1      -1.559   3.810   6.718  1.00  0.00    +0.0619  H
ATOM     18 H58  MCU L   1      -3.210   4.066   4.901  1.00  0.00    +0.0618  H
ATOM     19 H59  MCU L   1      -2.850   3.016   2.701  1.00  0.00    +0.0625  H
ENDROOT
BRANCH 1 20
ATOM     20  C3  MCU L   1      -1.827   1.776   0.195  1.00  0.00    +0.1068  C
ATOM     21 H43  MCU L   1      -2.125   2.707   0.677  1.00  0.00    +0.0591  H
ATOM     22 H44  MCU L   1      -1.582   2.043  -0.838  1.00  0.00    +0.0591  H
BRANCH 20 24
ATOM     23  O1  MCU L   1      -3.550   0.510   1.296  1.00  0.00    -0.2709 OA
ATOM     24  C2  MCU L   1      -2.989   0.779   0.235  1.00  0.00    +0.2452  C
ATOM     25 N32  MCU L   1      -3.247   0.206  -1.001  1.00  0.00    -0.3241  N
ATOM     26 H60  MCU L   1      -2.567   0.427  -1.729  1.00  0.00    +0.1686 HD
BRANCH 25 27
ATOM     27 C33  MCU L   1      -4.231  -0.755  -1.339  1.00  0.00    +0.0534  A
ATOM     28 C34  MCU L   1      -5.152  -1.234  -0.396  1.00  0.00    -0.0377  A
ATOM     29 C35  MCU L   1      -6.112  -2.192  -0.741  1.00  0.00    -0.0598  A
ATOM     30 C36  MCU L   1      -6.175  -2.685  -2.037  1.00  0.00    -0.0611  A
ATOM     31 C37  MCU L   1      -5.278  -2.213  -2.991  1.00  0.00    -0.0481  A
ATOM     32 C38  MCU L   1      -4.301  -1.248  -2.661  1.00  0.00    +0.0781  A
ATOM     33 H61  MCU L   1      -5.154  -0.888   0.634  1.00  0.00    +0.0638  H
ATOM     34 H62  MCU L   1      -6.806  -2.555   0.014  1.00  0.00    +0.0618  H
ATOM     35 H63  MCU L   1      -6.920  -3.430  -2.304  1.00  0.00    +0.0618  H
ATOM     36 H64  MCU L   1      -5.339  -2.597  -4.010  1.00  0.00    +0.0624  H
BRANCH 32 37
ATOM     37 C39  MCU L   1      -3.401  -0.788  -3.781  1.00  0.00    +0.4193  C
ATOM     38 F40  MCU L   1      -2.468   0.136  -3.410  1.00  0.00    -0.1658  F
ATOM     39 F41  MCU L   1      -4.097  -0.207  -4.798  1.00  0.00    -0.1658  F
ATOM     40 F42  MCU L   1      -2.703  -1.808  -4.349  1.00  0.00    -0.1658  F
ENDBRANCH 32 37
ENDBRANCH 25 27
ENDBRANCH 20 24
ENDBRANCH 1 20
BRANCH 4 41
ATOM     41  C8  MCU L   1       2.032  -1.206  -0.177  1.00  0.00    +0.0680  C
ATOM     42 H45  MCU L   1       1.409  -1.466  -1.042  1.00  0.00    +0.0580  H
BRANCH 41 43
ATOM     43  C9  MCU L   1       2.270  -2.577   0.508  1.00  0.00    -0.0189  C
ATOM     44 H46  MCU L   1       2.997  -2.508   1.323  1.00  0.00    +0.0296  H
ATOM     45 H47  MCU L   1       1.323  -2.897   0.962  1.00  0.00    +0.0296  H
BRANCH 43 46
ATOM     46 C10  MCU L   1       2.734  -3.639  -0.489  1.00  0.00    -0.0071  C
ATOM     47 S11  MCU L   1       2.847  -5.261   0.319  1.00  0.00    -0.1782 SA
ATOM     48 H48  MCU L   1       3.717  -3.395  -0.901  1.00  0.00    +0.0375  H
ATOM     49 H49  MCU L   1       2.030  -3.725  -1.322  1.00  0.00    +0.0375  H
ATOM     50 H50  MCU L   1       3.764  -4.919   1.236  1.00  0.00    +0.1016 HD
ENDBRANCH 43 46
ENDBRANCH 41 43
BRANCH 41 51
ATOM     51 C12  MCU L   1       3.268  -0.529  -0.767  1.00  0.00    -0.0208  A
ATOM     52 C13  MCU L   1       4.525  -0.549  -0.118  1.00  0.00    -0.0529  A
ATOM     53 C14  MCU L   1       5.649   0.067  -0.683  1.00  0.00    -0.0158  A
ATOM     54 C15  MCU L   1       5.492   0.699  -1.894  1.00  0.00    +0.1662  A
ATOM     55 C16  MCU L   1       4.274   0.746  -2.530  1.00  0.00    +0.1666  A
ATOM     56 C17  MCU L   1       3.149   0.152  -1.995  1.00  0.00    -0.0110  A
ATOM     57 O18  MCU L   1       4.331   1.422  -3.709  1.00  0.00    -0.4526 OA
ATOM     58 C19  MCU L   1       5.739   1.747  -3.765  1.00  0.00    +0.2332  C
ATOM     59 O20  MCU L   1       6.471   1.336  -2.591  1.00  0.00    -0.4526 OA
ATOM     60 H51  MCU L   1       4.647  -1.039   0.847  1.00  0.00    +0.0622  H
ATOM     61 H52  MCU L   1       6.612   0.046  -0.183  1.00  0.00    +0.0655  H
ATOM     62 H53  MCU L   1       2.201   0.212  -2.526  1.00  0.00    +0.0659  H
ATOM     63 H54  MCU L   1       6.177   1.249  -4.642  1.00  0.00    +0.1166  H
ATOM     64 H55  MCU L   1       5.846   2.834  -3.884  1.00  0.00    +0.1166  H
ENDBRANCH 41 51
ENDBRANCH 4 41
TORSDOF 8
