ROOT
ATOM      1  C4  101 L   1      -3.073  -0.058   0.088  1.00  0.00    +0.0296  C
ATOM      2  C5  101 L   1      -3.790   0.906   1.036  1.00  0.00    -0.0326  C
ATOM      3  C6  101 L   1      -5.148   1.346   0.483  1.00  0.00    -0.0512  C
ATOM      4  C7  101 L   1      -5.798   0.313  -0.438  1.00  0.00    -0.0529  C
ATOM      5  C8  101 L   1      -5.412  -1.108  -0.055  1.00  0.00    -0.0512  C
ATOM      6  C9  101 L   1      -3.900  -1.335  -0.134  1.00  0.00    -0.0326  C
ATOM      7 H23  101 L   1      -2.945   0.446  -0.880  1.00  0.00    +0.0522  H
ATOM      8 H24  101 L   1      -3.177   1.793   1.237  1.00  0.00    +0.0285  H
ATOM      9 H25  101 L   1      -3.936   0.416   2.008  1.00  0.00    +0.0285  H
ATOM     10 H26  101 L   1      -5.035   2.287  -0.070  1.00  0.00    +0.0266  H
ATOM     11 H27  101 L   1      -5.815   1.566   1.325  1.00  0.00    +0.0266  H
ATOM     12 H28  101 L   1      -6.887   0.432  -0.412  1.00  0.00    +0.0265  H
ATOM     13 H29  101 L   1      -5.489   0.503  -1.474  1.00  0.00    +0.0265  H
ATOM     14 H30  101 L   1      -5.926  -1.829  -0.701  1.00  0.00    +0.0266  H
ATOM     15 H31  101 L   1      -5.754  -1.308   0.969  1.00  0.00    +0.0266  H
ATOM     16 H32  101 L   1      -3.630  -2.112   0.592  1.00  0.00    +0.0285  H
ATOM     17 H33  101 L   1      -3.642  -1.749  -1.118  1.00  0.00    +0.0285  H
ENDROOT
BRANCH 1 20
ATOM     18  O1  101 L   1      -0.730   1.479  -0.269  1.00  0.00    -0.2729 OA
ATOM     19  C2  101 L   1      -0.667   0.450   0.393  1.00  0.00    +0.2243  C
ATOM     20  N3  101 L   1      -1.745  -0.393   0.583  1.00  0.00    -0.3530  N
ATOM     21 H22  101 L   1      -1.675  -1.097   1.307  1.00  0.00    +0.1626 HD
BRANCH 19 22
ATOM     22 C10  101 L   1       0.611  -0.032   1.084  1.00  0.00    +0.0377  C
ATOM     23 C11  101 L   1       1.051  -1.384   0.494  1.00  0.00    -0.0414  C
ATOM     24 C12  101 L   1       2.562  -1.572   0.563  1.00  0.00    -0.0478  C
ATOM     25 C13  101 L   1       3.309  -0.510  -0.267  1.00  0.00    -0.0213  C
ATOM     26 C20  101 L   1       2.602   0.861  -0.221  1.00  0.00    -0.0478  C
ATOM     27 C21  101 L   1       1.729   1.026   1.021  1.00  0.00    -0.0414  C
ATOM     28 H34  101 L   1       0.357  -0.166   2.144  1.00  0.00    +0.0396  H
ATOM     29 H35  101 L   1       0.557  -2.197   1.041  1.00  0.00    +0.0273  H
ATOM     30 H36  101 L   1       0.726  -1.477  -0.551  1.00  0.00    +0.0273  H
ATOM     31 H37  101 L   1       2.879  -1.533   1.613  1.00  0.00    +0.0269  H
ATOM     32 H38  101 L   1       2.827  -2.571   0.196  1.00  0.00    +0.0269  H
ATOM     33 H39  101 L   1       3.301  -0.840  -1.315  1.00  0.00    +0.0318  H
ATOM     34 H43  101 L   1       1.967   0.959  -1.112  1.00  0.00    +0.0269  H
ATOM     35 H44  101 L   1       3.321   1.684  -0.275  1.00  0.00    +0.0269  H
ATOM     36 H45  101 L   1       1.316   2.041   1.053  1.00  0.00    +0.0273  H
ATOM     37 H46  101 L   1       2.364   0.930   1.912  1.00  0.00    +0.0273  H
BRANCH 25 38
ATOM     38 C14  101 L   1       4.774  -0.433   0.201  1.00  0.00    +0.0477  C
ATOM     39 H40  101 L   1       5.188  -1.440   0.339  1.00  0.00    +0.0512  H
ATOM     40 H41  101 L   1       4.849   0.083   1.165  1.00  0.00    +0.0512  H
BRANCH 38 41
ATOM     41 N15  101 L   1       5.649   0.238  -0.731  1.00  0.00    -0.2318  N
ATOM     42 C16  101 L   1       6.235   1.457  -0.623  1.00  0.00    +0.1380  A
ATOM     43 N17  101 L   1       6.992   1.647  -1.679  1.00  0.00    -0.1169 NA
ATOM     44 N18  101 L   1       6.868   0.507  -2.440  1.00  0.00    -0.0233 NA
ATOM     45 N19  101 L   1       6.053  -0.365  -1.860  1.00  0.00    -0.0441 NA
ATOM     46 H42  101 L   1       6.087   2.140   0.200  1.00  0.00    +0.1063  H
ENDBRANCH 38 41
ENDBRANCH 25 38
ENDBRANCH 19 22
ENDBRANCH 1 20
TORSDOF 4
