ROOT
ATOM      1  N5  CHE L   1       1.715   0.130   0.602  1.00  0.00    -0.3009 NA
ATOM      2  C6  CHE L   1       1.098  -1.006   1.302  1.00  0.00    +0.0023  C
ATOM      3  C7  CHE L   1      -0.331  -0.695   1.726  1.00  0.00    -0.0029  C
ATOM      4  C8  CHE L   1      -1.228  -0.492   0.497  1.00  0.00    +0.1025  C
ATOM      5 C16  CHE L   1      -0.444   0.101  -0.682  1.00  0.00    -0.0029  C
ATOM      6 C17  CHE L   1       0.763   0.908  -0.206  1.00  0.00    +0.0023  C
ATOM      7 H26  CHE L   1       1.092  -1.903   0.668  1.00  0.00    +0.0428  H
ATOM      8 H27  CHE L   1       1.694  -1.241   2.191  1.00  0.00    +0.0428  H
ATOM      9 H28  CHE L   1      -0.732  -1.515   2.334  1.00  0.00    +0.0313  H
ATOM     10 H29  CHE L   1      -0.350   0.191   2.376  1.00  0.00    +0.0313  H
ATOM     11 H30  CHE L   1      -1.628  -1.476   0.221  1.00  0.00    +0.0733  H
ATOM     12 H36  CHE L   1      -1.083   0.744  -1.298  1.00  0.00    +0.0313  H
ATOM     13 H37  CHE L   1      -0.090  -0.714  -1.326  1.00  0.00    +0.0313  H
ATOM     14 H38  CHE L   1       1.243   1.370  -1.076  1.00  0.00    +0.0428  H
ATOM     15 H39  CHE L   1       0.408   1.745   0.409  1.00  0.00    +0.0428  H
ENDROOT
BRANCH 1 16
ATOM     16  C4  CHE L   1       2.914  -0.295  -0.139  1.00  0.00    +0.0114  C
ATOM     17 H24  CHE L   1       2.628  -0.794  -1.074  1.00  0.00    +0.0439  H
ATOM     18 H25  CHE L   1       3.452  -1.038   0.463  1.00  0.00    +0.0439  H
BRANCH 16 19
ATOM     19  C3  CHE L   1       3.897   0.866  -0.428  1.00  0.00    +0.0084  C
ATOM     20 H22  CHE L   1       3.390   1.643  -1.009  1.00  0.00    +0.0436  H
ATOM     21 H23  CHE L   1       4.204   1.344   0.511  1.00  0.00    +0.0436  H
BRANCH 19 23
ATOM     22  C1  CHE L   1       6.039  -0.293  -0.425  1.00  0.00    -0.0157  C
ATOM     23  N2  CHE L   1       5.082   0.476  -1.207  1.00  0.00    -0.3178 NA
ATOM     24 H18  CHE L   1       6.358   0.256   0.466  1.00  0.00    +0.0388  H
ATOM     25 H19  CHE L   1       6.932  -0.478  -1.031  1.00  0.00    +0.0388  H
ATOM     26 H20  CHE L   1       5.638  -1.265  -0.125  1.00  0.00    +0.0388  H
ATOM     27 H21  CHE L   1       4.796  -0.059  -2.026  1.00  0.00    +0.1217 HD
ENDBRANCH 19 23
ENDBRANCH 16 19
ENDBRANCH 1 16
BRANCH 4 28
ATOM     28  O9  CHE L   1      -2.286   0.387   0.899  1.00  0.00    -0.4887 OA
BRANCH 28 29
ATOM     29 C10  CHE L   1      -3.503   0.284   0.286  1.00  0.00    +0.1209  A
ATOM     30 C11  CHE L   1      -3.791  -0.452  -0.864  1.00  0.00    -0.0199  A
ATOM     31 C12  CHE L   1      -5.087  -0.458  -1.389  1.00  0.00    -0.0583  A
ATOM     32 C13  CHE L   1      -6.100   0.274  -0.771  1.00  0.00    -0.0615  A
ATOM     33 C14  CHE L   1      -5.817   1.017   0.372  1.00  0.00    -0.0583  A
ATOM     34 C15  CHE L   1      -4.523   1.023   0.894  1.00  0.00    -0.0199  A
ATOM     35 H31  CHE L   1      -3.030  -1.021  -1.386  1.00  0.00    +0.0654  H
ATOM     36 H32  CHE L   1      -5.306  -1.033  -2.286  1.00  0.00    +0.0619  H
ATOM     37 H33  CHE L   1      -7.106   0.268  -1.182  1.00  0.00    +0.0618  H
ATOM     38 H34  CHE L   1      -6.600   1.594   0.857  1.00  0.00    +0.0619  H
ATOM     39 H35  CHE L   1      -4.305   1.606   1.785  1.00  0.00    +0.0654  H
ENDBRANCH 28 29
ENDBRANCH 4 28
TORSDOF 5
