ROOT
ATOM      1  C9  CHE L   1       0.155  -1.192  -0.374  1.00  0.00    +0.2258  A
ATOM      2 N10  CHE L   1       0.262  -2.496  -0.651  1.00  0.00    -0.2200 NA
ATOM      3 C11  CHE L   1      -0.886  -3.155  -0.898  1.00  0.00    +0.0472  A
ATOM      4 C12  CHE L   1      -2.129  -2.566  -0.850  1.00  0.00    +0.0988  A
ATOM      5 C16  CHE L   1      -2.155  -1.207  -0.561  1.00  0.00    +0.1450  A
ATOM      6 N24  CHE L   1      -1.011  -0.534  -0.312  1.00  0.00    -0.1948 NA
ATOM      7 H38  CHE L   1      -0.756  -4.199  -1.165  1.00  0.00    +0.0840  H
ENDROOT
BRANCH 1 8
ATOM      8  N8  CHE L   1       1.284  -0.426  -0.124  1.00  0.00    -0.3540  N
ATOM      9 H37  CHE L   1       0.949   0.413   0.338  1.00  0.00    +0.1625 HD
BRANCH 8 10
ATOM     10  C7  CHE L   1       2.365  -1.128   0.542  1.00  0.00    +0.0184  C
ATOM     11 H35  CHE L   1       2.727  -1.968  -0.064  1.00  0.00    +0.0486  H
ATOM     12 H36  CHE L   1       2.015  -1.528   1.502  1.00  0.00    +0.0486  H
BRANCH 10 13
ATOM     13  C6  CHE L   1       3.527  -0.165   0.810  1.00  0.00    -0.0326  C
ATOM     14 H33  CHE L   1       3.158   0.705   1.365  1.00  0.00    +0.0283  H
ATOM     15 H34  CHE L   1       4.250  -0.679   1.453  1.00  0.00    +0.0283  H
BRANCH 13 16
ATOM     16  C5  CHE L   1       4.219   0.285  -0.482  1.00  0.00    -0.0178  C
ATOM     17 H31  CHE L   1       4.568  -0.599  -1.033  1.00  0.00    +0.0296  H
ATOM     18 H32  CHE L   1       3.492   0.768  -1.146  1.00  0.00    +0.0296  H
BRANCH 16 20
ATOM     19  C1  CHE L   1       6.549   0.616   0.502  1.00  0.00    -0.0312  C
ATOM     20  C2  CHE L   1       5.406   1.241  -0.292  1.00  0.00    +0.1062  C
ATOM     21  C3  CHE L   1       4.993   2.579   0.314  1.00  0.00    -0.0312  C
ATOM     22  F4  CHE L   1       5.897   1.509  -1.544  1.00  0.00    -0.2425  F
ATOM     23 H25  CHE L   1       6.282   0.446   1.549  1.00  0.00    +0.0260  H
ATOM     24 H26  CHE L   1       7.431   1.266   0.476  1.00  0.00    +0.0260  H
ATOM     25 H27  CHE L   1       6.850  -0.339   0.057  1.00  0.00    +0.0260  H
ATOM     26 H28  CHE L   1       4.664   2.479   1.353  1.00  0.00    +0.0260  H
ATOM     27 H29  CHE L   1       5.831   3.284   0.288  1.00  0.00    +0.0260  H
ATOM     28 H30  CHE L   1       4.184   3.032  -0.267  1.00  0.00    +0.0260  H
ENDBRANCH 16 20
ENDBRANCH 13 16
ENDBRANCH 10 13
ENDBRANCH 8 10
ENDBRANCH 1 8
BRANCH 4 29
ATOM     29 C13  CHE L   1      -3.348  -3.326  -1.175  1.00  0.00    +0.2545  C
ATOM     30 N14  CHE L   1      -3.388  -4.648  -0.821  1.00  0.00    -0.3657  N
ATOM     31 O15  CHE L   1      -4.297  -2.793  -1.738  1.00  0.00    -0.2676 OA
ATOM     32 H39  CHE L   1      -2.767  -5.046  -0.129  1.00  0.00    +0.1589 HD
ATOM     33 H40  CHE L   1      -4.280  -5.111  -0.950  1.00  0.00    +0.1589 HD
ENDBRANCH 4 29
BRANCH 5 34
ATOM     34 N17  CHE L   1      -3.391  -0.537  -0.412  1.00  0.00    -0.3637  N
ATOM     35 H41  CHE L   1      -4.004  -0.876  -1.166  1.00  0.00    +0.1614 HD
BRANCH 34 36
ATOM     36 C18  CHE L   1      -3.346   0.937  -0.358  1.00  0.00    +0.0543  C
ATOM     37 H42  CHE L   1      -2.536   1.333  -0.985  1.00  0.00    +0.0547  H
BRANCH 36 38
ATOM     38 C19  CHE L   1      -4.673   1.467  -0.964  1.00  0.00    +0.0647  C
ATOM     39 O20  CHE L   1      -5.817   0.815  -0.401  1.00  0.00    -0.3930 OA
ATOM     40 H43  CHE L   1      -4.692   1.259  -2.039  1.00  0.00    +0.0578  H
ATOM     41 H44  CHE L   1      -4.787   2.546  -0.831  1.00  0.00    +0.0578  H
ATOM     42 H45  CHE L   1      -5.478   0.026   0.067  1.00  0.00    +0.2095 HD
ENDBRANCH 36 38
BRANCH 36 43
ATOM     43 C21  CHE L   1      -3.098   1.364   1.079  1.00  0.00    -0.0186  C
ATOM     44 C22  CHE L   1      -3.017   2.829   1.445  1.00  0.00    -0.0480  C
ATOM     45 C23  CHE L   1      -4.131   1.983   1.995  1.00  0.00    -0.0480  C
ATOM     46 H46  CHE L   1      -2.350   0.732   1.550  1.00  0.00    +0.0321  H
ATOM     47 H47  CHE L   1      -3.267   3.577   0.702  1.00  0.00    +0.0269  H
ATOM     48 H48  CHE L   1      -2.230   3.136   2.126  1.00  0.00    +0.0269  H
ATOM     49 H49  CHE L   1      -5.135   2.180   1.640  1.00  0.00    +0.0269  H
ATOM     50 H50  CHE L   1      -4.094   1.711   3.045  1.00  0.00    +0.0269  H
ENDBRANCH 36 43
ENDBRANCH 34 36
ENDBRANCH 5 34
TORSDOF 10
