ROOT
ATOM      1 C10  CHE L   1      -0.646  -1.368   0.455  1.00  0.00    +0.0008  A
ATOM      2 C11  CHE L   1      -1.968  -1.162   1.009  1.00  0.00    +0.0806  A
ATOM      3 N19  CHE L   1      -2.590  -2.327   1.295  1.00  0.00    -0.1744 NA
ATOM      4 N20  CHE L   1      -1.696  -3.225   0.916  1.00  0.00    -0.2677  N
ATOM      5 C21  CHE L   1      -0.538  -2.737   0.419  1.00  0.00    +0.0430  A
ATOM      6 C22  CHE L   1       0.358  -3.844   0.039  1.00  0.00    -0.0088  C
ATOM      7 C23  CHE L   1      -0.607  -5.061   0.044  1.00  0.00    -0.0279  C
ATOM      8 C24  CHE L   1      -1.787  -4.669   0.951  1.00  0.00    +0.0422  C
ATOM      9 H55  CHE L   1       1.144  -3.978   0.789  1.00  0.00    +0.0329  H
ATOM     10 H56  CHE L   1       0.815  -3.710  -0.945  1.00  0.00    +0.0329  H
ATOM     11 H57  CHE L   1      -0.116  -5.984   0.367  1.00  0.00    +0.0287  H
ATOM     12 H58  CHE L   1      -0.978  -5.227  -0.977  1.00  0.00    +0.0287  H
ATOM     13 H59  CHE L   1      -1.644  -4.988   1.987  1.00  0.00    +0.0509  H
ATOM     14 H60  CHE L   1      -2.754  -4.989   0.559  1.00  0.00    +0.0509  H
ENDROOT
BRANCH 1 19
ATOM     15  C5  CHE L   1       3.130  -0.194  -1.234  1.00  0.00    +0.0668  C
ATOM     16  C6  CHE L   1       3.815  -1.121  -2.253  1.00  0.00    -0.0358  C
ATOM     17  C7  CHE L   1       1.848   0.406  -1.870  1.00  0.00    -0.0235  C
ATOM     18  C8  CHE L   1       0.587  -0.367  -1.500  1.00  0.00    -0.0435  C
ATOM     19  C9  CHE L   1       0.337  -0.316   0.020  1.00  0.00    -0.0122  C
ATOM     20 C25  CHE L   1       1.647  -0.354   0.835  1.00  0.00    -0.0435  C
ATOM     21 C26  CHE L   1       2.795  -0.989   0.052  1.00  0.00    -0.0235  C
ATOM     22 H34  CHE L   1       3.129  -1.894  -2.614  1.00  0.00    +0.0257  H
ATOM     23 H35  CHE L   1       4.182  -0.553  -3.114  1.00  0.00    +0.0257  H
ATOM     24 H36  CHE L   1       4.683  -1.628  -1.819  1.00  0.00    +0.0257  H
ATOM     25 H37  CHE L   1       1.721   1.451  -1.552  1.00  0.00    +0.0293  H
ATOM     26 H38  CHE L   1       1.946   0.449  -2.962  1.00  0.00    +0.0293  H
ATOM     27 H39  CHE L   1       0.679  -1.399  -1.858  1.00  0.00    +0.0272  H
ATOM     28 H40  CHE L   1      -0.277   0.060  -2.025  1.00  0.00    +0.0272  H
ATOM     29 H41  CHE L   1      -0.114   0.662   0.236  1.00  0.00    +0.0350  H
ATOM     30 H61  CHE L   1       1.509  -0.879   1.787  1.00  0.00    +0.0272  H
ATOM     31 H62  CHE L   1       1.935   0.673   1.094  1.00  0.00    +0.0272  H
ATOM     32 H63  CHE L   1       3.663  -1.084   0.710  1.00  0.00    +0.0293  H
ATOM     33 H64  CHE L   1       2.510  -2.014  -0.212  1.00  0.00    +0.0293  H
BRANCH 15 34
ATOM     34  O4  CHE L   1       3.972   0.949  -0.998  1.00  0.00    -0.3736 OA
BRANCH 34 35
ATOM     35  C3  CHE L   1       5.159   0.758  -0.237  1.00  0.00    +0.0481  C
ATOM     36 H32  CHE L   1       4.904   0.741   0.828  1.00  0.00    +0.0560  H
ATOM     37 H33  CHE L   1       5.653  -0.182  -0.497  1.00  0.00    +0.0560  H
BRANCH 35 39
ATOM     38  C1  CHE L   1       5.538   3.268  -0.155  1.00  0.00    -0.0632  C
ATOM     39  C2  CHE L   1       6.123   1.909  -0.512  1.00  0.00    -0.0323  C
ATOM     40 H27  CHE L   1       5.234   3.303   0.897  1.00  0.00    +0.0230  H
ATOM     41 H28  CHE L   1       6.284   4.052  -0.318  1.00  0.00    +0.0230  H
ATOM     42 H29  CHE L   1       4.665   3.502  -0.773  1.00  0.00    +0.0230  H
ATOM     43 H30  CHE L   1       6.386   1.914  -1.577  1.00  0.00    +0.0285  H
ATOM     44 H31  CHE L   1       7.046   1.751   0.055  1.00  0.00    +0.0285  H
ENDBRANCH 35 39
ENDBRANCH 34 35
ENDBRANCH 15 34
ENDBRANCH 1 19
BRANCH 2 45
ATOM     45 C12  CHE L   1      -2.671   0.142   1.287  1.00  0.00    +0.0430  C
ATOM     46 H42  CHE L   1      -2.005   0.740   1.923  1.00  0.00    +0.0492  H
ATOM     47 H43  CHE L   1      -3.583  -0.045   1.868  1.00  0.00    +0.0492  H
BRANCH 45 48
ATOM     48 N13  CHE L   1      -2.968   0.879   0.043  1.00  0.00    -0.2984 NA
ATOM     49 C14  CHE L   1      -3.930   0.160  -0.794  1.00  0.00    -0.0123  C
ATOM     50 H44  CHE L   1      -3.496  -0.769  -1.183  1.00  0.00    +0.0391  H
ATOM     51 H45  CHE L   1      -4.850  -0.094  -0.257  1.00  0.00    +0.0391  H
ATOM     52 H46  CHE L   1      -4.198   0.755  -1.674  1.00  0.00    +0.0391  H
BRANCH 48 53
ATOM     53 C15  CHE L   1      -3.411   2.259   0.320  1.00  0.00    +0.0115  C
ATOM     54 H47  CHE L   1      -2.610   2.771   0.869  1.00  0.00    +0.0439  H
ATOM     55 H48  CHE L   1      -3.483   2.793  -0.637  1.00  0.00    +0.0439  H
BRANCH 53 56
ATOM     56 C16  CHE L   1      -4.742   2.436   1.092  1.00  0.00    +0.0084  C
ATOM     57 H49  CHE L   1      -5.557   1.974   0.526  1.00  0.00    +0.0436  H
ATOM     58 H50  CHE L   1      -4.677   1.939   2.066  1.00  0.00    +0.0436  H
BRANCH 56 59
ATOM     59 N17  CHE L   1      -5.043   3.860   1.292  1.00  0.00    -0.3178 NA
ATOM     60 C18  CHE L   1      -6.294   4.029   2.020  1.00  0.00    -0.0157  C
ATOM     61 H51  CHE L   1      -4.287   4.296   1.818  1.00  0.00    +0.1217 HD
ATOM     62 H52  CHE L   1      -6.242   3.576   3.016  1.00  0.00    +0.0388  H
ATOM     63 H53  CHE L   1      -7.135   3.595   1.471  1.00  0.00    +0.0388  H
ATOM     64 H54  CHE L   1      -6.499   5.097   2.146  1.00  0.00    +0.0388  H
ENDBRANCH 56 59
ENDBRANCH 53 56
ENDBRANCH 48 53
ENDBRANCH 45 48
ENDBRANCH 2 45
TORSDOF 9
