ROOT
ATOM      1 C16  EUB L   1       3.920   0.126   0.437  1.00  0.00    +0.0758  A
ATOM      2 C17  EUB L   1       4.284   1.241   1.201  1.00  0.00    +0.0547  A
ATOM      3 CL18 EUB L   1       3.505   1.635   2.691  1.00  0.00    -0.0827 Cl
ATOM      4 C19  EUB L   1       5.300   2.091   0.752  1.00  0.00    -0.0426  A
ATOM      5 C20  EUB L   1       5.953   1.828  -0.453  1.00  0.00    -0.0590  A
ATOM      6 C21  EUB L   1       5.591   0.717  -1.214  1.00  0.00    -0.0426  A
ATOM      7 C22  EUB L   1       4.576  -0.138  -0.771  1.00  0.00    +0.0547  A
ATOM      8 CL23 EUB L   1       4.164  -1.484  -1.772  1.00  0.00    -0.0827 Cl
ATOM      9 H34  EUB L   1       5.589   2.960   1.340  1.00  0.00    +0.0632  H
ATOM     10 H35  EUB L   1       6.746   2.490  -0.798  1.00  0.00    +0.0618  H
ATOM     11 H36  EUB L   1       6.106   0.519  -2.152  1.00  0.00    +0.0632  H
ENDROOT
BRANCH 1 13
ATOM     12  O1  EUB L   1       3.207  -1.728   1.618  1.00  0.00    -0.2672 OA
ATOM     13  C2  EUB L   1       2.868  -0.784   0.917  1.00  0.00    +0.2591  C
ATOM     14  N3  EUB L   1       1.598  -0.439   0.498  1.00  0.00    -0.3219  N
ATOM     15 H24  EUB L   1       1.508   0.386  -0.085  1.00  0.00    +0.1689 HD
BRANCH 14 16
ATOM     16  C4  EUB L   1       0.395  -1.116   0.795  1.00  0.00    +0.0469  A
ATOM     17  C5  EUB L   1       0.323  -2.262   1.575  1.00  0.00    -0.0200  A
ATOM     18  C6  EUB L   1      -0.920  -2.828   1.790  1.00  0.00    +0.0318  A
ATOM     19  N7  EUB L   1      -2.073  -2.335   1.287  1.00  0.00    -0.2379 NA
ATOM     20  C8  EUB L   1      -1.990  -1.222   0.531  1.00  0.00    +0.1352  A
ATOM     21 C15  EUB L   1      -0.785  -0.587   0.264  1.00  0.00    +0.0042  A
ATOM     22 H25  EUB L   1       1.194  -2.728   2.019  1.00  0.00    +0.0653  H
ATOM     23 H26  EUB L   1      -1.024  -3.725   2.394  1.00  0.00    +0.0831  H
ATOM     24 H33  EUB L   1      -0.749   0.306  -0.347  1.00  0.00    +0.0675  H
BRANCH 20 25
ATOM     25  N9  EUB L   1      -3.226  -0.786   0.056  1.00  0.00    -0.3107  N
ATOM     26 C10  EUB L   1      -3.498   0.299  -0.731  1.00  0.00    +0.2294  C
ATOM     27 O11  EUB L   1      -2.704   1.101  -1.201  1.00  0.00    -0.2726 OA
ATOM     28 H27  EUB L   1      -3.988  -1.376   0.359  1.00  0.00    +0.1700 HD
BRANCH 26 29
ATOM     29 C12  EUB L   1      -4.948   0.445  -1.039  1.00  0.00    +0.0381  C
ATOM     30 C13  EUB L   1      -5.982   0.514   0.062  1.00  0.00    -0.0410  C
ATOM     31 C14  EUB L   1      -5.649   1.746  -0.725  1.00  0.00    -0.0410  C
ATOM     32 H28  EUB L   1      -5.238  -0.033  -1.970  1.00  0.00    +0.0396  H
ATOM     33 H29  EUB L   1      -5.657   0.482   1.096  1.00  0.00    +0.0273  H
ATOM     34 H30  EUB L   1      -6.943   0.044  -0.115  1.00  0.00    +0.0273  H
ATOM     35 H31  EUB L   1      -5.079   2.529  -0.236  1.00  0.00    +0.0273  H
ATOM     36 H32  EUB L   1      -6.377   2.112  -1.440  1.00  0.00    +0.0273  H
ENDBRANCH 26 29
ENDBRANCH 20 25
ENDBRANCH 14 16
ENDBRANCH 1 13
TORSDOF 4
