ROOT
ATOM      1  C8  282 L   1       0.089  -0.487   0.503  1.00  0.00    +0.2257  C
ATOM      2  O9  282 L   1      -0.245  -1.493   1.132  1.00  0.00    -0.2730 OA
ATOM      3 N10  282 L   1      -0.848   0.370  -0.067  1.00  0.00    -0.3338  N
ATOM      4 C11  282 L   1      -0.543   1.679  -0.640  1.00  0.00    +0.0218  C
ATOM      5 C12  282 L   1      -1.087   2.787   0.260  1.00  0.00    -0.0352  C
ATOM      6 C13  282 L   1      -2.497   2.489   0.786  1.00  0.00    -0.0492  C
ATOM      7 C14  282 L   1      -3.155   1.326   0.047  1.00  0.00    -0.0267  C
ATOM      8 C15  282 L   1      -2.272   0.063   0.116  1.00  0.00    +0.0743  C
ATOM      9 H30  282 L   1      -1.010   1.727  -1.630  1.00  0.00    +0.0489  H
ATOM     10 H31  282 L   1       0.527   1.826  -0.799  1.00  0.00    +0.0489  H
ATOM     11 H32  282 L   1      -0.418   2.931   1.117  1.00  0.00    +0.0282  H
ATOM     12 H33  282 L   1      -1.086   3.733  -0.295  1.00  0.00    +0.0282  H
ATOM     13 H34  282 L   1      -3.121   3.387   0.709  1.00  0.00    +0.0267  H
ATOM     14 H35  282 L   1      -2.437   2.246   1.854  1.00  0.00    +0.0267  H
ATOM     15 H36  282 L   1      -4.142   1.114   0.476  1.00  0.00    +0.0289  H
ATOM     16 H37  282 L   1      -3.336   1.631  -0.993  1.00  0.00    +0.0289  H
ATOM     17 H38  282 L   1      -2.386  -0.358   1.122  1.00  0.00    +0.0590  H
ENDROOT
BRANCH 1 18
ATOM     18  C7  282 L   1       1.551  -0.137   0.309  1.00  0.00    +0.0437  C
ATOM     19 H28  282 L   1       1.739   0.851   0.742  1.00  0.00    +0.0378  H
ATOM     20 H29  282 L   1       1.764  -0.099  -0.766  1.00  0.00    +0.0378  H
BRANCH 18 21
ATOM     21  C6  282 L   1       2.460  -1.166   0.973  1.00  0.00    +0.0268  C
ATOM     22 H26  282 L   1       2.237  -2.176   0.611  1.00  0.00    +0.0491  H
ATOM     23 H27  282 L   1       2.316  -1.160   2.060  1.00  0.00    +0.0491  H
BRANCH 21 26
ATOM     24  C3  282 L   1       4.551   0.110   1.287  1.00  0.00    +0.2443  C
ATOM     25  O4  282 L   1       4.043   0.939   2.030  1.00  0.00    -0.2683 OA
ATOM     26  N5  282 L   1       3.867  -0.924   0.697  1.00  0.00    -0.3520  N
ATOM     27 H25  282 L   1       4.357  -1.594   0.121  1.00  0.00    +0.1626 HD
BRANCH 24 29
ATOM     28  C1  282 L   1       6.802   1.074   1.414  1.00  0.00    -0.0936  C
ATOM     29  C2  282 L   1       5.991   0.129   0.924  1.00  0.00    -0.0047  C
ATOM     30 H22  282 L   1       6.434   1.845   2.086  1.00  0.00    +0.0536  H
ATOM     31 H23  282 L   1       7.855   1.095   1.156  1.00  0.00    +0.0536  H
ATOM     32 H24  282 L   1       6.372  -0.634   0.258  1.00  0.00    +0.0666  H
ENDBRANCH 24 29
ENDBRANCH 21 26
ENDBRANCH 18 21
ENDBRANCH 1 18
BRANCH 8 33
ATOM     33 C16  282 L   1      -2.683  -0.935  -0.927  1.00  0.00    +0.0613  A
ATOM     34 C17  282 L   1      -2.687  -0.857  -2.309  1.00  0.00    -0.0190  A
ATOM     35 C18  282 L   1      -3.190  -2.090  -2.749  1.00  0.00    +0.0497  A
ATOM     36 N19  282 L   1      -3.490  -2.903  -1.738  1.00  0.00    -0.1796 NA
ATOM     37 N20  282 L   1      -3.153  -2.196  -0.639  1.00  0.00    -0.2694  N
ATOM     38 C21  282 L   1      -3.326  -2.808   0.658  1.00  0.00    +0.0306  C
ATOM     39 H39  282 L   1      -2.371  -0.020  -2.913  1.00  0.00    +0.0652  H
ATOM     40 H40  282 L   1      -3.356  -2.430  -3.763  1.00  0.00    +0.0848  H
ATOM     41 H41  282 L   1      -3.917  -3.722   0.551  1.00  0.00    +0.0473  H
ATOM     42 H42  282 L   1      -2.342  -3.052   1.061  1.00  0.00    +0.0473  H
ATOM     43 H43  282 L   1      -3.858  -2.112   1.310  1.00  0.00    +0.0473  H
ENDBRANCH 8 33
TORSDOF 5
