ROOT
ATOM      1  C8  CHE L   1      -3.899  -0.551   0.398  1.00  0.00    +0.0219  A
ATOM      2  C9  CHE L   1      -3.505  -1.288   1.520  1.00  0.00    -0.0368  A
ATOM      3 C10  CHE L   1      -2.162  -1.372   1.879  1.00  0.00    +0.0225  A
ATOM      4 BR11 CHE L   1      -1.756  -2.423   3.411  1.00  0.00    -0.0500 Br
ATOM      5 C12  CHE L   1      -1.177  -0.713   1.127  1.00  0.00    -0.0180  A
ATOM      6 C13  CHE L   1      -1.552  -0.013  -0.053  1.00  0.00    +0.0623  A
ATOM      7 C14  CHE L   1      -2.922   0.086  -0.400  1.00  0.00    +0.0628  A
ATOM      8 CL15 CHE L   1      -3.483   1.005  -1.769  1.00  0.00    -0.0821 Cl
ATOM      9 C16  CHE L   1      -0.463   0.574  -0.921  1.00  0.00    +0.2566  C
ATOM     10 O17  CHE L   1      -0.699   0.982  -2.051  1.00  0.00    -0.2673 OA
ATOM     11 N18  CHE L   1       0.834   0.616  -0.394  1.00  0.00    -0.3334  N
ATOM     12 C31  CHE L   1       1.009   0.468   1.038  1.00  0.00    +0.0258  C
ATOM     13 C32  CHE L   1       0.279  -0.773   1.522  1.00  0.00    -0.0081  C
ATOM     14 H39  CHE L   1      -4.259  -1.800   2.116  1.00  0.00    +0.0636  H
ATOM     15 H48  CHE L   1       2.068   0.377   1.295  1.00  0.00    +0.0492  H
ATOM     16 H49  CHE L   1       0.617   1.373   1.519  1.00  0.00    +0.0492  H
ATOM     17 H50  CHE L   1       0.402  -0.816   2.608  1.00  0.00    +0.0331  H
ATOM     18 H51  CHE L   1       0.724  -1.676   1.087  1.00  0.00    +0.0331  H
ENDROOT
BRANCH 1 25
ATOM     19  C1  CHE L   1      -5.847  -2.743  -1.100  1.00  0.00    -0.0185  C
ATOM     20  C2  CHE L   1      -6.164  -1.425  -0.514  1.00  0.00    +0.0876  A
ATOM     21  N3  CHE L   1      -7.445  -0.941  -0.527  1.00  0.00    -0.1342 NA
ATOM     22  N4  CHE L   1      -7.444   0.251   0.051  1.00  0.00    -0.0651 NA
ATOM     23  N5  CHE L   1      -6.180   0.525   0.415  1.00  0.00    -0.2467  N
ATOM     24  C6  CHE L   1      -5.881   1.768   1.076  1.00  0.00    +0.0325  C
ATOM     25  C7  CHE L   1      -5.329  -0.506   0.101  1.00  0.00    +0.0928  A
ATOM     26 H33  CHE L   1      -6.751  -3.233  -1.474  1.00  0.00    +0.0294  H
ATOM     27 H34  CHE L   1      -5.391  -3.399  -0.351  1.00  0.00    +0.0294  H
ATOM     28 H35  CHE L   1      -5.150  -2.633  -1.936  1.00  0.00    +0.0294  H
ATOM     29 H36  CHE L   1      -5.298   1.557   1.976  1.00  0.00    +0.0473  H
ATOM     30 H37  CHE L   1      -6.813   2.267   1.355  1.00  0.00    +0.0473  H
ATOM     31 H38  CHE L   1      -5.314   2.400   0.390  1.00  0.00    +0.0473  H
ENDBRANCH 1 25
BRANCH 11 32
ATOM     32 C19  CHE L   1       1.864   1.300  -1.180  1.00  0.00    +0.0552  C
ATOM     33 H40  CHE L   1       1.851   2.352  -0.869  1.00  0.00    +0.0541  H
ATOM     34 H41  CHE L   1       1.605   1.293  -2.245  1.00  0.00    +0.0541  H
BRANCH 32 35
ATOM     35 C20  CHE L   1       3.214   0.692  -1.009  1.00  0.00    +0.0788  A
ATOM     36 C21  CHE L   1       3.494  -0.647  -1.611  1.00  0.00    +0.2574  A
ATOM     37 O22  CHE L   1       2.643  -1.286  -2.219  1.00  0.00    -0.2674 OA
ATOM     38 N23  CHE L   1       4.771  -1.153  -1.448  1.00  0.00    -0.3255  N
ATOM     39 C24  CHE L   1       5.809  -0.519  -0.789  1.00  0.00    +0.0267  A
ATOM     40 C25  CHE L   1       7.115  -1.249  -0.738  1.00  0.00    -0.0237  C
ATOM     41 C26  CHE L   1       5.564   0.687  -0.259  1.00  0.00    +0.0396  A
ATOM     42 C27  CHE L   1       6.391   1.610   0.470  1.00  0.00    -0.0145  A
ATOM     43 C28  CHE L   1       5.591   2.651   0.730  1.00  0.00    +0.0932  A
ATOM     44 O29  CHE L   1       4.289   2.506   0.237  1.00  0.00    -0.4624 OA
ATOM     45 C30  CHE L   1       4.250   1.273  -0.393  1.00  0.00    +0.1464  A
ATOM     46 H42  CHE L   1       4.922  -2.061  -1.872  1.00  0.00    +0.1686 HD
ATOM     47 H43  CHE L   1       7.887  -0.693  -0.198  1.00  0.00    +0.0292  H
ATOM     48 H44  CHE L   1       6.990  -2.216  -0.236  1.00  0.00    +0.0292  H
ATOM     49 H45  CHE L   1       7.487  -1.434  -1.752  1.00  0.00    +0.0292  H
ATOM     50 H46  CHE L   1       7.425   1.494   0.742  1.00  0.00    +0.0656  H
ATOM     51 H47  CHE L   1       5.789   3.571   1.248  1.00  0.00    +0.1030  H
ENDBRANCH 32 35
ENDBRANCH 11 32
TORSDOF 3
