ROOT
ATOM      1  C3  583 L   1      -2.073  -1.707   0.083  1.00  0.00    +0.0782  C
ATOM      2  C4  583 L   1      -2.583  -0.605  -0.849  1.00  0.00    +0.0028  C
ATOM      3  C5  583 L   1      -1.487   0.460  -0.795  1.00  0.00    +0.0951  C
ATOM      4 N12  583 L   1      -0.262  -0.311  -0.614  1.00  0.00    -0.3239  N
ATOM      5 C13  583 L   1       0.973   0.239  -0.865  1.00  0.00    +0.2834  C
ATOM      6 O14  583 L   1       1.097   1.387  -1.296  1.00  0.00    -0.2649 OA
ATOM      7 C20  583 L   1      -0.557  -1.661  -0.145  1.00  0.00    +0.0486  C
ATOM      8 H24  583 L   1      -2.329  -1.473   1.123  1.00  0.00    +0.0614  H
ATOM      9 H25  583 L   1      -3.574  -0.241  -0.558  1.00  0.00    +0.0315  H
ATOM     10 H26  583 L   1      -2.674  -0.999  -1.870  1.00  0.00    +0.0315  H
ATOM     11 H27  583 L   1      -1.445   1.003  -1.743  1.00  0.00    +0.0607  H
ATOM     12 H38  583 L   1      -0.251  -2.377  -0.915  1.00  0.00    +0.0514  H
ATOM     13 H39  583 L   1       0.001  -1.870   0.773  1.00  0.00    +0.0514  H
ENDROOT
BRANCH 1 15
ATOM     14  C1  583 L   1      -2.416  -3.981   0.643  1.00  0.00    +0.0369  C
ATOM     15  O2  583 L   1      -2.660  -2.948  -0.304  1.00  0.00    -0.3779 OA
ATOM     16 H21  583 L   1      -2.904  -4.893   0.288  1.00  0.00    +0.0524  H
ATOM     17 H22  583 L   1      -2.840  -3.716   1.617  1.00  0.00    +0.0524  H
ATOM     18 H23  583 L   1      -1.344  -4.175   0.739  1.00  0.00    +0.0524  H
ENDBRANCH 1 15
BRANCH 3 19
ATOM     19  C6  583 L   1      -1.665   1.396   0.366  1.00  0.00    +0.1558  A
ATOM     20  N7  583 L   1      -2.069   1.064   1.580  1.00  0.00    -0.1325 NA
ATOM     21  N8  583 L   1      -2.093   2.193   2.359  1.00  0.00    -0.1378 NA
ATOM     22  C9  583 L   1      -1.697   3.194   1.612  1.00  0.00    +0.1196  A
ATOM     23 N10  583 L   1      -1.422   2.748   0.354  1.00  0.00    -0.3188  N
ATOM     24 C11  583 L   1      -0.960   3.581  -0.724  1.00  0.00    +0.0144  C
ATOM     25 H28  583 L   1      -1.595   4.223   1.926  1.00  0.00    +0.1048  H
ATOM     26 H29  583 L   1      -1.225   3.143  -1.686  1.00  0.00    +0.0456  H
ATOM     27 H30  583 L   1      -1.442   4.560  -0.641  1.00  0.00    +0.0456  H
ATOM     28 H31  583 L   1       0.122   3.697  -0.633  1.00  0.00    +0.0456  H
ENDBRANCH 3 19
BRANCH 5 29
ATOM     29 C15  583 L   1       2.174  -0.615  -0.604  1.00  0.00    +0.1859  C
ATOM     30 F16  583 L   1       2.025  -1.920  -0.922  1.00  0.00    -0.1999  F
ATOM     31 C17  583 L   1       3.356  -0.182  -0.128  1.00  0.00    -0.0352  C
ATOM     32 C18  583 L   1       4.515  -1.128   0.032  1.00  0.00    -0.0409  C
ATOM     33 C19  583 L   1       3.643   1.230   0.301  1.00  0.00    -0.0409  C
ATOM     34 H32  583 L   1       4.283  -2.143  -0.306  1.00  0.00    +0.0275  H
ATOM     35 H33  583 L   1       4.812  -1.190   1.084  1.00  0.00    +0.0275  H
ATOM     36 H34  583 L   1       5.373  -0.775  -0.551  1.00  0.00    +0.0275  H
ATOM     37 H35  583 L   1       2.743   1.832   0.444  1.00  0.00    +0.0275  H
ATOM     38 H36  583 L   1       4.280   1.726  -0.438  1.00  0.00    +0.0275  H
ATOM     39 H37  583 L   1       4.169   1.232   1.263  1.00  0.00    +0.0275  H
ENDBRANCH 5 29
TORSDOF 3
