ROOT
ATOM      1  C9  CHE L   1      -2.675  -0.055   0.313  1.00  0.00    +0.0933  A
ATOM      2 C10  CHE L   1      -2.185  -1.263   0.763  1.00  0.00    +0.0372  A
ATOM      3 N11  CHE L   1      -0.829  -1.208   0.575  1.00  0.00    -0.3060  N
ATOM      4 C12  CHE L   1       0.146  -2.154   0.871  1.00  0.00    +0.0118  A
ATOM      5 C13  CHE L   1       1.429  -1.877   0.588  1.00  0.00    -0.0377  A
ATOM      6 C14  CHE L   1       1.788  -0.592  -0.034  1.00  0.00    -0.0172  A
ATOM      7 C25  CHE L   1       0.812   0.309  -0.303  1.00  0.00    -0.0114  A
ATOM      8 C26  CHE L   1      -0.550   0.021  -0.004  1.00  0.00    +0.1388  A
ATOM      9 N27  CHE L   1      -1.647   0.726  -0.180  1.00  0.00    -0.2277 NA
ATOM     10 H38  CHE L   1      -2.666  -2.132   1.186  1.00  0.00    +0.0835  H
ATOM     11 H39  CHE L   1      -0.177  -3.083   1.323  1.00  0.00    +0.0813  H
ATOM     12 H40  CHE L   1       2.222  -2.588   0.799  1.00  0.00    +0.0638  H
ATOM     13 H52  CHE L   1       1.029   1.275  -0.746  1.00  0.00    +0.0660  H
ENDROOT
BRANCH 1 17
ATOM     14  C3  CHE L   1      -6.735   1.293   0.039  1.00  0.00    +0.1418  A
ATOM     15  C4  CHE L   1      -6.370   0.421   1.072  1.00  0.00    +0.0239  A
ATOM     16  C5  CHE L   1      -5.045  -0.034   1.209  1.00  0.00    +0.1328  A
ATOM     17  C8  CHE L   1      -4.069   0.372   0.274  1.00  0.00    +0.0451  A
ATOM     18 C28  CHE L   1      -4.440   1.256  -0.752  1.00  0.00    -0.0271  A
ATOM     19 C29  CHE L   1      -5.754   1.709  -0.870  1.00  0.00    +0.0834  A
ATOM     20 CL30 CHE L   1      -6.127   2.789  -2.169  1.00  0.00    -0.0797 Cl
ATOM     21 H34  CHE L   1      -7.122   0.085   1.774  1.00  0.00    +0.0691  H
ATOM     22 H53  CHE L   1      -3.692   1.590  -1.470  1.00  0.00    +0.0641  H
BRANCH 14 24
ATOM     23  C1  CHE L   1      -9.012   1.408   0.770  1.00  0.00    +0.0789  C
ATOM     24  O2  CHE L   1      -8.002   1.779  -0.157  1.00  0.00    -0.4935 OA
ATOM     25 H31  CHE L   1      -8.766   1.749   1.780  1.00  0.00    +0.0660  H
ATOM     26 H32  CHE L   1      -9.189   0.328   0.747  1.00  0.00    +0.0660  H
ATOM     27 H33  CHE L   1      -9.940   1.903   0.469  1.00  0.00    +0.0660  H
ENDBRANCH 14 24
BRANCH 16 28
ATOM     28  O6  CHE L   1      -4.642  -0.871   2.220  1.00  0.00    -0.4943 OA
ATOM     29  C7  CHE L   1      -5.509  -1.039   3.334  1.00  0.00    +0.0788  C
ATOM     30 H35  CHE L   1      -6.389  -1.628   3.057  1.00  0.00    +0.0660  H
ATOM     31 H36  CHE L   1      -5.795  -0.076   3.769  1.00  0.00    +0.0660  H
ATOM     32 H37  CHE L   1      -4.963  -1.600   4.099  1.00  0.00    +0.0660  H
ENDBRANCH 16 28
ENDBRANCH 1 17
BRANCH 6 33
ATOM     33 C15  CHE L   1       3.172  -0.253  -0.345  1.00  0.00    -0.0416  C
ATOM     34 C16  CHE L   1       4.075  -0.007   0.621  1.00  0.00    -0.0663  C
ATOM     35 C17  CHE L   1       5.517   0.308   0.341  1.00  0.00    +0.0177  C
ATOM     36 N18  CHE L   1       5.936   0.001  -1.037  1.00  0.00    -0.2974 NA
ATOM     37 C23  CHE L   1       4.935   0.499  -1.997  1.00  0.00    +0.0032  C
ATOM     38 C24  CHE L   1       3.576  -0.193  -1.797  1.00  0.00    -0.0145  C
ATOM     39 H41  CHE L   1       3.780  -0.030   1.667  1.00  0.00    +0.0588  H
ATOM     40 H42  CHE L   1       6.118  -0.288   1.037  1.00  0.00    +0.0470  H
ATOM     41 H43  CHE L   1       5.685   1.366   0.580  1.00  0.00    +0.0470  H
ATOM     42 H48  CHE L   1       5.261   0.300  -3.025  1.00  0.00    +0.0430  H
ATOM     43 H49  CHE L   1       4.818   1.588  -1.902  1.00  0.00    +0.0430  H
ATOM     44 H50  CHE L   1       3.625  -1.217  -2.190  1.00  0.00    +0.0326  H
ATOM     45 H51  CHE L   1       2.827   0.346  -2.389  1.00  0.00    +0.0326  H
BRANCH 36 46
ATOM     46 C19  CHE L   1       7.271   0.539  -1.353  1.00  0.00    +0.0120  C
ATOM     47 H44  CHE L   1       7.287   1.624  -1.182  1.00  0.00    +0.0436  H
ATOM     48 H45  CHE L   1       7.471   0.391  -2.423  1.00  0.00    +0.0436  H
BRANCH 46 49
ATOM     49 C20  CHE L   1       8.431  -0.101  -0.577  1.00  0.00    +0.0475  C
ATOM     50 H46  CHE L   1       8.291   0.007   0.503  1.00  0.00    +0.0430  H
ATOM     51 H47  CHE L   1       9.350   0.446  -0.821  1.00  0.00    +0.0430  H
BRANCH 49 52
ATOM     52 C21  CHE L   1       8.620  -1.514  -0.929  1.00  0.00    +0.0638  C
ATOM     53 N22  CHE L   1       8.815  -2.626  -1.199  1.00  0.00    -0.1965 NA
ENDBRANCH 49 52
ENDBRANCH 46 49
ENDBRANCH 36 46
ENDBRANCH 6 33
TORSDOF 7
