ROOT
ATOM      1  C8  WH0 L   1       3.745   1.682  -0.401  1.00  0.00    -0.0350  A
ATOM      2  C9  WH0 L   1       4.972   2.374  -0.331  1.00  0.00    -0.0579  A
ATOM      3 C10  WH0 L   1       5.024   3.772  -0.212  1.00  0.00    -0.0595  A
ATOM      4 C11  WH0 L   1       3.851   4.519  -0.155  1.00  0.00    -0.0378  A
ATOM      5 C12  WH0 L   1       2.654   3.832  -0.219  1.00  0.00    +0.0509  A
ATOM      6 C13  WH0 L   1       2.571   2.437  -0.340  1.00  0.00    +0.0474  A
ATOM      7 C14  WH0 L   1       1.104   2.023  -0.381  1.00  0.00    +0.2807  C
ATOM      8 O15  WH0 L   1       0.807   1.233   0.768  1.00  0.00    -0.3368 OA
ATOM      9 C16  WH0 L   1       0.213  -0.023   0.459  1.00  0.00    +0.0637  C
ATOM     10 C17  WH0 L   1      -0.963   0.089  -0.519  1.00  0.00    +0.0644  C
ATOM     11 C18  WH0 L   1      -1.353  -1.332  -0.976  1.00  0.00    +0.0637  C
ATOM     12 O19  WH0 L   1      -2.770  -1.474  -1.018  1.00  0.00    -0.3368 OA
ATOM     13 C20  WH0 L   1      -3.327  -1.347   0.286  1.00  0.00    +0.2804  C
ATOM     14 O21  WH0 L   1      -2.835  -0.223   1.012  1.00  0.00    -0.3368 OA
ATOM     15 C22  WH0 L   1      -2.182   0.725   0.172  1.00  0.00    +0.0637  C
ATOM     16 C23  WH0 L   1      -3.176  -2.660   1.178  1.00  0.00    +0.2902  C
ATOM     17 O24  WH0 L   1      -2.141  -3.187   1.562  1.00  0.00    -0.2665 OA
ATOM     18 N25  WH0 L   1      -4.457  -3.127   1.459  1.00  0.00    -0.3210  N
ATOM     19 C26  WH0 L   1      -5.423  -2.319   0.881  1.00  0.00    +0.0507  A
ATOM     20 C27  WH0 L   1      -6.791  -2.490   0.958  1.00  0.00    -0.0378  A
ATOM     21 C28  WH0 L   1      -7.594  -1.558   0.297  1.00  0.00    -0.0598  A
ATOM     22 C29  WH0 L   1      -7.019  -0.494  -0.420  1.00  0.00    -0.0612  A
ATOM     23 C30  WH0 L   1      -5.630  -0.342  -0.485  1.00  0.00    -0.0510  A
ATOM     24 C31  WH0 L   1      -4.834  -1.265   0.178  1.00  0.00    +0.0441  A
ATOM     25 C32  WH0 L   1      -0.529   0.963  -1.712  1.00  0.00    +0.0637  C
ATOM     26 O33  WH0 L   1       0.841   1.353  -1.606  1.00  0.00    -0.3368 OA
ATOM     27 C34  WH0 L   1       0.399   3.450  -0.253  1.00  0.00    +0.2902  C
ATOM     28 O35  WH0 L   1      -0.801   3.694  -0.233  1.00  0.00    -0.2665 OA
ATOM     29 N36  WH0 L   1       1.397   4.409  -0.173  1.00  0.00    -0.3210  N
ATOM     30 H44  WH0 L   1       5.911   1.819  -0.370  1.00  0.00    +0.0620  H
ATOM     31 H45  WH0 L   1       5.990   4.272  -0.166  1.00  0.00    +0.0618  H
ATOM     32 H46  WH0 L   1       3.887   5.598  -0.062  1.00  0.00    +0.0638  H
ATOM     33 H47  WH0 L   1       0.987  -0.683   0.052  1.00  0.00    +0.0569  H
ATOM     34 H48  WH0 L   1      -0.104  -0.474   1.405  1.00  0.00    +0.0569  H
ATOM     35 H49  WH0 L   1      -0.930  -2.106  -0.326  1.00  0.00    +0.0569  H
ATOM     36 H50  WH0 L   1      -0.972  -1.558  -1.977  1.00  0.00    +0.0569  H
ATOM     37 H51  WH0 L   1      -2.907   1.115  -0.554  1.00  0.00    +0.0569  H
ATOM     38 H52  WH0 L   1      -1.885   1.565   0.806  1.00  0.00    +0.0569  H
ATOM     39 H53  WH0 L   1      -4.629  -3.947   2.020  1.00  0.00    +0.1688 HD
ATOM     40 H54  WH0 L   1      -7.233  -3.311   1.509  1.00  0.00    +0.0638  H
ATOM     41 H55  WH0 L   1      -8.678  -1.654   0.334  1.00  0.00    +0.0618  H
ATOM     42 H56  WH0 L   1      -7.663   0.220  -0.930  1.00  0.00    +0.0618  H
ATOM     43 H57  WH0 L   1      -5.191   0.480  -1.041  1.00  0.00    +0.0623  H
ATOM     44 H58  WH0 L   1      -1.151   1.855  -1.836  1.00  0.00    +0.0569  H
ATOM     45 H59  WH0 L   1      -0.621   0.423  -2.661  1.00  0.00    +0.0569  H
ATOM     46 H60  WH0 L   1       1.202   5.394  -0.082  1.00  0.00    +0.1688 HD
ENDROOT
BRANCH 1 47
ATOM     47  C7  WH0 L   1       3.764   0.181  -0.507  1.00  0.00    -0.0097  C
ATOM     48 H42  WH0 L   1       2.889  -0.171  -1.063  1.00  0.00    +0.0330  H
ATOM     49 H43  WH0 L   1       4.622  -0.128  -1.121  1.00  0.00    +0.0330  H
BRANCH 47 50
ATOM     50  C6  WH0 L   1       3.841  -0.492   0.867  1.00  0.00    +0.0221  C
ATOM     51 H40  WH0 L   1       4.772  -0.218   1.376  1.00  0.00    +0.0489  H
ATOM     52 H41  WH0 L   1       3.012  -0.180   1.509  1.00  0.00    +0.0489  H
BRANCH 50 55
ATOM     53  O1  WH0 L   1       6.028  -2.246   0.499  1.00  0.00    -0.2720 OA
ATOM     54  C2  WH0 L   1       4.889  -2.706   0.513  1.00  0.00    +0.2356  C
ATOM     55  N5  WH0 L   1       3.767  -1.939   0.759  1.00  0.00    -0.3547  N
ATOM     56 H39  WH0 L   1       2.867  -2.354   0.551  1.00  0.00    +0.1623 HD
BRANCH 54 57
ATOM     57  C3  WH0 L   1       4.613  -4.188   0.339  1.00  0.00    +0.1010  C
ATOM     58 CL4  WH0 L   1       3.424  -4.431  -0.963  1.00  0.00    -0.1154 Cl
ATOM     59 H37  WH0 L   1       5.536  -4.712   0.073  1.00  0.00    +0.0527  H
ATOM     60 H38  WH0 L   1       4.213  -4.600   1.271  1.00  0.00    +0.0527  H
ENDBRANCH 54 57
ENDBRANCH 50 55
ENDBRANCH 47 50
ENDBRANCH 1 47
TORSDOF 4
