ROOT
ATOM      1 C26  WH0 L   1      -2.280   2.512  -0.268  1.00  0.00    -0.0133  A
ATOM      2 C27  WH0 L   1      -3.389   3.170  -0.850  1.00  0.00    -0.0519  A
ATOM      3 C28  WH0 L   1      -3.517   4.565  -0.766  1.00  0.00    -0.0374  A
ATOM      4 C29  WH0 L   1      -2.525   5.280  -0.099  1.00  0.00    +0.0454  A
ATOM      5 C30  WH0 L   1      -1.441   4.650   0.473  1.00  0.00    -0.0145  A
ATOM      6 C31  WH0 L   1      -1.295   3.265   0.405  1.00  0.00    -0.0483  A
ATOM      7 C32  WH0 L   1      -0.527   5.645   1.114  1.00  0.00    +0.0535  C
ATOM      8 C33  WH0 L   1      -1.274   6.910   0.807  1.00  0.00    +0.2296  C
ATOM      9 O34  WH0 L   1      -0.889   8.058   1.150  1.00  0.00    -0.2725 OA
ATOM     10 N35  WH0 L   1      -2.476   6.683   0.078  1.00  0.00    -0.3256  N
ATOM     11 H59  WH0 L   1      -4.142   2.604  -1.385  1.00  0.00    +0.0624  H
ATOM     12 H60  WH0 L   1      -4.361   5.073  -1.216  1.00  0.00    +0.0638  H
ATOM     13 H61  WH0 L   1      -0.439   2.786   0.864  1.00  0.00    +0.0627  H
ATOM     14 H62  WH0 L   1       0.470   5.643   0.626  1.00  0.00    +0.0410  H
ATOM     15 H63  WH0 L   1      -0.459   5.477   2.209  1.00  0.00    +0.0410  H
ATOM     16 H64  WH0 L   1      -3.163   7.394  -0.256  1.00  0.00    +0.1686 HD
ENDROOT
BRANCH 1 25
ATOM     17 C11  WH0 L   1      -1.013   0.297  -0.726  1.00  0.00    +0.1015  A
ATOM     18 N12  WH0 L   1      -1.282  -1.023  -0.595  1.00  0.00    -0.1627 NA
ATOM     19 N13  WH0 L   1      -2.531  -1.130  -0.175  1.00  0.00    -0.1987  N
ATOM     20 C14  WH0 L   1      -3.221  -2.275   0.090  1.00  0.00    +0.2283  A
ATOM     21 N21  WH0 L   1      -4.516  -2.163   0.504  1.00  0.00    -0.2207 NA
ATOM     22 C22  WH0 L   1      -5.108  -0.944   0.671  1.00  0.00    +0.0334  A
ATOM     23 C23  WH0 L   1      -4.392   0.232   0.412  1.00  0.00    -0.0173  A
ATOM     24 C24  WH0 L   1      -3.082   0.086  -0.039  1.00  0.00    +0.0803  A
ATOM     25 C25  WH0 L   1      -2.144   1.045  -0.376  1.00  0.00    +0.0353  A
ATOM     26 H57  WH0 L   1      -6.134  -0.888   1.010  1.00  0.00    +0.0831  H
ATOM     27 H58  WH0 L   1      -4.848   1.203   0.555  1.00  0.00    +0.0654  H
BRANCH 17 30
ATOM     28  C8  WH0 L   1       2.723   0.557  -1.304  1.00  0.00    -0.0099  A
ATOM     29  C9  WH0 L   1       1.469   0.105  -0.861  1.00  0.00    -0.0465  A
ATOM     30 C10  WH0 L   1       0.296   0.800  -1.197  1.00  0.00    +0.0032  A
ATOM     31 C36  WH0 L   1       0.387   1.944  -2.008  1.00  0.00    -0.0498  A
ATOM     32 C37  WH0 L   1       1.632   2.408  -2.436  1.00  0.00    -0.0256  A
ATOM     33 C38  WH0 L   1       2.799   1.727  -2.079  1.00  0.00    +0.1266  A
ATOM     34 F39  WH0 L   1       3.999   2.206  -2.495  1.00  0.00    -0.2052  F
ATOM     35 H48  WH0 L   1       1.410  -0.783  -0.241  1.00  0.00    +0.0628  H
ATOM     36 H65  WH0 L   1      -0.503   2.473  -2.323  1.00  0.00    +0.0625  H
ATOM     37 H66  WH0 L   1       1.692   3.298  -3.049  1.00  0.00    +0.0646  H
BRANCH 28 38
ATOM     38  C7  WH0 L   1       3.971  -0.181  -0.896  1.00  0.00    -0.0074  C
ATOM     39 H46  WH0 L   1       4.760  -0.061  -1.670  1.00  0.00    +0.0331  H
ATOM     40 H47  WH0 L   1       3.754  -1.268  -0.823  1.00  0.00    +0.0331  H
BRANCH 38 41
ATOM     41  C6  WH0 L   1       4.490   0.339   0.447  1.00  0.00    +0.0224  C
ATOM     42 H44  WH0 L   1       3.720   0.213   1.239  1.00  0.00    +0.0489  H
ATOM     43 H45  WH0 L   1       4.712   1.425   0.356  1.00  0.00    +0.0489  H
BRANCH 41 46
ATOM     44  C3  WH0 L   1       5.704  -1.711   1.328  1.00  0.00    +0.2443  C
ATOM     45  O4  WH0 L   1       4.611  -2.324   1.477  1.00  0.00    -0.2683 OA
ATOM     46  N5  WH0 L   1       5.713  -0.365   0.831  1.00  0.00    -0.3522  N
ATOM     47 H43  WH0 L   1       6.618   0.154   0.785  1.00  0.00    +0.1626 HD
BRANCH 44 49
ATOM     48  C1  WH0 L   1       7.041  -3.619   2.125  1.00  0.00    -0.0936  C
ATOM     49  C2  WH0 L   1       6.979  -2.370   1.668  1.00  0.00    -0.0047  C
ATOM     50 H40  WH0 L   1       6.148  -4.213   2.271  1.00  0.00    +0.0536  H
ATOM     51 H41  WH0 L   1       8.001  -4.061   2.359  1.00  0.00    +0.0536  H
ATOM     52 H42  WH0 L   1       7.903  -1.819   1.538  1.00  0.00    +0.0666  H
ENDBRANCH 44 49
ENDBRANCH 41 46
ENDBRANCH 38 41
ENDBRANCH 28 38
ENDBRANCH 17 30
BRANCH 20 53
ATOM     53 N15  WH0 L   1      -2.623  -3.579  -0.054  1.00  0.00    -0.3359  N
ATOM     54 C16  WH0 L   1      -3.369  -4.648  -0.725  1.00  0.00    +0.0449  C
ATOM     55 C17  WH0 L   1      -3.000  -6.003  -0.114  1.00  0.00    +0.0653  C
ATOM     56 O18  WH0 L   1      -1.597  -6.181  -0.096  1.00  0.00    -0.3763 OA
ATOM     57 C19  WH0 L   1      -1.008  -5.232   0.773  1.00  0.00    +0.0653  C
ATOM     58 C20  WH0 L   1      -1.205  -3.809   0.242  1.00  0.00    +0.0449  C
ATOM     59 H49  WH0 L   1      -4.466  -4.496  -0.628  1.00  0.00    +0.0511  H
ATOM     60 H50  WH0 L   1      -3.110  -4.647  -1.806  1.00  0.00    +0.0511  H
ATOM     61 H51  WH0 L   1      -3.450  -6.808  -0.733  1.00  0.00    +0.0577  H
ATOM     62 H52  WH0 L   1      -3.432  -6.099   0.909  1.00  0.00    +0.0577  H
ATOM     63 H53  WH0 L   1      -1.417  -5.323   1.806  1.00  0.00    +0.0577  H
ATOM     64 H54  WH0 L   1       0.081  -5.440   0.837  1.00  0.00    +0.0577  H
ATOM     65 H55  WH0 L   1      -0.609  -3.675  -0.686  1.00  0.00    +0.0511  H
ATOM     66 H56  WH0 L   1      -0.847  -3.092   1.013  1.00  0.00    +0.0511  H
ENDBRANCH 20 53
ENDBRANCH 1 25
TORSDOF 7
