ROOT
ATOM      1  O1  SEL L   1       2.366  -2.187  -0.231  1.00  0.00    -0.2727 OA
ATOM      2  C2  SEL L   1       1.857  -1.146   0.191  1.00  0.00    +0.2284  C
ATOM      3 N15  SEL L   1       2.563   0.047   0.181  1.00  0.00    -0.3376  N
ATOM      4 C16  SEL L   1       2.143   1.315   0.794  1.00  0.00    +0.0446  C
ATOM      5 C17  SEL L   1       3.355   2.131   1.259  1.00  0.00    +0.0653  C
ATOM      6 O18  SEL L   1       4.272   2.443   0.202  1.00  0.00    -0.3763 OA
ATOM      7 C19  SEL L   1       4.326   1.453  -0.835  1.00  0.00    +0.0653  C
ATOM      8 C20  SEL L   1       3.920   0.051  -0.375  1.00  0.00    +0.0446  C
ATOM      9 H34  SEL L   1       1.600   1.871   0.022  1.00  0.00    +0.0511  H
ATOM     10 H35  SEL L   1       1.473   1.139   1.637  1.00  0.00    +0.0511  H
ATOM     11 H36  SEL L   1       3.909   1.585   2.031  1.00  0.00    +0.0577  H
ATOM     12 H37  SEL L   1       3.026   3.078   1.699  1.00  0.00    +0.0577  H
ATOM     13 H38  SEL L   1       5.348   1.443  -1.228  1.00  0.00    +0.0577  H
ATOM     14 H39  SEL L   1       3.667   1.791  -1.644  1.00  0.00    +0.0577  H
ATOM     15 H40  SEL L   1       3.988  -0.656  -1.209  1.00  0.00    +0.0511  H
ATOM     16 H41  SEL L   1       4.588  -0.296   0.422  1.00  0.00    +0.0511  H
ENDROOT
BRANCH 2 17
ATOM     17  C3  SEL L   1       0.414  -1.134   0.688  1.00  0.00    +0.0554  C
ATOM     18  C4  SEL L   1      -0.080  -2.554   1.010  1.00  0.00    -0.0385  C
ATOM     19  C5  SEL L   1      -1.545  -2.525   1.440  1.00  0.00    -0.0346  C
ATOM     20  C6  SEL L   1      -2.422  -1.843   0.389  1.00  0.00    +0.0187  C
ATOM     21  N7  SEL L   1      -1.885  -0.501   0.081  1.00  0.00    -0.3687  N
ATOM     22 C14  SEL L   1      -0.486  -0.514  -0.386  1.00  0.00    +0.0300  C
ATOM     23 H21  SEL L   1       0.352  -0.561   1.618  1.00  0.00    +0.0414  H
ATOM     24 H22  SEL L   1       0.027  -3.208   0.136  1.00  0.00    +0.0274  H
ATOM     25 H23  SEL L   1       0.531  -2.993   1.808  1.00  0.00    +0.0274  H
ATOM     26 H24  SEL L   1      -1.901  -3.546   1.613  1.00  0.00    +0.0282  H
ATOM     27 H25  SEL L   1      -1.631  -1.987   2.392  1.00  0.00    +0.0282  H
ATOM     28 H26  SEL L   1      -2.453  -2.451  -0.525  1.00  0.00    +0.0488  H
ATOM     29 H27  SEL L   1      -3.443  -1.797   0.786  1.00  0.00    +0.0488  H
ATOM     30 H32  SEL L   1      -0.154   0.511  -0.587  1.00  0.00    +0.0495  H
ATOM     31 H33  SEL L   1      -0.398  -1.078  -1.325  1.00  0.00    +0.0495  H
BRANCH 21 32
ATOM     32  C8  SEL L   1      -2.798   0.301  -0.628  1.00  0.00    +0.0562  A
ATOM     33  C9  SEL L   1      -2.565   0.807  -1.911  1.00  0.00    -0.0356  A
ATOM     34 C10  SEL L   1      -3.519   1.602  -2.551  1.00  0.00    -0.0417  A
ATOM     35 C11  SEL L   1      -4.699   1.884  -1.886  1.00  0.00    +0.0277  A
ATOM     36 N12  SEL L   1      -4.978   1.436  -0.648  1.00  0.00    -0.2612 NA
ATOM     37 C13  SEL L   1      -4.026   0.670  -0.058  1.00  0.00    +0.0507  A
ATOM     38 H28  SEL L   1      -1.652   0.580  -2.450  1.00  0.00    +0.0639  H
ATOM     39 H29  SEL L   1      -3.343   1.987  -3.549  1.00  0.00    +0.0633  H
ATOM     40 H30  SEL L   1      -5.470   2.496  -2.345  1.00  0.00    +0.0829  H
ATOM     41 H31  SEL L   1      -4.278   0.356   0.952  1.00  0.00    +0.0850  H
ENDBRANCH 21 32
ENDBRANCH 2 17
TORSDOF 2
