ROOT
ATOM      1  C4  553 L   1       2.138   0.625   1.851  1.00  0.00    +0.0328  C
ATOM      2  C5  553 L   1       0.801   1.371   1.765  1.00  0.00    -0.0148  C
ATOM      3  C6  553 L   1      -0.309   0.495   1.195  1.00  0.00    +0.0233  C
ATOM      4  N7  553 L   1      -0.493  -0.733   1.976  1.00  0.00    -0.3386  N
ATOM      5  C8  553 L   1      -1.704  -1.384   2.144  1.00  0.00    +0.2475  C
ATOM      6  O9  553 L   1      -1.896  -2.269   2.973  1.00  0.00    -0.2680 OA
ATOM      7 C18  553 L   1       0.656  -1.222   2.734  1.00  0.00    +0.0233  C
ATOM      8 C19  553 L   1       1.965  -0.890   2.033  1.00  0.00    -0.0148  C
ATOM      9 H24  553 L   1       2.678   1.019   2.722  1.00  0.00    +0.0523  H
ATOM     10 H25  553 L   1       0.897   2.291   1.175  1.00  0.00    +0.0302  H
ATOM     11 H26  553 L   1       0.507   1.678   2.778  1.00  0.00    +0.0302  H
ATOM     12 H27  553 L   1      -0.064   0.198   0.169  1.00  0.00    +0.0489  H
ATOM     13 H28  553 L   1      -1.242   1.067   1.170  1.00  0.00    +0.0489  H
ATOM     14 H35  553 L   1       0.572  -2.306   2.873  1.00  0.00    +0.0489  H
ATOM     15 H36  553 L   1       0.619  -0.760   3.728  1.00  0.00    +0.0489  H
ATOM     16 H37  553 L   1       1.979  -1.392   1.056  1.00  0.00    +0.0302  H
ATOM     17 H38  553 L   1       2.811  -1.296   2.600  1.00  0.00    +0.0302  H
ENDROOT
BRANCH 1 20
ATOM     18  O1  553 L   1       4.968   0.548   1.747  1.00  0.00    -0.2729 OA
ATOM     19  C2  553 L   1       4.336   0.780   0.725  1.00  0.00    +0.2243  C
ATOM     20  N3  553 L   1       2.965   0.903   0.681  1.00  0.00    -0.3529  N
ATOM     21 H23  553 L   1       2.524   0.922  -0.227  1.00  0.00    +0.1626 HD
BRANCH 19 22
ATOM     22 C20  553 L   1       5.063   0.929  -0.567  1.00  0.00    +0.0377  C
ATOM     23 C21  553 L   1       4.545   1.756  -1.720  1.00  0.00    -0.0410  C
ATOM     24 C22  553 L   1       4.579   0.258  -1.832  1.00  0.00    -0.0410  C
ATOM     25 H39  553 L   1       6.142   0.950  -0.426  1.00  0.00    +0.0396  H
ATOM     26 H40  553 L   1       3.587   2.252  -1.635  1.00  0.00    +0.0273  H
ATOM     27 H41  553 L   1       5.271   2.324  -2.293  1.00  0.00    +0.0273  H
ATOM     28 H42  553 L   1       3.643  -0.286  -1.816  1.00  0.00    +0.0273  H
ATOM     29 H43  553 L   1       5.327  -0.188  -2.479  1.00  0.00    +0.0273  H
ENDBRANCH 19 22
ENDBRANCH 1 20
BRANCH 5 30
ATOM     30 C10  553 L   1      -2.841  -0.966   1.293  1.00  0.00    +0.0046  C
ATOM     31 C11  553 L   1      -2.770  -1.080  -0.042  1.00  0.00    -0.0312  C
ATOM     32 H29  553 L   1      -3.727  -0.647   1.827  1.00  0.00    +0.0672  H
ATOM     33 H30  553 L   1      -1.861  -1.435  -0.521  1.00  0.00    +0.0640  H
BRANCH 31 34
ATOM     34 C12  553 L   1      -3.839  -0.714  -0.970  1.00  0.00    +0.0640  A
ATOM     35 C13  553 L   1      -5.189  -0.891  -0.683  1.00  0.00    -0.0363  A
ATOM     36 C14  553 L   1      -6.131  -0.535  -1.646  1.00  0.00    -0.0583  A
ATOM     37 C15  553 L   1      -5.701  -0.025  -2.864  1.00  0.00    -0.0436  A
ATOM     38 C16  553 L   1      -4.338   0.105  -3.071  1.00  0.00    +0.0282  A
ATOM     39 N17  553 L   1      -3.402  -0.231  -2.156  1.00  0.00    -0.2556 NA
ATOM     40 H31  553 L   1      -5.517  -1.310   0.263  1.00  0.00    +0.0639  H
ATOM     41 H32  553 L   1      -7.192  -0.663  -1.448  1.00  0.00    +0.0619  H
ATOM     42 H33  553 L   1      -6.408   0.259  -3.635  1.00  0.00    +0.0633  H
ATOM     43 H34  553 L   1      -3.950   0.493  -4.008  1.00  0.00    +0.0830  H
ENDBRANCH 31 34
ENDBRANCH 5 30
TORSDOF 4
