ROOT
ATOM      1 C11  SEL L   1      -2.876  -0.649  -0.261  1.00  0.00    +0.0766  A
ATOM      2 C12  SEL L   1      -3.172  -1.943   0.202  1.00  0.00    -0.0175  A
ATOM      3 C13  SEL L   1      -4.371  -2.200   0.860  1.00  0.00    +0.0297  A
ATOM      4 N14  SEL L   1      -5.312  -1.267   1.096  1.00  0.00    -0.2603 NA
ATOM      5 C15  SEL L   1      -5.038  -0.028   0.634  1.00  0.00    +0.0648  A
ATOM      6 C16  SEL L   1      -3.871   0.316  -0.037  1.00  0.00    +0.1644  A
ATOM      7 F17  SEL L   1      -3.729   1.589  -0.434  1.00  0.00    -0.2017  F
ATOM      8 H32  SEL L   1      -2.491  -2.768   0.023  1.00  0.00    +0.0654  H
ATOM      9 H33  SEL L   1      -4.607  -3.199   1.215  1.00  0.00    +0.0830  H
ATOM     10 H34  SEL L   1      -5.801   0.721   0.819  1.00  0.00    +0.0859  H
ENDROOT
BRANCH 1 14
ATOM     11  N7  SEL L   1       0.455   1.551  -0.260  1.00  0.00    -0.2905 NA
ATOM     12  C8  SEL L   1      -0.804   1.934  -0.943  1.00  0.00    +0.0170  C
ATOM     13  C9  SEL L   1      -1.483   0.797  -1.748  1.00  0.00    +0.0315  C
ATOM     14 N10  SEL L   1      -1.667  -0.427  -0.939  1.00  0.00    -0.3659  N
ATOM     15 C18  SEL L   1      -0.431  -0.848  -0.238  1.00  0.00    +0.0315  C
ATOM     16 C19  SEL L   1       0.206   0.331   0.539  1.00  0.00    +0.0170  C
ATOM     17 H28  SEL L   1      -1.494   2.296  -0.172  1.00  0.00    +0.0444  H
ATOM     18 H29  SEL L   1      -0.627   2.792  -1.603  1.00  0.00    +0.0444  H
ATOM     19 H30  SEL L   1      -2.419   1.138  -2.204  1.00  0.00    +0.0500  H
ATOM     20 H31  SEL L   1      -0.840   0.534  -2.598  1.00  0.00    +0.0500  H
ATOM     21 H35  SEL L   1      -0.594  -1.680   0.456  1.00  0.00    +0.0500  H
ATOM     22 H36  SEL L   1       0.276  -1.219  -0.989  1.00  0.00    +0.0500  H
ATOM     23 H37  SEL L   1      -0.467   0.606   1.362  1.00  0.00    +0.0444  H
ATOM     24 H38  SEL L   1       1.127  -0.009   1.026  1.00  0.00    +0.0444  H
BRANCH 11 25
ATOM     25  C6  SEL L   1       1.563   1.413  -1.225  1.00  0.00    +0.0779  C
ATOM     26 H26  SEL L   1       1.395   0.602  -1.941  1.00  0.00    +0.0524  H
ATOM     27 H27  SEL L   1       1.668   2.335  -1.811  1.00  0.00    +0.0524  H
BRANCH 25 29
ATOM     28  N3  SEL L   1       3.455  -0.043  -0.681  1.00  0.00    -0.3552  N
ATOM     29  C4  SEL L   1       2.910   1.218  -0.513  1.00  0.00    +0.2350  C
ATOM     30  O5  SEL L   1       3.454   2.097   0.150  1.00  0.00    -0.2718 OA
ATOM     31 H25  SEL L   1       2.920  -0.758  -1.154  1.00  0.00    +0.1623 HD
BRANCH 28 33
ATOM     32  C1  SEL L   1       4.421  -0.903   1.404  1.00  0.00    -0.0476  C
ATOM     33  C2  SEL L   1       4.681  -0.432  -0.016  1.00  0.00    +0.0153  C
ATOM     34 H20  SEL L   1       3.729  -1.751   1.413  1.00  0.00    +0.0247  H
ATOM     35 H21  SEL L   1       5.355  -1.216   1.879  1.00  0.00    +0.0247  H
ATOM     36 H22  SEL L   1       3.978  -0.106   2.011  1.00  0.00    +0.0247  H
ATOM     37 H23  SEL L   1       5.128  -1.239  -0.605  1.00  0.00    +0.0483  H
ATOM     38 H24  SEL L   1       5.375   0.415  -0.011  1.00  0.00    +0.0483  H
ENDBRANCH 28 33
ENDBRANCH 25 29
ENDBRANCH 11 25
ENDBRANCH 1 14
TORSDOF 4
