ROOT
ATOM      1  C1  108 L   1       7.063   0.487  -0.602  1.00  0.00    -0.0396  C
ATOM      2  C2  108 L   1       5.694   0.349  -0.001  1.00  0.00    -0.0483  A
ATOM      3  C3  108 L   1       5.439   0.830   1.293  1.00  0.00    -0.0568  A
ATOM      4  C4  108 L   1       4.167   0.746   1.874  1.00  0.00    -0.0360  A
ATOM      5  C5  108 L   1       3.161   0.169   1.098  1.00  0.00    +0.0662  A
ATOM      6  N6  108 L   1       1.833  -0.070   1.334  1.00  0.00    -0.3415  N
ATOM      7  C7  108 L   1       1.293  -0.665   0.217  1.00  0.00    +0.1125  A
ATOM      8 N20  108 L   1       2.208  -0.810  -0.721  1.00  0.00    -0.2322 NA
ATOM      9 C21  108 L   1       3.370  -0.305  -0.191  1.00  0.00    +0.0894  A
ATOM     10 C22  108 L   1       4.650  -0.212  -0.757  1.00  0.00    -0.0313  A
ATOM     11 H23  108 L   1       7.254  -0.314  -1.324  1.00  0.00    +0.0278  H
ATOM     12 H24  108 L   1       7.153   1.451  -1.110  1.00  0.00    +0.0278  H
ATOM     13 H25  108 L   1       7.836   0.418   0.171  1.00  0.00    +0.0278  H
ATOM     14 H26  108 L   1       6.246   1.281   1.869  1.00  0.00    +0.0621  H
ATOM     15 H27  108 L   1       3.981   1.115   2.877  1.00  0.00    +0.0639  H
ATOM     16 H28  108 L   1       1.334   0.154   2.183  1.00  0.00    +0.1671 HD
ATOM     17 H44  108 L   1       4.811  -0.576  -1.766  1.00  0.00    +0.0642  H
ENDROOT
BRANCH 7 18
ATOM     18  C8  108 L   1      -0.149  -1.058   0.109  1.00  0.00    +0.0299  C
ATOM     19  C9  108 L   1      -0.632  -1.872   1.312  1.00  0.00    -0.0410  C
ATOM     20 C10  108 L   1      -2.096  -2.293   1.140  1.00  0.00    -0.0395  C
ATOM     21 C11  108 L   1      -2.885  -1.387   0.185  1.00  0.00    -0.0003  C
ATOM     22 N12  108 L   1      -2.439  -0.004   0.332  1.00  0.00    -0.2906 NA
ATOM     23 C19  108 L   1      -1.049   0.180  -0.120  1.00  0.00    +0.0093  C
ATOM     24 H29  108 L   1      -0.240  -1.705  -0.775  1.00  0.00    +0.0391  H
ATOM     25 H30  108 L   1      -0.007  -2.760   1.467  1.00  0.00    +0.0273  H
ATOM     26 H31  108 L   1      -0.546  -1.275   2.230  1.00  0.00    +0.0273  H
ATOM     27 H32  108 L   1      -2.140  -3.321   0.762  1.00  0.00    +0.0278  H
ATOM     28 H33  108 L   1      -2.576  -2.304   2.127  1.00  0.00    +0.0278  H
ATOM     29 H34  108 L   1      -3.949  -1.503   0.420  1.00  0.00    +0.0427  H
ATOM     30 H35  108 L   1      -2.751  -1.736  -0.847  1.00  0.00    +0.0427  H
ATOM     31 H42  108 L   1      -0.643   1.052   0.410  1.00  0.00    +0.0434  H
ATOM     32 H43  108 L   1      -1.009   0.423  -1.190  1.00  0.00    +0.0434  H
BRANCH 22 33
ATOM     33 C13  108 L   1      -3.341   1.018  -0.221  1.00  0.00    +0.0910  C
ATOM     34 C14  108 L   1      -3.702   0.914  -1.711  1.00  0.00    -0.0111  C
ATOM     35 C15  108 L   1      -5.038   1.628  -1.792  1.00  0.00    +0.0200  C
ATOM     36 N16  108 L   1      -5.660   1.312  -0.543  1.00  0.00    -0.3546  N
ATOM     37 C17  108 L   1      -4.727   1.029   0.443  1.00  0.00    +0.2383  C
ATOM     38 O18  108 L   1      -5.005   0.869   1.620  1.00  0.00    -0.2715 OA
ATOM     39 H36  108 L   1      -2.923   2.014  -0.018  1.00  0.00    +0.0561  H
ATOM     40 H37  108 L   1      -3.837  -0.129  -2.022  1.00  0.00    +0.0302  H
ATOM     41 H38  108 L   1      -2.948   1.363  -2.365  1.00  0.00    +0.0302  H
ATOM     42 H39  108 L   1      -5.660   1.279  -2.620  1.00  0.00    +0.0487  H
ATOM     43 H40  108 L   1      -4.917   2.715  -1.852  1.00  0.00    +0.0487  H
ATOM     44 H41  108 L   1      -6.621   1.504  -0.288  1.00  0.00    +0.1623 HD
ENDBRANCH 22 33
ENDBRANCH 7 18
TORSDOF 2
