ROOT
ATOM      1  C3  CHE L   1      -2.825   3.404   0.107  1.00  0.00    +0.1635  A
ATOM      2  C4  CHE L   1      -3.131   2.065   0.371  1.00  0.00    +0.0098  A
ATOM      3  C5  CHE L   1      -2.176   1.061   0.296  1.00  0.00    +0.0789  A
ATOM      4  N6  CHE L   1      -2.568  -0.186   0.589  1.00  0.00    -0.2297 NA
ATOM      5  C7  CHE L   1      -1.676  -1.192   0.548  1.00  0.00    +0.1323  A
ATOM      6 C14  CHE L   1      -0.348  -0.954   0.202  1.00  0.00    +0.0042  A
ATOM      7 C15  CHE L   1       0.085   0.325  -0.160  1.00  0.00    +0.0484  A
ATOM      8 C24  CHE L   1      -0.856   1.386  -0.072  1.00  0.00    +0.0272  A
ATOM      9 C25  CHE L   1      -0.542   2.747  -0.317  1.00  0.00    -0.0052  A
ATOM     10 C26  CHE L   1      -1.510   3.752  -0.230  1.00  0.00    +0.1622  A
ATOM     11 H32  CHE L   1      -4.135   1.764   0.651  1.00  0.00    +0.0677  H
ATOM     12 H41  CHE L   1       0.338  -1.790   0.230  1.00  0.00    +0.0675  H
ATOM     13 H55  CHE L   1       0.482   3.005  -0.561  1.00  0.00    +0.0662  H
ENDROOT
BRANCH 1 15
ATOM     14  C1  CHE L   1      -5.075   4.114   0.489  1.00  0.00    +0.0790  C
ATOM     15  O2  CHE L   1      -3.730   4.435   0.165  1.00  0.00    -0.4914 OA
ATOM     16 H29  CHE L   1      -5.148   3.692   1.497  1.00  0.00    +0.0660  H
ATOM     17 H30  CHE L   1      -5.653   5.043   0.476  1.00  0.00    +0.0660  H
ATOM     18 H31  CHE L   1      -5.512   3.441  -0.256  1.00  0.00    +0.0660  H
ENDBRANCH 1 15
BRANCH 5 19
ATOM     19  N8  CHE L   1      -2.077  -2.500   0.892  1.00  0.00    -0.3514  N
ATOM     20  C9  CHE L   1      -1.965  -3.444  -0.242  1.00  0.00    +0.0435  C
ATOM     21 C10  CHE L   1      -2.360  -4.857   0.221  1.00  0.00    +0.0653  C
ATOM     22 O11  CHE L   1      -3.681  -4.884   0.782  1.00  0.00    -0.3763 OA
ATOM     23 C12  CHE L   1      -3.759  -3.990   1.906  1.00  0.00    +0.0653  C
ATOM     24 C13  CHE L   1      -3.428  -2.546   1.497  1.00  0.00    +0.0435  C
ATOM     25 H33  CHE L   1      -2.637  -3.128  -1.051  1.00  0.00    +0.0511  H
ATOM     26 H34  CHE L   1      -0.944  -3.485  -0.637  1.00  0.00    +0.0511  H
ATOM     27 H35  CHE L   1      -2.349  -5.543  -0.632  1.00  0.00    +0.0577  H
ATOM     28 H36  CHE L   1      -1.650  -5.238   0.965  1.00  0.00    +0.0577  H
ATOM     29 H37  CHE L   1      -3.079  -4.344   2.690  1.00  0.00    +0.0577  H
ATOM     30 H38  CHE L   1      -4.780  -4.041   2.299  1.00  0.00    +0.0577  H
ATOM     31 H39  CHE L   1      -3.476  -1.909   2.388  1.00  0.00    +0.0511  H
ATOM     32 H40  CHE L   1      -4.180  -2.206   0.772  1.00  0.00    +0.0511  H
ENDBRANCH 5 19
BRANCH 7 33
ATOM     33 N16  CHE L   1       1.420   0.605  -0.514  1.00  0.00    -0.3810  N
ATOM     34 H42  CHE L   1       1.443   1.267  -1.287  1.00  0.00    +0.1599 HD
BRANCH 33 35
ATOM     35 C17  CHE L   1       2.449  -0.437  -0.633  1.00  0.00    +0.0294  C
ATOM     36 C18  CHE L   1       3.559   0.061  -1.569  1.00  0.00    -0.0198  C
ATOM     37 C19  CHE L   1       4.710  -0.943  -1.629  1.00  0.00    +0.0005  C
ATOM     38 N20  CHE L   1       5.263  -1.297  -0.318  1.00  0.00    -0.3052 NA
ATOM     39 C21  CHE L   1       6.091  -0.230   0.242  1.00  0.00    -0.0128  C
ATOM     40 C22  CHE L   1       4.214  -1.729   0.614  1.00  0.00    +0.0005  C
ATOM     41 C23  CHE L   1       3.047  -0.750   0.742  1.00  0.00    -0.0198  C
ATOM     42 H43  CHE L   1       2.029  -1.345  -1.086  1.00  0.00    +0.0522  H
ATOM     43 H44  CHE L   1       3.926   1.042  -1.240  1.00  0.00    +0.0297  H
ATOM     44 H45  CHE L   1       3.154   0.209  -2.578  1.00  0.00    +0.0297  H
ATOM     45 H46  CHE L   1       5.501  -0.561  -2.285  1.00  0.00    +0.0427  H
ATOM     46 H47  CHE L   1       4.352  -1.863  -2.110  1.00  0.00    +0.0427  H
ATOM     47 H48  CHE L   1       6.555  -0.558   1.179  1.00  0.00    +0.0391  H
ATOM     48 H49  CHE L   1       6.913   0.013  -0.441  1.00  0.00    +0.0391  H
ATOM     49 H50  CHE L   1       5.534   0.690   0.443  1.00  0.00    +0.0391  H
ATOM     50 H51  CHE L   1       3.826  -2.697   0.268  1.00  0.00    +0.0427  H
ATOM     51 H52  CHE L   1       4.643  -1.926   1.604  1.00  0.00    +0.0427  H
ATOM     52 H53  CHE L   1       2.291  -1.182   1.406  1.00  0.00    +0.0297  H
ATOM     53 H54  CHE L   1       3.381   0.175   1.229  1.00  0.00    +0.0297  H
ENDBRANCH 33 35
ENDBRANCH 7 33
BRANCH 10 54
ATOM     54 O27  CHE L   1      -1.275   5.083  -0.462  1.00  0.00    -0.4914 OA
ATOM     55 C28  CHE L   1       0.071   5.492  -0.662  1.00  0.00    +0.0790  C
ATOM     56 H56  CHE L   1       0.078   6.582  -0.761  1.00  0.00    +0.0660  H
ATOM     57 H57  CHE L   1       0.475   5.072  -1.588  1.00  0.00    +0.0660  H
ATOM     58 H58  CHE L   1       0.697   5.233   0.198  1.00  0.00    +0.0660  H
ENDBRANCH 10 54
TORSDOF 5
