ROOT
ATOM      1 C12  219 L   1      -3.579   0.152  -1.227  1.00  0.00    +0.0004  C
ATOM      2 C13  219 L   1      -4.930  -0.498  -1.431  1.00  0.00    -0.0686  C
ATOM      3 C14  219 L   1      -5.820  -0.347  -0.441  1.00  0.00    +0.0266  C
ATOM      4 S15  219 L   1      -5.158   0.582   0.862  1.00  0.00    +0.1728  S
ATOM      5 O16  219 L   1      -6.035   1.690   1.169  1.00  0.00    -0.2226 OA
ATOM      6 O17  219 L   1      -4.667  -0.320   1.885  1.00  0.00    -0.2226 OA
ATOM      7 C18  219 L   1      -3.763   1.175  -0.094  1.00  0.00    +0.0605  C
ATOM      8 H32  219 L   1      -3.294   0.686  -2.142  1.00  0.00    +0.0357  H
ATOM      9 H33  219 L   1      -5.151  -1.062  -2.330  1.00  0.00    +0.0582  H
ATOM     10 H34  219 L   1      -6.824  -0.736  -0.401  1.00  0.00    +0.0736  H
ATOM     11 H35  219 L   1      -4.046   2.152  -0.501  1.00  0.00    +0.0435  H
ATOM     12 H36  219 L   1      -2.900   1.292   0.565  1.00  0.00    +0.0435  H
ENDROOT
BRANCH 1 13
ATOM     13 C11  219 L   1      -2.520  -0.911  -0.900  1.00  0.00    +0.0333  C
ATOM     14 H30  219 L   1      -2.714  -1.370   0.077  1.00  0.00    +0.0366  H
ATOM     15 H31  219 L   1      -2.543  -1.707  -1.655  1.00  0.00    +0.0366  H
BRANCH 13 17
ATOM     16  N8  219 L   1      -0.158  -1.251  -0.520  1.00  0.00    -0.3556  N
ATOM     17  C9  219 L   1      -1.116  -0.337  -0.896  1.00  0.00    +0.2216  C
ATOM     18 O10  219 L   1      -0.864   0.823  -1.200  1.00  0.00    -0.2732 OA
ATOM     19 H29  219 L   1      -0.445  -2.158  -0.171  1.00  0.00    +0.1623 HD
BRANCH 16 20
ATOM     20  C7  219 L   1       1.243  -0.884  -0.407  1.00  0.00    +0.0225  C
ATOM     21 H27  219 L   1       1.819  -1.815  -0.458  1.00  0.00    +0.0489  H
ATOM     22 H28  219 L   1       1.514  -0.277  -1.279  1.00  0.00    +0.0489  H
BRANCH 20 23
ATOM     23  C6  219 L   1       1.544  -0.126   0.889  1.00  0.00    -0.0039  C
ATOM     24 H25  219 L   1       1.217  -0.721   1.751  1.00  0.00    +0.0335  H
ATOM     25 H26  219 L   1       0.956   0.801   0.926  1.00  0.00    +0.0335  H
BRANCH 23 30
ATOM     26  C1  219 L   1       6.772  -0.234   1.979  1.00  0.00    -0.0334  C
ATOM     27  C2  219 L   1       5.417   0.164   1.504  1.00  0.00    -0.0130  A
ATOM     28  C3  219 L   1       5.045   1.313   0.840  1.00  0.00    -0.0515  A
ATOM     29  C4  219 L   1       3.650   1.340   0.549  1.00  0.00    -0.0512  A
ATOM     30  C5  219 L   1       3.000   0.211   1.003  1.00  0.00    -0.0083  A
ATOM     31 S19  219 L   1       4.081  -0.869   1.775  1.00  0.00    -0.0984  S
ATOM     32 H20  219 L   1       7.522   0.510   1.692  1.00  0.00    +0.0283  H
ATOM     33 H21  219 L   1       6.788  -0.323   3.070  1.00  0.00    +0.0283  H
ATOM     34 H22  219 L   1       7.071  -1.195   1.547  1.00  0.00    +0.0283  H
ATOM     35 H23  219 L   1       5.738   2.102   0.572  1.00  0.00    +0.0626  H
ATOM     36 H24  219 L   1       3.149   2.150   0.030  1.00  0.00    +0.0626  H
ENDBRANCH 23 30
ENDBRANCH 20 23
ENDBRANCH 16 20
ENDBRANCH 13 17
ENDBRANCH 1 13
TORSDOF 5
