ROOT
ATOM      1  C6  MCU L   1      -1.935   1.269  -0.195  1.00  0.00    +0.2546  C
ATOM      2  O7  MCU L   1      -2.203   2.487  -0.009  1.00  0.00    -0.2674 OA
ATOM      3  N8  MCU L   1      -0.571   0.823  -0.090  1.00  0.00    -0.3382  N
ATOM      4  C9  MCU L   1       0.498   1.706  -0.562  1.00  0.00    +0.0224  C
ATOM      5 C10  MCU L   1       1.743   0.903  -0.981  1.00  0.00    -0.0210  C
ATOM      6 C11  MCU L   1       2.183  -0.234   0.002  1.00  0.00    +0.0523  C
ATOM      7 C12  MCU L   1       2.991   0.255   1.271  1.00  0.00    -0.0387  C
ATOM      8 C13  MCU L   1       2.698   1.617   1.943  1.00  0.00    -0.0500  C
ATOM      9 C14  MCU L   1       3.354   2.864   1.304  1.00  0.00    -0.0294  C
ATOM     10 C15  MCU L   1       4.875   2.769   1.123  1.00  0.00    +0.0477  C
ATOM     11 O16  MCU L   1       5.169   2.085  -0.078  1.00  0.00    -0.3778 OA
ATOM     12 C17  MCU L   1       6.568   1.933  -0.244  1.00  0.00    +0.0676  C
ATOM     13 C18  MCU L   1       7.033   0.557   0.271  1.00  0.00    +0.0502  C
ATOM     14 C19  MCU L   1       8.528   0.365   0.007  1.00  0.00    -0.0426  C
ATOM     15 N20  MCU L   1       6.272  -0.521  -0.370  1.00  0.00    -0.3496  N
ATOM     16 C21  MCU L   1       6.104  -1.808   0.247  1.00  0.00    +0.2434  C
ATOM     17 O22  MCU L   1       6.792  -2.111   1.261  1.00  0.00    -0.2710 OA
ATOM     18 C23  MCU L   1       5.090  -2.800  -0.267  1.00  0.00    +0.1051  C
ATOM     19 C24  MCU L   1       5.348  -3.213  -1.721  1.00  0.00    -0.0359  C
ATOM     20 N25  MCU L   1       3.724  -2.307  -0.044  1.00  0.00    -0.3444  N
ATOM     21 C26  MCU L   1       3.130  -1.193  -0.739  1.00  0.00    +0.2278  C
ATOM     22 O27  MCU L   1       3.406  -1.005  -1.955  1.00  0.00    -0.2726 OA
ATOM     23 C28  MCU L   1       0.926  -1.064   0.399  1.00  0.00    -0.0210  C
ATOM     24 C29  MCU L   1      -0.239  -0.210   0.895  1.00  0.00    +0.0224  C
ATOM     25 H43  MCU L   1       0.146   2.274  -1.452  1.00  0.00    +0.0489  H
ATOM     26 H44  MCU L   1       0.721   2.461   0.211  1.00  0.00    +0.0489  H
ATOM     27 H45  MCU L   1       2.593   1.580  -1.201  1.00  0.00    +0.0292  H
ATOM     28 H46  MCU L   1       1.463   0.441  -1.955  1.00  0.00    +0.0292  H
ATOM     29 H47  MCU L   1       2.863  -0.513   2.065  1.00  0.00    +0.0275  H
ATOM     30 H48  MCU L   1       4.079   0.215   1.072  1.00  0.00    +0.0275  H
ATOM     31 H49  MCU L   1       3.093   1.556   2.982  1.00  0.00    +0.0266  H
ATOM     32 H50  MCU L   1       1.615   1.778   2.072  1.00  0.00    +0.0266  H
ATOM     33 H51  MCU L   1       3.149   3.721   1.984  1.00  0.00    +0.0287  H
ATOM     34 H52  MCU L   1       2.883   3.135   0.341  1.00  0.00    +0.0287  H
ATOM     35 H53  MCU L   1       5.273   3.807   1.066  1.00  0.00    +0.0560  H
ATOM     36 H54  MCU L   1       5.327   2.263   2.005  1.00  0.00    +0.0560  H
ATOM     37 H55  MCU L   1       6.787   2.000  -1.333  1.00  0.00    +0.0580  H
ATOM     38 H56  MCU L   1       7.158   2.747   0.241  1.00  0.00    +0.0580  H
ATOM     39 H57  MCU L   1       6.862   0.528   1.370  1.00  0.00    +0.0542  H
ATOM     40 H58  MCU L   1       8.733   0.376  -1.085  1.00  0.00    +0.0250  H
ATOM     41 H59  MCU L   1       8.871  -0.605   0.424  1.00  0.00    +0.0250  H
ATOM     42 H60  MCU L   1       9.112   1.176   0.494  1.00  0.00    +0.0250  H
ATOM     43 H61  MCU L   1       5.788  -0.325  -1.275  1.00  0.00    +0.1627 HD
ATOM     44 H62  MCU L   1       5.203  -3.731   0.334  1.00  0.00    +0.0618  H
ATOM     45 H63  MCU L   1       4.522  -3.861  -2.082  1.00  0.00    +0.0254  H
ATOM     46 H64  MCU L   1       6.295  -3.790  -1.780  1.00  0.00    +0.0254  H
ATOM     47 H65  MCU L   1       5.443  -2.340  -2.397  1.00  0.00    +0.0254  H
ATOM     48 H66  MCU L   1       3.242  -2.668   0.810  1.00  0.00    +0.1631 HD
ATOM     49 H67  MCU L   1       1.165  -1.811   1.185  1.00  0.00    +0.0292  H
ATOM     50 H68  MCU L   1       0.569  -1.635  -0.489  1.00  0.00    +0.0292  H
ATOM     51 H69  MCU L   1      -1.110  -0.878   1.074  1.00  0.00    +0.0489  H
ATOM     52 H70  MCU L   1       0.006   0.258   1.868  1.00  0.00    +0.0489  H
ENDROOT
BRANCH 1 57
ATOM     53  C1  MCU L   1      -6.212  -2.462  -1.431  1.00  0.00    -0.0378  C
ATOM     54  C2  MCU L   1      -5.113  -1.491  -1.099  1.00  0.00    -0.0272  A
ATOM     55  C3  MCU L   1      -3.793  -1.773  -1.485  1.00  0.00    -0.0562  A
ATOM     56  C4  MCU L   1      -2.761  -0.878  -1.192  1.00  0.00    -0.0490  A
ATOM     57  C5  MCU L   1      -3.028   0.319  -0.508  1.00  0.00    +0.0411  A
ATOM     58 C30  MCU L   1      -4.351   0.616  -0.144  1.00  0.00    -0.0259  A
ATOM     59 C31  MCU L   1      -5.392  -0.278  -0.434  1.00  0.00    +0.0415  A
ATOM     60 H38  MCU L   1      -6.877  -2.606  -0.554  1.00  0.00    +0.0278  H
ATOM     61 H39  MCU L   1      -5.801  -3.455  -1.711  1.00  0.00    +0.0278  H
ATOM     62 H40  MCU L   1      -6.807  -2.074  -2.282  1.00  0.00    +0.0278  H
ATOM     63 H41  MCU L   1      -3.560  -2.689  -2.014  1.00  0.00    +0.0621  H
ATOM     64 H42  MCU L   1      -1.754  -1.117  -1.512  1.00  0.00    +0.0625  H
ATOM     65 H71  MCU L   1      -4.580   1.540   0.374  1.00  0.00    +0.0646  H
BRANCH 59 66
ATOM     66 N32  MCU L   1      -6.731   0.054  -0.041  1.00  0.00    -0.3704  N
ATOM     67 C33  MCU L   1      -7.654   0.638  -1.020  1.00  0.00    +0.0186  C
ATOM     68 C34  MCU L   1      -9.065   0.088  -0.789  1.00  0.00    -0.0353  C
ATOM     69 C35  MCU L   1      -9.546   0.254   0.671  1.00  0.00    -0.0499  C
ATOM     70 C36  MCU L   1      -8.433   0.654   1.656  1.00  0.00    -0.0353  C
ATOM     71 C37  MCU L   1      -7.120  -0.085   1.367  1.00  0.00    +0.0186  C
ATOM     72 H72  MCU L   1      -7.334   0.393  -2.058  1.00  0.00    +0.0488  H
ATOM     73 H73  MCU L   1      -7.655   1.745  -0.912  1.00  0.00    +0.0488  H
ATOM     74 H74  MCU L   1      -9.066  -0.994  -1.050  1.00  0.00    +0.0282  H
ATOM     75 H75  MCU L   1      -9.774   0.594  -1.480  1.00  0.00    +0.0282  H
ATOM     76 H76  MCU L   1     -10.004  -0.704   1.011  1.00  0.00    +0.0266  H
ATOM     77 H77  MCU L   1     -10.344   1.029   0.712  1.00  0.00    +0.0266  H
ATOM     78 H78  MCU L   1      -8.760   0.439   2.695  1.00  0.00    +0.0282  H
ATOM     79 H79  MCU L   1      -8.254   1.748   1.580  1.00  0.00    +0.0282  H
ATOM     80 H80  MCU L   1      -7.239  -1.164   1.608  1.00  0.00    +0.0488  H
ATOM     81 H81  MCU L   1      -6.326   0.333   2.023  1.00  0.00    +0.0488  H
ENDBRANCH 59 66
ENDBRANCH 1 57
TORSDOF 2
