ROOT
ATOM      1 C13  187 L   1      -1.700  -0.506   0.283  1.00  0.00    +0.1336  A
ATOM      2 C14  187 L   1      -2.797  -1.151   0.864  1.00  0.00    -0.0190  A
ATOM      3 C15  187 L   1      -4.094  -0.743   0.541  1.00  0.00    -0.0534  A
ATOM      4 C16  187 L   1      -4.234   0.303  -0.343  1.00  0.00    -0.0259  A
ATOM      5 C17  187 L   1      -3.095   0.890  -0.874  1.00  0.00    +0.0468  A
ATOM      6 N18  187 L   1      -1.837   0.519  -0.590  1.00  0.00    -0.2344 NA
ATOM      7 C19  187 L   1      -3.455   1.971  -1.852  1.00  0.00    -0.0098  C
ATOM      8 C20  187 L   1      -4.914   2.243  -1.459  1.00  0.00    -0.0436  C
ATOM      9 C21  187 L   1      -5.471   0.925  -0.896  1.00  0.00    -0.0256  C
ATOM     10 H34  187 L   1      -2.675  -1.969   1.564  1.00  0.00    +0.0654  H
ATOM     11 H35  187 L   1      -4.954  -1.241   0.974  1.00  0.00    +0.0622  H
ATOM     12 H36  187 L   1      -3.384   1.586  -2.874  1.00  0.00    +0.0328  H
ATOM     13 H37  187 L   1      -2.829   2.859  -1.740  1.00  0.00    +0.0328  H
ATOM     14 H38  187 L   1      -5.509   2.625  -2.294  1.00  0.00    +0.0272  H
ATOM     15 H39  187 L   1      -4.937   3.008  -0.670  1.00  0.00    +0.0272  H
ATOM     16 H40  187 L   1      -5.886   0.299  -1.693  1.00  0.00    +0.0314  H
ATOM     17 H41  187 L   1      -6.229   1.108  -0.129  1.00  0.00    +0.0314  H
ENDROOT
BRANCH 1 20
ATOM     18 C10  187 L   1       0.116  -1.843   1.346  1.00  0.00    +0.2311  C
ATOM     19 O11  187 L   1      -0.565  -2.670   1.951  1.00  0.00    -0.2725 OA
ATOM     20 N12  187 L   1      -0.367  -0.838   0.545  1.00  0.00    -0.3107  N
ATOM     21 H33  187 L   1       0.276  -0.267  -0.006  1.00  0.00    +0.1700 HD
BRANCH 18 28
ATOM     22  C3  187 L   1       2.848   0.144  -0.785  1.00  0.00    +0.2469  C
ATOM     23  O4  187 L   1       1.677   0.247  -1.141  1.00  0.00    -0.2681 OA
ATOM     24  N5  187 L   1       3.311  -0.953  -0.067  1.00  0.00    -0.3380  N
ATOM     25  C6  187 L   1       4.318  -0.828   0.983  1.00  0.00    +0.0215  C
ATOM     26  C7  187 L   1       3.660  -0.575   2.347  1.00  0.00    -0.0345  C
ATOM     27  C8  187 L   1       2.131  -0.670   2.322  1.00  0.00    -0.0385  C
ATOM     28  C9  187 L   1       1.634  -1.876   1.508  1.00  0.00    +0.0557  C
ATOM     29 C22  187 L   1       2.361  -2.040   0.167  1.00  0.00    +0.0327  C
ATOM     30 H26  187 L   1       5.039  -0.035   0.773  1.00  0.00    +0.0489  H
ATOM     31 H27  187 L   1       4.882  -1.768   1.010  1.00  0.00    +0.0489  H
ATOM     32 H28  187 L   1       3.950   0.415   2.719  1.00  0.00    +0.0282  H
ATOM     33 H29  187 L   1       4.061  -1.297   3.070  1.00  0.00    +0.0282  H
ATOM     34 H30  187 L   1       1.748  -0.728   3.349  1.00  0.00    +0.0274  H
ATOM     35 H31  187 L   1       1.726   0.263   1.910  1.00  0.00    +0.0274  H
ATOM     36 H32  187 L   1       1.850  -2.780   2.096  1.00  0.00    +0.0414  H
ATOM     37 H42  187 L   1       2.947  -2.968   0.183  1.00  0.00    +0.0496  H
ATOM     38 H43  187 L   1       1.673  -2.136  -0.681  1.00  0.00    +0.0496  H
BRANCH 22 40
ATOM     39  C1  187 L   1       3.442   2.437  -1.415  1.00  0.00    -0.0936  C
ATOM     40  C2  187 L   1       3.844   1.197  -1.110  1.00  0.00    -0.0045  C
ATOM     41 H23  187 L   1       2.389   2.709  -1.414  1.00  0.00    +0.0536  H
ATOM     42 H24  187 L   1       4.158   3.205  -1.684  1.00  0.00    +0.0536  H
ATOM     43 H25  187 L   1       4.890   0.927  -1.145  1.00  0.00    +0.0666  H
ENDBRANCH 22 40
ENDBRANCH 18 28
ENDBRANCH 1 20
TORSDOF 3
