ROOT
ATOM      1  C3  CHE L   1       4.780  -0.356   0.818  1.00  0.00    +0.2468  C
ATOM      2  O4  CHE L   1       5.477  -1.327   1.106  1.00  0.00    -0.2681 OA
ATOM      3  N5  CHE L   1       3.431  -0.437   0.488  1.00  0.00    -0.3387  N
ATOM      4  C6  CHE L   1       2.852  -1.771   0.450  1.00  0.00    +0.0226  C
ATOM      5  C7  CHE L   1       1.362  -1.734   0.778  1.00  0.00    -0.0185  C
ATOM      6  C8  CHE L   1       0.547  -0.781  -0.141  1.00  0.00    +0.0599  C
ATOM      7 C23  CHE L   1       1.267   0.601  -0.146  1.00  0.00    -0.0185  C
ATOM      8 C24  CHE L   1       2.776   0.536  -0.384  1.00  0.00    +0.0226  C
ATOM      9 H28  CHE L   1       3.041  -2.199  -0.542  1.00  0.00    +0.0489  H
ATOM     10 H29  CHE L   1       3.353  -2.419   1.178  1.00  0.00    +0.0489  H
ATOM     11 H30  CHE L   1       1.274  -1.401   1.821  1.00  0.00    +0.0295  H
ATOM     12 H31  CHE L   1       0.967  -2.758   0.734  1.00  0.00    +0.0295  H
ATOM     13 H42  CHE L   1       0.836   1.274  -0.897  1.00  0.00    +0.0295  H
ATOM     14 H43  CHE L   1       1.107   1.084   0.829  1.00  0.00    +0.0295  H
ATOM     15 H44  CHE L   1       3.010   0.254  -1.416  1.00  0.00    +0.0489  H
ATOM     16 H45  CHE L   1       3.191   1.537  -0.251  1.00  0.00    +0.0489  H
ENDROOT
BRANCH 1 18
ATOM     17  C1  CHE L   1       4.979   1.961   1.633  1.00  0.00    -0.0936  C
ATOM     18  C2  CHE L   1       5.416   0.984   0.828  1.00  0.00    -0.0045  C
ATOM     19 H25  CHE L   1       4.114   1.824   2.275  1.00  0.00    +0.0536  H
ATOM     20 H26  CHE L   1       5.496   2.914   1.675  1.00  0.00    +0.0536  H
ATOM     21 H27  CHE L   1       6.319   1.082   0.238  1.00  0.00    +0.0666  H
ENDBRANCH 1 18
BRANCH 6 22
ATOM     22  C9  CHE L   1      -0.908  -0.567   0.366  1.00  0.00    -0.0303  A
ATOM     23 C10  CHE L   1      -1.459  -1.279   1.443  1.00  0.00    -0.0574  A
ATOM     24 C11  CHE L   1      -2.785  -1.074   1.837  1.00  0.00    -0.0580  A
ATOM     25 C12  CHE L   1      -3.594  -0.160   1.163  1.00  0.00    -0.0199  A
ATOM     26 C13  CHE L   1      -3.081   0.554   0.085  1.00  0.00    +0.1208  A
ATOM     27 C17  CHE L   1      -1.753   0.345  -0.305  1.00  0.00    -0.0158  A
ATOM     28 H32  CHE L   1      -0.882  -2.006   2.009  1.00  0.00    +0.0621  H
ATOM     29 H33  CHE L   1      -3.191  -1.633   2.679  1.00  0.00    +0.0619  H
ATOM     30 H34  CHE L   1      -4.617  -0.032   1.502  1.00  0.00    +0.0654  H
ATOM     31 H40  CHE L   1      -1.387   0.907  -1.164  1.00  0.00    +0.0657  H
BRANCH 26 32
ATOM     32 O14  CHE L   1      -3.758   1.467  -0.673  1.00  0.00    -0.4922 OA
BRANCH 32 33
ATOM     33 C15  CHE L   1      -5.109   1.745  -0.308  1.00  0.00    +0.0868  C
ATOM     34 C16  CHE L   1      -5.644   2.800  -1.260  1.00  0.00    -0.0307  C
ATOM     35 H35  CHE L   1      -5.720   0.839  -0.396  1.00  0.00    +0.0694  H
ATOM     36 H36  CHE L   1      -5.155   2.133   0.716  1.00  0.00    +0.0694  H
ATOM     37 H37  CHE L   1      -5.599   2.444  -2.294  1.00  0.00    +0.0262  H
ATOM     38 H38  CHE L   1      -5.034   3.709  -1.208  1.00  0.00    +0.0262  H
ATOM     39 H39  CHE L   1      -6.679   3.055  -1.018  1.00  0.00    +0.0262  H
ENDBRANCH 32 33
ENDBRANCH 26 32
ENDBRANCH 6 22
BRANCH 6 40
ATOM     40 C18  CHE L   1       0.498  -1.378  -1.534  1.00  0.00    +0.1592  A
ATOM     41 N19  CHE L   1       1.292  -1.150  -2.561  1.00  0.00    -0.1127 NA
ATOM     42 N20  CHE L   1       0.841  -1.945  -3.584  1.00  0.00    -0.0232 NA
ATOM     43 N21  CHE L   1      -0.213  -2.652  -3.206  1.00  0.00    -0.0466 NA
ATOM     44 N22  CHE L   1      -0.434  -2.299  -1.935  1.00  0.00    -0.2420  N
ATOM     45 H41  CHE L   1      -1.219  -2.692  -1.431  1.00  0.00    +0.1920 HD
ENDBRANCH 6 40
TORSDOF 5
