ROOT
ATOM      1 N22  MCU L   1      -1.130   3.641  -0.193  1.00  0.00    -0.2349  N
ATOM      2 N23  MCU L   1      -1.590   4.643   0.583  1.00  0.00    -0.0641 NA
ATOM      3 N24  MCU L   1      -1.258   5.787  -0.002  1.00  0.00    -0.1295 NA
ATOM      4 C25  MCU L   1      -0.612   5.494  -1.172  1.00  0.00    +0.1127  A
ATOM      5 C26  MCU L   1      -0.069   6.337  -2.151  1.00  0.00    -0.0324  A
ATOM      6 C27  MCU L   1       0.543   5.757  -3.268  1.00  0.00    -0.0596  A
ATOM      7 C28  MCU L   1       0.599   4.368  -3.413  1.00  0.00    -0.0596  A
ATOM      8 C29  MCU L   1       0.050   3.512  -2.451  1.00  0.00    -0.0345  A
ATOM      9 C30  MCU L   1      -0.538   4.115  -1.335  1.00  0.00    +0.0895  A
ATOM     10 H61  MCU L   1      -0.118   7.414  -2.034  1.00  0.00    +0.0640  H
ATOM     11 H62  MCU L   1       0.982   6.395  -4.030  1.00  0.00    +0.0618  H
ATOM     12 H63  MCU L   1       1.091   3.941  -4.285  1.00  0.00    +0.0618  H
ATOM     13 H64  MCU L   1       0.105   2.437  -2.573  1.00  0.00    +0.0639  H
ENDROOT
BRANCH 1 14
ATOM     14 C21  MCU L   1      -1.392   2.264   0.181  1.00  0.00    +0.1225  C
ATOM     15 H59  MCU L   1      -1.968   1.830  -0.641  1.00  0.00    +0.0608  H
ATOM     16 H60  MCU L   1      -1.994   2.285   1.094  1.00  0.00    +0.0608  H
BRANCH 14 18
ATOM     17 N18  MCU L   1      -0.187   0.080   0.423  1.00  0.00    -0.2945  N
ATOM     18 C19  MCU L   1      -0.115   1.478   0.435  1.00  0.00    +0.2503  C
ATOM     19 O20  MCU L   1       0.976   2.040   0.571  1.00  0.00    -0.2706 OA
BRANCH 17 20
ATOM     20  C8  MCU L   1       1.085  -0.692   0.553  1.00  0.00    +0.1408  C
ATOM     21 H48  MCU L   1       1.837  -0.023   0.998  1.00  0.00    +0.0678  H
BRANCH 20 26
ATOM     22  C3  MCU L   1       0.933  -2.516   3.918  1.00  0.00    +0.1204  A
ATOM     23  C4  MCU L   1       0.709  -3.835   3.534  1.00  0.00    -0.0199  A
ATOM     24  C5  MCU L   1       0.613  -4.160   2.180  1.00  0.00    -0.0580  A
ATOM     25  C6  MCU L   1       0.743  -3.171   1.202  1.00  0.00    -0.0559  A
ATOM     26  C7  MCU L   1       0.980  -1.838   1.562  1.00  0.00    -0.0121  A
ATOM     27 C41  MCU L   1       1.065  -1.530   2.934  1.00  0.00    -0.0143  A
ATOM     28 H45  MCU L   1       0.605  -4.635   4.259  1.00  0.00    +0.0654  H
ATOM     29 H46  MCU L   1       0.436  -5.191   1.882  1.00  0.00    +0.0619  H
ATOM     30 H47  MCU L   1       0.655  -3.465   0.159  1.00  0.00    +0.0621  H
ATOM     31 H73  MCU L   1       1.234  -0.502   3.252  1.00  0.00    +0.0658  H
BRANCH 22 33
ATOM     32  C1  MCU L   1       0.850  -3.007   6.241  1.00  0.00    +0.0788  C
ATOM     33  O2  MCU L   1       1.047  -2.058   5.201  1.00  0.00    -0.4951 OA
ATOM     34 H42  MCU L   1       0.952  -2.482   7.196  1.00  0.00    +0.0660  H
ATOM     35 H43  MCU L   1      -0.158  -3.432   6.201  1.00  0.00    +0.0660  H
ATOM     36 H44  MCU L   1       1.612  -3.792   6.210  1.00  0.00    +0.0660  H
ENDBRANCH 22 33
ENDBRANCH 20 26
BRANCH 20 37
ATOM     37  C9  MCU L   1       1.724  -1.007  -0.829  1.00  0.00    +0.2486  C
ATOM     38 O10  MCU L   1       2.222  -2.088  -1.138  1.00  0.00    -0.2706 OA
ATOM     39 N11  MCU L   1       1.787   0.082  -1.685  1.00  0.00    -0.3515  N
ATOM     40 H49  MCU L   1       1.673   1.010  -1.280  1.00  0.00    +0.1625 HD
BRANCH 39 41
ATOM     41 C12  MCU L   1       2.480   0.035  -2.962  1.00  0.00    +0.0444  C
ATOM     42 H50  MCU L   1       1.792   0.490  -3.683  1.00  0.00    +0.0511  H
ATOM     43 H51  MCU L   1       2.656  -1.002  -3.265  1.00  0.00    +0.0511  H
BRANCH 41 44
ATOM     44 C13  MCU L   1       3.797   0.825  -2.956  1.00  0.00    +0.0760  C
ATOM     45 C14  MCU L   1       4.839   0.344  -1.954  1.00  0.00    -0.0229  C
ATOM     46 C15  MCU L   1       4.738   1.342  -0.826  1.00  0.00    -0.0271  C
ATOM     47 C16  MCU L   1       4.344   2.608  -1.550  1.00  0.00    +0.0482  C
ATOM     48 O17  MCU L   1       3.505   2.203  -2.639  1.00  0.00    -0.3748 OA
ATOM     49 H52  MCU L   1       4.215   0.799  -3.968  1.00  0.00    +0.0613  H
ATOM     50 H53  MCU L   1       5.835   0.417  -2.408  1.00  0.00    +0.0291  H
ATOM     51 H54  MCU L   1       4.705  -0.693  -1.634  1.00  0.00    +0.0291  H
ATOM     52 H55  MCU L   1       3.949   1.043  -0.129  1.00  0.00    +0.0288  H
ATOM     53 H56  MCU L   1       5.666   1.453  -0.257  1.00  0.00    +0.0288  H
ATOM     54 H57  MCU L   1       3.804   3.310  -0.909  1.00  0.00    +0.0560  H
ATOM     55 H58  MCU L   1       5.220   3.114  -1.968  1.00  0.00    +0.0560  H
ENDBRANCH 41 44
ENDBRANCH 39 41
ENDBRANCH 20 37
ENDBRANCH 17 20
BRANCH 17 56
ATOM     56 C31  MCU L   1      -1.404  -0.642   0.270  1.00  0.00    +0.0459  A
ATOM     57 C32  MCU L   1      -2.450  -0.459   1.179  1.00  0.00    -0.0361  A
ATOM     58 C33  MCU L   1      -3.639  -1.190   1.057  1.00  0.00    -0.0364  A
ATOM     59 C34  MCU L   1      -3.798  -2.119   0.029  1.00  0.00    +0.0418  A
ATOM     60 C39  MCU L   1      -2.749  -2.304  -0.877  1.00  0.00    -0.0364  A
ATOM     61 C40  MCU L   1      -1.559  -1.576  -0.756  1.00  0.00    -0.0361  A
ATOM     62 H65  MCU L   1      -2.344   0.207   2.032  1.00  0.00    +0.0639  H
ATOM     63 H66  MCU L   1      -4.413  -1.022   1.800  1.00  0.00    +0.0639  H
ATOM     64 H71  MCU L   1      -2.834  -3.020  -1.690  1.00  0.00    +0.0639  H
ATOM     65 H72  MCU L   1      -0.775  -1.747  -1.488  1.00  0.00    +0.0639  H
BRANCH 59 66
ATOM     66 N35  MCU L   1      -4.955  -2.902  -0.156  1.00  0.00    -0.3264  N
ATOM     67 C36  MCU L   1      -6.102  -2.904   0.618  1.00  0.00    +0.2221  C
ATOM     68 C37  MCU L   1      -7.120  -3.899   0.119  1.00  0.00    +0.0146  C
ATOM     69 O38  MCU L   1      -6.324  -2.221   1.611  1.00  0.00    -0.2732 OA
ATOM     70 H67  MCU L   1      -4.936  -3.548  -0.935  1.00  0.00    +0.1686 HD
ATOM     71 H68  MCU L   1      -6.808  -4.910   0.396  1.00  0.00    +0.0325  H
ATOM     72 H69  MCU L   1      -8.092  -3.687   0.573  1.00  0.00    +0.0325  H
ATOM     73 H70  MCU L   1      -7.225  -3.828  -0.967  1.00  0.00    +0.0325  H
ENDBRANCH 59 66
ENDBRANCH 17 56
ENDBRANCH 14 18
ENDBRANCH 1 14
TORSDOF 10
