ROOT
ATOM      1  C1  SEL L   1       0.791   4.004   0.642  1.00  0.00    +0.0145  C
ATOM      2  C2  SEL L   1      -0.682   3.867   0.348  1.00  0.00    +0.2214  C
ATOM      3  O3  SEL L   1      -1.373   4.889   0.422  1.00  0.00    -0.2733 OA
ATOM      4  N4  SEL L   1      -1.240   2.649  -0.023  1.00  0.00    -0.3244  N
ATOM      5  C5  SEL L   1      -2.706   2.653  -0.196  1.00  0.00    +0.1008  C
ATOM      6  C6  SEL L   1      -3.432   1.362   0.221  1.00  0.00    +0.2474  C
ATOM      7  O7  SEL L   1      -4.526   1.436   0.777  1.00  0.00    -0.2707 OA
ATOM      8  N8  SEL L   1      -2.776   0.176  -0.161  1.00  0.00    -0.3084  N
ATOM      9 C15  SEL L   1      -1.547   0.344  -0.937  1.00  0.00    +0.0515  C
ATOM     10 C16  SEL L   1      -0.554   1.346  -0.268  1.00  0.00    +0.0813  C
ATOM     11 C17  SEL L   1      -0.000   0.728   1.038  1.00  0.00    -0.0084  C
ATOM     12 C18  SEL L   1       1.169  -0.138   0.590  1.00  0.00    +0.0238  C
ATOM     13 N19  SEL L   1       1.629   0.451  -0.658  1.00  0.00    -0.3359  N
ATOM     14 C20  SEL L   1       2.866   0.289  -1.255  1.00  0.00    +0.2547  C
ATOM     15 O21  SEL L   1       3.228   0.950  -2.223  1.00  0.00    -0.2674 OA
ATOM     16 C28  SEL L   1       0.682   1.416  -1.196  1.00  0.00    +0.0466  C
ATOM     17 H29  SEL L   1       0.909   4.647   1.520  1.00  0.00    +0.0325  H
ATOM     18 H30  SEL L   1       1.300   3.072   0.865  1.00  0.00    +0.0325  H
ATOM     19 H31  SEL L   1       1.278   4.483  -0.212  1.00  0.00    +0.0325  H
ATOM     20 H32  SEL L   1      -2.914   2.839  -1.256  1.00  0.00    +0.0587  H
ATOM     21 H33  SEL L   1      -3.157   3.469   0.380  1.00  0.00    +0.0587  H
ATOM     22 H39  SEL L   1      -1.054  -0.603  -1.162  1.00  0.00    +0.0516  H
ATOM     23 H40  SEL L   1      -1.861   0.744  -1.913  1.00  0.00    +0.0516  H
ATOM     24 H41  SEL L   1       0.356   1.490   1.737  1.00  0.00    +0.0306  H
ATOM     25 H42  SEL L   1      -0.739   0.144   1.596  1.00  0.00    +0.0306  H
ATOM     26 H43  SEL L   1       1.970  -0.168   1.334  1.00  0.00    +0.0489  H
ATOM     27 H44  SEL L   1       0.837  -1.160   0.381  1.00  0.00    +0.0489  H
ATOM     28 H50  SEL L   1       0.454   1.147  -2.235  1.00  0.00    +0.0512  H
ATOM     29 H51  SEL L   1       1.169   2.390  -1.237  1.00  0.00    +0.0512  H
ENDROOT
BRANCH 8 30
ATOM     30  C9  SEL L   1      -3.326  -1.137   0.047  1.00  0.00    +0.0447  A
ATOM     31 C10  SEL L   1      -4.698  -1.342   0.258  1.00  0.00    -0.0381  A
ATOM     32 C11  SEL L   1      -5.230  -2.623   0.455  1.00  0.00    -0.0598  A
ATOM     33 C12  SEL L   1      -4.398  -3.735   0.449  1.00  0.00    -0.0616  A
ATOM     34 C13  SEL L   1      -3.035  -3.563   0.249  1.00  0.00    -0.0598  A
ATOM     35 C14  SEL L   1      -2.507  -2.280   0.052  1.00  0.00    -0.0381  A
ATOM     36 H34  SEL L   1      -5.408  -0.520   0.245  1.00  0.00    +0.0638  H
ATOM     37 H35  SEL L   1      -6.300  -2.742   0.609  1.00  0.00    +0.0618  H
ATOM     38 H36  SEL L   1      -4.811  -4.728   0.604  1.00  0.00    +0.0618  H
ATOM     39 H37  SEL L   1      -2.374  -4.427   0.256  1.00  0.00    +0.0618  H
ATOM     40 H38  SEL L   1      -1.430  -2.217  -0.052  1.00  0.00    +0.0638  H
ENDBRANCH 8 30
BRANCH 14 41
ATOM     41 C22  SEL L   1       3.800  -0.708  -0.688  1.00  0.00    +0.0392  A
ATOM     42 C23  SEL L   1       5.069  -0.283  -0.285  1.00  0.00    -0.0494  A
ATOM     43 C24  SEL L   1       5.972  -1.207   0.243  1.00  0.00    -0.0610  A
ATOM     44 C25  SEL L   1       5.610  -2.551   0.353  1.00  0.00    -0.0617  A
ATOM     45 C26  SEL L   1       4.351  -2.978  -0.074  1.00  0.00    -0.0610  A
ATOM     46 C27  SEL L   1       3.445  -2.058  -0.602  1.00  0.00    -0.0494  A
ATOM     47 H45  SEL L   1       5.354   0.762  -0.386  1.00  0.00    +0.0625  H
ATOM     48 H46  SEL L   1       6.959  -0.881   0.560  1.00  0.00    +0.0618  H
ATOM     49 H47  SEL L   1       6.319  -3.270   0.758  1.00  0.00    +0.0618  H
ATOM     50 H48  SEL L   1       4.085  -4.030  -0.006  1.00  0.00    +0.0618  H
ATOM     51 H49  SEL L   1       2.478  -2.400  -0.962  1.00  0.00    +0.0625  H
ENDBRANCH 14 41
TORSDOF 2
