ROOT
ATOM      1 C13  CHE L   1      -0.947  -2.318  -0.676  1.00  0.00    -0.0177  C
ATOM      2 C14  CHE L   1      -1.199  -1.460  -1.934  1.00  0.00    -0.0305  C
ATOM      3 C15  CHE L   1      -1.308   0.028  -1.623  1.00  0.00    +0.0215  C
ATOM      4 N16  CHE L   1      -2.358   0.308  -0.646  1.00  0.00    -0.3409  N
ATOM      5 C17  CHE L   1      -2.972   1.559  -0.681  1.00  0.00    +0.2400  C
ATOM      6 O18  CHE L   1      -2.604   2.436  -1.469  1.00  0.00    -0.2713 OA
ATOM      7 C22  CHE L   1      -2.669  -0.741   0.326  1.00  0.00    +0.0215  C
ATOM      8 C23  CHE L   1      -1.460  -1.629   0.603  1.00  0.00    -0.0305  C
ATOM      9 H34  CHE L   1      -1.546  -3.232  -0.807  1.00  0.00    +0.0322  H
ATOM     10 H35  CHE L   1      -0.428  -1.631  -2.694  1.00  0.00    +0.0286  H
ATOM     11 H36  CHE L   1      -2.146  -1.785  -2.386  1.00  0.00    +0.0286  H
ATOM     12 H37  CHE L   1      -1.506   0.579  -2.549  1.00  0.00    +0.0489  H
ATOM     13 H38  CHE L   1      -0.369   0.413  -1.212  1.00  0.00    +0.0489  H
ATOM     14 H45  CHE L   1      -3.493  -1.333  -0.089  1.00  0.00    +0.0489  H
ATOM     15 H46  CHE L   1      -3.014  -0.310   1.267  1.00  0.00    +0.0489  H
ATOM     16 H47  CHE L   1      -1.729  -2.389   1.346  1.00  0.00    +0.0286  H
ATOM     17 H48  CHE L   1      -0.675  -1.013   1.057  1.00  0.00    +0.0286  H
ENDROOT
BRANCH 1 19
ATOM     18  C1  CHE L   1       0.771  -3.725   0.601  1.00  0.00    -0.0444  C
ATOM     19  C2  CHE L   1       0.529  -2.784  -0.581  1.00  0.00    +0.0300  C
ATOM     20 H24  CHE L   1       0.658  -3.209   1.560  1.00  0.00    +0.0249  H
ATOM     21 H25  CHE L   1       1.790  -4.128   0.570  1.00  0.00    +0.0249  H
ATOM     22 H26  CHE L   1       0.075  -4.570   0.578  1.00  0.00    +0.0249  H
ATOM     23 H27  CHE L   1       0.753  -3.353  -1.493  1.00  0.00    +0.0522  H
BRANCH 19 24
ATOM     24  N3  CHE L   1       1.458  -1.663  -0.518  1.00  0.00    -0.3498  N
ATOM     25  C4  CHE L   1       2.695  -1.710  -1.110  1.00  0.00    +0.2451  C
ATOM     26  O5  CHE L   1       3.079  -2.605  -1.852  1.00  0.00    -0.2683 OA
ATOM     27 H28  CHE L   1       1.239  -0.886   0.090  1.00  0.00    +0.1629 HD
BRANCH 25 28
ATOM     28  C6  CHE L   1       3.562  -0.538  -0.858  1.00  0.00    +0.0045  C
ATOM     29  C7  CHE L   1       3.647   0.073   0.334  1.00  0.00    -0.0297  C
ATOM     30 H29  CHE L   1       4.183  -0.254  -1.699  1.00  0.00    +0.0672  H
ATOM     31 H30  CHE L   1       3.056  -0.294   1.169  1.00  0.00    +0.0641  H
BRANCH 29 32
ATOM     32  C8  CHE L   1       4.478   1.181   0.643  1.00  0.00    +0.0816  A
ATOM     33  C9  CHE L   1       5.369   1.855  -0.158  1.00  0.00    +0.0284  A
ATOM     34 N10  CHE L   1       5.891   2.831   0.648  1.00  0.00    -0.3503  N
ATOM     35 C11  CHE L   1       5.304   2.710   1.876  1.00  0.00    +0.0940  A
ATOM     36 N12  CHE L   1       4.442   1.719   1.902  1.00  0.00    -0.2366 NA
ATOM     37 H31  CHE L   1       5.674   1.738  -1.188  1.00  0.00    +0.0829  H
ATOM     38 H32  CHE L   1       6.585   3.519   0.388  1.00  0.00    +0.1662 HD
ATOM     39 H33  CHE L   1       5.542   3.366   2.702  1.00  0.00    +0.1027  H
ENDBRANCH 29 32
ENDBRANCH 25 28
ENDBRANCH 19 24
ENDBRANCH 1 19
BRANCH 5 40
ATOM     40 C19  CHE L   1      -4.123   1.833   0.321  1.00  0.00    +0.0818  C
ATOM     41 C20  CHE L   1      -5.007   2.980  -0.167  1.00  0.00    -0.0411  C
ATOM     42 N21  CHE L   1      -3.552   2.180   1.639  1.00  0.00    -0.3200 NA
ATOM     43 H39  CHE L   1      -4.746   0.937   0.411  1.00  0.00    +0.0554  H
ATOM     44 H40  CHE L   1      -5.851   3.141   0.512  1.00  0.00    +0.0249  H
ATOM     45 H41  CHE L   1      -5.412   2.759  -1.160  1.00  0.00    +0.0249  H
ATOM     46 H42  CHE L   1      -4.449   3.921  -0.242  1.00  0.00    +0.0249  H
ATOM     47 H43  CHE L   1      -4.296   2.521   2.246  1.00  0.00    +0.1189 HD
ATOM     48 H44  CHE L   1      -2.919   2.973   1.510  1.00  0.00    +0.1189 HD
ENDBRANCH 5 40
TORSDOF 5
