ROOT
ATOM      1 C11  187 L   1      -2.393   0.767  -0.383  1.00  0.00    +0.0265  C
ATOM      2 C12  187 L   1      -2.948   0.197   0.702  1.00  0.00    +0.0447  C
ATOM      3 C16  187 L   1      -4.217   0.904   1.093  1.00  0.00    -0.0202  C
ATOM      4 C17  187 L   1      -4.550   1.728  -0.143  1.00  0.00    -0.0447  C
ATOM      5 C18  187 L   1      -3.223   1.929  -0.861  1.00  0.00    -0.0218  C
ATOM      6 H31  187 L   1      -5.037   0.217   1.324  1.00  0.00    +0.0316  H
ATOM      7 H32  187 L   1      -4.038   1.547   1.962  1.00  0.00    +0.0316  H
ATOM      8 H33  187 L   1      -5.241   1.169  -0.787  1.00  0.00    +0.0272  H
ATOM      9 H34  187 L   1      -5.034   2.677   0.109  1.00  0.00    +0.0272  H
ATOM     10 H35  187 L   1      -2.752   2.873  -0.567  1.00  0.00    +0.0315  H
ATOM     11 H36  187 L   1      -3.377   1.935  -1.945  1.00  0.00    +0.0315  H
ENDROOT
BRANCH 1 13
ATOM     12  N8  187 L   1      -0.140  -0.108  -0.546  1.00  0.00    -0.3453  N
ATOM     13  C9  187 L   1      -1.195   0.448  -1.203  1.00  0.00    +0.2490  C
ATOM     14 O10  187 L   1      -1.164   0.741  -2.393  1.00  0.00    -0.2679 OA
ATOM     15 H29  187 L   1      -0.294  -0.452   0.398  1.00  0.00    +0.1632 HD
BRANCH 12 16
ATOM     16  C6  187 L   1       1.058  -0.533  -1.241  1.00  0.00    +0.0600  C
ATOM     17  C7  187 L   1       0.850  -1.860  -1.971  1.00  0.00    -0.0400  C
ATOM     18 H25  187 L   1       1.290   0.227  -1.999  1.00  0.00    +0.0576  H
ATOM     19 H26  187 L   1       0.505  -2.650  -1.294  1.00  0.00    +0.0253  H
ATOM     20 H27  187 L   1       1.778  -2.199  -2.445  1.00  0.00    +0.0253  H
ATOM     21 H28  187 L   1       0.091  -1.758  -2.754  1.00  0.00    +0.0253  H
BRANCH 16 24
ATOM     22  C3  187 L   1       4.086  -0.101   0.966  1.00  0.00    +0.2224  A
ATOM     23  C4  187 L   1       3.254   0.296  -0.115  1.00  0.00    +0.0136  A
ATOM     24  C5  187 L   1       2.185  -0.571  -0.252  1.00  0.00    +0.0354  A
ATOM     25 S19  187 L   1       2.325  -1.771   0.967  1.00  0.00    +0.0127  S
ATOM     26 N20  187 L   1       3.721  -1.186   1.641  1.00  0.00    -0.1746 NA
ATOM     27 H24  187 L   1       3.429   1.159  -0.742  1.00  0.00    +0.0680  H
BRANCH 22 29
ATOM     28  C1  187 L   1       5.916   0.029   2.419  1.00  0.00    +0.0804  C
ATOM     29  O2  187 L   1       5.205   0.580   1.315  1.00  0.00    -0.4793 OA
ATOM     30 H21  187 L   1       6.277  -0.981   2.196  1.00  0.00    +0.0660  H
ATOM     31 H22  187 L   1       6.791   0.661   2.599  1.00  0.00    +0.0660  H
ATOM     32 H23  187 L   1       5.307   0.040   3.330  1.00  0.00    +0.0660  H
ENDBRANCH 22 29
ENDBRANCH 16 24
ENDBRANCH 12 16
ENDBRANCH 1 13
BRANCH 2 33
ATOM     33 C13  187 L   1      -2.583  -0.968   1.516  1.00  0.00    +0.3332  C
ATOM     34 O14  187 L   1      -3.334  -1.547   2.282  1.00  0.00    -0.2455 OA
ATOM     35 O15  187 L   1      -1.301  -1.340   1.415  1.00  0.00    -0.4773 OA
ATOM     36 H30  187 L   1      -1.248  -2.098   2.040  1.00  0.00    +0.2954 HD
ENDBRANCH 2 33
TORSDOF 5
