ROOT
ATOM      1  C8  846 L   1       0.580   1.270  -2.183  1.00  0.00    +0.1349  C
ATOM      2  C9  846 L   1      -0.287   2.056  -1.177  1.00  0.00    +0.0549  C
ATOM      3 N10  846 L   1      -1.354   1.248  -0.574  1.00  0.00    -0.3334  N
ATOM      4 C11  846 L   1      -1.898   1.671   0.622  1.00  0.00    +0.2538  C
ATOM      5 O12  846 L   1      -1.642   2.764   1.124  1.00  0.00    -0.2676 OA
ATOM      6 C18  846 L   1      -1.893   0.181  -1.418  1.00  0.00    +0.0450  C
ATOM      7 C19  846 L   1      -1.577   0.439  -2.894  1.00  0.00    +0.0663  C
ATOM      8 O20  846 L   1      -0.168   0.496  -3.149  1.00  0.00    -0.3654 OA
ATOM      9 H30  846 L   1       1.186   1.983  -2.754  1.00  0.00    +0.0696  H
ATOM     10 H31  846 L   1       0.326   2.513  -0.391  1.00  0.00    +0.0519  H
ATOM     11 H32  846 L   1      -0.796   2.873  -1.704  1.00  0.00    +0.0519  H
ATOM     12 H38  846 L   1      -2.975   0.098  -1.277  1.00  0.00    +0.0511  H
ATOM     13 H39  846 L   1      -1.416  -0.751  -1.097  1.00  0.00    +0.0511  H
ATOM     14 H40  846 L   1      -1.987  -0.367  -3.511  1.00  0.00    +0.0578  H
ATOM     15 H41  846 L   1      -2.028   1.377  -3.236  1.00  0.00    +0.0578  H
ENDROOT
BRANCH 1 19
ATOM     16  C4  846 L   1       2.907  -0.673  -0.263  1.00  0.00    +0.1537  A
ATOM     17  N5  846 L   1       2.663  -1.578  -1.221  1.00  0.00    -0.1571 NA
ATOM     18  N6  846 L   1       1.798  -0.914  -2.002  1.00  0.00    -0.2603  N
ATOM     19  C7  846 L   1       1.522   0.328  -1.506  1.00  0.00    +0.1559  A
ATOM     20 N21  846 L   1       2.232   0.512  -0.412  1.00  0.00    -0.2132 NA
ATOM     21 H29  846 L   1       1.425  -1.347  -2.839  1.00  0.00    +0.1903 HD
BRANCH 16 23
ATOM     22  C1  846 L   1       3.313  -2.031   1.798  1.00  0.00    -0.0557  C
ATOM     23  C2  846 L   1       3.830  -0.918   0.887  1.00  0.00    +0.0151  C
ATOM     24  C3  846 L   1       5.254  -1.220   0.419  1.00  0.00    -0.0557  C
ATOM     25 H22  846 L   1       2.303  -1.805   2.158  1.00  0.00    +0.0236  H
ATOM     26 H23  846 L   1       3.270  -2.994   1.275  1.00  0.00    +0.0236  H
ATOM     27 H24  846 L   1       3.962  -2.151   2.672  1.00  0.00    +0.0236  H
ATOM     28 H25  846 L   1       3.870   0.003   1.484  1.00  0.00    +0.0375  H
ATOM     29 H26  846 L   1       5.300  -2.149  -0.161  1.00  0.00    +0.0236  H
ATOM     30 H27  846 L   1       5.930  -1.324   1.274  1.00  0.00    +0.0236  H
ATOM     31 H28  846 L   1       5.637  -0.413  -0.216  1.00  0.00    +0.0236  H
ENDBRANCH 16 23
ENDBRANCH 1 19
BRANCH 4 32
ATOM     32 C13  846 L   1      -2.864   0.791   1.297  1.00  0.00    +0.0541  C
ATOM     33 C14  846 L   1      -2.756  -0.511   1.535  1.00  0.00    +0.0929  C
ATOM     34 O15  846 L   1      -3.773  -1.077   2.274  1.00  0.00    -0.4987 OA
ATOM     35 C16  846 L   1      -4.723   0.002   2.428  1.00  0.00    +0.0930  C
ATOM     36 C17  846 L   1      -4.060   1.308   1.993  1.00  0.00    +0.0146  C
ATOM     37 H33  846 L   1      -1.960  -1.187   1.268  1.00  0.00    +0.1028  H
ATOM     38 H34  846 L   1      -5.595  -0.225   1.803  1.00  0.00    +0.0699  H
ATOM     39 H35  846 L   1      -5.051   0.042   3.472  1.00  0.00    +0.0699  H
ATOM     40 H36  846 L   1      -4.720   1.892   1.345  1.00  0.00    +0.0349  H
ATOM     41 H37  846 L   1      -3.784   1.918   2.859  1.00  0.00    +0.0349  H
ENDBRANCH 4 32
TORSDOF 3
