ROOT
ATOM      1 C12  WH0 L   1      -1.108   2.982  -0.312  1.00  0.00    -0.0133  A
ATOM      2 C13  WH0 L   1      -1.579   3.480  -1.548  1.00  0.00    -0.0519  A
ATOM      3 C14  WH0 L   1      -2.501   4.530  -1.599  1.00  0.00    -0.0374  A
ATOM      4 C15  WH0 L   1      -2.929   5.054  -0.400  1.00  0.00    +0.0454  A
ATOM      5 C16  WH0 L   1      -2.481   4.576   0.829  1.00  0.00    -0.0145  A
ATOM      6 C17  WH0 L   1      -1.569   3.538   0.894  1.00  0.00    -0.0483  A
ATOM      7 C18  WH0 L   1      -3.136   5.351   1.933  1.00  0.00    +0.0535  C
ATOM      8 C19  WH0 L   1      -4.013   6.339   1.155  1.00  0.00    +0.2296  C
ATOM      9 O20  WH0 L   1      -4.745   7.193   1.628  1.00  0.00    -0.2725 OA
ATOM     10 N21  WH0 L   1      -3.827   6.089  -0.199  1.00  0.00    -0.3256  N
ATOM     11 H50  WH0 L   1      -1.219   3.054  -2.483  1.00  0.00    +0.0624  H
ATOM     12 H51  WH0 L   1      -2.857   4.910  -2.550  1.00  0.00    +0.0638  H
ATOM     13 H52  WH0 L   1      -1.229   3.162   1.854  1.00  0.00    +0.0627  H
ATOM     14 H53  WH0 L   1      -3.766   4.707   2.551  1.00  0.00    +0.0410  H
ATOM     15 H54  WH0 L   1      -2.399   5.900   2.524  1.00  0.00    +0.0410  H
ATOM     16 H55  WH0 L   1      -4.300   6.611  -0.921  1.00  0.00    +0.1686 HD
ENDROOT
BRANCH 1 22
ATOM     17  C6  WH0 L   1       2.955   0.349   0.636  1.00  0.00    +0.2282  A
ATOM     18  N7  WH0 L   1       3.644   1.270   1.275  1.00  0.00    -0.2207 NA
ATOM     19  C8  WH0 L   1       3.074   2.512   1.450  1.00  0.00    +0.0334  A
ATOM     20  C9  WH0 L   1       1.857   2.882   1.024  1.00  0.00    -0.0173  A
ATOM     21 C10  WH0 L   1       1.081   1.937   0.318  1.00  0.00    +0.0803  A
ATOM     22 C11  WH0 L   1      -0.157   1.886  -0.288  1.00  0.00    +0.0353  A
ATOM     23 C22  WH0 L   1      -0.215   0.587  -0.875  1.00  0.00    +0.1018  A
ATOM     24 N37  WH0 L   1       0.901  -0.117  -0.639  1.00  0.00    -0.1627 NA
ATOM     25 N38  WH0 L   1       1.664   0.702   0.129  1.00  0.00    -0.1987  N
ATOM     26 H48  WH0 L   1       3.693   3.228   1.987  1.00  0.00    +0.0831  H
ATOM     27 H49  WH0 L   1       1.486   3.886   1.201  1.00  0.00    +0.0654  H
BRANCH 17 32
ATOM     28  N1  WH0 L   1       4.661  -4.719  -0.489  1.00  0.00    -0.3271 NA
ATOM     29  C2  WH0 L   1       4.713  -3.630   0.492  1.00  0.00    +0.0080  C
ATOM     30  C3  WH0 L   1       5.372  -2.391  -0.124  1.00  0.00    -0.0199  C
ATOM     31  C4  WH0 L   1       4.933  -1.131   0.614  1.00  0.00    +0.0228  C
ATOM     32  N5  WH0 L   1       3.491  -0.931   0.451  1.00  0.00    -0.3402  N
ATOM     33 C39  WH0 L   1       2.654  -2.136   0.367  1.00  0.00    +0.0228  C
ATOM     34 C40  WH0 L   1       3.321  -3.323   1.058  1.00  0.00    -0.0199  C
ATOM     35 H41  WH0 L   1       5.598  -4.904  -0.847  1.00  0.00    +0.1185 HD
ATOM     36 H42  WH0 L   1       4.103  -4.438  -1.296  1.00  0.00    +0.1185 HD
ATOM     37 H43  WH0 L   1       5.334  -3.984   1.323  1.00  0.00    +0.0459  H
ATOM     38 H44  WH0 L   1       6.463  -2.494  -0.089  1.00  0.00    +0.0297  H
ATOM     39 H45  WH0 L   1       5.101  -2.293  -1.183  1.00  0.00    +0.0297  H
ATOM     40 H46  WH0 L   1       5.186  -1.196   1.680  1.00  0.00    +0.0489  H
ATOM     41 H47  WH0 L   1       5.481  -0.278   0.195  1.00  0.00    +0.0489  H
ATOM     42 H66  WH0 L   1       1.694  -1.976   0.870  1.00  0.00    +0.0489  H
ATOM     43 H67  WH0 L   1       2.459  -2.373  -0.685  1.00  0.00    +0.0489  H
ATOM     44 H68  WH0 L   1       2.669  -4.204   1.007  1.00  0.00    +0.0297  H
ATOM     45 H69  WH0 L   1       3.423  -3.092   2.127  1.00  0.00    +0.0297  H
ENDBRANCH 17 32
BRANCH 23 46
ATOM     46 C23  WH0 L   1      -1.290  -0.008  -1.663  1.00  0.00    +0.0061  A
ATOM     47 C24  WH0 L   1      -1.087  -0.136  -3.050  1.00  0.00    -0.0495  A
ATOM     48 C25  WH0 L   1      -2.072  -0.691  -3.865  1.00  0.00    -0.0258  A
ATOM     49 C26  WH0 L   1      -3.259  -1.123  -3.294  1.00  0.00    +0.1237  A
ATOM     50 F27  WH0 L   1      -4.208  -1.660  -4.071  1.00  0.00    -0.2055  F
ATOM     51 C28  WH0 L   1      -3.475  -1.020  -1.923  1.00  0.00    -0.0226  A
ATOM     52 C29  WH0 L   1      -2.491  -0.468  -1.081  1.00  0.00    -0.0338  A
ATOM     53 H56  WH0 L   1      -0.149   0.194  -3.494  1.00  0.00    +0.0625  H
ATOM     54 H57  WH0 L   1      -1.918  -0.794  -4.934  1.00  0.00    +0.0646  H
ATOM     55 H58  WH0 L   1      -4.415  -1.387  -1.520  1.00  0.00    +0.0649  H
BRANCH 52 56
ATOM     56 C30  WH0 L   1      -2.758  -0.440   0.412  1.00  0.00    -0.0095  C
ATOM     57 H59  WH0 L   1      -3.826  -0.628   0.589  1.00  0.00    +0.0330  H
ATOM     58 H60  WH0 L   1      -2.578   0.568   0.799  1.00  0.00    +0.0330  H
BRANCH 56 59
ATOM     59 C31  WH0 L   1      -1.944  -1.457   1.220  1.00  0.00    +0.0221  C
ATOM     60 H61  WH0 L   1      -2.226  -1.385   2.277  1.00  0.00    +0.0489  H
ATOM     61 H62  WH0 L   1      -0.870  -1.258   1.166  1.00  0.00    +0.0489  H
BRANCH 59 62
ATOM     62 N32  WH0 L   1      -2.150  -2.826   0.781  1.00  0.00    -0.3547  N
ATOM     63 C33  WH0 L   1      -1.715  -3.879   1.564  1.00  0.00    +0.2356  C
ATOM     64 O34  WH0 L   1      -1.342  -3.738   2.727  1.00  0.00    -0.2720 OA
ATOM     65 H63  WH0 L   1      -2.087  -2.996  -0.219  1.00  0.00    +0.1623 HD
BRANCH 63 66
ATOM     66 C35  WH0 L   1      -1.817  -5.247   0.916  1.00  0.00    +0.1010  C
ATOM     67 CL36 WH0 L   1      -1.274  -5.185  -0.778  1.00  0.00    -0.1154 Cl
ATOM     68 H64  WH0 L   1      -1.176  -5.954   1.450  1.00  0.00    +0.0527  H
ATOM     69 H65  WH0 L   1      -2.856  -5.590   0.943  1.00  0.00    +0.0527  H
ENDBRANCH 63 66
ENDBRANCH 59 62
ENDBRANCH 56 59
ENDBRANCH 52 56
ENDBRANCH 23 46
ENDBRANCH 1 22
TORSDOF 7
