ROOT
ATOM      1 C16  813 L   1      -3.977   0.423  -0.073  1.00  0.00    +0.1802  C
ATOM      2 C17  813 L   1      -4.673   1.511   0.304  1.00  0.00    -0.0367  C
ATOM      3 C18  813 L   1      -6.159   1.501   0.458  1.00  0.00    -0.0278  C
ATOM      4 C19  813 L   1      -6.760   0.238  -0.149  1.00  0.00    -0.0151  C
ATOM      5 C20  813 L   1      -5.888  -0.957   0.203  1.00  0.00    +0.0901  C
ATOM      6 O21  813 L   1      -4.554  -0.818  -0.302  1.00  0.00    -0.4869 OA
ATOM      7 H35  813 L   1      -4.161   2.455   0.480  1.00  0.00    +0.0610  H
ATOM      8 H36  813 L   1      -6.406   1.559   1.525  1.00  0.00    +0.0310  H
ATOM      9 H37  813 L   1      -6.592   2.383  -0.027  1.00  0.00    +0.0310  H
ATOM     10 H38  813 L   1      -7.786   0.093   0.206  1.00  0.00    +0.0301  H
ATOM     11 H39  813 L   1      -6.798   0.351  -1.241  1.00  0.00    +0.0301  H
ATOM     12 H40  813 L   1      -5.842  -1.111   1.290  1.00  0.00    +0.0696  H
ATOM     13 H41  813 L   1      -6.309  -1.868  -0.237  1.00  0.00    +0.0696  H
ENDROOT
BRANCH 1 15
ATOM     14 N13  813 L   1      -1.903  -0.646  -0.614  1.00  0.00    -0.3478  N
ATOM     15 C14  813 L   1      -2.492   0.552  -0.283  1.00  0.00    +0.2865  C
ATOM     16 O15  813 L   1      -1.888   1.610  -0.170  1.00  0.00    -0.2643 OA
ATOM     17 H34  813 L   1      -2.535  -1.417  -0.799  1.00  0.00    +0.1628 HD
BRANCH 14 18
ATOM     18 C12  813 L   1      -0.528  -0.749  -1.069  1.00  0.00    +0.0359  C
ATOM     19 H32  813 L   1      -0.346  -1.815  -1.247  1.00  0.00    +0.0503  H
ATOM     20 H33  813 L   1      -0.457  -0.226  -2.027  1.00  0.00    +0.0503  H
BRANCH 18 21
ATOM     21 C11  813 L   1       0.500  -0.180  -0.076  1.00  0.00    +0.0355  C
ATOM     22 H30  813 L   1       0.678   0.880  -0.281  1.00  0.00    +0.0503  H
ATOM     23 H31  813 L   1       0.131  -0.266   0.953  1.00  0.00    +0.0503  H
BRANCH 21 26
ATOM     24  O1  813 L   1       2.128  -0.637  -2.358  1.00  0.00    -0.2729 OA
ATOM     25  C2  813 L   1       2.548  -0.934  -1.244  1.00  0.00    +0.2253  C
ATOM     26 N10  813 L   1       1.790  -0.853  -0.089  1.00  0.00    -0.3540  N
ATOM     27 H29  813 L   1       2.316  -0.815   0.776  1.00  0.00    +0.1624 HD
BRANCH 25 28
ATOM     28  C3  813 L   1       3.951  -1.477  -1.026  1.00  0.00    +0.0512  C
ATOM     29 H22  813 L   1       4.409  -1.686  -2.002  1.00  0.00    +0.0409  H
ATOM     30 H23  813 L   1       3.863  -2.444  -0.511  1.00  0.00    +0.0409  H
BRANCH 28 31
ATOM     31  C4  813 L   1       4.836  -0.535  -0.245  1.00  0.00    -0.0384  A
ATOM     32  C5  813 L   1       5.104   0.753  -0.728  1.00  0.00    -0.0581  A
ATOM     33  C6  813 L   1       5.915   1.626  -0.003  1.00  0.00    -0.0615  A
ATOM     34  C7  813 L   1       6.472   1.217   1.207  1.00  0.00    -0.0617  A
ATOM     35  C8  813 L   1       6.220  -0.065   1.695  1.00  0.00    -0.0615  A
ATOM     36  C9  813 L   1       5.409  -0.940   0.971  1.00  0.00    -0.0581  A
ATOM     37 H24  813 L   1       4.677   1.086  -1.674  1.00  0.00    +0.0620  H
ATOM     38 H25  813 L   1       6.114   2.624  -0.383  1.00  0.00    +0.0618  H
ATOM     39 H26  813 L   1       7.105   1.897   1.771  1.00  0.00    +0.0618  H
ATOM     40 H27  813 L   1       6.658  -0.381   2.638  1.00  0.00    +0.0618  H
ATOM     41 H28  813 L   1       5.230  -1.938   1.363  1.00  0.00    +0.0620  H
ENDBRANCH 28 31
ENDBRANCH 25 28
ENDBRANCH 21 26
ENDBRANCH 18 21
ENDBRANCH 14 18
ENDBRANCH 1 15
TORSDOF 6
