ROOT
ATOM      1  C1  952 L   1       4.101  -1.974   0.017  1.00  0.00    -0.0123  C
ATOM      2  N2  952 L   1       4.309  -0.941   1.032  1.00  0.00    -0.2980 NA
ATOM      3  C3  952 L   1       5.424  -0.035   0.691  1.00  0.00    +0.0186  C
ATOM      4  C4  952 L   1       5.174   0.868  -0.522  1.00  0.00    +0.0546  C
ATOM      5  N5  952 L   1       3.810   1.356  -0.522  1.00  0.00    -0.2655  N
ATOM      6  N6  952 L   1       3.414   2.299  -1.391  1.00  0.00    -0.1790 NA
ATOM      7  C7  952 L   1       2.103   2.401  -1.154  1.00  0.00    +0.0541  A
ATOM      8  C8  952 L   1       1.659   1.535  -0.124  1.00  0.00    +0.0083  A
ATOM      9 C20  952 L   1       2.806   0.862   0.262  1.00  0.00    +0.0576  A
ATOM     10 C21  952 L   1       3.079  -0.174   1.294  1.00  0.00    +0.0410  C
ATOM     11 H22  952 L   1       3.338  -2.685   0.350  1.00  0.00    +0.0391  H
ATOM     12 H23  952 L   1       5.020  -2.552  -0.132  1.00  0.00    +0.0391  H
ATOM     13 H24  952 L   1       3.790  -1.573  -0.953  1.00  0.00    +0.0391  H
ATOM     14 H25  952 L   1       5.619   0.598   1.568  1.00  0.00    +0.0445  H
ATOM     15 H26  952 L   1       6.346  -0.609   0.540  1.00  0.00    +0.0445  H
ATOM     16 H27  952 L   1       5.844   1.734  -0.507  1.00  0.00    +0.0521  H
ATOM     17 H28  952 L   1       5.314   0.319  -1.459  1.00  0.00    +0.0521  H
ATOM     18 H29  952 L   1       1.518   3.101  -1.738  1.00  0.00    +0.0851  H
ATOM     19 H48  952 L   1       2.222  -0.850   1.400  1.00  0.00    +0.0491  H
ATOM     20 H49  952 L   1       3.186   0.327   2.265  1.00  0.00    +0.0491  H
ENDROOT
BRANCH 8 21
ATOM     21  C9  952 L   1       0.277   1.401   0.407  1.00  0.00    +0.0248  C
ATOM     22 H30  952 L   1       0.316   1.172   1.479  1.00  0.00    +0.0475  H
ATOM     23 H31  952 L   1      -0.257   2.349   0.283  1.00  0.00    +0.0475  H
BRANCH 21 24
ATOM     24 N10  952 L   1      -0.382   0.330  -0.336  1.00  0.00    -0.3064 NA
ATOM     25 H32  952 L   1       0.214  -0.498  -0.314  1.00  0.00    +0.1226 HD
BRANCH 24 26
ATOM     26 C11  952 L   1      -1.702  -0.002   0.203  1.00  0.00    +0.0391  C
ATOM     27 C12  952 L   1      -2.743   1.099   0.071  1.00  0.00    -0.0061  C
ATOM     28 C13  952 L   1      -4.058   0.338   0.268  1.00  0.00    +0.0662  C
ATOM     29 C14  952 L   1      -5.185   0.922  -0.579  1.00  0.00    -0.0360  C
ATOM     30 C15  952 L   1      -4.477   0.295   1.740  1.00  0.00    -0.0360  C
ATOM     31 O16  952 L   1      -3.824  -1.023  -0.153  1.00  0.00    -0.3665 OA
ATOM     32 C17  952 L   1      -2.425  -1.186  -0.483  1.00  0.00    +0.0800  C
ATOM     33 C18  952 L   1      -2.321  -1.183  -2.015  1.00  0.00    -0.0346  C
ATOM     34 C19  952 L   1      -1.954  -2.535   0.059  1.00  0.00    -0.0346  C
ATOM     35 H33  952 L   1      -1.592  -0.241   1.270  1.00  0.00    +0.0489  H
ATOM     36 H34  952 L   1      -2.610   1.908   0.797  1.00  0.00    +0.0309  H
ATOM     37 H35  952 L   1      -2.698   1.549  -0.929  1.00  0.00    +0.0309  H
ATOM     38 H36  952 L   1      -4.933   0.887  -1.645  1.00  0.00    +0.0257  H
ATOM     39 H37  952 L   1      -6.104   0.336  -0.463  1.00  0.00    +0.0257  H
ATOM     40 H38  952 L   1      -5.396   1.961  -0.306  1.00  0.00    +0.0257  H
ATOM     41 H39  952 L   1      -4.666   1.299   2.133  1.00  0.00    +0.0257  H
ATOM     42 H40  952 L   1      -3.710  -0.181   2.361  1.00  0.00    +0.0257  H
ATOM     43 H41  952 L   1      -5.386  -0.304   1.867  1.00  0.00    +0.0257  H
ATOM     44 H42  952 L   1      -1.294  -1.350  -2.354  1.00  0.00    +0.0258  H
ATOM     45 H43  952 L   1      -2.953  -1.969  -2.443  1.00  0.00    +0.0258  H
ATOM     46 H44  952 L   1      -2.678  -0.242  -2.445  1.00  0.00    +0.0258  H
ATOM     47 H45  952 L   1      -0.895  -2.711  -0.157  1.00  0.00    +0.0258  H
ATOM     48 H46  952 L   1      -2.103  -2.594   1.143  1.00  0.00    +0.0258  H
ATOM     49 H47  952 L   1      -2.538  -3.355  -0.374  1.00  0.00    +0.0258  H
ENDBRANCH 24 26
ENDBRANCH 21 24
ENDBRANCH 8 21
TORSDOF 3
