ROOT
ATOM      1  N3  EUB L   1      -3.228   0.601  -0.622  1.00  0.00    -0.2609  N
ATOM      2  C4  EUB L   1      -3.656   1.085   0.604  1.00  0.00    +0.2594  A
ATOM      3  O5  EUB L   1      -4.473   1.994   0.738  1.00  0.00    -0.2672 OA
ATOM      4  C6  EUB L   1      -3.074   0.440   1.806  1.00  0.00    +0.0304  A
ATOM      5  C7  EUB L   1      -3.452   0.997   3.140  1.00  0.00    -0.0332  C
ATOM      6  C8  EUB L   1      -2.250  -0.596   1.636  1.00  0.00    +0.0178  A
ATOM      7  N9  EUB L   1      -1.925  -1.082   0.389  1.00  0.00    -0.2936  N
ATOM      8 C25  EUB L   1      -2.400  -0.506  -0.784  1.00  0.00    +0.3323  A
ATOM      9 O26  EUB L   1      -2.106  -0.959  -1.891  1.00  0.00    -0.2462 OA
ATOM     10 H32  EUB L   1      -2.961   0.460   3.959  1.00  0.00    +0.0280  H
ATOM     11 H33  EUB L   1      -3.160   2.050   3.213  1.00  0.00    +0.0280  H
ATOM     12 H34  EUB L   1      -4.533   0.923   3.296  1.00  0.00    +0.0280  H
ATOM     13 H35  EUB L   1      -1.799  -1.097   2.490  1.00  0.00    +0.0815  H
ENDROOT
BRANCH 1 15
ATOM     14  C1  EUB L   1      -5.069   0.572  -2.267  1.00  0.00    -0.0468  C
ATOM     15  C2  EUB L   1      -3.768   1.227  -1.824  1.00  0.00    +0.0281  C
ATOM     16 H27  EUB L   1      -5.452   1.061  -3.168  1.00  0.00    +0.0247  H
ATOM     17 H28  EUB L   1      -5.833   0.645  -1.487  1.00  0.00    +0.0247  H
ATOM     18 H29  EUB L   1      -4.920  -0.489  -2.491  1.00  0.00    +0.0247  H
ATOM     19 H30  EUB L   1      -3.943   2.293  -1.634  1.00  0.00    +0.0491  H
ATOM     20 H31  EUB L   1      -3.033   1.163  -2.634  1.00  0.00    +0.0491  H
ENDBRANCH 1 15
BRANCH 7 21
ATOM     21 C10  EUB L   1      -1.009  -2.224   0.284  1.00  0.00    +0.0778  C
ATOM     22 H36  EUB L   1      -1.292  -2.965   1.042  1.00  0.00    +0.0564  H
ATOM     23 H37  EUB L   1      -1.110  -2.721  -0.687  1.00  0.00    +0.0564  H
BRANCH 21 24
ATOM     24 C11  EUB L   1       0.405  -1.785   0.507  1.00  0.00    +0.1223  A
ATOM     25 N12  EUB L   1       1.027  -1.840   1.666  1.00  0.00    -0.1441 NA
ATOM     26 N13  EUB L   1       2.318  -1.364   1.585  1.00  0.00    -0.1411 NA
ATOM     27 C14  EUB L   1       2.634  -0.940   0.374  1.00  0.00    +0.1351  A
ATOM     28 S24  EUB L   1       1.367  -1.161  -0.770  1.00  0.00    -0.0486  S
BRANCH 27 29
ATOM     29 C15  EUB L   1       3.954  -0.413   0.008  1.00  0.00    +0.0479  A
ATOM     30 C16  EUB L   1       5.086  -0.878   0.709  1.00  0.00    -0.0463  A
ATOM     31 C17  EUB L   1       6.368  -0.409   0.405  1.00  0.00    -0.0220  A
ATOM     32 C18  EUB L   1       6.525   0.538  -0.597  1.00  0.00    +0.1675  A
ATOM     33 F19  EUB L   1       7.749   0.996  -0.896  1.00  0.00    -0.2016  F
ATOM     34 C20  EUB L   1       5.425   1.024  -1.294  1.00  0.00    +0.1884  A
ATOM     35 O21  EUB L   1       5.590   1.965  -2.273  1.00  0.00    -0.5019 OA
ATOM     36 C22  EUB L   1       4.147   0.554  -0.990  1.00  0.00    +0.1771  A
ATOM     37 F23  EUB L   1       3.101   1.066  -1.656  1.00  0.00    -0.2008  F
ATOM     38 H38  EUB L   1       4.970  -1.619   1.501  1.00  0.00    +0.0626  H
ATOM     39 H39  EUB L   1       7.235  -0.774   0.947  1.00  0.00    +0.0648  H
ATOM     40 H40  EUB L   1       6.542   2.168  -2.330  1.00  0.00    +0.2924 HD
ENDBRANCH 27 29
ENDBRANCH 21 24
ENDBRANCH 7 21
TORSDOF 4
