ROOT
ATOM      1  C1  585 L   1       5.012  -1.034   0.312  1.00  0.00    +0.0130  C
ATOM      2  N2  585 L   1       4.227   0.165   0.175  1.00  0.00    -0.3367  N
ATOM      3  C3  585 L   1       4.716   1.439   0.067  1.00  0.00    +0.0963  A
ATOM      4  N4  585 L   1       3.749   2.327  -0.043  1.00  0.00    -0.2386 NA
ATOM      5  C5  585 L   1       2.590   1.597  -0.013  1.00  0.00    +0.0816  A
ATOM      6  C6  585 L   1       2.869   0.257   0.131  1.00  0.00    +0.0447  A
ATOM      7  C7  585 L   1       1.850  -0.814   0.205  1.00  0.00    +0.0122  C
ATOM      8  C8  585 L   1       0.470  -0.182   0.561  1.00  0.00    +0.0616  C
ATOM      9 N11  585 L   1       0.209   1.091  -0.185  1.00  0.00    -0.3273  N
ATOM     10 C12  585 L   1      -1.068   1.518  -0.526  1.00  0.00    +0.2509  C
ATOM     11 O13  585 L   1      -1.364   2.695  -0.713  1.00  0.00    -0.2677 OA
ATOM     12 C20  585 L   1       1.218   2.172  -0.083  1.00  0.00    +0.0657  C
ATOM     13 H21  585 L   1       4.825  -1.457   1.302  1.00  0.00    +0.0456  H
ATOM     14 H22  585 L   1       4.712  -1.738  -0.469  1.00  0.00    +0.0456  H
ATOM     15 H23  585 L   1       6.072  -0.794   0.203  1.00  0.00    +0.0456  H
ATOM     16 H24  585 L   1       5.775   1.665   0.076  1.00  0.00    +0.1029  H
ATOM     17 H25  585 L   1       2.128  -1.590   0.925  1.00  0.00    +0.0349  H
ATOM     18 H26  585 L   1       1.778  -1.286  -0.782  1.00  0.00    +0.0349  H
ATOM     19 H27  585 L   1      -0.275  -0.931   0.278  1.00  0.00    +0.0551  H
ATOM     20 H40  585 L   1       1.127   2.836  -0.950  1.00  0.00    +0.0554  H
ATOM     21 H41  585 L   1       1.004   2.749   0.823  1.00  0.00    +0.0554  H
ENDROOT
BRANCH 8 22
ATOM     22  C9  585 L   1       0.314   0.024   2.084  1.00  0.00    +0.0650  C
ATOM     23 O10  585 L   1       0.230  -1.229   2.761  1.00  0.00    -0.3930 OA
ATOM     24 H28  585 L   1       1.159   0.578   2.504  1.00  0.00    +0.0578  H
ATOM     25 H29  585 L   1      -0.594   0.592   2.315  1.00  0.00    +0.0578  H
ATOM     26 H30  585 L   1      -0.666  -1.579   2.615  1.00  0.00    +0.2095 HD
ENDBRANCH 8 22
BRANCH 10 27
ATOM     27 C14  585 L   1      -2.126   0.481  -0.667  1.00  0.00    +0.0129  C
ATOM     28 C15  585 L   1      -2.014  -0.442  -1.639  1.00  0.00    -0.0757  C
ATOM     29 C16  585 L   1      -3.059  -1.490  -1.888  1.00  0.00    -0.0340  C
ATOM     30 C17  585 L   1      -4.097  -1.581  -0.767  1.00  0.00    -0.0493  C
ATOM     31 C18  585 L   1      -4.528  -0.195  -0.294  1.00  0.00    -0.0486  C
ATOM     32 C19  585 L   1      -3.332   0.615   0.216  1.00  0.00    -0.0229  C
ATOM     33 H31  585 L   1      -1.150  -0.440  -2.301  1.00  0.00    +0.0576  H
ATOM     34 H32  585 L   1      -3.559  -1.259  -2.836  1.00  0.00    +0.0308  H
ATOM     35 H33  585 L   1      -2.575  -2.466  -2.009  1.00  0.00    +0.0308  H
ATOM     36 H34  585 L   1      -4.968  -2.148  -1.117  1.00  0.00    +0.0268  H
ATOM     37 H35  585 L   1      -3.675  -2.138   0.079  1.00  0.00    +0.0268  H
ATOM     38 H36  585 L   1      -5.008   0.339  -1.124  1.00  0.00    +0.0269  H
ATOM     39 H37  585 L   1      -5.277  -0.285   0.502  1.00  0.00    +0.0269  H
ATOM     40 H38  585 L   1      -3.064   0.270   1.222  1.00  0.00    +0.0315  H
ATOM     41 H39  585 L   1      -3.634   1.665   0.307  1.00  0.00    +0.0315  H
ENDBRANCH 10 27
TORSDOF 2
