ROOT
ATOM      1  C4  CHE L   1      -2.507  -0.142  -0.633  1.00  0.00    +0.0301  A
ATOM      2  C5  CHE L   1      -3.488  -0.212  -1.560  1.00  0.00    +0.0088  A
ATOM      3  C6  CHE L   1      -3.378   0.550  -2.824  1.00  0.00    +0.2231  A
ATOM      4  O7  CHE L   1      -4.255   0.521  -3.682  1.00  0.00    -0.2839 OA
ATOM      5  C8  CHE L   1      -2.150   1.359  -3.035  1.00  0.00    +0.1804  A
ATOM      6  O9  CHE L   1      -2.004   2.070  -4.206  1.00  0.00    -0.5022 OA
ATOM      7 C10  CHE L   1      -1.245   1.365  -2.052  1.00  0.00    +0.0553  A
ATOM      8 N11  CHE L   1      -1.367   0.670  -0.850  1.00  0.00    -0.3161  N
ATOM      9 H31  CHE L   1      -4.376  -0.820  -1.453  1.00  0.00    +0.0674  H
ATOM     10 H32  CHE L   1      -2.820   1.881  -4.716  1.00  0.00    +0.2923 HD
ATOM     11 H33  CHE L   1      -0.341   1.961  -2.152  1.00  0.00    +0.0851  H
ENDROOT
BRANCH 1 13
ATOM     12  C1  CHE L   1      -3.754  -0.541   1.541  1.00  0.00    -0.0573  C
ATOM     13  C2  CHE L   1      -2.615  -1.010   0.630  1.00  0.00    -0.0057  C
ATOM     14  C3  CHE L   1      -2.773  -2.501   0.300  1.00  0.00    -0.0573  C
ATOM     15 H24  CHE L   1      -4.734  -0.679   1.071  1.00  0.00    +0.0236  H
ATOM     16 H25  CHE L   1      -3.649   0.519   1.794  1.00  0.00    +0.0236  H
ATOM     17 H26  CHE L   1      -3.754  -1.108   2.478  1.00  0.00    +0.0236  H
ATOM     18 H27  CHE L   1      -1.693  -0.948   1.215  1.00  0.00    +0.0358  H
ATOM     19 H28  CHE L   1      -3.733  -2.720  -0.180  1.00  0.00    +0.0236  H
ATOM     20 H29  CHE L   1      -2.721  -3.101   1.215  1.00  0.00    +0.0236  H
ATOM     21 H30  CHE L   1      -1.973  -2.841  -0.367  1.00  0.00    +0.0236  H
ENDBRANCH 1 13
BRANCH 8 22
ATOM     22 C12  CHE L   1      -0.361   0.879   0.140  1.00  0.00    +0.0470  A
ATOM     23 C13  CHE L   1      -0.648   1.582   1.318  1.00  0.00    -0.0378  A
ATOM     24 C14  CHE L   1       0.344   1.796   2.273  1.00  0.00    -0.0592  A
ATOM     25 C15  CHE L   1       1.637   1.314   2.056  1.00  0.00    -0.0539  A
ATOM     26 C16  CHE L   1       1.963   0.615   0.882  1.00  0.00    -0.0159  A
ATOM     27 C23  CHE L   1       0.948   0.411  -0.069  1.00  0.00    -0.0301  A
ATOM     28 H34  CHE L   1      -1.647   1.975   1.486  1.00  0.00    +0.0638  H
ATOM     29 H35  CHE L   1       0.113   2.339   3.185  1.00  0.00    +0.0618  H
ATOM     30 H36  CHE L   1       2.395   1.482   2.819  1.00  0.00    +0.0624  H
ATOM     31 H42  CHE L   1       1.174  -0.121  -0.991  1.00  0.00    +0.0644  H
BRANCH 26 32
ATOM     32 C17  CHE L   1       3.327   0.111   0.654  1.00  0.00    -0.0178  A
ATOM     33 C18  CHE L   1       3.557  -1.239   0.338  1.00  0.00    -0.0540  A
ATOM     34 C19  CHE L   1       4.851  -1.719   0.121  1.00  0.00    -0.0612  A
ATOM     35 C20  CHE L   1       5.940  -0.856   0.215  1.00  0.00    -0.0617  A
ATOM     36 C21  CHE L   1       5.735   0.486   0.527  1.00  0.00    -0.0612  A
ATOM     37 C22  CHE L   1       4.440   0.964   0.744  1.00  0.00    -0.0540  A
ATOM     38 H37  CHE L   1       2.722  -1.933   0.269  1.00  0.00    +0.0624  H
ATOM     39 H38  CHE L   1       5.008  -2.767  -0.120  1.00  0.00    +0.0618  H
ATOM     40 H39  CHE L   1       6.947  -1.228   0.045  1.00  0.00    +0.0618  H
ATOM     41 H40  CHE L   1       6.582   1.164   0.597  1.00  0.00    +0.0618  H
ATOM     42 H41  CHE L   1       4.302   2.019   0.974  1.00  0.00    +0.0624  H
ENDBRANCH 26 32
ENDBRANCH 8 22
TORSDOF 3
