ROOT
ATOM      1  C1  699 L   1      -6.377  -1.182   0.702  1.00  0.00    -0.0206  C
ATOM      2  C2  699 L   1      -5.160  -0.341   0.779  1.00  0.00    +0.0602  A
ATOM      3  C3  699 L   1      -5.050   1.055   0.596  1.00  0.00    -0.0183  A
ATOM      4  C4  699 L   1      -3.715   1.344   0.774  1.00  0.00    +0.0365  A
ATOM      5  C5  699 L   1      -2.987   2.636   0.710  1.00  0.00    -0.0227  C
ATOM      6  N6  699 L   1      -3.113   0.142   1.046  1.00  0.00    -0.2664  N
ATOM      7 N21  699 L   1      -3.974  -0.896   1.052  1.00  0.00    -0.1762 NA
ATOM      8 H22  699 L   1      -6.269  -1.943  -0.077  1.00  0.00    +0.0293  H
ATOM      9 H23  699 L   1      -6.557  -1.685   1.657  1.00  0.00    +0.0293  H
ATOM     10 H24  699 L   1      -7.259  -0.578   0.465  1.00  0.00    +0.0293  H
ATOM     11 H25  699 L   1      -5.841   1.756   0.368  1.00  0.00    +0.0654  H
ATOM     12 H26  699 L   1      -2.565   2.891   1.687  1.00  0.00    +0.0292  H
ATOM     13 H27  699 L   1      -2.175   2.592  -0.022  1.00  0.00    +0.0292  H
ATOM     14 H28  699 L   1      -3.661   3.447   0.414  1.00  0.00    +0.0292  H
ENDROOT
BRANCH 6 15
ATOM     15  C7  699 L   1      -1.707  -0.109   1.312  1.00  0.00    +0.0623  C
ATOM     16 H29  699 L   1      -1.642  -0.947   2.016  1.00  0.00    +0.0529  H
ATOM     17 H30  699 L   1      -1.323   0.765   1.846  1.00  0.00    +0.0529  H
BRANCH 15 18
ATOM     18  C8  699 L   1      -0.923  -0.399   0.026  1.00  0.00    +0.0520  C
ATOM     19  C9  699 L   1      -1.277  -1.770  -0.573  1.00  0.00    -0.0291  C
ATOM     20 C10  699 L   1      -0.016  -2.162  -1.325  1.00  0.00    -0.0333  C
ATOM     21 C11  699 L   1       1.091  -1.663  -0.410  1.00  0.00    +0.0216  C
ATOM     22 N12  699 L   1       0.535  -0.469   0.212  1.00  0.00    -0.3365  N
ATOM     23 C13  699 L   1       1.265   0.627   0.635  1.00  0.00    +0.2379  C
ATOM     24 O14  699 L   1       0.717   1.697   0.918  1.00  0.00    -0.2716 OA
ATOM     25 H31  699 L   1      -1.105   0.386  -0.720  1.00  0.00    +0.0543  H
ATOM     26 H32  699 L   1      -2.155  -1.728  -1.225  1.00  0.00    +0.0286  H
ATOM     27 H33  699 L   1      -1.472  -2.508   0.215  1.00  0.00    +0.0286  H
ATOM     28 H34  699 L   1       0.051  -3.235  -1.521  1.00  0.00    +0.0283  H
ATOM     29 H35  699 L   1       0.022  -1.633  -2.286  1.00  0.00    +0.0283  H
ATOM     30 H36  699 L   1       2.009  -1.460  -0.964  1.00  0.00    +0.0489  H
ATOM     31 H37  699 L   1       1.302  -2.382   0.388  1.00  0.00    +0.0489  H
BRANCH 23 32
ATOM     32 C15  699 L   1       2.784   0.469   0.771  1.00  0.00    +0.0780  C
ATOM     33 H38  699 L   1       2.987  -0.534   1.166  1.00  0.00    +0.0524  H
ATOM     34 H39  699 L   1       3.139   1.178   1.530  1.00  0.00    +0.0524  H
BRANCH 32 35
ATOM     35 N16  699 L   1       3.477   0.671  -0.521  1.00  0.00    -0.2939 NA
ATOM     36 C17  699 L   1       3.298   2.044  -1.007  1.00  0.00    -0.0120  C
ATOM     37 H40  699 L   1       3.845   2.191  -1.946  1.00  0.00    +0.0391  H
ATOM     38 H41  699 L   1       3.661   2.785  -0.286  1.00  0.00    +0.0391  H
ATOM     39 H42  699 L   1       2.248   2.254  -1.233  1.00  0.00    +0.0391  H
BRANCH 35 40
ATOM     40 C18  699 L   1       4.910   0.336  -0.406  1.00  0.00    +0.0107  C
ATOM     41 C19  699 L   1       5.647  -0.142  -1.628  1.00  0.00    -0.0359  C
ATOM     42 C20  699 L   1       5.342  -1.101  -0.517  1.00  0.00    -0.0359  C
ATOM     43 H43  699 L   1       5.477   0.958   0.285  1.00  0.00    +0.0462  H
ATOM     44 H44  699 L   1       5.094  -0.249  -2.554  1.00  0.00    +0.0281  H
ATOM     45 H45  699 L   1       6.673   0.180  -1.757  1.00  0.00    +0.0281  H
ATOM     46 H46  699 L   1       4.589  -1.859  -0.700  1.00  0.00    +0.0281  H
ATOM     47 H47  699 L   1       6.162  -1.432   0.109  1.00  0.00    +0.0281  H
ENDBRANCH 35 40
ENDBRANCH 32 35
ENDBRANCH 23 32
ENDBRANCH 15 18
ENDBRANCH 6 15
TORSDOF 5
