ROOT
ATOM      1  C4  622 L   1      -3.904  -0.532  -0.723  1.00  0.00    +0.0595  C
ATOM      2  C5  622 L   1      -2.684  -1.085   0.023  1.00  0.00    -0.0216  C
ATOM      3  C6  622 L   1      -1.379  -0.610  -0.595  1.00  0.00    +0.0302  C
ATOM      4  N7  622 L   1      -1.272   0.875  -0.583  1.00  0.00    -0.2974 NA
ATOM      5 C19  622 L   1      -2.572   1.602  -0.624  1.00  0.00    +0.0302  C
ATOM      6 C20  622 L   1      -3.598   0.803  -1.418  1.00  0.00    -0.0216  C
ATOM      7 H22  622 L   1      -4.229  -1.237  -1.500  1.00  0.00    +0.0414  H
ATOM      8 H23  622 L   1      -2.719  -2.182   0.012  1.00  0.00    +0.0290  H
ATOM      9 H24  622 L   1      -2.711  -0.790   1.080  1.00  0.00    +0.0290  H
ATOM     10 H25  622 L   1      -0.537  -1.074  -0.070  1.00  0.00    +0.0495  H
ATOM     11 H26  622 L   1      -1.305  -0.944  -1.638  1.00  0.00    +0.0495  H
ATOM     12 H34  622 L   1      -2.415   2.566  -1.120  1.00  0.00    +0.0495  H
ATOM     13 H35  622 L   1      -2.938   1.792   0.392  1.00  0.00    +0.0495  H
ATOM     14 H36  622 L   1      -4.507   1.398  -1.562  1.00  0.00    +0.0290  H
ATOM     15 H37  622 L   1      -3.197   0.601  -2.420  1.00  0.00    +0.0290  H
ENDROOT
BRANCH 1 17
ATOM     16  O1  622 L   1      -5.570   0.651   0.629  1.00  0.00    -0.2507 OA
ATOM     17  C2  622 L   1      -5.057  -0.386   0.244  1.00  0.00    +0.3079  C
ATOM     18  O3  622 L   1      -5.513  -1.578   0.677  1.00  0.00    -0.4804 OA
ATOM     19 H21  622 L   1      -6.240  -1.346   1.294  1.00  0.00    +0.2951 HD
ENDBRANCH 1 17
BRANCH 4 20
ATOM     20  S8  622 L   1      -0.157   1.534   0.539  1.00  0.00    +0.2545  S
ATOM     21  O9  622 L   1      -0.483   0.945   1.823  1.00  0.00    -0.2007 OA
ATOM     22 O10  622 L   1      -0.191   2.972   0.365  1.00  0.00    -0.2007 OA
BRANCH 20 23
ATOM     23 C11  622 L   1       1.391   0.977  -0.008  1.00  0.00    +0.0510  C
ATOM     24 C12  622 L   1       2.264   0.455   0.867  1.00  0.00    -0.0419  C
ATOM     25 H27  622 L   1       1.589   1.081  -1.064  1.00  0.00    +0.0758  H
ATOM     26 H28  622 L   1       2.007   0.362   1.921  1.00  0.00    +0.0631  H
BRANCH 24 27
ATOM     27 C13  622 L   1       3.590  -0.049   0.487  1.00  0.00    -0.0243  A
ATOM     28 C14  622 L   1       4.384   0.583  -0.480  1.00  0.00    -0.0546  A
ATOM     29 C15  622 L   1       5.651   0.085  -0.794  1.00  0.00    -0.0612  A
ATOM     30 C16  622 L   1       6.141  -1.043  -0.139  1.00  0.00    -0.0617  A
ATOM     31 C17  622 L   1       5.368  -1.669   0.836  1.00  0.00    -0.0612  A
ATOM     32 C18  622 L   1       4.101  -1.171   1.151  1.00  0.00    -0.0546  A
ATOM     33 H29  622 L   1       4.036   1.478  -0.990  1.00  0.00    +0.0623  H
ATOM     34 H30  622 L   1       6.259   0.583  -1.546  1.00  0.00    +0.0618  H
ATOM     35 H31  622 L   1       7.128  -1.428  -0.382  1.00  0.00    +0.0618  H
ATOM     36 H32  622 L   1       5.751  -2.544   1.355  1.00  0.00    +0.0618  H
ATOM     37 H33  622 L   1       3.515  -1.673   1.918  1.00  0.00    +0.0623  H
ENDBRANCH 24 27
ENDBRANCH 20 23
ENDBRANCH 4 20
TORSDOF 4
