ROOT
ATOM      1  C1  SEL L   1      -0.687   1.653  -2.065  1.00  0.00    -0.0377  C
ATOM      2  C2  SEL L   1      -0.610   0.174  -2.273  1.00  0.00    -0.0166  A
ATOM      3  C3  SEL L   1      -1.667  -0.634  -2.667  1.00  0.00    +0.0819  A
ATOM      4 S18  SEL L   1      -1.214  -2.272  -2.854  1.00  0.00    -0.0634  S
ATOM      5 C19  SEL L   1       0.386  -1.951  -2.367  1.00  0.00    +0.1160  A
ATOM      6 N20  SEL L   1       1.308  -2.941  -2.280  1.00  0.00    -0.2298 NA
ATOM      7 C21  SEL L   1       2.487  -2.539  -1.929  1.00  0.00    +0.1003  A
ATOM      8 N22  SEL L   1       2.850  -1.230  -1.673  1.00  0.00    -0.2896  N
ATOM      9 C33  SEL L   1       1.918  -0.196  -1.698  1.00  0.00    +0.2629  A
ATOM     10 O34  SEL L   1       2.194   0.969  -1.421  1.00  0.00    -0.2669 OA
ATOM     11 C35  SEL L   1       0.583  -0.614  -2.097  1.00  0.00    +0.0758  A
ATOM     12 H36  SEL L   1      -0.467   1.899  -1.021  1.00  0.00    +0.0278  H
ATOM     13 H37  SEL L   1      -1.679   2.049  -2.299  1.00  0.00    +0.0278  H
ATOM     14 H38  SEL L   1       0.036   2.166  -2.706  1.00  0.00    +0.0278  H
ATOM     15 H52  SEL L   1       3.305  -3.270  -1.821  1.00  0.00    +0.1030  H
ENDROOT
BRANCH 3 16
ATOM     16  C4  SEL L   1      -3.030  -0.250  -2.979  1.00  0.00    +0.2616  C
ATOM     17  O5  SEL L   1      -3.334   0.163  -4.099  1.00  0.00    -0.2668 OA
ATOM     18  N6  SEL L   1      -3.969  -0.313  -1.944  1.00  0.00    -0.3345  N
ATOM     19  C7  SEL L   1      -3.733  -0.990  -0.660  1.00  0.00    +0.0391  C
ATOM     20  C8  SEL L   1      -4.589  -0.412   0.482  1.00  0.00    +0.0363  C
ATOM     21  N9  SEL L   1      -6.015  -0.359   0.096  1.00  0.00    -0.3672  N
ATOM     22 C16  SEL L   1      -6.232   0.418  -1.150  1.00  0.00    +0.0363  C
ATOM     23 C17  SEL L   1      -5.381  -0.149  -2.300  1.00  0.00    +0.0391  C
ATOM     24 H39  SEL L   1      -2.680  -0.927  -0.372  1.00  0.00    +0.0506  H
ATOM     25 H40  SEL L   1      -3.975  -2.049  -0.812  1.00  0.00    +0.0506  H
ATOM     26 H41  SEL L   1      -4.450  -1.048   1.365  1.00  0.00    +0.0505  H
ATOM     27 H42  SEL L   1      -4.229   0.598   0.718  1.00  0.00    +0.0505  H
ATOM     28 H48  SEL L   1      -7.279   0.402  -1.471  1.00  0.00    +0.0505  H
ATOM     29 H49  SEL L   1      -5.954   1.466  -0.975  1.00  0.00    +0.0505  H
ATOM     30 H50  SEL L   1      -5.752  -1.142  -2.583  1.00  0.00    +0.0506  H
ATOM     31 H51  SEL L   1      -5.485   0.499  -3.177  1.00  0.00    +0.0506  H
BRANCH 21 32
ATOM     32 C10  SEL L   1      -6.957  -0.075   1.101  1.00  0.00    +0.0380  A
ATOM     33 C11  SEL L   1      -8.319  -0.334   0.864  1.00  0.00    -0.0385  A
ATOM     34 C12  SEL L   1      -9.298  -0.081   1.830  1.00  0.00    -0.0598  A
ATOM     35 C13  SEL L   1      -8.933   0.432   3.070  1.00  0.00    -0.0616  A
ATOM     36 C14  SEL L   1      -7.592   0.684   3.338  1.00  0.00    -0.0598  A
ATOM     37 C15  SEL L   1      -6.617   0.428   2.366  1.00  0.00    -0.0385  A
ATOM     38 H43  SEL L   1      -8.630  -0.771  -0.082  1.00  0.00    +0.0638  H
ATOM     39 H44  SEL L   1     -10.340  -0.297   1.613  1.00  0.00    +0.0618  H
ATOM     40 H45  SEL L   1      -9.689   0.625   3.826  1.00  0.00    +0.0618  H
ATOM     41 H46  SEL L   1      -7.298   1.077   4.309  1.00  0.00    +0.0618  H
ATOM     42 H47  SEL L   1      -5.586   0.649   2.625  1.00  0.00    +0.0638  H
ENDBRANCH 21 32
ENDBRANCH 3 16
BRANCH 8 43
ATOM     43 C23  SEL L   1       4.215  -0.917  -1.279  1.00  0.00    +0.1060  C
ATOM     44 H53  SEL L   1       4.898  -1.648  -1.724  1.00  0.00    +0.0591  H
ATOM     45 H54  SEL L   1       4.470   0.086  -1.633  1.00  0.00    +0.0591  H
BRANCH 43 46
ATOM     46 C24  SEL L   1       4.362  -0.990   0.246  1.00  0.00    +0.2434  C
ATOM     47 O25  SEL L   1       3.527  -1.576   0.938  1.00  0.00    -0.2711 OA
ATOM     48 N26  SEL L   1       5.504  -0.415   0.798  1.00  0.00    -0.3407  N
ATOM     49 C27  SEL L   1       6.581   0.197   0.016  1.00  0.00    +0.0214  C
ATOM     50 C28  SEL L   1       7.911   0.176   0.762  1.00  0.00    -0.0326  C
ATOM     51 C29  SEL L   1       7.833   0.876   2.129  1.00  0.00    -0.0407  C
ATOM     52 C30  SEL L   1       8.340   2.317   2.049  1.00  0.00    -0.0623  C
ATOM     53 C31  SEL L   1       6.414   0.842   2.719  1.00  0.00    -0.0326  C
ATOM     54 C32  SEL L   1       5.635  -0.384   2.256  1.00  0.00    +0.0214  C
ATOM     55 H55  SEL L   1       6.279   1.226  -0.210  1.00  0.00    +0.0488  H
ATOM     56 H56  SEL L   1       6.694  -0.334  -0.935  1.00  0.00    +0.0488  H
ATOM     57 H57  SEL L   1       8.700   0.612   0.139  1.00  0.00    +0.0285  H
ATOM     58 H58  SEL L   1       8.196  -0.872   0.928  1.00  0.00    +0.0285  H
ATOM     59 H59  SEL L   1       8.504   0.336   2.811  1.00  0.00    +0.0299  H
ATOM     60 H60  SEL L   1       7.739   2.913   1.354  1.00  0.00    +0.0232  H
ATOM     61 H61  SEL L   1       8.302   2.797   3.033  1.00  0.00    +0.0232  H
ATOM     62 H62  SEL L   1       9.380   2.342   1.706  1.00  0.00    +0.0232  H
ATOM     63 H63  SEL L   1       5.860   1.743   2.421  1.00  0.00    +0.0285  H
ATOM     64 H64  SEL L   1       6.471   0.859   3.814  1.00  0.00    +0.0285  H
ATOM     65 H65  SEL L   1       6.146  -1.305   2.558  1.00  0.00    +0.0488  H
ATOM     66 H66  SEL L   1       4.644  -0.389   2.722  1.00  0.00    +0.0488  H
ENDBRANCH 43 46
ENDBRANCH 8 43
TORSDOF 4
