ROOT
ATOM      1  C8  269 L   1       1.035   1.955  -0.384  1.00  0.00    +0.2252  C
ATOM      2  O9  269 L   1       1.384   2.966  -0.997  1.00  0.00    -0.2730 OA
ATOM      3 N10  269 L   1      -0.198   1.867   0.261  1.00  0.00    -0.3402  N
ATOM      4 C11  269 L   1      -1.053   3.049   0.255  1.00  0.00    +0.0213  C
ATOM      5 C12  269 L   1      -2.532   2.684   0.212  1.00  0.00    -0.0333  C
ATOM      6 C13  269 L   1      -2.900   1.739   1.351  1.00  0.00    -0.0272  C
ATOM      7 C14  269 L   1      -2.017   0.485   1.369  1.00  0.00    +0.0702  C
ATOM      8 C21  269 L   1      -0.521   0.827   1.250  1.00  0.00    +0.0435  C
ATOM      9 H30  269 L   1      -0.824   3.619   1.164  1.00  0.00    +0.0488  H
ATOM     10 H31  269 L   1      -0.820   3.692  -0.600  1.00  0.00    +0.0488  H
ATOM     11 H32  269 L   1      -2.769   2.216  -0.750  1.00  0.00    +0.0283  H
ATOM     12 H33  269 L   1      -3.136   3.596   0.281  1.00  0.00    +0.0283  H
ATOM     13 H34  269 L   1      -3.961   1.471   1.278  1.00  0.00    +0.0287  H
ATOM     14 H35  269 L   1      -2.775   2.272   2.302  1.00  0.00    +0.0287  H
ATOM     15 H36  269 L   1      -2.155  -0.010   2.341  1.00  0.00    +0.0562  H
ATOM     16 H42  269 L   1       0.053  -0.086   1.068  1.00  0.00    +0.0509  H
ATOM     17 H43  269 L   1      -0.172   1.226   2.212  1.00  0.00    +0.0509  H
ENDROOT
BRANCH 1 18
ATOM     18  C7  269 L   1       1.934   0.735  -0.315  1.00  0.00    +0.0437  C
ATOM     19 H28  269 L   1       1.403  -0.119  -0.751  1.00  0.00    +0.0378  H
ATOM     20 H29  269 L   1       2.156   0.517   0.735  1.00  0.00    +0.0378  H
BRANCH 18 21
ATOM     21  C6  269 L   1       3.237   0.963  -1.074  1.00  0.00    +0.0268  C
ATOM     22 H26  269 L   1       3.817   1.771  -0.611  1.00  0.00    +0.0491  H
ATOM     23 H27  269 L   1       3.037   1.247  -2.113  1.00  0.00    +0.0491  H
BRANCH 21 26
ATOM     24  C3  269 L   1       4.750  -0.677  -0.018  1.00  0.00    +0.2443  C
ATOM     25  O4  269 L   1       4.693  -0.164   1.093  1.00  0.00    -0.2683 OA
ATOM     26  N5  269 L   1       4.068  -0.228  -1.118  1.00  0.00    -0.3520  N
ATOM     27 H25  269 L   1       4.291  -0.611  -2.026  1.00  0.00    +0.1626 HD
BRANCH 24 29
ATOM     28  C1  269 L   1       5.469  -2.779  -1.186  1.00  0.00    -0.0936  C
ATOM     29  C2  269 L   1       5.648  -1.836  -0.252  1.00  0.00    -0.0047  C
ATOM     30 H22  269 L   1       4.629  -2.777  -1.871  1.00  0.00    +0.0536  H
ATOM     31 H23  269 L   1       6.164  -3.610  -1.260  1.00  0.00    +0.0536  H
ATOM     32 H24  269 L   1       6.467  -1.910   0.457  1.00  0.00    +0.0666  H
ENDBRANCH 24 29
ENDBRANCH 21 26
ENDBRANCH 18 21
ENDBRANCH 1 18
BRANCH 7 33
ATOM     33 N15  269 L   1      -2.463  -0.511   0.397  1.00  0.00    -0.2664  N
ATOM     34 C16  269 L   1      -3.386  -1.497   0.627  1.00  0.00    +0.0288  A
ATOM     35 C17  269 L   1      -3.508  -2.205  -0.550  1.00  0.00    -0.0130  A
ATOM     36 C18  269 L   1      -4.379  -3.364  -0.839  1.00  0.00    -0.0368  C
ATOM     37 C19  269 L   1      -2.608  -1.563  -1.428  1.00  0.00    +0.0523  A
ATOM     38 N20  269 L   1      -1.969  -0.542  -0.854  1.00  0.00    -0.1791 NA
ATOM     39 H37  269 L   1      -3.873  -1.606   1.586  1.00  0.00    +0.0829  H
ATOM     40 H38  269 L   1      -4.861  -3.736   0.071  1.00  0.00    +0.0278  H
ATOM     41 H39  269 L   1      -5.164  -3.084  -1.549  1.00  0.00    +0.0278  H
ATOM     42 H40  269 L   1      -3.798  -4.184  -1.273  1.00  0.00    +0.0278  H
ATOM     43 H41  269 L   1      -2.392  -1.799  -2.462  1.00  0.00    +0.0850  H
ENDBRANCH 7 33
TORSDOF 5
