ROOT
ATOM      1  C3  SEL L   1      -1.776   1.694  -0.011  1.00  0.00    +0.0658  C
ATOM      2  C4  SEL L   1      -2.507   1.284   1.263  1.00  0.00    -0.0085  C
ATOM      3  C5  SEL L   1      -3.267  -0.020   1.069  1.00  0.00    +0.0238  C
ATOM      4  N6  SEL L   1      -2.719  -0.920   0.055  1.00  0.00    -0.3378  N
ATOM      5  C7  SEL L   1      -3.499  -2.036  -0.253  1.00  0.00    +0.2207  C
ATOM      6  C8  SEL L   1      -2.944  -3.026  -1.246  1.00  0.00    +0.0145  C
ATOM      7  O9  SEL L   1      -4.614  -2.216   0.240  1.00  0.00    -0.2733 OA
ATOM      8 C10  SEL L   1      -1.301  -0.811  -0.301  1.00  0.00    +0.0515  C
ATOM      9 C11  SEL L   1      -0.360  -1.517   0.690  1.00  0.00    +0.0202  C
ATOM     10 N12  SEL L   1       0.922  -0.800   0.617  1.00  0.00    -0.2958 NA
ATOM     11 C20  SEL L   1       0.517   0.613   0.474  1.00  0.00    +0.0064  C
ATOM     12 C21  SEL L   1      -0.754   0.620  -0.391  1.00  0.00    +0.0198  C
ATOM     13 H25  SEL L   1      -2.497   1.792  -0.834  1.00  0.00    +0.0600  H
ATOM     14 H26  SEL L   1      -1.795   1.178   2.090  1.00  0.00    +0.0307  H
ATOM     15 H27  SEL L   1      -3.203   2.062   1.597  1.00  0.00    +0.0307  H
ATOM     16 H28  SEL L   1      -4.300   0.210   0.781  1.00  0.00    +0.0489  H
ATOM     17 H29  SEL L   1      -3.320  -0.566   2.019  1.00  0.00    +0.0489  H
ATOM     18 H30  SEL L   1      -3.678  -3.822  -1.408  1.00  0.00    +0.0325  H
ATOM     19 H31  SEL L   1      -2.030  -3.484  -0.863  1.00  0.00    +0.0325  H
ATOM     20 H32  SEL L   1      -2.761  -2.537  -2.206  1.00  0.00    +0.0325  H
ATOM     21 H33  SEL L   1      -1.160  -1.269  -1.287  1.00  0.00    +0.0541  H
ATOM     22 H34  SEL L   1      -0.747  -1.433   1.714  1.00  0.00    +0.0447  H
ATOM     23 H35  SEL L   1      -0.264  -2.589   0.486  1.00  0.00    +0.0447  H
ATOM     24 H43  SEL L   1       0.322   1.004   1.479  1.00  0.00    +0.0431  H
ATOM     25 H44  SEL L   1       1.299   1.252   0.050  1.00  0.00    +0.0431  H
ATOM     26 H45  SEL L   1      -0.437   0.811  -1.427  1.00  0.00    +0.0359  H
ENDROOT
BRANCH 1 28
ATOM     27  C1  SEL L   1      -1.924   4.076   0.065  1.00  0.00    +0.0368  C
ATOM     28  O2  SEL L   1      -1.082   2.934   0.151  1.00  0.00    -0.3793 OA
ATOM     29 H22  SEL L   1      -2.642   4.099   0.889  1.00  0.00    +0.0524  H
ATOM     30 H23  SEL L   1      -1.296   4.968   0.135  1.00  0.00    +0.0524  H
ATOM     31 H24  SEL L   1      -2.448   4.098  -0.895  1.00  0.00    +0.0524  H
ENDBRANCH 1 28
BRANCH 10 32
ATOM     32 C13  SEL L   1       1.748  -1.268  -0.509  1.00  0.00    +0.0241  C
ATOM     33 H36  SEL L   1       1.265  -1.070  -1.474  1.00  0.00    +0.0476  H
ATOM     34 H37  SEL L   1       1.867  -2.359  -0.445  1.00  0.00    +0.0476  H
BRANCH 32 35
ATOM     35 C14  SEL L   1       3.148  -0.690  -0.502  1.00  0.00    -0.0334  A
ATOM     36 C15  SEL L   1       3.973  -0.833   0.624  1.00  0.00    -0.0573  A
ATOM     37 C16  SEL L   1       5.270  -0.317   0.626  1.00  0.00    -0.0615  A
ATOM     38 C17  SEL L   1       5.758   0.344  -0.500  1.00  0.00    -0.0617  A
ATOM     39 C18  SEL L   1       4.951   0.489  -1.626  1.00  0.00    -0.0615  A
ATOM     40 C19  SEL L   1       3.653  -0.027  -1.629  1.00  0.00    -0.0573  A
ATOM     41 H38  SEL L   1       3.598  -1.342   1.510  1.00  0.00    +0.0621  H
ATOM     42 H39  SEL L   1       5.896  -0.429   1.507  1.00  0.00    +0.0618  H
ATOM     43 H40  SEL L   1       6.767   0.747  -0.497  1.00  0.00    +0.0618  H
ATOM     44 H41  SEL L   1       5.332   1.005  -2.503  1.00  0.00    +0.0618  H
ATOM     45 H42  SEL L   1       3.038   0.097  -2.517  1.00  0.00    +0.0621  H
ENDBRANCH 32 35
ENDBRANCH 10 32
TORSDOF 3
