ROOT
ATOM      1  C8  333 L   1       1.471  -0.917   0.500  1.00  0.00    +0.2299  C
ATOM      2  O9  333 L   1       2.175  -1.880   0.797  1.00  0.00    -0.2726 OA
ATOM      3 N10  333 L   1       0.093  -0.992   0.524  1.00  0.00    -0.3416  N
ATOM      4 C11  333 L   1      -0.588  -2.224   0.879  1.00  0.00    +0.0215  C
ATOM      5 C12  333 L   1      -2.035  -1.988   0.471  1.00  0.00    -0.0306  C
ATOM      6 C13  333 L   1      -2.207  -0.479   0.682  1.00  0.00    -0.0189  C
ATOM      7 C19  333 L   1      -0.853   0.073   0.226  1.00  0.00    +0.0243  C
ATOM      8 H27  333 L   1      -0.494  -2.360   1.962  1.00  0.00    +0.0489  H
ATOM      9 H28  333 L   1      -0.139  -3.084   0.372  1.00  0.00    +0.0489  H
ATOM     10 H29  333 L   1      -2.734  -2.586   1.061  1.00  0.00    +0.0286  H
ATOM     11 H30  333 L   1      -2.171  -2.245  -0.587  1.00  0.00    +0.0286  H
ATOM     12 H31  333 L   1      -2.316  -0.293   1.760  1.00  0.00    +0.0321  H
ATOM     13 H41  333 L   1      -0.580   0.992   0.752  1.00  0.00    +0.0491  H
ATOM     14 H42  333 L   1      -0.821   0.256  -0.854  1.00  0.00    +0.0491  H
ENDROOT
BRANCH 1 15
ATOM     15  C7  333 L   1       2.055   0.416   0.102  1.00  0.00    +0.0767  C
ATOM     16 H25  333 L   1       1.624   0.719  -0.859  1.00  0.00    +0.0431  H
ATOM     17 H26  333 L   1       1.783   1.162   0.856  1.00  0.00    +0.0431  H
BRANCH 15 23
ATOM     18  C1  333 L   1       8.227   0.341  -0.118  1.00  0.00    +0.0311  C
ATOM     19  N2  333 L   1       7.118   0.557   0.799  1.00  0.00    -0.2633 NA
ATOM     20  C3  333 L   1       5.944   0.469   0.300  1.00  0.00    +0.1837  A
ATOM     21  N4  333 L   1       5.486   0.209  -0.964  1.00  0.00    -0.2545  N
ATOM     22  N5  333 L   1       4.140   0.148  -1.185  1.00  0.00    -0.1690 NA
ATOM     23  C6  333 L   1       3.539   0.385  -0.055  1.00  0.00    +0.1106  A
ATOM     24 S20  333 L   1       4.551   0.716   1.344  1.00  0.00    -0.0333  S
ATOM     25 H21  333 L   1       8.212  -0.671  -0.534  1.00  0.00    +0.0473  H
ATOM     26 H22  333 L   1       8.225   1.074  -0.931  1.00  0.00    +0.0473  H
ATOM     27 H23  333 L   1       9.170   0.459   0.427  1.00  0.00    +0.0473  H
ATOM     28 H24  333 L   1       6.131  -0.030  -1.707  1.00  0.00    +0.1910 HD
ENDBRANCH 15 23
ENDBRANCH 1 15
BRANCH 6 29
ATOM     29 C14  333 L   1      -3.396   0.116  -0.072  1.00  0.00    -0.0365  C
ATOM     30 C15  333 L   1      -4.747  -0.428   0.391  1.00  0.00    -0.0499  C
ATOM     31 C16  333 L   1      -5.759   0.587  -0.130  1.00  0.00    -0.0528  C
ATOM     32 C17  333 L   1      -4.996   1.902  -0.295  1.00  0.00    -0.0528  C
ATOM     33 C18  333 L   1      -3.565   1.619   0.147  1.00  0.00    -0.0499  C
ATOM     34 H32  333 L   1      -3.287  -0.076  -1.148  1.00  0.00    +0.0304  H
ATOM     35 H33  333 L   1      -4.948  -1.434   0.008  1.00  0.00    +0.0268  H
ATOM     36 H34  333 L   1      -4.796  -0.469   1.486  1.00  0.00    +0.0268  H
ATOM     37 H35  333 L   1      -6.158   0.265  -1.099  1.00  0.00    +0.0265  H
ATOM     38 H36  333 L   1      -6.607   0.691   0.555  1.00  0.00    +0.0265  H
ATOM     39 H37  333 L   1      -5.443   2.709   0.294  1.00  0.00    +0.0265  H
ATOM     40 H38  333 L   1      -5.016   2.212  -1.346  1.00  0.00    +0.0265  H
ATOM     41 H39  333 L   1      -3.448   1.874   1.207  1.00  0.00    +0.0268  H
ATOM     42 H40  333 L   1      -2.840   2.210  -0.422  1.00  0.00    +0.0268  H
ENDBRANCH 6 29
TORSDOF 3
