ROOT
ATOM      1  N8  873 L   1       2.242   0.493  -0.370  1.00  0.00    -0.3324  N
ATOM      2  C9  873 L   1       1.210   0.233  -1.232  1.00  0.00    +0.3191  C
ATOM      3 O10  873 L   1       1.335   0.368  -2.445  1.00  0.00    -0.2473 OA
ATOM      4 N11  873 L   1       0.034  -0.205  -0.624  1.00  0.00    -0.3241  N
ATOM      5 C12  873 L   1       0.038  -0.800   0.723  1.00  0.00    +0.0254  C
ATOM      6 C13  873 L   1      -1.349  -1.187   1.237  1.00  0.00    -0.0059  C
ATOM      7 C14  873 L   1      -2.424  -0.297   0.618  1.00  0.00    +0.0721  C
ATOM      8 O15  873 L   1      -2.106   1.068   0.929  1.00  0.00    -0.3882 OA
ATOM      9 C16  873 L   1      -3.822  -0.570   1.202  1.00  0.00    -0.0236  C
ATOM     10 C17  873 L   1      -4.962  -0.193   0.239  1.00  0.00    -0.0504  C
ATOM     11 C18  873 L   1      -4.577   0.897  -0.758  1.00  0.00    -0.0526  C
ATOM     12 C19  873 L   1      -3.336   0.537  -1.588  1.00  0.00    -0.0460  C
ATOM     13 C20  873 L   1      -2.449  -0.517  -0.904  1.00  0.00    +0.0056  C
ATOM     14 C21  873 L   1      -1.045  -0.611  -1.526  1.00  0.00    +0.0282  C
ATOM     15 H27  873 L   1       1.967   0.905   0.510  1.00  0.00    +0.1645 HD
ATOM     16 H28  873 L   1       0.697  -1.676   0.712  1.00  0.00    +0.0490  H
ATOM     17 H29  873 L   1       0.476  -0.076   1.418  1.00  0.00    +0.0490  H
ATOM     18 H30  873 L   1      -1.353  -1.111   2.331  1.00  0.00    +0.0310  H
ATOM     19 H31  873 L   1      -1.549  -2.238   0.990  1.00  0.00    +0.0310  H
ATOM     20 H32  873 L   1      -1.362   1.333   0.355  1.00  0.00    +0.2102 HD
ATOM     21 H33  873 L   1      -3.948  -0.005   2.134  1.00  0.00    +0.0293  H
ATOM     22 H34  873 L   1      -3.936  -1.631   1.458  1.00  0.00    +0.0293  H
ATOM     23 H35  873 L   1      -5.265  -1.088  -0.320  1.00  0.00    +0.0266  H
ATOM     24 H36  873 L   1      -5.840   0.118   0.817  1.00  0.00    +0.0266  H
ATOM     25 H37  873 L   1      -4.388   1.829  -0.211  1.00  0.00    +0.0265  H
ATOM     26 H38  873 L   1      -5.418   1.105  -1.430  1.00  0.00    +0.0265  H
ATOM     27 H39  873 L   1      -3.652   0.150  -2.565  1.00  0.00    +0.0269  H
ATOM     28 H40  873 L   1      -2.770   1.455  -1.792  1.00  0.00    +0.0269  H
ATOM     29 H41  873 L   1      -2.919  -1.493  -1.098  1.00  0.00    +0.0346  H
ATOM     30 H42  873 L   1      -1.000  -0.038  -2.459  1.00  0.00    +0.0493  H
ATOM     31 H43  873 L   1      -0.836  -1.654  -1.799  1.00  0.00    +0.0493  H
ENDROOT
BRANCH 1 32
ATOM     32  C7  873 L   1       3.481   1.021  -0.903  1.00  0.00    +0.0673  C
ATOM     33 H25  873 L   1       3.796   0.409  -1.755  1.00  0.00    +0.0554  H
ATOM     34 H26  873 L   1       3.293   2.037  -1.269  1.00  0.00    +0.0554  H
BRANCH 32 40
ATOM     35  C1  873 L   1       6.229  -0.759  -0.626  1.00  0.00    -0.0172  C
ATOM     36  C2  873 L   1       5.681   0.265   0.287  1.00  0.00    +0.1061  A
ATOM     37  N3  873 L   1       6.310   0.590   1.418  1.00  0.00    -0.0539 NA
ATOM     38  O4  873 L   1       5.511   1.563   2.009  1.00  0.00    -0.2422 OA
ATOM     39  N5  873 L   1       4.387   1.830   1.234  1.00  0.00    -0.0519 NA
ATOM     40  C6  873 L   1       4.505   1.029   0.169  1.00  0.00    +0.1262  A
ATOM     41 H22  873 L   1       7.141  -1.213  -0.224  1.00  0.00    +0.0294  H
ATOM     42 H23  873 L   1       6.473  -0.314  -1.596  1.00  0.00    +0.0294  H
ATOM     43 H24  873 L   1       5.498  -1.558  -0.788  1.00  0.00    +0.0294  H
ENDBRANCH 32 40
ENDBRANCH 1 32
TORSDOF 2
