ROOT
ATOM      1  N7  MCU L   1      -1.696   0.470  -0.251  1.00  0.00    -0.3359  N
ATOM      2  C8  MCU L   1      -1.293  -0.809   0.341  1.00  0.00    +0.0288  C
ATOM      3  C9  MCU L   1       0.231  -1.073   0.123  1.00  0.00    +0.0065  C
ATOM      4 C10  MCU L   1       0.506  -2.599   0.331  1.00  0.00    -0.0425  C
ATOM      5 C11  MCU L   1       1.868  -2.929   0.980  1.00  0.00    -0.0346  C
ATOM      6 C12  MCU L   1       2.939  -1.870   0.706  1.00  0.00    +0.0215  C
ATOM      7 N13  MCU L   1       2.461  -0.527   1.073  1.00  0.00    -0.3364  N
ATOM      8 C14  MCU L   1       3.394   0.466   1.538  1.00  0.00    +0.2729  C
ATOM      9 O15  MCU L   1       3.104   1.163   2.548  1.00  0.00    -0.2657 OA
ATOM     10 C22  MCU L   1       1.020  -0.264   1.186  1.00  0.00    +0.0288  C
ATOM     11 C23  MCU L   1       0.699  -0.625  -1.322  1.00  0.00    -0.0357  C
ATOM     12 C24  MCU L   1      -0.444  -0.293  -2.293  1.00  0.00    +0.0269  C
ATOM     13 C25  MCU L   1      -1.372   0.675  -1.633  1.00  0.00    +0.2239  C
ATOM     14 O26  MCU L   1      -1.859   1.640  -2.281  1.00  0.00    -0.2730 OA
ATOM     15 H35  MCU L   1      -1.885  -1.612  -0.152  1.00  0.00    +0.0495  H
ATOM     16 H36  MCU L   1      -1.552  -0.851   1.422  1.00  0.00    +0.0495  H
ATOM     17 H37  MCU L   1       0.417  -3.141  -0.636  1.00  0.00    +0.0272  H
ATOM     18 H38  MCU L   1      -0.274  -3.046   0.988  1.00  0.00    +0.0272  H
ATOM     19 H39  MCU L   1       1.733  -3.006   2.082  1.00  0.00    +0.0282  H
ATOM     20 H40  MCU L   1       2.224  -3.919   0.621  1.00  0.00    +0.0282  H
ATOM     21 H41  MCU L   1       3.842  -2.127   1.302  1.00  0.00    +0.0489  H
ATOM     22 H42  MCU L   1       3.218  -1.895  -0.367  1.00  0.00    +0.0489  H
ATOM     23 H47  MCU L   1       0.687  -0.539   2.211  1.00  0.00    +0.0495  H
ATOM     24 H48  MCU L   1       0.821   0.823   1.048  1.00  0.00    +0.0495  H
ATOM     25 H49  MCU L   1       1.336   0.286  -1.259  1.00  0.00    +0.0276  H
ATOM     26 H50  MCU L   1       1.342  -1.396  -1.798  1.00  0.00    +0.0276  H
ATOM     27 H51  MCU L   1      -1.001  -1.219  -2.552  1.00  0.00    +0.0361  H
ATOM     28 H52  MCU L   1      -0.028   0.144  -3.226  1.00  0.00    +0.0361  H
ENDROOT
BRANCH 1 29
ATOM     29  C6  MCU L   1      -2.438   1.471   0.521  1.00  0.00    +0.0648  C
ATOM     30 H33  MCU L   1      -2.253   1.339   1.610  1.00  0.00    +0.0554  H
ATOM     31 H34  MCU L   1      -2.079   2.491   0.262  1.00  0.00    +0.0554  H
BRANCH 29 36
ATOM     32  C1  MCU L   1      -8.045   0.941  -0.639  1.00  0.00    -0.0209  C
ATOM     33  C2  MCU L   1      -6.593   1.095  -0.317  1.00  0.00    +0.0563  A
ATOM     34  C3  MCU L   1      -5.829   2.100  -0.921  1.00  0.00    +0.0489  A
ATOM     35  N4  MCU L   1      -4.507   2.202  -0.627  1.00  0.00    -0.2548 NA
ATOM     36  C5  MCU L   1      -3.906   1.349   0.246  1.00  0.00    +0.0786  A
ATOM     37 C27  MCU L   1      -4.667   0.332   0.837  1.00  0.00    +0.0509  A
ATOM     38 N28  MCU L   1      -5.990   0.229   0.542  1.00  0.00    -0.2568 NA
ATOM     39 H29  MCU L   1      -8.157   0.549  -1.672  1.00  0.00    +0.0293  H
ATOM     40 H30  MCU L   1      -8.527   0.234   0.069  1.00  0.00    +0.0293  H
ATOM     41 H31  MCU L   1      -8.558   1.923  -0.562  1.00  0.00    +0.0293  H
ATOM     42 H32  MCU L   1      -6.279   2.793  -1.621  1.00  0.00    +0.0848  H
ATOM     43 H53  MCU L   1      -4.214  -0.373   1.521  1.00  0.00    +0.0848  H
ENDBRANCH 29 36
ENDBRANCH 1 29
BRANCH 8 44
ATOM     44 C16  MCU L   1       4.691   0.685   0.870  1.00  0.00    +0.1278  A
ATOM     45 C17  MCU L   1       4.845   0.476  -0.511  1.00  0.00    -0.0310  A
ATOM     46 C18  MCU L   1       6.086   0.714  -1.106  1.00  0.00    -0.0582  A
ATOM     47 C19  MCU L   1       7.153   1.167  -0.330  1.00  0.00    -0.0436  A
ATOM     48 C20  MCU L   1       6.961   1.385   1.035  1.00  0.00    +0.0284  A
ATOM     49 N21  MCU L   1       5.746   1.147   1.598  1.00  0.00    -0.2501 NA
ATOM     50 H43  MCU L   1       4.013   0.162  -1.126  1.00  0.00    +0.0640  H
ATOM     51 H44  MCU L   1       6.216   0.556  -2.169  1.00  0.00    +0.0619  H
ATOM     52 H45  MCU L   1       8.118   1.357  -0.784  1.00  0.00    +0.0633  H
ATOM     53 H46  MCU L   1       7.776   1.746   1.648  1.00  0.00    +0.0830  H
ENDBRANCH 8 44
TORSDOF 3
