ROOT
ATOM      1 N14  CHE L   1      -1.470  -0.865   0.670  1.00  0.00    -0.2831  N
ATOM      2 C15  CHE L   1      -1.695  -0.876   2.033  1.00  0.00    +0.1348  A
ATOM      3 C16  CHE L   1      -1.399   0.248   2.953  1.00  0.00    -0.0041  C
ATOM      4 N17  CHE L   1      -2.144  -2.062   2.389  1.00  0.00    -0.1343 NA
ATOM      5 N18  CHE L   1      -2.237  -2.841   1.267  1.00  0.00    -0.1343 NA
ATOM      6 C19  CHE L   1      -1.857  -2.120   0.233  1.00  0.00    +0.1348  A
ATOM      7 C20  CHE L   1      -1.929  -2.554  -1.182  1.00  0.00    -0.0041  C
ATOM      8 H30  CHE L   1      -1.268  -0.124   3.974  1.00  0.00    +0.0308  H
ATOM      9 H31  CHE L   1      -0.482   0.773   2.672  1.00  0.00    +0.0308  H
ATOM     10 H32  CHE L   1      -2.227   0.963   2.961  1.00  0.00    +0.0308  H
ATOM     11 H33  CHE L   1      -0.962  -2.936  -1.520  1.00  0.00    +0.0308  H
ATOM     12 H34  CHE L   1      -2.241  -1.741  -1.844  1.00  0.00    +0.0308  H
ATOM     13 H35  CHE L   1      -2.660  -3.363  -1.291  1.00  0.00    +0.0308  H
ENDROOT
BRANCH 1 19
ATOM     14  C6  CHE L   1       0.070   0.173  -0.953  1.00  0.00    -0.0032  A
ATOM     15  C7  CHE L   1       0.334   1.275  -1.791  1.00  0.00    -0.0375  A
ATOM     16  C8  CHE L   1      -0.486   2.411  -1.784  1.00  0.00    +0.0522  A
ATOM     17 C11  CHE L   1      -1.593   2.461  -0.934  1.00  0.00    -0.0424  A
ATOM     18 C12  CHE L   1      -1.888   1.376  -0.108  1.00  0.00    -0.0362  A
ATOM     19 C13  CHE L   1      -1.075   0.231  -0.132  1.00  0.00    +0.0543  A
ATOM     20 H27  CHE L   1       1.214   1.260  -2.435  1.00  0.00    +0.0634  H
ATOM     21 H28  CHE L   1      -2.236   3.339  -0.915  1.00  0.00    +0.0631  H
ATOM     22 H29  CHE L   1      -2.776   1.423   0.521  1.00  0.00    +0.0639  H
BRANCH 14 23
ATOM     23  C5  CHE L   1       1.077  -0.958  -0.911  1.00  0.00    +0.0454  C
ATOM     24 H25  CHE L   1       1.120  -1.435  -1.897  1.00  0.00    +0.0537  H
ATOM     25 H26  CHE L   1       0.823  -1.727  -0.178  1.00  0.00    +0.0537  H
BRANCH 23 29
ATOM     26  C1  CHE L   1       4.195   0.215   0.884  1.00  0.00    +0.0143  C
ATOM     27  C2  CHE L   1       2.742  -0.128   0.695  1.00  0.00    +0.2181  C
ATOM     28  O3  CHE L   1       1.937  -0.089   1.619  1.00  0.00    -0.2736 OA
ATOM     29  N4  CHE L   1       2.409  -0.488  -0.592  1.00  0.00    -0.3521  N
ATOM     30 H21  CHE L   1       4.704   0.357  -0.073  1.00  0.00    +0.0325  H
ATOM     31 H22  CHE L   1       4.271   1.147   1.452  1.00  0.00    +0.0325  H
ATOM     32 H23  CHE L   1       4.685  -0.593   1.433  1.00  0.00    +0.0325  H
ATOM     33 H24  CHE L   1       3.155  -0.691  -1.244  1.00  0.00    +0.1626 HD
ENDBRANCH 23 29
ENDBRANCH 14 23
BRANCH 16 34
ATOM     34  C9  CHE L   1      -0.182   3.521  -2.638  1.00  0.00    +0.0992  C
ATOM     35 N10  CHE L   1       0.070   4.414  -3.335  1.00  0.00    -0.1909 NA
ENDBRANCH 16 34
ENDBRANCH 1 19
TORSDOF 4
