ROOT
ATOM      1  C4  CHE L   1      -6.214  -2.326  -1.045  1.00  0.00    +0.0414  A
ATOM      2  C5  CHE L   1      -5.364  -1.905  -0.016  1.00  0.00    -0.0394  A
ATOM      3  C6  CHE L   1      -5.267  -0.544   0.340  1.00  0.00    +0.0150  A
ATOM      4 C29  CHE L   1      -6.057   0.397  -0.356  1.00  0.00    +0.0288  A
ATOM      5 C30  CHE L   1      -6.305   1.791  -0.308  1.00  0.00    +0.0575  A
ATOM      6 N31  CHE L   1      -7.176   2.201  -1.233  1.00  0.00    -0.1812 NA
ATOM      7 N32  CHE L   1      -7.504   1.069  -1.876  1.00  0.00    -0.2769  N
ATOM      8 C33  CHE L   1      -6.881  -0.050  -1.387  1.00  0.00    +0.0671  A
ATOM      9 C34  CHE L   1      -6.977  -1.394  -1.764  1.00  0.00    -0.0239  A
ATOM     10 H37  CHE L   1      -4.739  -2.623   0.510  1.00  0.00    +0.0632  H
ATOM     11 H57  CHE L   1      -5.889   2.527   0.366  1.00  0.00    +0.0854  H
ATOM     12 H58  CHE L   1      -8.170   1.123  -2.639  1.00  0.00    +0.1889 HD
ATOM     13 H59  CHE L   1      -7.629  -1.710  -2.574  1.00  0.00    +0.0646  H
ENDROOT
BRANCH 1 15
ATOM     14  N1  CHE L   1      -5.962  -4.700  -0.513  1.00  0.00    -0.3659  N
ATOM     15  C2  CHE L   1      -6.328  -3.758  -1.434  1.00  0.00    +0.2496  C
ATOM     16  O3  CHE L   1      -6.768  -4.090  -2.528  1.00  0.00    -0.2678 OA
ATOM     17 H35  CHE L   1      -5.845  -4.488   0.468  1.00  0.00    +0.1589 HD
ATOM     18 H36  CHE L   1      -6.161  -5.661  -0.758  1.00  0.00    +0.1589 HD
ENDBRANCH 1 15
BRANCH 3 19
ATOM     19  C7  CHE L   1      -4.382  -0.145   1.410  1.00  0.00    +0.1133  A
ATOM     20  C8  CHE L   1      -3.641   1.010   1.502  1.00  0.00    +0.0538  A
ATOM     21  N9  CHE L   1      -2.945   0.862   2.670  1.00  0.00    -0.2452  N
ATOM     22 N27  CHE L   1      -3.241  -0.306   3.271  1.00  0.00    -0.0648 NA
ATOM     23 N28  CHE L   1      -4.111  -0.941   2.496  1.00  0.00    -0.1295 NA
ATOM     24 H38  CHE L   1      -3.514   1.873   0.865  1.00  0.00    +0.0849  H
BRANCH 21 25
ATOM     25 C10  CHE L   1      -2.023   1.797   3.285  1.00  0.00    +0.0867  C
ATOM     26 H39  CHE L   1      -1.857   1.489   4.323  1.00  0.00    +0.0575  H
ATOM     27 H40  CHE L   1      -2.511   2.777   3.293  1.00  0.00    +0.0575  H
BRANCH 25 28
ATOM     28 C11  CHE L   1      -0.742   1.839   2.530  1.00  0.00    +0.0814  A
ATOM     29 C12  CHE L   1       0.311   0.945   2.548  1.00  0.00    +0.0343  A
ATOM     30 N13  CHE L   1       1.238   1.438   1.666  1.00  0.00    -0.3060  N
ATOM     31 C14  CHE L   1       2.478   0.921   1.303  1.00  0.00    +0.0156  A
ATOM     32 C15  CHE L   1       3.233   1.574   0.397  1.00  0.00    -0.0170  A
ATOM     33 C23  CHE L   1       2.711   2.830  -0.154  1.00  0.00    -0.0525  A
ATOM     34 C24  CHE L   1       1.510   3.322   0.209  1.00  0.00    -0.0185  A
ATOM     35 C25  CHE L   1       0.715   2.619   1.155  1.00  0.00    +0.1379  A
ATOM     36 N26  CHE L   1      -0.471   2.881   1.666  1.00  0.00    -0.2309 NA
ATOM     37 H41  CHE L   1       0.466   0.020   3.087  1.00  0.00    +0.0832  H
ATOM     38 H42  CHE L   1       2.780  -0.011   1.767  1.00  0.00    +0.0816  H
ATOM     39 H55  CHE L   1       3.321   3.367  -0.875  1.00  0.00    +0.0622  H
ATOM     40 H56  CHE L   1       1.127   4.249  -0.202  1.00  0.00    +0.0654  H
BRANCH 32 41
ATOM     41 C16  CHE L   1       4.593   1.098  -0.046  1.00  0.00    +0.0226  C
ATOM     42 H43  CHE L   1       4.967   0.369   0.681  1.00  0.00    +0.0474  H
ATOM     43 H44  CHE L   1       5.291   1.945  -0.041  1.00  0.00    +0.0474  H
BRANCH 41 44
ATOM     44 N17  CHE L   1       4.519   0.486  -1.372  1.00  0.00    -0.3117 NA
ATOM     45 H45  CHE L   1       4.054   1.136  -2.004  1.00  0.00    +0.1223 HD
BRANCH 44 46
ATOM     46 C18  CHE L   1       5.835   0.161  -1.928  1.00  0.00    -0.0010  C
ATOM     47 H46  CHE L   1       6.511   1.023  -1.876  1.00  0.00    +0.0427  H
ATOM     48 H47  CHE L   1       5.685  -0.046  -2.995  1.00  0.00    +0.0427  H
BRANCH 46 49
ATOM     49 C19  CHE L   1       6.452  -1.079  -1.292  1.00  0.00    -0.0285  C
ATOM     50 C20  CHE L   1       7.269  -0.921   0.022  1.00  0.00    -0.0490  C
ATOM     51 C21  CHE L   1       8.247  -1.970  -0.542  1.00  0.00    -0.0525  C
ATOM     52 C22  CHE L   1       7.785  -1.539  -1.947  1.00  0.00    -0.0490  C
ATOM     53 H48  CHE L   1       5.731  -1.909  -1.239  1.00  0.00    +0.0313  H
ATOM     54 H49  CHE L   1       7.718   0.069   0.161  1.00  0.00    +0.0268  H
ATOM     55 H50  CHE L   1       6.756  -1.213   0.942  1.00  0.00    +0.0268  H
ATOM     56 H51  CHE L   1       7.982  -3.002  -0.287  1.00  0.00    +0.0265  H
ATOM     57 H52  CHE L   1       9.304  -1.805  -0.316  1.00  0.00    +0.0265  H
ATOM     58 H53  CHE L   1       8.387  -0.728  -2.374  1.00  0.00    +0.0268  H
ATOM     59 H54  CHE L   1       7.700  -2.342  -2.683  1.00  0.00    +0.0268  H
ENDBRANCH 46 49
ENDBRANCH 44 46
ENDBRANCH 41 44
ENDBRANCH 32 41
ENDBRANCH 25 28
ENDBRANCH 21 25
ENDBRANCH 3 19
TORSDOF 8
