ROOT
ATOM      1  C8  187 L   1       1.172   1.799  -0.327  1.00  0.00    +0.2252  C
ATOM      2  O9  187 L   1       1.392   1.810  -1.540  1.00  0.00    -0.2730 OA
ATOM      3 N10  187 L   1      -0.079   1.487   0.201  1.00  0.00    -0.3416  N
ATOM      4 C11  187 L   1      -0.379   1.512   1.630  1.00  0.00    +0.0212  C
ATOM      5 C12  187 L   1      -1.873   1.477   1.904  1.00  0.00    -0.0346  C
ATOM      6 C13  187 L   1      -2.549   0.265   1.262  1.00  0.00    -0.0418  C
ATOM      7 C14  187 L   1      -1.995  -0.105  -0.151  1.00  0.00    +0.0144  C
ATOM      8 C15  187 L   1      -1.078  -1.366  -0.065  1.00  0.00    -0.0434  C
ATOM      9 C16  187 L   1      -1.785  -2.701  -0.330  1.00  0.00    -0.0523  C
ATOM     10 C17  187 L   1      -3.256  -2.687   0.048  1.00  0.00    -0.0507  C
ATOM     11 C18  187 L   1      -4.040  -1.589  -0.674  1.00  0.00    -0.0263  C
ATOM     12 C19  187 L   1      -3.179  -0.394  -1.113  1.00  0.00    +0.0625  C
ATOM     13 O20  187 L   1      -2.674  -0.652  -2.425  1.00  0.00    -0.3912 OA
ATOM     14 C21  187 L   1      -1.156   1.078  -0.708  1.00  0.00    +0.0291  C
ATOM     15 H30  187 L   1       0.114   0.647   2.088  1.00  0.00    +0.0488  H
ATOM     16 H31  187 L   1       0.053   2.413   2.075  1.00  0.00    +0.0488  H
ATOM     17 H32  187 L   1      -2.059   1.475   2.984  1.00  0.00    +0.0282  H
ATOM     18 H33  187 L   1      -2.334   2.393   1.511  1.00  0.00    +0.0282  H
ATOM     19 H34  187 L   1      -3.623   0.482   1.217  1.00  0.00    +0.0273  H
ATOM     20 H35  187 L   1      -2.449  -0.587   1.945  1.00  0.00    +0.0273  H
ATOM     21 H36  187 L   1      -0.253  -1.291  -0.785  1.00  0.00    +0.0272  H
ATOM     22 H37  187 L   1      -0.596  -1.411   0.919  1.00  0.00    +0.0272  H
ATOM     23 H38  187 L   1      -1.266  -3.500   0.214  1.00  0.00    +0.0265  H
ATOM     24 H39  187 L   1      -1.694  -2.952  -1.394  1.00  0.00    +0.0265  H
ATOM     25 H40  187 L   1      -3.350  -2.552   1.132  1.00  0.00    +0.0266  H
ATOM     26 H41  187 L   1      -3.709  -3.661  -0.171  1.00  0.00    +0.0266  H
ATOM     27 H42  187 L   1      -4.537  -2.028  -1.547  1.00  0.00    +0.0290  H
ATOM     28 H43  187 L   1      -4.838  -1.245  -0.005  1.00  0.00    +0.0290  H
ATOM     29 H44  187 L   1      -3.818   0.494  -1.200  1.00  0.00    +0.0599  H
ATOM     30 H45  187 L   1      -3.433  -0.775  -3.021  1.00  0.00    +0.2098 HD
ATOM     31 H46  187 L   1      -0.741   0.829  -1.691  1.00  0.00    +0.0495  H
ATOM     32 H47  187 L   1      -1.793   1.960  -0.855  1.00  0.00    +0.0495  H
ENDROOT
BRANCH 1 33
ATOM     33  C7  187 L   1       2.266   2.135   0.675  1.00  0.00    +0.0437  C
ATOM     34 H28  187 L   1       2.317   1.347   1.433  1.00  0.00    +0.0378  H
ATOM     35 H29  187 L   1       2.002   3.081   1.160  1.00  0.00    +0.0378  H
BRANCH 33 36
ATOM     36  C6  187 L   1       3.627   2.301   0.005  1.00  0.00    +0.0268  C
ATOM     37 H26  187 L   1       3.581   3.026  -0.815  1.00  0.00    +0.0491  H
ATOM     38 H27  187 L   1       4.351   2.670   0.740  1.00  0.00    +0.0491  H
BRANCH 36 41
ATOM     39  C3  187 L   1       4.721   0.105   0.235  1.00  0.00    +0.2443  C
ATOM     40  O4  187 L   1       4.936   0.233   1.435  1.00  0.00    -0.2683 OA
ATOM     41  N5  187 L   1       4.133   1.060  -0.549  1.00  0.00    -0.3520  N
ATOM     42 H25  187 L   1       3.770   0.797  -1.458  1.00  0.00    +0.1626 HD
BRANCH 39 44
ATOM     43  C1  187 L   1       5.236  -1.341  -1.756  1.00  0.00    -0.0936  C
ATOM     44  C2  187 L   1       5.037  -1.180  -0.441  1.00  0.00    -0.0047  C
ATOM     45 H22  187 L   1       5.490  -2.320  -2.151  1.00  0.00    +0.0536  H
ATOM     46 H23  187 L   1       5.182  -0.524  -2.465  1.00  0.00    +0.0536  H
ATOM     47 H24  187 L   1       5.156  -2.017   0.240  1.00  0.00    +0.0666  H
ENDBRANCH 39 44
ENDBRANCH 36 41
ENDBRANCH 33 36
ENDBRANCH 1 33
TORSDOF 4
