ROOT
ATOM      1  C1  WH0 L   1      -1.677  -4.063   1.348  1.00  0.00    -0.0261  C
ATOM      2  C2  WH0 L   1      -1.984  -2.952   0.344  1.00  0.00    +0.1146  C
ATOM      3  C3  WH0 L   1      -3.499  -2.757   0.184  1.00  0.00    +0.0551  C
ATOM      4  N4  WH0 L   1      -3.767  -1.685  -0.772  1.00  0.00    -0.3483  N
ATOM      5  C5  WH0 L   1      -5.056  -1.077  -0.893  1.00  0.00    +0.2573  C
ATOM      6  O6  WH0 L   1      -6.101  -1.768  -0.760  1.00  0.00    -0.2674 OA
ATOM      7  C7  WH0 L   1      -5.151   0.362  -1.175  1.00  0.00    +0.1027  A
ATOM      8  C8  WH0 L   1      -6.186   1.071  -1.780  1.00  0.00    +0.0643  A
ATOM      9  N9  WH0 L   1      -5.865   2.390  -1.844  1.00  0.00    -0.1726 NA
ATOM     10 N10  WH0 L   1      -4.670   2.518  -1.290  1.00  0.00    -0.2209  N
ATOM     11 C11  WH0 L   1      -3.966   3.660  -1.100  1.00  0.00    +0.0349  A
ATOM     12 C12  WH0 L   1      -2.739   3.572  -0.423  1.00  0.00    -0.0014  A
ATOM     13 C13  WH0 L   1      -2.303   2.310   0.044  1.00  0.00    +0.1313  A
ATOM     14 N14  WH0 L   1      -3.060   1.200  -0.200  1.00  0.00    -0.2104 NA
ATOM     15 C15  WH0 L   1      -4.224   1.330  -0.879  1.00  0.00    +0.1699  A
ATOM     16 N16  WH0 L   1      -1.092   2.199   0.807  1.00  0.00    -0.3630  N
ATOM     17 C17  WH0 L   1      -0.754   0.989   1.567  1.00  0.00    +0.0543  C
ATOM     18 C18  WH0 L   1      -0.149   1.369   2.923  1.00  0.00    -0.0404  C
ATOM     19 C19  WH0 L   1       0.199   0.110   0.774  1.00  0.00    +0.0164  A
ATOM     20 C20  WH0 L   1       1.444   0.628   0.371  1.00  0.00    -0.0499  A
ATOM     21 C21  WH0 L   1       2.367  -0.169  -0.318  1.00  0.00    -0.0452  A
ATOM     22 C29  WH0 L   1       2.054  -1.506  -0.587  1.00  0.00    -0.0550  A
ATOM     23 C30  WH0 L   1       0.817  -2.031  -0.213  1.00  0.00    -0.0193  A
ATOM     24 C31  WH0 L   1      -0.133  -1.229   0.451  1.00  0.00    +0.1261  A
ATOM     25 O32  WH0 L   1      -1.406  -1.720   0.792  1.00  0.00    -0.4870 OA
ATOM     26 H33  WH0 L   1      -2.116  -5.024   1.003  1.00  0.00    +0.0266  H
ATOM     27 H34  WH0 L   1      -2.095  -3.808   2.346  1.00  0.00    +0.0266  H
ATOM     28 H35  WH0 L   1      -0.579  -4.193   1.447  1.00  0.00    +0.0266  H
ATOM     29 H36  WH0 L   1      -1.586  -3.236  -0.655  1.00  0.00    +0.0748  H
ATOM     30 H37  WH0 L   1      -3.969  -3.696  -0.179  1.00  0.00    +0.0522  H
ATOM     31 H38  WH0 L   1      -3.943  -2.491   1.169  1.00  0.00    +0.0522  H
ATOM     32 H39  WH0 L   1      -2.971  -1.243  -1.288  1.00  0.00    +0.1628 HD
ATOM     33 H40  WH0 L   1      -7.110   0.654  -2.156  1.00  0.00    +0.0856  H
ATOM     34 H41  WH0 L   1      -4.347   4.613  -1.446  1.00  0.00    +0.0832  H
ATOM     35 H42  WH0 L   1      -2.155   4.465  -0.238  1.00  0.00    +0.0669  H
ATOM     36 H43  WH0 L   1      -0.433   3.011   0.827  1.00  0.00    +0.1616 HD
ATOM     37 H44  WH0 L   1      -1.689   0.438   1.806  1.00  0.00    +0.0571  H
ATOM     38 H45  WH0 L   1       0.769   1.982   2.798  1.00  0.00    +0.0253  H
ATOM     39 H46  WH0 L   1       0.106   0.453   3.498  1.00  0.00    +0.0253  H
ATOM     40 H47  WH0 L   1      -0.886   1.958   3.510  1.00  0.00    +0.0253  H
ATOM     41 H48  WH0 L   1       1.703   1.654   0.603  1.00  0.00    +0.0625  H
ATOM     42 H56  WH0 L   1       2.770  -2.145  -1.090  1.00  0.00    +0.0621  H
ATOM     43 H57  WH0 L   1       0.619  -3.069  -0.437  1.00  0.00    +0.0654  H
ENDROOT
BRANCH 21 44
ATOM     44 C22  WH0 L   1       3.713   0.386  -0.701  1.00  0.00    -0.0102  C
ATOM     45 H49  WH0 L   1       4.088  -0.131  -1.611  1.00  0.00    +0.0330  H
ATOM     46 H50  WH0 L   1       3.619   1.466  -0.952  1.00  0.00    +0.0330  H
BRANCH 44 47
ATOM     47 C23  WH0 L   1       4.712   0.216   0.447  1.00  0.00    +0.0221  C
ATOM     48 H51  WH0 L   1       4.813  -0.857   0.721  1.00  0.00    +0.0489  H
ATOM     49 H52  WH0 L   1       4.337   0.764   1.340  1.00  0.00    +0.0489  H
BRANCH 47 50
ATOM     50 N24  WH0 L   1       6.016   0.757   0.070  1.00  0.00    -0.3547  N
ATOM     51 C25  WH0 L   1       6.911   0.065  -0.813  1.00  0.00    +0.2356  C
ATOM     52 O26  WH0 L   1       6.600  -1.064  -1.282  1.00  0.00    -0.2720 OA
ATOM     53 H53  WH0 L   1       6.322   1.661   0.496  1.00  0.00    +0.1623 HD
BRANCH 51 54
ATOM     54 C27  WH0 L   1       8.201   0.700  -1.223  1.00  0.00    +0.1010  C
ATOM     55 CL28 WH0 L   1       7.930   1.731  -2.648  1.00  0.00    -0.1154 Cl
ATOM     56 H54  WH0 L   1       8.605   1.318  -0.393  1.00  0.00    +0.0527  H
ATOM     57 H55  WH0 L   1       8.948  -0.082  -1.476  1.00  0.00    +0.0527  H
ENDBRANCH 51 54
ENDBRANCH 47 50
ENDBRANCH 44 47
ENDBRANCH 21 44
TORSDOF 4
