ROOT
ATOM      1  N8  CHE L   1       1.252   0.141   1.983  1.00  0.00    -0.3335  N
ATOM      2  C9  CHE L   1       1.171   1.591   2.033  1.00  0.00    +0.0258  C
ATOM      3 C10  CHE L   1      -0.187   2.039   2.556  1.00  0.00    -0.0081  C
ATOM      4 C11  CHE L   1      -1.287   1.422   1.727  1.00  0.00    -0.0180  A
ATOM      5 C12  CHE L   1      -2.511   2.068   1.506  1.00  0.00    +0.0225  A
ATOM      6 BR13 CHE L   1      -2.932   3.757   2.267  1.00  0.00    -0.0500 Br
ATOM      7 C14  CHE L   1      -3.493   1.474   0.712  1.00  0.00    -0.0368  A
ATOM      8 C15  CHE L   1      -3.277   0.226   0.113  1.00  0.00    +0.0219  A
ATOM      9 C23  CHE L   1      -2.059  -0.449   0.339  1.00  0.00    +0.0628  A
ATOM     10 CL24 CHE L   1      -1.764  -1.931  -0.525  1.00  0.00    -0.0821 Cl
ATOM     11 C25  CHE L   1      -1.085   0.128   1.184  1.00  0.00    +0.0623  A
ATOM     12 C26  CHE L   1       0.159  -0.616   1.572  1.00  0.00    +0.2566  C
ATOM     13 O27  CHE L   1       0.175  -1.841   1.574  1.00  0.00    -0.2673 OA
ATOM     14 H40  CHE L   1       1.947   1.975   2.703  1.00  0.00    +0.0492  H
ATOM     15 H41  CHE L   1       1.352   1.975   1.022  1.00  0.00    +0.0492  H
ATOM     16 H42  CHE L   1      -0.207   3.131   2.517  1.00  0.00    +0.0331  H
ATOM     17 H43  CHE L   1      -0.321   1.729   3.600  1.00  0.00    +0.0331  H
ATOM     18 H44  CHE L   1      -4.439   1.990   0.548  1.00  0.00    +0.0636  H
ENDROOT
BRANCH 1 19
ATOM     19  C7  CHE L   1       2.564  -0.493   2.137  1.00  0.00    +0.0519  C
ATOM     20 H38  CHE L   1       2.429  -1.538   2.432  1.00  0.00    +0.0540  H
ATOM     21 H39  CHE L   1       3.081  -0.025   2.982  1.00  0.00    +0.0540  H
BRANCH 19 27
ATOM     22  C1  CHE L   1       5.838   0.360  -2.612  1.00  0.00    -0.0244  C
ATOM     23  C2  CHE L   1       4.977   0.049  -1.428  1.00  0.00    +0.0162  A
ATOM     24  C3  CHE L   1       4.235  -1.062  -1.315  1.00  0.00    -0.0393  A
ATOM     25  C4  CHE L   1       3.421  -1.309  -0.132  1.00  0.00    -0.0388  A
ATOM     26  C5  CHE L   1       2.696  -2.628  -0.149  1.00  0.00    -0.0392  C
ATOM     27  C6  CHE L   1       3.362  -0.392   0.862  1.00  0.00    +0.0391  A
ATOM     28 C28  CHE L   1       4.217   0.837   0.739  1.00  0.00    +0.2540  A
ATOM     29 O29  CHE L   1       4.260   1.699   1.613  1.00  0.00    -0.2675 OA
ATOM     30 N30  CHE L   1       4.958   0.965  -0.408  1.00  0.00    -0.3262  N
ATOM     31 H31  CHE L   1       5.519   1.297  -3.081  1.00  0.00    +0.0292  H
ATOM     32 H32  CHE L   1       6.884   0.464  -2.307  1.00  0.00    +0.0292  H
ATOM     33 H33  CHE L   1       5.788  -0.428  -3.371  1.00  0.00    +0.0292  H
ATOM     34 H34  CHE L   1       4.227  -1.804  -2.109  1.00  0.00    +0.0637  H
ATOM     35 H35  CHE L   1       2.350  -2.941   0.838  1.00  0.00    +0.0278  H
ATOM     36 H36  CHE L   1       3.357  -3.429  -0.501  1.00  0.00    +0.0278  H
ATOM     37 H37  CHE L   1       1.832  -2.578  -0.820  1.00  0.00    +0.0278  H
ATOM     38 H51  CHE L   1       5.521   1.804  -0.468  1.00  0.00    +0.1686 HD
ENDBRANCH 19 27
ENDBRANCH 1 19
BRANCH 8 39
ATOM     39 C16  CHE L   1      -4.345  -0.307  -0.732  1.00  0.00    +0.0928  A
ATOM     40 C17  CHE L   1      -4.831   0.119  -1.959  1.00  0.00    +0.0876  A
ATOM     41 C18  CHE L   1      -4.390   1.240  -2.814  1.00  0.00    -0.0185  C
ATOM     42 N19  CHE L   1      -5.869  -0.685  -2.346  1.00  0.00    -0.1342 NA
ATOM     43 N20  CHE L   1      -6.051  -1.603  -1.410  1.00  0.00    -0.0651 NA
ATOM     44 N21  CHE L   1      -5.142  -1.388  -0.444  1.00  0.00    -0.2467  N
ATOM     45 C22  CHE L   1      -5.136  -2.247   0.712  1.00  0.00    +0.0325  C
ATOM     46 H45  CHE L   1      -3.302   1.236  -2.929  1.00  0.00    +0.0294  H
ATOM     47 H46  CHE L   1      -4.834   1.169  -3.812  1.00  0.00    +0.0294  H
ATOM     48 H47  CHE L   1      -4.691   2.196  -2.375  1.00  0.00    +0.0294  H
ATOM     49 H48  CHE L   1      -4.647  -3.185   0.440  1.00  0.00    +0.0473  H
ATOM     50 H49  CHE L   1      -6.170  -2.435   1.016  1.00  0.00    +0.0473  H
ATOM     51 H50  CHE L   1      -4.604  -1.766   1.535  1.00  0.00    +0.0473  H
ENDBRANCH 8 39
TORSDOF 3
