ROOT
ATOM      1 C14  CHE L   1       4.669  -0.390   0.222  1.00  0.00    +0.0389  A
ATOM      2 C15  CHE L   1       5.544   0.621   0.426  1.00  0.00    -0.0388  A
ATOM      3 C16  CHE L   1       5.456   1.625   1.540  1.00  0.00    -0.0392  C
ATOM      4 C17  CHE L   1       6.671   0.808  -0.476  1.00  0.00    -0.0393  A
ATOM      5 C18  CHE L   1       6.868  -0.013  -1.516  1.00  0.00    +0.0162  A
ATOM      6 C19  CHE L   1       8.008   0.118  -2.477  1.00  0.00    -0.0244  C
ATOM      7 N20  CHE L   1       5.980  -1.037  -1.734  1.00  0.00    -0.3262  N
ATOM      8 C21  CHE L   1       4.880  -1.291  -0.956  1.00  0.00    +0.2540  A
ATOM      9 O22  CHE L   1       4.104  -2.202  -1.224  1.00  0.00    -0.2675 OA
ATOM     10 H41  CHE L   1       6.307   1.514   2.220  1.00  0.00    +0.0278  H
ATOM     11 H42  CHE L   1       4.544   1.535   2.135  1.00  0.00    +0.0278  H
ATOM     12 H43  CHE L   1       5.470   2.644   1.139  1.00  0.00    +0.0278  H
ATOM     13 H44  CHE L   1       7.356   1.629  -0.280  1.00  0.00    +0.0637  H
ATOM     14 H45  CHE L   1       8.625  -0.786  -2.464  1.00  0.00    +0.0292  H
ATOM     15 H46  CHE L   1       7.636   0.270  -3.496  1.00  0.00    +0.0292  H
ATOM     16 H47  CHE L   1       8.654   0.965  -2.229  1.00  0.00    +0.0292  H
ATOM     17 H48  CHE L   1       6.112  -1.665  -2.517  1.00  0.00    +0.1686 HD
ENDROOT
BRANCH 1 18
ATOM     18 C13  CHE L   1       3.499  -0.737   1.091  1.00  0.00    +0.0491  C
ATOM     19 H39  CHE L   1       3.331  -1.819   1.138  1.00  0.00    +0.0538  H
ATOM     20 H40  CHE L   1       3.645  -0.414   2.126  1.00  0.00    +0.0538  H
BRANCH 18 23
ATOM     21 C10  CHE L   1       1.271   0.276   1.342  1.00  0.00    +0.2527  C
ATOM     22 O11  CHE L   1       1.312   0.281   2.564  1.00  0.00    -0.2676 OA
ATOM     23 N12  CHE L   1       2.310  -0.130   0.534  1.00  0.00    -0.3478  N
ATOM     24 H38  CHE L   1       2.107  -0.340  -0.436  1.00  0.00    +0.1630 HD
BRANCH 21 30
ATOM     25  C4  CHE L   1      -2.359   0.719   0.240  1.00  0.00    +0.0432  A
ATOM     26  C5  CHE L   1      -2.162   1.653  -0.792  1.00  0.00    -0.0198  A
ATOM     27  C6  CHE L   1      -0.887   2.112  -1.114  1.00  0.00    +0.0437  A
ATOM     28 CL7  CHE L   1      -0.686   3.258  -2.381  1.00  0.00    -0.0835 Cl
ATOM     29  C8  CHE L   1       0.222   1.653  -0.420  1.00  0.00    -0.0307  A
ATOM     30  C9  CHE L   1       0.052   0.721   0.611  1.00  0.00    +0.0452  A
ATOM     31 C23  CHE L   1      -1.233   0.242   0.955  1.00  0.00    -0.0149  A
ATOM     32 C24  CHE L   1      -1.393  -0.719   2.109  1.00  0.00    -0.0370  C
ATOM     33 H36  CHE L   1      -3.009   2.023  -1.362  1.00  0.00    +0.0653  H
ATOM     34 H37  CHE L   1       1.211   2.033  -0.661  1.00  0.00    +0.0640  H
ATOM     35 H49  CHE L   1      -1.263  -0.187   3.057  1.00  0.00    +0.0278  H
ATOM     36 H50  CHE L   1      -0.663  -1.533   2.039  1.00  0.00    +0.0278  H
ATOM     37 H51  CHE L   1      -2.375  -1.196   2.134  1.00  0.00    +0.0278  H
BRANCH 25 38
ATOM     38  N3  CHE L   1      -3.650   0.242   0.553  1.00  0.00    -0.3675  N
BRANCH 38 40
ATOM     39  C1  CHE L   1      -4.355   1.993   2.146  1.00  0.00    -0.0475  C
ATOM     40  C2  CHE L   1      -4.667   1.269   0.841  1.00  0.00    +0.0161  C
ATOM     41 H31  CHE L   1      -5.160   2.692   2.391  1.00  0.00    +0.0247  H
ATOM     42 H32  CHE L   1      -4.254   1.280   2.973  1.00  0.00    +0.0247  H
ATOM     43 H33  CHE L   1      -3.424   2.566   2.080  1.00  0.00    +0.0247  H
ATOM     44 H34  CHE L   1      -5.650   0.800   0.958  1.00  0.00    +0.0485  H
ATOM     45 H35  CHE L   1      -4.769   1.990   0.022  1.00  0.00    +0.0485  H
ENDBRANCH 38 40
BRANCH 38 46
ATOM     46 C25  CHE L   1      -4.045  -0.940  -0.256  1.00  0.00    +0.0341  C
ATOM     47 C26  CHE L   1      -4.747  -0.579  -1.568  1.00  0.00    -0.0089  C
ATOM     48 C27  CHE L   1      -5.179  -1.848  -2.290  1.00  0.00    +0.0495  C
ATOM     49 O28  CHE L   1      -6.014  -2.647  -1.454  1.00  0.00    -0.3796 OA
ATOM     50 C29  CHE L   1      -5.338  -3.082  -0.275  1.00  0.00    +0.0495  C
ATOM     51 C30  CHE L   1      -4.919  -1.891   0.573  1.00  0.00    -0.0089  C
ATOM     52 H52  CHE L   1      -3.138  -1.506  -0.511  1.00  0.00    +0.0525  H
ATOM     53 H53  CHE L   1      -5.637   0.028  -1.365  1.00  0.00    +0.0307  H
ATOM     54 H54  CHE L   1      -4.093   0.010  -2.220  1.00  0.00    +0.0307  H
ATOM     55 H55  CHE L   1      -5.755  -1.590  -3.185  1.00  0.00    +0.0560  H
ATOM     56 H56  CHE L   1      -4.313  -2.437  -2.616  1.00  0.00    +0.0560  H
ATOM     57 H57  CHE L   1      -4.476  -3.699  -0.555  1.00  0.00    +0.0560  H
ATOM     58 H58  CHE L   1      -6.028  -3.716   0.291  1.00  0.00    +0.0560  H
ATOM     59 H59  CHE L   1      -4.382  -2.238   1.462  1.00  0.00    +0.0307  H
ATOM     60 H60  CHE L   1      -5.821  -1.376   0.922  1.00  0.00    +0.0307  H
ENDBRANCH 38 46
ENDBRANCH 25 38
ENDBRANCH 21 30
ENDBRANCH 18 23
ENDBRANCH 1 18
TORSDOF 6
