ROOT
ATOM      1  O1  CHE L   1       3.927  -3.267   1.463  1.00  0.00    -0.2638 OA
ATOM      2  C2  CHE L   1       4.141  -2.187   0.924  1.00  0.00    +0.2934  A
ATOM      3  N3  CHE L   1       3.152  -1.255   0.772  1.00  0.00    -0.3039  N
ATOM      4  C4  CHE L   1       3.372  -0.014   0.223  1.00  0.00    +0.1410  A
ATOM      5 N19  CHE L   1       4.537   0.359  -0.208  1.00  0.00    -0.2336 NA
ATOM      6 C20  CHE L   1       5.561  -0.549  -0.119  1.00  0.00    +0.0767  A
ATOM      7 C21  CHE L   1       5.474  -1.783   0.397  1.00  0.00    +0.2002  A
ATOM      8 O22  CHE L   1       6.533  -2.665   0.470  1.00  0.00    -0.5012 OA
ATOM      9 H23  CHE L   1       2.264  -1.517   1.170  1.00  0.00    +0.1705 HD
ATOM     10 H33  CHE L   1       6.507  -0.192  -0.516  1.00  0.00    +0.0869  H
ATOM     11 H34  CHE L   1       7.318  -2.240   0.088  1.00  0.00    +0.2924 HD
ENDROOT
BRANCH 4 12
ATOM     12  C5  CHE L   1       2.208   0.911   0.158  1.00  0.00    +0.0185  A
ATOM     13  C6  CHE L   1       2.444   2.292   0.200  1.00  0.00    -0.0510  A
ATOM     14  C7  CHE L   1       1.377   3.191   0.145  1.00  0.00    -0.0599  A
ATOM     15  C8  CHE L   1       0.071   2.714   0.039  1.00  0.00    -0.0463  A
ATOM     16  C9  CHE L   1      -0.171   1.340  -0.020  1.00  0.00    +0.0259  A
ATOM     17 C18  CHE L   1       0.895   0.436   0.036  1.00  0.00    -0.0357  A
ATOM     18 H24  CHE L   1       3.460   2.673   0.280  1.00  0.00    +0.0625  H
ATOM     19 H25  CHE L   1       1.566   4.261   0.182  1.00  0.00    +0.0618  H
ATOM     20 H26  CHE L   1      -0.756   3.421  -0.005  1.00  0.00    +0.0630  H
ATOM     21 H32  CHE L   1       0.687  -0.627  -0.047  1.00  0.00    +0.0637  H
BRANCH 16 22
ATOM     22 C10  CHE L   1      -1.510   0.855  -0.144  1.00  0.00    -0.0610  C
ATOM     23 C11  CHE L   1      -2.635   0.445  -0.248  1.00  0.00    -0.0610  C
BRANCH 23 24
ATOM     24 C12  CHE L   1      -3.973  -0.044  -0.373  1.00  0.00    +0.0253  A
ATOM     25 C13  CHE L   1      -4.506  -0.307  -1.637  1.00  0.00    -0.0463  A
ATOM     26 C14  CHE L   1      -5.813  -0.785  -1.758  1.00  0.00    -0.0606  A
ATOM     27 C15  CHE L   1      -6.586  -1.000  -0.617  1.00  0.00    -0.0617  A
ATOM     28 C16  CHE L   1      -6.055  -0.737   0.646  1.00  0.00    -0.0606  A
ATOM     29 C17  CHE L   1      -4.749  -0.259   0.769  1.00  0.00    -0.0463  A
ATOM     30 H27  CHE L   1      -3.911  -0.143  -2.531  1.00  0.00    +0.0630  H
ATOM     31 H28  CHE L   1      -6.227  -0.990  -2.742  1.00  0.00    +0.0618  H
ATOM     32 H29  CHE L   1      -7.603  -1.373  -0.712  1.00  0.00    +0.0618  H
ATOM     33 H30  CHE L   1      -6.658  -0.905   1.535  1.00  0.00    +0.0618  H
ATOM     34 H31  CHE L   1      -4.343  -0.057   1.757  1.00  0.00    +0.0630  H
ENDBRANCH 23 24
ENDBRANCH 16 22
ENDBRANCH 4 12
TORSDOF 3
