ROOT
ATOM      1  N8  CHE L   1       1.280   1.968   0.096  1.00  0.00    -0.3335  N
ATOM      2  C9  CHE L   1       1.125   2.082   1.537  1.00  0.00    +0.0259  C
ATOM      3 C10  CHE L   1      -0.295   2.498   1.894  1.00  0.00    -0.0078  C
ATOM      4 C11  CHE L   1      -1.279   1.540   1.271  1.00  0.00    -0.0137  A
ATOM      5 C12  CHE L   1      -2.497   1.230   1.882  1.00  0.00    +0.0453  A
ATOM      6 CL13 CHE L   1      -2.988   1.947   3.375  1.00  0.00    -0.0832 Cl
ATOM      7 C14  CHE L   1      -3.377   0.322   1.290  1.00  0.00    -0.0382  A
ATOM      8 C15  CHE L   1      -3.071  -0.320   0.074  1.00  0.00    -0.0237  A
ATOM      9 C22  CHE L   1      -1.852   0.012  -0.566  1.00  0.00    +0.0571  A
ATOM     10 CL23 CHE L   1      -1.414  -0.833  -2.021  1.00  0.00    -0.0825 Cl
ATOM     11 C24  CHE L   1      -0.979   0.967   0.012  1.00  0.00    +0.0623  A
ATOM     12 C25  CHE L   1       0.263   1.438  -0.693  1.00  0.00    +0.2566  C
ATOM     13 O26  CHE L   1       0.345   1.401  -1.915  1.00  0.00    -0.2673 OA
ATOM     14 H38  CHE L   1       1.818   2.838   1.918  1.00  0.00    +0.0492  H
ATOM     15 H39  CHE L   1       1.378   1.113   1.982  1.00  0.00    +0.0492  H
ATOM     16 H40  CHE L   1      -0.371   2.513   2.985  1.00  0.00    +0.0331  H
ATOM     17 H41  CHE L   1      -0.508   3.508   1.523  1.00  0.00    +0.0331  H
ATOM     18 H42  CHE L   1      -4.318   0.109   1.795  1.00  0.00    +0.0635  H
ENDROOT
BRANCH 1 19
ATOM     19  C7  CHE L   1       2.601   2.215  -0.487  1.00  0.00    +0.0523  C
ATOM     20 H36  CHE L   1       2.973   3.173  -0.107  1.00  0.00    +0.0540  H
ATOM     21 H37  CHE L   1       2.509   2.347  -1.571  1.00  0.00    +0.0540  H
BRANCH 19 27
ATOM     22  C1  CHE L   1       6.505  -1.903   0.955  1.00  0.00    -0.0224  C
ATOM     23  C2  CHE L   1       5.476  -0.915   0.510  1.00  0.00    +0.0398  A
ATOM     24  N3  CHE L   1       5.311   0.215   1.285  1.00  0.00    -0.3243  N
ATOM     25  C4  CHE L   1       4.411   1.226   1.027  1.00  0.00    +0.2545  A
ATOM     26  O5  CHE L   1       4.334   2.197   1.774  1.00  0.00    -0.2675 OA
ATOM     27  C6  CHE L   1       3.540   1.086  -0.186  1.00  0.00    +0.0453  A
ATOM     28 C27  CHE L   1       3.734  -0.011  -0.936  1.00  0.00    +0.0113  A
ATOM     29 C28  CHE L   1       3.097  -0.424  -2.181  1.00  0.00    -0.0361  A
ATOM     30 C29  CHE L   1       3.659  -1.604  -2.503  1.00  0.00    +0.0028  A
ATOM     31 N30  CHE L   1       4.589  -1.989  -1.564  1.00  0.00    -0.3593  N
ATOM     32 C31  CHE L   1       4.709  -1.047  -0.578  1.00  0.00    +0.0662  A
ATOM     33 H32  CHE L   1       6.565  -2.768   0.287  1.00  0.00    +0.0292  H
ATOM     34 H33  CHE L   1       7.494  -1.436   0.985  1.00  0.00    +0.0292  H
ATOM     35 H34  CHE L   1       6.267  -2.274   1.958  1.00  0.00    +0.0292  H
ATOM     36 H35  CHE L   1       5.881   0.345   2.112  1.00  0.00    +0.1687 HD
ATOM     37 H52  CHE L   1       2.340   0.107  -2.733  1.00  0.00    +0.0639  H
ATOM     38 H53  CHE L   1       3.457  -2.224  -3.365  1.00  0.00    +0.0807  H
ATOM     39 H54  CHE L   1       5.201  -2.783  -1.670  1.00  0.00    +0.1654 HD
ENDBRANCH 19 27
ENDBRANCH 1 19
BRANCH 8 40
ATOM     40 C16  CHE L   1      -4.076  -1.321  -0.502  1.00  0.00    -0.0102  C
ATOM     41 C17  CHE L   1      -4.425  -2.428   0.501  1.00  0.00    -0.0580  C
ATOM     42 H43  CHE L   1      -3.658  -1.834  -1.373  1.00  0.00    +0.0351  H
ATOM     43 H44  CHE L   1      -5.057  -3.189   0.029  1.00  0.00    +0.0236  H
ATOM     44 H45  CHE L   1      -4.980  -2.048   1.365  1.00  0.00    +0.0236  H
ATOM     45 H46  CHE L   1      -3.520  -2.924   0.868  1.00  0.00    +0.0236  H
BRANCH 40 46
ATOM     46 C18  CHE L   1      -5.344  -0.582  -0.932  1.00  0.00    +0.0124  C
ATOM     47 C19  CHE L   1      -6.327  -1.358  -1.825  1.00  0.00    +0.0531  C
ATOM     48 O20  CHE L   1      -6.435  -0.232  -2.732  1.00  0.00    -0.3790 OA
ATOM     49 C21  CHE L   1      -5.244   0.356  -2.148  1.00  0.00    +0.0531  C
ATOM     50 H47  CHE L   1      -5.869  -0.104  -0.092  1.00  0.00    +0.0351  H
ATOM     51 H48  CHE L   1      -7.286  -1.601  -1.359  1.00  0.00    +0.0563  H
ATOM     52 H49  CHE L   1      -5.932  -2.239  -2.341  1.00  0.00    +0.0563  H
ATOM     53 H50  CHE L   1      -4.381   0.219  -2.807  1.00  0.00    +0.0563  H
ATOM     54 H51  CHE L   1      -5.379   1.419  -1.929  1.00  0.00    +0.0563  H
ENDBRANCH 40 46
ENDBRANCH 8 40
TORSDOF 4
