ROOT
ATOM      1 N13  187 L   1      -0.679   0.359  -0.016  1.00  0.00    -0.3696  N
ATOM      2 C14  187 L   1      -0.680  -0.862   0.803  1.00  0.00    +0.0187  C
ATOM      3 C15  187 L   1      -1.547  -0.652   2.039  1.00  0.00    -0.0346  C
ATOM      4 C16  187 L   1      -3.005  -0.386   1.658  1.00  0.00    -0.0385  C
ATOM      5 C17  187 L   1      -3.153   0.305   0.292  1.00  0.00    +0.0550  C
ATOM      6 C21  187 L   1      -1.924   1.158  -0.037  1.00  0.00    +0.0299  C
ATOM      7 H32  187 L   1      -1.058  -1.720   0.231  1.00  0.00    +0.0488  H
ATOM      8 H33  187 L   1       0.342  -1.100   1.121  1.00  0.00    +0.0488  H
ATOM      9 H34  187 L   1      -1.491  -1.526   2.698  1.00  0.00    +0.0282  H
ATOM     10 H35  187 L   1      -1.163   0.201   2.613  1.00  0.00    +0.0282  H
ATOM     11 H36  187 L   1      -3.478   0.201   2.456  1.00  0.00    +0.0274  H
ATOM     12 H37  187 L   1      -3.547  -1.340   1.627  1.00  0.00    +0.0274  H
ATOM     13 H38  187 L   1      -3.259  -0.467  -0.482  1.00  0.00    +0.0414  H
ATOM     14 H41  187 L   1      -1.815   1.951   0.715  1.00  0.00    +0.0495  H
ATOM     15 H42  187 L   1      -2.055   1.682  -0.993  1.00  0.00    +0.0495  H
ENDROOT
BRANCH 1 21
ATOM     16  C7  187 L   1       1.372   0.446  -1.338  1.00  0.00    -0.0051  A
ATOM     17  C8  187 L   1       2.032   0.248  -2.568  1.00  0.00    -0.0549  A
ATOM     18  C9  187 L   1       1.337  -0.193  -3.692  1.00  0.00    -0.0613  A
ATOM     19 C10  187 L   1      -0.026  -0.444  -3.602  1.00  0.00    -0.0598  A
ATOM     20 C11  187 L   1      -0.691  -0.253  -2.388  1.00  0.00    -0.0382  A
ATOM     21 C12  187 L   1      -0.012   0.192  -1.241  1.00  0.00    +0.0428  A
ATOM     22 H28  187 L   1       3.099   0.451  -2.649  1.00  0.00    +0.0621  H
ATOM     23 H29  187 L   1       1.859  -0.335  -4.634  1.00  0.00    +0.0618  H
ATOM     24 H30  187 L   1      -0.576  -0.786  -4.474  1.00  0.00    +0.0618  H
ATOM     25 H31  187 L   1      -1.755  -0.467  -2.347  1.00  0.00    +0.0638  H
BRANCH 16 26
ATOM     26  C6  187 L   1       2.186   0.942  -0.167  1.00  0.00    +0.0456  C
ATOM     27 H26  187 L   1       1.566   1.255   0.679  1.00  0.00    +0.0537  H
ATOM     28 H27  187 L   1       2.767   1.824  -0.466  1.00  0.00    +0.0537  H
BRANCH 26 31
ATOM     29  C3  187 L   1       4.077   0.210   1.209  1.00  0.00    +0.2446  C
ATOM     30  O4  187 L   1       4.336   1.336   1.611  1.00  0.00    -0.2683 OA
ATOM     31  N5  187 L   1       3.093  -0.085   0.303  1.00  0.00    -0.3484  N
ATOM     32 H25  187 L   1       2.842  -1.043   0.113  1.00  0.00    +0.1629 HD
BRANCH 29 34
ATOM     33  C1  187 L   1       5.771  -0.895   2.598  1.00  0.00    -0.0936  C
ATOM     34  C2  187 L   1       4.810  -0.997   1.671  1.00  0.00    -0.0047  C
ATOM     35 H22  187 L   1       6.315  -1.769   2.938  1.00  0.00    +0.0536  H
ATOM     36 H23  187 L   1       6.037   0.065   3.035  1.00  0.00    +0.0536  H
ATOM     37 H24  187 L   1       4.558  -1.957   1.240  1.00  0.00    +0.0666  H
ENDBRANCH 29 34
ENDBRANCH 26 31
ENDBRANCH 16 26
ENDBRANCH 1 21
BRANCH 5 38
ATOM     38 C18  187 L   1      -4.411   1.154   0.242  1.00  0.00    +0.2232  C
ATOM     39 N19  187 L   1      -5.578   0.472   0.435  1.00  0.00    -0.3696  N
ATOM     40 O20  187 L   1      -4.428   2.361   0.034  1.00  0.00    -0.2731 OA
ATOM     41 H39  187 L   1      -5.632  -0.536   0.444  1.00  0.00    +0.1586 HD
ATOM     42 H40  187 L   1      -6.439   0.999   0.347  1.00  0.00    +0.1586 HD
ENDBRANCH 5 38
TORSDOF 5
