ROOT
ATOM      1 C10  WH0 L   1       3.360   1.223   0.045  1.00  0.00    -0.0350  A
ATOM      2 C11  WH0 L   1       4.657   1.725  -0.193  1.00  0.00    -0.0579  A
ATOM      3 C12  WH0 L   1       4.881   2.818  -1.046  1.00  0.00    -0.0595  A
ATOM      4 C13  WH0 L   1       3.815   3.441  -1.686  1.00  0.00    -0.0378  A
ATOM      5 C14  WH0 L   1       2.548   2.947  -1.443  1.00  0.00    +0.0509  A
ATOM      6 C15  WH0 L   1       2.293   1.861  -0.592  1.00  0.00    +0.0474  A
ATOM      7 C16  WH0 L   1       0.791   1.597  -0.555  1.00  0.00    +0.2807  C
ATOM      8 O17  WH0 L   1       0.291   1.869   0.754  1.00  0.00    -0.3368 OA
ATOM      9 C18  WH0 L   1      -0.531   0.834   1.279  1.00  0.00    +0.0637  C
ATOM     10 C19  WH0 L   1      -1.561   0.291   0.280  1.00  0.00    +0.0644  C
ATOM     11 C20  WH0 L   1      -2.692   1.312   0.033  1.00  0.00    +0.0637  C
ATOM     12 O21  WH0 L   1      -3.915   0.865   0.620  1.00  0.00    -0.3368 OA
ATOM     13 C22  WH0 L   1      -4.325  -0.381   0.071  1.00  0.00    +0.2804  C
ATOM     14 O23  WH0 L   1      -3.321  -1.394   0.142  1.00  0.00    -0.3368 OA
ATOM     15 C24  WH0 L   1      -2.187  -0.975   0.887  1.00  0.00    +0.0637  C
ATOM     16 C25  WH0 L   1      -4.914  -0.313  -1.407  1.00  0.00    +0.2902  C
ATOM     17 O26  WH0 L   1      -4.319  -0.018  -2.434  1.00  0.00    -0.2665 OA
ATOM     18 N27  WH0 L   1      -6.256  -0.677  -1.343  1.00  0.00    -0.3210  N
ATOM     19 C28  WH0 L   1      -6.627  -0.994  -0.046  1.00  0.00    +0.0507  A
ATOM     20 C29  WH0 L   1      -7.875  -1.407   0.376  1.00  0.00    -0.0378  A
ATOM     21 C30  WH0 L   1      -8.037  -1.678   1.736  1.00  0.00    -0.0598  A
ATOM     22 C31  WH0 L   1      -6.963  -1.532   2.631  1.00  0.00    -0.0612  A
ATOM     23 C32  WH0 L   1      -5.707  -1.113   2.180  1.00  0.00    -0.0510  A
ATOM     24 C33  WH0 L   1      -5.549  -0.847   0.828  1.00  0.00    +0.0441  A
ATOM     25 C34  WH0 L   1      -0.838  -0.039  -1.042  1.00  0.00    +0.0637  C
ATOM     26 O35  WH0 L   1       0.557   0.263  -0.971  1.00  0.00    -0.3368 OA
ATOM     27 C36  WH0 L   1       0.275   2.735  -1.546  1.00  0.00    +0.2902  C
ATOM     28 O37  WH0 L   1      -0.880   2.982  -1.865  1.00  0.00    -0.2665 OA
ATOM     29 N38  WH0 L   1       1.380   3.440  -1.995  1.00  0.00    -0.3210  N
ATOM     30 H46  WH0 L   1       5.515   1.261   0.293  1.00  0.00    +0.0620  H
ATOM     31 H47  WH0 L   1       5.895   3.176  -1.206  1.00  0.00    +0.0618  H
ATOM     32 H48  WH0 L   1       3.982   4.283  -2.349  1.00  0.00    +0.0638  H
ATOM     33 H49  WH0 L   1       0.118   0.025   1.634  1.00  0.00    +0.0569  H
ATOM     34 H50  WH0 L   1      -1.029   1.234   2.171  1.00  0.00    +0.0569  H
ATOM     35 H51  WH0 L   1      -2.871   1.519  -1.026  1.00  0.00    +0.0569  H
ATOM     36 H52  WH0 L   1      -2.457   2.279   0.492  1.00  0.00    +0.0569  H
ATOM     37 H53  WH0 L   1      -1.468  -1.802   0.895  1.00  0.00    +0.0569  H
ATOM     38 H54  WH0 L   1      -2.486  -0.819   1.932  1.00  0.00    +0.0569  H
ATOM     39 H55  WH0 L   1      -6.850  -0.717  -2.156  1.00  0.00    +0.1688 HD
ATOM     40 H56  WH0 L   1      -8.703  -1.518  -0.315  1.00  0.00    +0.0638  H
ATOM     41 H57  WH0 L   1      -9.005  -2.005   2.110  1.00  0.00    +0.0618  H
ATOM     42 H58  WH0 L   1      -7.112  -1.746   3.688  1.00  0.00    +0.0618  H
ATOM     43 H59  WH0 L   1      -4.880  -0.995   2.873  1.00  0.00    +0.0623  H
ATOM     44 H60  WH0 L   1      -1.266   0.462  -1.916  1.00  0.00    +0.0569  H
ATOM     45 H61  WH0 L   1      -0.903  -1.110  -1.267  1.00  0.00    +0.0569  H
ATOM     46 H62  WH0 L   1       1.307   4.221  -2.630  1.00  0.00    +0.1688 HD
ENDROOT
BRANCH 1 47
ATOM     47  C9  WH0 L   1       3.198   0.019   0.939  1.00  0.00    -0.0097  C
ATOM     48 H44  WH0 L   1       3.986   0.031   1.704  1.00  0.00    +0.0330  H
ATOM     49 H45  WH0 L   1       2.263   0.103   1.497  1.00  0.00    +0.0330  H
BRANCH 47 50
ATOM     50  C8  WH0 L   1       3.227  -1.312   0.178  1.00  0.00    +0.0224  C
ATOM     51 H42  WH0 L   1       2.492  -1.333  -0.630  1.00  0.00    +0.0489  H
ATOM     52 H43  WH0 L   1       2.987  -2.128   0.870  1.00  0.00    +0.0489  H
BRANCH 50 55
ATOM     53  C5  WH0 L   1       5.564  -2.106   0.305  1.00  0.00    +0.2618  C
ATOM     54  O6  WH0 L   1       5.453  -2.396   1.494  1.00  0.00    -0.2669 OA
ATOM     55  N7  WH0 L   1       4.519  -1.595  -0.428  1.00  0.00    -0.3511  N
ATOM     56 H41  WH0 L   1       4.642  -1.280  -1.384  1.00  0.00    +0.1627 HD
BRANCH 53 58
ATOM     57  C1  WH0 L   1       7.904  -2.802   0.244  1.00  0.00    -0.0760  C
ATOM     58  C2  WH0 L   1       6.862  -2.279  -0.424  1.00  0.00    +0.1085  C
ATOM     59 H39  WH0 L   1       8.870  -2.951  -0.229  1.00  0.00    +0.0549  H
ATOM     60 H40  WH0 L   1       7.820  -3.099   1.287  1.00  0.00    +0.0549  H
BRANCH 58 61
ATOM     61  C3  WH0 L   1       6.995  -1.895  -1.784  1.00  0.00    +0.1040  C
ATOM     62  N4  WH0 L   1       7.083  -1.565  -2.893  1.00  0.00    -0.1907 NA
ENDBRANCH 58 61
ENDBRANCH 53 58
ENDBRANCH 50 55
ENDBRANCH 47 50
ENDBRANCH 1 47
TORSDOF 5
