ROOT
ATOM      1  C9  CHE L   1       1.460   0.540   0.369  1.00  0.00    +0.0901  A
ATOM      2 C10  CHE L   1       0.909   1.608   1.045  1.00  0.00    +0.0371  A
ATOM      3 N11  CHE L   1      -0.450   1.435   0.960  1.00  0.00    -0.3059  N
ATOM      4 C12  CHE L   1      -1.477   2.214   1.470  1.00  0.00    +0.0131  A
ATOM      5 C13  CHE L   1      -2.749   1.838   1.256  1.00  0.00    -0.0218  A
ATOM      6 C14  CHE L   1      -3.055   0.620   0.484  1.00  0.00    +0.0429  A
ATOM      7 C21  CHE L   1      -2.015  -0.118   0.017  1.00  0.00    +0.0044  A
ATOM      8 C22  CHE L   1      -0.664   0.271   0.239  1.00  0.00    +0.1402  A
ATOM      9 N23  CHE L   1       0.474  -0.283  -0.129  1.00  0.00    -0.2277 NA
ATOM     10 H35  CHE L   1       1.343   2.453   1.558  1.00  0.00    +0.0835  H
ATOM     11 H36  CHE L   1      -1.207   3.096   2.036  1.00  0.00    +0.0814  H
ATOM     12 H37  CHE L   1      -3.559   2.421   1.678  1.00  0.00    +0.0653  H
ATOM     13 H46  CHE L   1      -2.171  -1.019  -0.563  1.00  0.00    +0.0675  H
ENDROOT
BRANCH 1 17
ATOM     14  C3  CHE L   1       5.648  -0.286  -0.037  1.00  0.00    +0.1378  A
ATOM     15  C4  CHE L   1       4.773  -0.559  -1.093  1.00  0.00    -0.0127  A
ATOM     16  C5  CHE L   1       3.393  -0.273  -1.001  1.00  0.00    -0.0094  A
ATOM     17  C8  CHE L   1       2.881   0.280   0.191  1.00  0.00    +0.0086  A
ATOM     18 C24  CHE L   1       3.764   0.556   1.247  1.00  0.00    -0.0312  A
ATOM     19 C25  CHE L   1       5.136   0.282   1.136  1.00  0.00    +0.0939  A
ATOM     20 H31  CHE L   1       5.137  -1.004  -2.016  1.00  0.00    +0.0658  H
ATOM     21 H47  CHE L   1       3.385   0.969   2.181  1.00  0.00    +0.0638  H
BRANCH 14 23
ATOM     22  C1  CHE L   1       7.527  -1.210  -1.190  1.00  0.00    +0.0788  C
ATOM     23  O2  CHE L   1       6.996  -0.529  -0.060  1.00  0.00    -0.4938 OA
ATOM     24 H28  CHE L   1       7.062  -2.194  -1.314  1.00  0.00    +0.0660  H
ATOM     25 H29  CHE L   1       8.595  -1.366  -1.015  1.00  0.00    +0.0660  H
ATOM     26 H30  CHE L   1       7.423  -0.606  -2.097  1.00  0.00    +0.0660  H
ENDBRANCH 14 23
BRANCH 16 27
ATOM     27  C6  CHE L   1       2.520  -0.583  -2.195  1.00  0.00    +0.0700  C
ATOM     28  O7  CHE L   1       1.801  -1.785  -1.971  1.00  0.00    -0.3904 OA
ATOM     29 H32  CHE L   1       3.127  -0.719  -3.097  1.00  0.00    +0.0607  H
ATOM     30 H33  CHE L   1       1.826   0.236  -2.412  1.00  0.00    +0.0607  H
ATOM     31 H34  CHE L   1       1.174  -1.564  -1.248  1.00  0.00    +0.2098 HD
ENDBRANCH 16 27
BRANCH 19 32
ATOM     32 C26  CHE L   1       5.989   0.588   2.249  1.00  0.00    +0.1028  C
ATOM     33 N27  CHE L   1       6.637   0.858   3.174  1.00  0.00    -0.1907 NA
ENDBRANCH 19 32
ENDBRANCH 1 17
BRANCH 6 34
ATOM     34 N15  CHE L   1      -4.398   0.277   0.285  1.00  0.00    -0.3661  N
ATOM     35 C16  CHE L   1      -4.829  -1.094  -0.080  1.00  0.00    +0.0421  C
ATOM     36 C17  CHE L   1      -6.276  -1.347   0.370  1.00  0.00    +0.0652  C
ATOM     37 O18  CHE L   1      -7.231  -0.457  -0.224  1.00  0.00    -0.3763 OA
ATOM     38 C19  CHE L   1      -6.669   0.814  -0.575  1.00  0.00    +0.0652  C
ATOM     39 C20  CHE L   1      -5.513   1.251   0.338  1.00  0.00    +0.0421  C
ATOM     40 H38  CHE L   1      -4.186  -1.839   0.401  1.00  0.00    +0.0510  H
ATOM     41 H39  CHE L   1      -4.747  -1.210  -1.167  1.00  0.00    +0.0510  H
ATOM     42 H40  CHE L   1      -6.577  -2.368   0.115  1.00  0.00    +0.0577  H
ATOM     43 H41  CHE L   1      -6.359  -1.244   1.458  1.00  0.00    +0.0577  H
ATOM     44 H42  CHE L   1      -7.477   1.551  -0.537  1.00  0.00    +0.0577  H
ATOM     45 H43  CHE L   1      -6.332   0.754  -1.617  1.00  0.00    +0.0577  H
ATOM     46 H44  CHE L   1      -5.177   2.241   0.008  1.00  0.00    +0.0510  H
ATOM     47 H45  CHE L   1      -5.862   1.326   1.374  1.00  0.00    +0.0510  H
ENDBRANCH 6 34
TORSDOF 5
