ROOT
ATOM      1 C15  CHE L   1      -0.325  -0.457  -0.433  1.00  0.00    +0.0671  A
ATOM      2 C16  CHE L   1       0.835   0.262  -0.730  1.00  0.00    +0.0293  A
ATOM      3 C17  CHE L   1       1.234   0.840  -2.048  1.00  0.00    -0.0235  C
ATOM      4 N18  CHE L   1       1.568   0.387   0.440  1.00  0.00    -0.3403  N
ATOM      5 C28  CHE L   1       0.904  -0.271   1.477  1.00  0.00    +0.0503  A
ATOM      6 C29  CHE L   1       1.243  -0.433   2.836  1.00  0.00    -0.0376  A
ATOM      7 C30  CHE L   1       0.405  -1.195   3.654  1.00  0.00    -0.0598  A
ATOM      8 C31  CHE L   1      -0.734  -1.794   3.139  1.00  0.00    -0.0611  A
ATOM      9 C32  CHE L   1      -1.068  -1.628   1.792  1.00  0.00    -0.0518  A
ATOM     10 C33  CHE L   1      -0.254  -0.837   0.946  1.00  0.00    +0.0125  A
ATOM     11 H45  CHE L   1       2.260   0.574  -2.309  1.00  0.00    +0.0292  H
ATOM     12 H46  CHE L   1       1.130   1.930  -2.035  1.00  0.00    +0.0292  H
ATOM     13 H47  CHE L   1       0.610   0.480  -2.869  1.00  0.00    +0.0292  H
ATOM     14 H64  CHE L   1       2.142   0.004   3.258  1.00  0.00    +0.0638  H
ATOM     15 H65  CHE L   1       0.662  -1.331   4.703  1.00  0.00    +0.0618  H
ATOM     16 H66  CHE L   1      -1.366  -2.404   3.780  1.00  0.00    +0.0618  H
ATOM     17 H67  CHE L   1      -1.951  -2.132   1.403  1.00  0.00    +0.0624  H
ENDROOT
BRANCH 1 19
ATOM     18 N12  CHE L   1      -2.660  -0.626  -0.859  1.00  0.00    -0.3476  N
ATOM     19 C13  CHE L   1      -1.396  -0.766  -1.384  1.00  0.00    +0.2546  C
ATOM     20 O14  CHE L   1      -1.192  -1.092  -2.548  1.00  0.00    -0.2675 OA
ATOM     21 H44  CHE L   1      -2.737  -0.477   0.137  1.00  0.00    +0.1630 HD
BRANCH 18 22
ATOM     22 C11  CHE L   1      -3.814  -1.108  -1.579  1.00  0.00    +0.0524  C
ATOM     23 H42  CHE L   1      -3.793  -0.691  -2.590  1.00  0.00    +0.0539  H
ATOM     24 H43  CHE L   1      -3.725  -2.194  -1.688  1.00  0.00    +0.0539  H
BRANCH 22 32
ATOM     25  C3  CHE L   1      -5.860   0.304  -1.148  1.00  0.00    +0.1317  A
ATOM     26  C4  CHE L   1      -7.098   0.543  -0.437  1.00  0.00    -0.0005  A
ATOM     27  C5  CHE L   1      -7.460  -0.257   0.578  1.00  0.00    +0.0195  A
ATOM     28  C6  CHE L   1      -8.716  -0.077   1.371  1.00  0.00    -0.0242  C
ATOM     29  N7  CHE L   1      -6.638  -1.304   0.928  1.00  0.00    -0.3260  N
ATOM     30  C8  CHE L   1      -5.454  -1.607   0.303  1.00  0.00    +0.2573  A
ATOM     31  O9  CHE L   1      -4.754  -2.543   0.680  1.00  0.00    -0.2674 OA
ATOM     32 C10  CHE L   1      -5.056  -0.730  -0.841  1.00  0.00    +0.0774  A
ATOM     33 H37  CHE L   1      -7.716   1.377  -0.755  1.00  0.00    +0.0671  H
ATOM     34 H38  CHE L   1      -9.304   0.776   1.012  1.00  0.00    +0.0292  H
ATOM     35 H39  CHE L   1      -8.481   0.100   2.426  1.00  0.00    +0.0292  H
ATOM     36 H40  CHE L   1      -9.343  -0.971   1.302  1.00  0.00    +0.0292  H
ATOM     37 H41  CHE L   1      -6.889  -1.908   1.701  1.00  0.00    +0.1686 HD
BRANCH 25 39
ATOM     38  C1  CHE L   1      -4.911   2.318  -1.784  1.00  0.00    +0.0788  C
ATOM     39  O2  CHE L   1      -5.623   1.152  -2.210  1.00  0.00    -0.4945 OA
ATOM     40 H34  CHE L   1      -3.888   2.061  -1.486  1.00  0.00    +0.0660  H
ATOM     41 H35  CHE L   1      -5.430   2.833  -0.967  1.00  0.00    +0.0660  H
ATOM     42 H36  CHE L   1      -4.852   3.001  -2.636  1.00  0.00    +0.0660  H
ENDBRANCH 25 39
ENDBRANCH 22 32
ENDBRANCH 18 22
ENDBRANCH 1 19
BRANCH 4 43
ATOM     43 C19  CHE L   1       2.869   1.050   0.657  1.00  0.00    +0.0349  C
ATOM     44 C20  CHE L   1       3.123   2.325  -0.158  1.00  0.00    -0.0440  C
ATOM     45 H48  CHE L   1       2.786   1.434   1.684  1.00  0.00    +0.0528  H
ATOM     46 H49  CHE L   1       3.932   2.914   0.289  1.00  0.00    +0.0250  H
ATOM     47 H50  CHE L   1       2.235   2.967  -0.172  1.00  0.00    +0.0250  H
ATOM     48 H51  CHE L   1       3.418   2.124  -1.191  1.00  0.00    +0.0250  H
BRANCH 43 49
ATOM     49 C21  CHE L   1       4.047   0.031   0.663  1.00  0.00    -0.0181  C
ATOM     50 C22  CHE L   1       4.334  -0.612  -0.706  1.00  0.00    -0.0355  C
ATOM     51 C23  CHE L   1       5.688  -1.321  -0.699  1.00  0.00    -0.0011  C
ATOM     52 N24  CHE L   1       6.817  -0.421  -0.418  1.00  0.00    -0.3053 NA
ATOM     53 C25  CHE L   1       7.606  -0.151  -1.617  1.00  0.00    -0.0128  C
ATOM     54 C26  CHE L   1       6.432   0.833   0.242  1.00  0.00    -0.0011  C
ATOM     55 C27  CHE L   1       5.335   0.616   1.282  1.00  0.00    -0.0355  C
ATOM     56 H52  CHE L   1       3.753  -0.792   1.331  1.00  0.00    +0.0321  H
ATOM     57 H53  CHE L   1       3.546  -1.335  -0.949  1.00  0.00    +0.0281  H
ATOM     58 H54  CHE L   1       4.337   0.135  -1.507  1.00  0.00    +0.0281  H
ATOM     59 H55  CHE L   1       5.678  -2.093   0.082  1.00  0.00    +0.0426  H
ATOM     60 H56  CHE L   1       5.825  -1.862  -1.644  1.00  0.00    +0.0426  H
ATOM     61 H57  CHE L   1       7.010   0.331  -2.400  1.00  0.00    +0.0391  H
ATOM     62 H58  CHE L   1       8.455   0.500  -1.384  1.00  0.00    +0.0391  H
ATOM     63 H59  CHE L   1       8.024  -1.079  -2.022  1.00  0.00    +0.0391  H
ATOM     64 H60  CHE L   1       6.087   1.576  -0.489  1.00  0.00    +0.0426  H
ATOM     65 H61  CHE L   1       7.313   1.257   0.739  1.00  0.00    +0.0426  H
ATOM     66 H62  CHE L   1       5.136   1.550   1.820  1.00  0.00    +0.0281  H
ATOM     67 H63  CHE L   1       5.708  -0.085   2.041  1.00  0.00    +0.0281  H
ENDBRANCH 43 49
ENDBRANCH 4 43
TORSDOF 6
