ROOT
ATOM      1  C3  CHE L   1      -3.933   0.355  -0.741  1.00  0.00    +0.0518  A
ATOM      2  C4  CHE L   1      -3.228   1.440  -0.214  1.00  0.00    -0.0438  A
ATOM      3  C5  CHE L   1      -1.860   1.323   0.057  1.00  0.00    -0.0528  A
ATOM      4  C6  CHE L   1      -1.170   0.125  -0.193  1.00  0.00    -0.0178  A
ATOM      5 C16  CHE L   1      -1.895  -0.956  -0.723  1.00  0.00    -0.0528  A
ATOM      6 C17  CHE L   1      -3.263  -0.844  -0.995  1.00  0.00    -0.0438  A
ATOM      7 H18  CHE L   1      -3.733   2.383  -0.013  1.00  0.00    +0.0631  H
ATOM      8 H19  CHE L   1      -1.329   2.186   0.458  1.00  0.00    +0.0624  H
ATOM      9 H25  CHE L   1      -1.397  -1.904  -0.919  1.00  0.00    +0.0624  H
ATOM     10 H26  CHE L   1      -3.797  -1.701  -1.403  1.00  0.00    +0.0631  H
ENDROOT
BRANCH 1 12
ATOM     11  N1  CHE L   1      -6.468   0.566  -1.246  1.00  0.00    -0.1909 NA
ATOM     12  C2  CHE L   1      -5.334   0.472  -1.020  1.00  0.00    +0.0992  C
ENDBRANCH 1 12
BRANCH 4 13
ATOM     13  C7  CHE L   1       0.269   0.005   0.093  1.00  0.00    -0.0178  A
ATOM     14  C8  CHE L   1       0.783   0.314   1.364  1.00  0.00    -0.0533  A
ATOM     15  C9  CHE L   1       2.150   0.200   1.637  1.00  0.00    -0.0472  A
ATOM     16 C10  CHE L   1       3.034  -0.225   0.641  1.00  0.00    +0.0589  A
ATOM     17 C14  CHE L   1       2.540  -0.536  -0.630  1.00  0.00    -0.0472  A
ATOM     18 C15  CHE L   1       1.170  -0.422  -0.897  1.00  0.00    -0.0533  A
ATOM     19 H20  CHE L   1       0.115   0.636   2.161  1.00  0.00    +0.0624  H
ATOM     20 H21  CHE L   1       2.520   0.443   2.632  1.00  0.00    +0.0626  H
ATOM     21 H23  CHE L   1       3.209  -0.866  -1.421  1.00  0.00    +0.0626  H
ATOM     22 H24  CHE L   1       0.812  -0.659  -1.898  1.00  0.00    +0.0624  H
BRANCH 16 23
ATOM     23 C11  CHE L   1       4.475  -0.330   0.975  1.00  0.00    +0.3368  C
ATOM     24 O12  CHE L   1       4.977  -0.073   2.053  1.00  0.00    -0.2451 OA
ATOM     25 O13  CHE L   1       5.221  -0.754  -0.060  1.00  0.00    -0.4771 OA
ATOM     26 H22  CHE L   1       6.132  -0.774   0.301  1.00  0.00    +0.2954 HD
ENDBRANCH 16 23
ENDBRANCH 4 13
TORSDOF 3
