ROOT
ATOM      1 C15  CHE L   1       4.971   0.044   0.837  1.00  0.00    +0.0389  A
ATOM      2 C16  CHE L   1       5.348   0.984  -0.059  1.00  0.00    -0.0388  A
ATOM      3 C17  CHE L   1       5.801   0.717  -1.468  1.00  0.00    -0.0392  C
ATOM      4 C18  CHE L   1       5.314   2.394   0.304  1.00  0.00    -0.0393  A
ATOM      5 C19  CHE L   1       4.917   2.790   1.522  1.00  0.00    +0.0162  A
ATOM      6 C20  CHE L   1       4.857   4.223   1.950  1.00  0.00    -0.0244  C
ATOM      7 N21  CHE L   1       4.539   1.842   2.439  1.00  0.00    -0.3262  N
ATOM      8 C22  CHE L   1       4.531   0.492   2.200  1.00  0.00    +0.2540  A
ATOM      9 O23  CHE L   1       4.162  -0.304   3.060  1.00  0.00    -0.2675 OA
ATOM     10 H47  CHE L   1       5.833  -0.342  -1.728  1.00  0.00    +0.0278  H
ATOM     11 H48  CHE L   1       6.810   1.115  -1.624  1.00  0.00    +0.0278  H
ATOM     12 H49  CHE L   1       5.127   1.204  -2.183  1.00  0.00    +0.0278  H
ATOM     13 H50  CHE L   1       5.616   3.122  -0.444  1.00  0.00    +0.0637  H
ATOM     14 H51  CHE L   1       5.218   4.897   1.165  1.00  0.00    +0.0292  H
ATOM     15 H52  CHE L   1       3.827   4.509   2.189  1.00  0.00    +0.0292  H
ATOM     16 H53  CHE L   1       5.478   4.383   2.838  1.00  0.00    +0.0292  H
ATOM     17 H54  CHE L   1       4.232   2.121   3.363  1.00  0.00    +0.1686 HD
ENDROOT
BRANCH 1 18
ATOM     18 C14  CHE L   1       4.949  -1.443   0.632  1.00  0.00    +0.0491  C
ATOM     19 H45  CHE L   1       5.378  -1.960   1.499  1.00  0.00    +0.0538  H
ATOM     20 H46  CHE L   1       5.523  -1.766  -0.241  1.00  0.00    +0.0538  H
BRANCH 18 23
ATOM     21 C11  CHE L   1       2.937  -1.925  -0.718  1.00  0.00    +0.2529  C
ATOM     22 O12  CHE L   1       3.475  -1.760  -1.805  1.00  0.00    -0.2676 OA
ATOM     23 N13  CHE L   1       3.578  -1.881   0.497  1.00  0.00    -0.3478  N
ATOM     24 H44  CHE L   1       3.033  -1.943   1.350  1.00  0.00    +0.1630 HD
BRANCH 21 31
ATOM     25  C4  CHE L   1      -0.751  -1.530   0.077  1.00  0.00    +0.0428  A
ATOM     26  C5  CHE L   1      -1.221  -2.750  -0.426  1.00  0.00    -0.0240  A
ATOM     27  C6  CHE L   1      -0.370  -3.686  -1.026  1.00  0.00    +0.0235  A
ATOM     28 BR7  CHE L   1      -1.187  -5.269  -1.695  1.00  0.00    -0.0499 Br
ATOM     29  C8  CHE L   1       1.007  -3.453  -1.112  1.00  0.00    -0.0238  A
ATOM     30  C9  CHE L   1       1.946  -4.445  -1.748  1.00  0.00    -0.0379  C
ATOM     31 C10  CHE L   1       1.483  -2.213  -0.630  1.00  0.00    +0.0477  A
ATOM     32 C24  CHE L   1       0.619  -1.235  -0.070  1.00  0.00    -0.0147  A
ATOM     33 C25  CHE L   1       1.158   0.114   0.342  1.00  0.00    -0.0370  C
ATOM     34 H40  CHE L   1      -2.278  -2.984  -0.336  1.00  0.00    +0.0649  H
ATOM     35 H41  CHE L   1       1.629  -5.478  -1.576  1.00  0.00    +0.0278  H
ATOM     36 H42  CHE L   1       2.954  -4.388  -1.323  1.00  0.00    +0.0278  H
ATOM     37 H43  CHE L   1       2.005  -4.263  -2.825  1.00  0.00    +0.0278  H
ATOM     38 H55  CHE L   1       0.384   0.888   0.320  1.00  0.00    +0.0278  H
ATOM     39 H56  CHE L   1       1.571   0.063   1.354  1.00  0.00    +0.0278  H
ATOM     40 H57  CHE L   1       1.933   0.462  -0.349  1.00  0.00    +0.0278  H
BRANCH 25 41
ATOM     41  N3  CHE L   1      -1.622  -0.649   0.701  1.00  0.00    -0.3676  N
BRANCH 41 43
ATOM     42  C1  CHE L   1      -2.005  -1.815   2.864  1.00  0.00    -0.0475  C
ATOM     43  C2  CHE L   1      -1.555  -0.539   2.165  1.00  0.00    +0.0161  C
ATOM     44 H35  CHE L   1      -2.062  -1.649   3.945  1.00  0.00    +0.0247  H
ATOM     45 H36  CHE L   1      -1.298  -2.632   2.694  1.00  0.00    +0.0247  H
ATOM     46 H37  CHE L   1      -2.989  -2.144   2.518  1.00  0.00    +0.0247  H
ATOM     47 H38  CHE L   1      -2.190   0.289   2.505  1.00  0.00    +0.0485  H
ATOM     48 H39  CHE L   1      -0.540  -0.289   2.492  1.00  0.00    +0.0485  H
ENDBRANCH 41 43
BRANCH 41 49
ATOM     49 C26  CHE L   1      -2.732   0.031  -0.005  1.00  0.00    +0.0300  C
ATOM     50 C27  CHE L   1      -2.448   0.286  -1.492  1.00  0.00    -0.0311  C
ATOM     51 C28  CHE L   1      -3.596   0.988  -2.236  1.00  0.00    -0.0355  C
ATOM     52 C29  CHE L   1      -4.937   1.046  -1.463  1.00  0.00    +0.0100  C
ATOM     53 C33  CHE L   1      -5.127  -0.355  -0.844  1.00  0.00    -0.0355  C
ATOM     54 C34  CHE L   1      -4.077  -0.682   0.223  1.00  0.00    -0.0311  C
ATOM     55 H58  CHE L   1      -2.806   1.026   0.455  1.00  0.00    +0.0524  H
ATOM     56 H59  CHE L   1      -2.255  -0.662  -2.010  1.00  0.00    +0.0285  H
ATOM     57 H60  CHE L   1      -1.532   0.880  -1.605  1.00  0.00    +0.0285  H
ATOM     58 H61  CHE L   1      -3.770   0.435  -3.169  1.00  0.00    +0.0281  H
ATOM     59 H62  CHE L   1      -3.269   1.976  -2.575  1.00  0.00    +0.0281  H
ATOM     60 H63  CHE L   1      -5.735   1.206  -2.200  1.00  0.00    +0.0462  H
ATOM     61 H70  CHE L   1      -5.048  -1.103  -1.647  1.00  0.00    +0.0281  H
ATOM     62 H71  CHE L   1      -6.133  -0.489  -0.432  1.00  0.00    +0.0281  H
ATOM     63 H72  CHE L   1      -3.963  -1.770   0.267  1.00  0.00    +0.0285  H
ATOM     64 H73  CHE L   1      -4.461  -0.390   1.209  1.00  0.00    +0.0285  H
BRANCH 52 65
ATOM     65 N30  CHE L   1      -5.006   2.130  -0.447  1.00  0.00    -0.3054 NA
ATOM     66 C31  CHE L   1      -4.789   3.457  -1.036  1.00  0.00    -0.0128  C
ATOM     67 C32  CHE L   1      -6.300   2.142   0.251  1.00  0.00    -0.0128  C
ATOM     68 H64  CHE L   1      -5.456   3.644  -1.884  1.00  0.00    +0.0391  H
ATOM     69 H65  CHE L   1      -4.956   4.247  -0.293  1.00  0.00    +0.0391  H
ATOM     70 H66  CHE L   1      -3.752   3.587  -1.359  1.00  0.00    +0.0391  H
ATOM     71 H67  CHE L   1      -6.351   2.977   0.960  1.00  0.00    +0.0391  H
ATOM     72 H68  CHE L   1      -6.438   1.242   0.857  1.00  0.00    +0.0391  H
ATOM     73 H69  CHE L   1      -7.141   2.233  -0.445  1.00  0.00    +0.0391  H
ENDBRANCH 52 65
ENDBRANCH 41 49
ENDBRANCH 25 41
ENDBRANCH 21 31
ENDBRANCH 18 23
ENDBRANCH 1 18
TORSDOF 7
