ROOT
ATOM      1  C3  CHE L   1       3.623   0.133   1.477  1.00  0.00    +0.1621  A
ATOM      2  C4  CHE L   1       2.545   0.107   0.599  1.00  0.00    -0.0036  A
ATOM      3  C5  CHE L   1       2.350  -0.991  -0.284  1.00  0.00    +0.0461  A
ATOM      4  C6  CHE L   1       1.290  -1.097  -1.206  1.00  0.00    +0.1396  A
ATOM      5 N17  CHE L   1       1.184  -2.131  -2.053  1.00  0.00    -0.2010 NA
ATOM      6 C18  CHE L   1       2.116  -3.090  -1.955  1.00  0.00    +0.2343  A
ATOM      7 N21  CHE L   1       3.147  -3.108  -1.097  1.00  0.00    -0.2183 NA
ATOM      8 C22  CHE L   1       3.261  -2.060  -0.279  1.00  0.00    +0.0812  A
ATOM      9 C23  CHE L   1       4.326  -2.025   0.608  1.00  0.00    +0.0097  A
ATOM     10 C24  CHE L   1       4.503  -0.947   1.470  1.00  0.00    +0.1605  A
ATOM     11 O25  CHE L   1       5.580  -0.967   2.315  1.00  0.00    -0.5032 OA
ATOM     12 H29  CHE L   1       1.843   0.934   0.559  1.00  0.00    +0.0663  H
ATOM     13 H47  CHE L   1       5.039  -2.844   0.627  1.00  0.00    +0.0677  H
ATOM     14 H48  CHE L   1       5.537  -0.125   2.811  1.00  0.00    +0.2923 HD
ENDROOT
BRANCH 1 16
ATOM     15  C1  CHE L   1       3.067   2.264   2.372  1.00  0.00    +0.0790  C
ATOM     16  O2  CHE L   1       3.926   1.128   2.368  1.00  0.00    -0.4914 OA
ATOM     17 H26  CHE L   1       3.453   2.970   3.113  1.00  0.00    +0.0660  H
ATOM     18 H27  CHE L   1       2.050   1.987   2.672  1.00  0.00    +0.0660  H
ATOM     19 H28  CHE L   1       3.070   2.767   1.399  1.00  0.00    +0.0660  H
ENDBRANCH 1 16
BRANCH 4 20
ATOM     20  N7  CHE L   1       0.329  -0.071  -1.265  1.00  0.00    -0.3663  N
ATOM     21 H30  CHE L   1      -0.067   0.078  -0.335  1.00  0.00    +0.1613 HD
BRANCH 20 22
ATOM     22  C8  CHE L   1      -0.765  -0.205  -2.240  1.00  0.00    +0.0308  C
ATOM     23  C9  CHE L   1      -1.390   1.175  -2.450  1.00  0.00    -0.0198  C
ATOM     24 C10  CHE L   1      -2.046   1.708  -1.167  1.00  0.00    +0.0010  C
ATOM     25 N11  CHE L   1      -2.547   0.655  -0.253  1.00  0.00    -0.2998 NA
ATOM     26 C15  CHE L   1      -3.013  -0.500  -1.032  1.00  0.00    +0.0010  C
ATOM     27 C16  CHE L   1      -1.843  -1.185  -1.752  1.00  0.00    -0.0198  C
ATOM     28 H31  CHE L   1      -0.363  -0.540  -3.205  1.00  0.00    +0.0523  H
ATOM     29 H32  CHE L   1      -0.637   1.893  -2.798  1.00  0.00    +0.0297  H
ATOM     30 H33  CHE L   1      -2.148   1.104  -3.241  1.00  0.00    +0.0297  H
ATOM     31 H34  CHE L   1      -1.299   2.302  -0.627  1.00  0.00    +0.0427  H
ATOM     32 H35  CHE L   1      -2.851   2.392  -1.466  1.00  0.00    +0.0427  H
ATOM     33 H43  CHE L   1      -3.780  -0.192  -1.755  1.00  0.00    +0.0427  H
ATOM     34 H44  CHE L   1      -3.472  -1.267  -0.401  1.00  0.00    +0.0427  H
ATOM     35 H45  CHE L   1      -2.254  -1.718  -2.618  1.00  0.00    +0.0297  H
ATOM     36 H46  CHE L   1      -1.411  -1.951  -1.097  1.00  0.00    +0.0297  H
BRANCH 25 37
ATOM     37 C12  CHE L   1      -3.561   1.184   0.693  1.00  0.00    +0.0048  C
ATOM     38 C13  CHE L   1      -4.040   0.118   1.693  1.00  0.00    -0.0497  C
ATOM     39 C14  CHE L   1      -3.010   2.365   1.512  1.00  0.00    -0.0497  C
ATOM     40 H36  CHE L   1      -4.435   1.538   0.132  1.00  0.00    +0.0457  H
ATOM     41 H37  CHE L   1      -3.194  -0.395   2.162  1.00  0.00    +0.0245  H
ATOM     42 H38  CHE L   1      -4.637   0.569   2.492  1.00  0.00    +0.0245  H
ATOM     43 H39  CHE L   1      -4.679  -0.631   1.216  1.00  0.00    +0.0245  H
ATOM     44 H40  CHE L   1      -2.113   2.075   2.073  1.00  0.00    +0.0245  H
ATOM     45 H41  CHE L   1      -3.757   2.715   2.234  1.00  0.00    +0.0245  H
ATOM     46 H42  CHE L   1      -2.760   3.225   0.883  1.00  0.00    +0.0245  H
ENDBRANCH 25 37
ENDBRANCH 20 22
ENDBRANCH 4 20
BRANCH 6 47
ATOM     47 C19  CHE L   1       1.981  -4.216  -2.842  1.00  0.00    +0.1400  C
ATOM     48 N20  CHE L   1       1.856  -5.128  -3.557  1.00  0.00    -0.1876 NA
ENDBRANCH 6 47
TORSDOF 5
