ROOT
ATOM      1  C1  CHE L   1      -5.563   2.093  -1.225  1.00  0.00    -0.0470  C
ATOM      2  C2  CHE L   1      -4.856   0.729  -1.331  1.00  0.00    +0.0159  C
ATOM      3  C3  CHE L   1      -5.334   0.054  -2.631  1.00  0.00    -0.0470  C
ATOM      4  C4  CHE L   1      -3.330   0.891  -1.396  1.00  0.00    -0.0147  C
ATOM      5  C5  CHE L   1      -2.717   1.406  -0.089  1.00  0.00    +0.0332  C
ATOM      6 C27  CHE L   1      -3.529   1.017   1.152  1.00  0.00    -0.0147  C
ATOM      7 C28  CHE L   1      -4.427  -0.221   0.964  1.00  0.00    +0.0159  C
ATOM      8 C29  CHE L   1      -3.588  -1.511   0.889  1.00  0.00    -0.0470  C
ATOM      9 C30  CHE L   1      -5.352  -0.345   2.194  1.00  0.00    -0.0470  C
ATOM     10 N31  CHE L   1      -5.275  -0.154  -0.233  1.00  0.00    -0.3060 NA
ATOM     11 H32  CHE L   1      -5.316   2.629  -0.304  1.00  0.00    +0.0247  H
ATOM     12 H33  CHE L   1      -6.653   1.979  -1.250  1.00  0.00    +0.0247  H
ATOM     13 H34  CHE L   1      -5.283   2.742  -2.064  1.00  0.00    +0.0247  H
ATOM     14 H35  CHE L   1      -5.060   0.652  -3.507  1.00  0.00    +0.0247  H
ATOM     15 H36  CHE L   1      -6.423  -0.071  -2.644  1.00  0.00    +0.0247  H
ATOM     16 H37  CHE L   1      -4.886  -0.939  -2.756  1.00  0.00    +0.0247  H
ATOM     17 H38  CHE L   1      -3.053   1.570  -2.214  1.00  0.00    +0.0303  H
ATOM     18 H39  CHE L   1      -2.874  -0.072  -1.666  1.00  0.00    +0.0303  H
ATOM     19 H40  CHE L   1      -2.688   2.503  -0.131  1.00  0.00    +0.0524  H
ATOM     20 H54  CHE L   1      -2.867   0.880   2.018  1.00  0.00    +0.0303  H
ATOM     21 H55  CHE L   1      -4.166   1.871   1.419  1.00  0.00    +0.0303  H
ATOM     22 H56  CHE L   1      -4.230  -2.399   0.830  1.00  0.00    +0.0247  H
ATOM     23 H57  CHE L   1      -2.963  -1.621   1.783  1.00  0.00    +0.0247  H
ATOM     24 H58  CHE L   1      -2.923  -1.536   0.021  1.00  0.00    +0.0247  H
ATOM     25 H59  CHE L   1      -4.768  -0.441   3.117  1.00  0.00    +0.0247  H
ATOM     26 H60  CHE L   1      -6.002  -1.225   2.121  1.00  0.00    +0.0247  H
ATOM     27 H61  CHE L   1      -5.997   0.537   2.301  1.00  0.00    +0.0247  H
ATOM     28 H62  CHE L   1      -6.253   0.015   0.003  1.00  0.00    +0.1229 HD
ENDROOT
BRANCH 5 29
ATOM     29  N6  CHE L   1      -1.329   0.963   0.025  1.00  0.00    -0.3492  N
ATOM     30  C7  CHE L   1      -0.312   1.571  -0.682  1.00  0.00    +0.2523  C
ATOM     31  O8  CHE L   1      -0.453   2.608  -1.322  1.00  0.00    -0.2676 OA
ATOM     32 H41  CHE L   1      -1.144   0.106   0.527  1.00  0.00    +0.1629 HD
BRANCH 30 33
ATOM     33  C9  CHE L   1       1.017   0.908  -0.626  1.00  0.00    +0.0395  A
ATOM     34 C10  CHE L   1       2.162   1.702  -0.709  1.00  0.00    -0.0459  A
ATOM     35 C11  CHE L   1       3.426   1.114  -0.678  1.00  0.00    -0.0183  A
ATOM     36 C12  CHE L   1       3.553  -0.279  -0.562  1.00  0.00    +0.1320  A
ATOM     37 C22  CHE L   1       2.409  -1.108  -0.493  1.00  0.00    -0.0013  A
ATOM     38 C26  CHE L   1       1.146  -0.485  -0.541  1.00  0.00    -0.0425  A
ATOM     39 H42  CHE L   1       2.071   2.783  -0.805  1.00  0.00    +0.0626  H
ATOM     40 H43  CHE L   1       4.294   1.762  -0.763  1.00  0.00    +0.0654  H
ATOM     41 H53  CHE L   1       0.261  -1.116  -0.545  1.00  0.00    +0.0629  H
BRANCH 36 42
ATOM     42 O13  CHE L   1       4.771  -0.942  -0.557  1.00  0.00    -0.4545 OA
BRANCH 42 43
ATOM     43 C14  CHE L   1       5.909  -0.213  -0.309  1.00  0.00    +0.1457  A
ATOM     44 C15  CHE L   1       6.718   0.108  -1.404  1.00  0.00    -0.0180  A
ATOM     45 C16  CHE L   1       7.903   0.817  -1.208  1.00  0.00    -0.0582  A
ATOM     46 C17  CHE L   1       8.289   1.188   0.080  1.00  0.00    -0.0603  A
ATOM     47 C18  CHE L   1       7.493   0.843   1.177  1.00  0.00    -0.0408  A
ATOM     48 C19  CHE L   1       6.300   0.131   0.990  1.00  0.00    +0.0939  A
ATOM     49 H44  CHE L   1       6.421  -0.189  -2.407  1.00  0.00    +0.0655  H
ATOM     50 H45  CHE L   1       8.529   1.076  -2.059  1.00  0.00    +0.0619  H
ATOM     51 H46  CHE L   1       9.215   1.738   0.232  1.00  0.00    +0.0618  H
ATOM     52 H47  CHE L   1       7.814   1.128   2.178  1.00  0.00    +0.0632  H
BRANCH 48 53
ATOM     53 C20  CHE L   1       5.516  -0.234   2.133  1.00  0.00    +0.1028  C
ATOM     54 N21  CHE L   1       4.902  -0.516   3.077  1.00  0.00    -0.1907 NA
ENDBRANCH 48 53
ENDBRANCH 42 43
ENDBRANCH 36 42
BRANCH 37 55
ATOM     55 C23  CHE L   1       2.513  -2.620  -0.425  1.00  0.00    -0.0123  C
ATOM     56 C24  CHE L   1       1.657  -3.413   0.538  1.00  0.00    -0.0455  C
ATOM     57 C25  CHE L   1       3.127  -3.280   0.788  1.00  0.00    -0.0455  C
ATOM     58 H48  CHE L   1       2.721  -3.101  -1.380  1.00  0.00    +0.0350  H
ATOM     59 H49  CHE L   1       1.285  -4.377   0.209  1.00  0.00    +0.0271  H
ATOM     60 H50  CHE L   1       0.994  -2.895   1.221  1.00  0.00    +0.0271  H
ATOM     61 H51  CHE L   1       3.755  -4.148   0.626  1.00  0.00    +0.0271  H
ATOM     62 H52  CHE L   1       3.440  -2.661   1.622  1.00  0.00    +0.0271  H
ENDBRANCH 37 55
ENDBRANCH 30 33
ENDBRANCH 5 29
TORSDOF 6
