ROOT
ATOM      1  C8  363 L   1       0.004   0.479   0.823  1.00  0.00    +0.2236  C
ATOM      2  O9  363 L   1      -0.236   0.612   2.022  1.00  0.00    -0.2730 OA
ATOM      3 N10  363 L   1       1.304   0.401   0.330  1.00  0.00    -0.3422  N
ATOM      4 C11  363 L   1       1.641   0.193  -1.078  1.00  0.00    +0.0218  C
ATOM      5 C12  363 L   1       3.043  -0.373  -1.257  1.00  0.00    -0.0254  C
ATOM      6 C13  363 L   1       4.110   0.535  -0.623  1.00  0.00    +0.0239  C
ATOM      7 C19  363 L   1       3.587   1.288   0.614  1.00  0.00    -0.0254  C
ATOM      8 C20  363 L   1       2.419   0.560   1.267  1.00  0.00    +0.0218  C
ATOM      9 H35  363 L   1       0.916  -0.485  -1.538  1.00  0.00    +0.0489  H
ATOM     10 H36  363 L   1       1.553   1.163  -1.581  1.00  0.00    +0.0489  H
ATOM     11 H37  363 L   1       3.074  -1.376  -0.809  1.00  0.00    +0.0289  H
ATOM     12 H38  363 L   1       3.260  -0.510  -2.324  1.00  0.00    +0.0289  H
ATOM     13 H39  363 L   1       4.378   1.302  -1.363  1.00  0.00    +0.0381  H
ATOM     14 H42  363 L   1       3.236   2.279   0.294  1.00  0.00    +0.0289  H
ATOM     15 H43  363 L   1       4.381   1.465   1.348  1.00  0.00    +0.0289  H
ATOM     16 H44  363 L   1       2.713  -0.442   1.601  1.00  0.00    +0.0489  H
ATOM     17 H45  363 L   1       2.092   1.115   2.153  1.00  0.00    +0.0489  H
ENDROOT
BRANCH 1 18
ATOM     18  C7  363 L   1      -1.117   0.371  -0.202  1.00  0.00    +0.0286  C
ATOM     19 H33  363 L   1      -1.112  -0.650  -0.595  1.00  0.00    +0.0361  H
ATOM     20 H34  363 L   1      -0.917   1.070  -1.022  1.00  0.00    +0.0361  H
BRANCH 18 21
ATOM     21  C6  363 L   1      -2.485   0.691   0.402  1.00  0.00    -0.0181  C
ATOM     22 H31  363 L   1      -2.461   1.695   0.846  1.00  0.00    +0.0295  H
ATOM     23 H32  363 L   1      -2.701   0.015   1.239  1.00  0.00    +0.0295  H
BRANCH 21 28
ATOM     24  C1  363 L   1      -6.506   0.222   1.421  1.00  0.00    -0.0387  C
ATOM     25  C2  363 L   1      -5.792   0.129   0.087  1.00  0.00    +0.0563  C
ATOM     26  C3  363 L   1      -5.053  -1.181  -0.113  1.00  0.00    -0.0245  C
ATOM     27  C4  363 L   1      -3.977  -0.774  -1.091  1.00  0.00    -0.0242  C
ATOM     28  C5  363 L   1      -3.617   0.633  -0.629  1.00  0.00    +0.0596  C
ATOM     29 O21  363 L   1      -4.804   1.167  -0.009  1.00  0.00    -0.3736 OA
ATOM     30 H22  363 L   1      -7.001   1.194   1.521  1.00  0.00    +0.0254  H
ATOM     31 H23  363 L   1      -7.257  -0.567   1.525  1.00  0.00    +0.0254  H
ATOM     32 H24  363 L   1      -5.797   0.145   2.253  1.00  0.00    +0.0254  H
ATOM     33 H25  363 L   1      -6.508   0.287  -0.728  1.00  0.00    +0.0593  H
ATOM     34 H26  363 L   1      -4.595  -1.526   0.821  1.00  0.00    +0.0291  H
ATOM     35 H27  363 L   1      -5.699  -1.979  -0.490  1.00  0.00    +0.0291  H
ATOM     36 H28  363 L   1      -3.138  -1.474  -1.123  1.00  0.00    +0.0291  H
ATOM     37 H29  363 L   1      -4.407  -0.727  -2.099  1.00  0.00    +0.0291  H
ATOM     38 H30  363 L   1      -3.368   1.271  -1.484  1.00  0.00    +0.0596  H
ENDBRANCH 21 28
ENDBRANCH 18 21
ENDBRANCH 1 18
BRANCH 6 39
ATOM     39 C14  363 L   1       5.359  -0.236  -0.332  1.00  0.00    +0.1539  A
ATOM     40 N15  363 L   1       6.483  -0.118  -1.109  1.00  0.00    -0.2194 NA
ATOM     41 C16  363 L   1       7.329  -0.941  -0.536  1.00  0.00    +0.1117  A
ATOM     42 N17  363 L   1       6.735  -1.529   0.535  1.00  0.00    -0.2652  N
ATOM     43 N18  363 L   1       5.471  -1.100   0.685  1.00  0.00    -0.1574 NA
ATOM     44 H40  363 L   1       8.345  -1.144  -0.840  1.00  0.00    +0.1041  H
ATOM     45 H41  363 L   1       7.112  -2.209   1.186  1.00  0.00    +0.1900 HD
ENDBRANCH 6 39
TORSDOF 4
