ROOT
ATOM      1  C5  284 L   1       1.394  -0.953   1.550  1.00  0.00    +0.2474  C
ATOM      2  O6  284 L   1       1.963  -1.967   1.938  1.00  0.00    -0.2680 OA
ATOM      3  N7  284 L   1       0.023  -0.842   1.374  1.00  0.00    -0.3360  N
ATOM      4  C8  284 L   1      -0.832  -1.925   1.835  1.00  0.00    +0.0216  C
ATOM      5  C9  284 L   1      -1.807  -2.362   0.746  1.00  0.00    -0.0325  C
ATOM      6 C10  284 L   1      -2.311  -1.214  -0.138  1.00  0.00    -0.0190  C
ATOM      7 C11  284 L   1      -2.142   0.168   0.514  1.00  0.00    +0.1030  C
ATOM      8 O12  284 L   1      -2.928   0.212   1.718  1.00  0.00    -0.3850 OA
ATOM      9 C19  284 L   1      -0.654   0.377   0.911  1.00  0.00    +0.0520  C
ATOM     10 H28  284 L   1      -0.246  -2.789   2.166  1.00  0.00    +0.0489  H
ATOM     11 H29  284 L   1      -1.371  -1.563   2.719  1.00  0.00    +0.0489  H
ATOM     12 H30  284 L   1      -1.324  -3.105   0.099  1.00  0.00    +0.0283  H
ATOM     13 H31  284 L   1      -2.655  -2.875   1.216  1.00  0.00    +0.0283  H
ATOM     14 H32  284 L   1      -3.362  -1.415  -0.375  1.00  0.00    +0.0295  H
ATOM     15 H33  284 L   1      -1.763  -1.234  -1.089  1.00  0.00    +0.0295  H
ATOM     16 H34  284 L   1      -3.875   0.227   1.461  1.00  0.00    +0.2103 HD
ATOM     17 H39  284 L   1      -0.085   0.753   0.053  1.00  0.00    +0.0517  H
ATOM     18 H40  284 L   1      -0.579   1.114   1.720  1.00  0.00    +0.0517  H
ENDROOT
BRANCH 1 20
ATOM     19  C3  284 L   1       3.176   0.303   0.327  1.00  0.00    -0.0649  C
ATOM     20  C4  284 L   1       2.183   0.267   1.238  1.00  0.00    +0.0018  C
ATOM     21 H27  284 L   1       1.920   1.141   1.824  1.00  0.00    +0.0671  H
BRANCH 19 23
ATOM     22  C1  284 L   1       3.524   2.316  -1.159  1.00  0.00    -0.0616  C
ATOM     23  C2  284 L   1       3.950   1.586   0.108  1.00  0.00    -0.0341  C
ATOM     24 H22  284 L   1       4.073   3.259  -1.251  1.00  0.00    +0.0233  H
ATOM     25 H23  284 L   1       2.454   2.548  -1.141  1.00  0.00    +0.0233  H
ATOM     26 H24  284 L   1       3.730   1.723  -2.055  1.00  0.00    +0.0233  H
ATOM     27 H25  284 L   1       5.024   1.374   0.070  1.00  0.00    +0.0307  H
ATOM     28 H26  284 L   1       3.811   2.263   0.961  1.00  0.00    +0.0307  H
ENDBRANCH 19 23
BRANCH 19 29
ATOM     29 C20  284 L   1       3.584  -0.886  -0.519  1.00  0.00    -0.0341  C
ATOM     30 C21  284 L   1       4.840  -1.570   0.004  1.00  0.00    -0.0616  C
ATOM     31 H41  284 L   1       3.751  -0.564  -1.553  1.00  0.00    +0.0307  H
ATOM     32 H42  284 L   1       2.776  -1.625  -0.578  1.00  0.00    +0.0307  H
ATOM     33 H43  284 L   1       5.078  -2.441  -0.615  1.00  0.00    +0.0233  H
ATOM     34 H44  284 L   1       4.706  -1.915   1.034  1.00  0.00    +0.0233  H
ATOM     35 H45  284 L   1       5.703  -0.898  -0.021  1.00  0.00    +0.0233  H
ENDBRANCH 19 29
ENDBRANCH 1 20
BRANCH 7 36
ATOM     36 C13  284 L   1      -2.562   1.327  -0.420  1.00  0.00    +0.0736  C
ATOM     37 H35  284 L   1      -2.550   2.281   0.122  1.00  0.00    +0.0538  H
ATOM     38 H36  284 L   1      -1.876   1.408  -1.272  1.00  0.00    +0.0538  H
BRANCH 36 39
ATOM     39 N14  284 L   1      -3.897   1.195  -0.963  1.00  0.00    -0.2489  N
ATOM     40 C15  284 L   1      -4.277   1.143  -2.269  1.00  0.00    +0.0456  A
ATOM     41 C16  284 L   1      -5.641   0.992  -2.205  1.00  0.00    +0.0693  A
ATOM     42 N17  284 L   1      -6.035   0.958  -0.897  1.00  0.00    -0.1380 NA
ATOM     43 N18  284 L   1      -4.955   1.090  -0.140  1.00  0.00    -0.0656 NA
ATOM     44 H37  284 L   1      -3.585   1.212  -3.095  1.00  0.00    +0.0842  H
ATOM     45 H38  284 L   1      -6.353   0.905  -3.013  1.00  0.00    +0.0864  H
ENDBRANCH 36 39
ENDBRANCH 7 36
TORSDOF 5
