ROOT
ATOM      1 C11  LIG L   1      -1.194   0.918 -11.822  1.00  0.00    +0.1414  C
ATOM      2 N12  LIG L   1      -1.568   0.950 -10.503  1.00  0.00    -0.2075 NA
ATOM      3 C13  LIG L   1      -0.757   0.610  -9.506  1.00  0.00    +0.1972  A
ATOM      4 C14  LIG L   1      -1.005   0.597  -8.131  1.00  0.00    +0.2270  A
ATOM      5 N24  LIG L   1       0.142   0.174  -7.570  1.00  0.00    -0.1151 NA
ATOM      6 N25  LIG L   1       1.017  -0.051  -8.536  1.00  0.00    -0.0575 NA
ATOM      7 N26  LIG L   1       0.493   0.207  -9.729  1.00  0.00    -0.1927  N
ATOM      8 C27  LIG L   1       0.922   0.152 -11.003  1.00  0.00    +0.0800  A
ATOM      9 C28  LIG L   1       2.210  -0.276 -11.238  1.00  0.00    -0.0354  A
ATOM     10 C29  LIG L   1       2.628  -0.339 -12.545  1.00  0.00    -0.0597  A
ATOM     11 C30  LIG L   1       1.804   0.009 -13.612  1.00  0.00    -0.0610  A
ATOM     12 C31  LIG L   1       0.524   0.433 -13.360  1.00  0.00    -0.0491  A
ATOM     13 C32  LIG L   1       0.083   0.506 -12.067  1.00  0.00    +0.0427  A
ATOM     14 H54  LIG L   1       2.886  -0.558 -10.433  1.00  0.00    +0.0639  H
ATOM     15 H55  LIG L   1       3.643  -0.676 -12.758  1.00  0.00    +0.0618  H
ATOM     16 H56  LIG L   1       2.173  -0.069 -14.632  1.00  0.00    +0.0618  H
ATOM     17 H57  LIG L   1      -0.106   0.641 -14.214  1.00  0.00    +0.0625  H
ENDROOT
BRANCH 1 21
ATOM     18  N7  LIG L   1      -3.591   3.315 -12.334  1.00  0.00    -0.3670  N
ATOM     19  C8  LIG L   1      -4.243   2.070 -11.912  1.00  0.00    +0.0363  C
ATOM     20  C9  LIG L   1      -3.533   0.876 -12.541  1.00  0.00    +0.0376  C
ATOM     21 N10  LIG L   1      -2.149   1.354 -12.747  1.00  0.00    -0.3519  N
ATOM     22 C33  LIG L   1      -1.963   2.260 -13.850  1.00  0.00    +0.0376  C
ATOM     23 C34  LIG L   1      -3.100   3.294 -13.720  1.00  0.00    +0.0363  C
ATOM     24 H45  LIG L   1      -5.302   2.055 -12.191  1.00  0.00    +0.0505  H
ATOM     25 H46  LIG L   1      -4.178   1.974 -10.824  1.00  0.00    +0.0505  H
ATOM     26 H47  LIG L   1      -3.981   0.617 -13.508  1.00  0.00    +0.0506  H
ATOM     27 H48  LIG L   1      -3.594  -0.016 -11.908  1.00  0.00    +0.0506  H
ATOM     28 H58  LIG L   1      -1.004   2.784 -13.774  1.00  0.00    +0.0506  H
ATOM     29 H59  LIG L   1      -2.012   1.754 -14.820  1.00  0.00    +0.0506  H
ATOM     30 H60  LIG L   1      -2.755   4.281 -14.051  1.00  0.00    +0.0505  H
ATOM     31 H61  LIG L   1      -3.929   3.023 -14.388  1.00  0.00    +0.0505  H
BRANCH 18 37
ATOM     32  C1  LIG L   1      -5.190   7.109  -9.512  1.00  0.00    -0.0394  C
ATOM     33  C2  LIG L   1      -4.173   6.234 -10.145  1.00  0.00    -0.0453  A
ATOM     34  C3  LIG L   1      -2.840   6.584  -9.885  1.00  0.00    -0.0585  A
ATOM     35  C4  LIG L   1      -1.788   5.870 -10.422  1.00  0.00    -0.0596  A
ATOM     36  C5  LIG L   1      -2.105   4.802 -11.221  1.00  0.00    -0.0382  A
ATOM     37  C6  LIG L   1      -3.435   4.439 -11.490  1.00  0.00    +0.0415  A
ATOM     38 C35  LIG L   1      -4.493   5.156 -10.950  1.00  0.00    -0.0191  A
ATOM     39 H39  LIG L   1      -5.359   6.808  -8.473  1.00  0.00    +0.0278  H
ATOM     40 H40  LIG L   1      -4.856   8.154  -9.505  1.00  0.00    +0.0278  H
ATOM     41 H41  LIG L   1      -6.150   7.120 -10.031  1.00  0.00    +0.0278  H
ATOM     42 H42  LIG L   1      -2.614   7.431  -9.239  1.00  0.00    +0.0620  H
ATOM     43 H43  LIG L   1      -0.759   6.131 -10.205  1.00  0.00    +0.0618  H
ATOM     44 H44  LIG L   1      -1.296   4.198 -11.624  1.00  0.00    +0.0638  H
BRANCH 38 45
ATOM     45 C36  LIG L   1      -5.875   4.741 -11.247  1.00  0.00    -0.0022  C
ATOM     46 H62  LIG L   1      -6.507   5.625 -11.387  1.00  0.00    +0.0336  H
ATOM     47 H63  LIG L   1      -5.935   4.246 -12.223  1.00  0.00    +0.0336  H
BRANCH 45 48
ATOM     48 C37  LIG L   1      -6.520   3.836 -10.189  1.00  0.00    +0.0482  C
ATOM     49 O38  LIG L   1      -6.784   4.523  -8.972  1.00  0.00    -0.3947 OA
ATOM     50 H64  LIG L   1      -7.483   3.478 -10.567  1.00  0.00    +0.0560  H
ATOM     51 H65  LIG L   1      -5.916   2.959  -9.950  1.00  0.00    +0.0560  H
ATOM     52 H66  LIG L   1      -5.921   4.593  -8.520  1.00  0.00    +0.2094 HD
ENDBRANCH 45 48
ENDBRANCH 38 45
ENDBRANCH 18 37
ENDBRANCH 1 21
BRANCH 4 53
ATOM     53 S15  LIG L   1      -2.513   1.049  -7.362  1.00  0.00    +0.2297  S
ATOM     54 O16  LIG L   1      -3.175   2.072  -8.251  1.00  0.00    -0.2153 OA
ATOM     55 O17  LIG L   1      -2.230   1.628  -6.010  1.00  0.00    -0.2153 OA
BRANCH 53 56
ATOM     56 C18  LIG L   1      -3.501  -0.397  -7.242  1.00  0.00    +0.0730  A
ATOM     57 C19  LIG L   1      -4.357  -0.734  -8.257  1.00  0.00    -0.0432  A
ATOM     58 C20  LIG L   1      -5.122  -1.876  -8.135  1.00  0.00    -0.0606  A
ATOM     59 C21  LIG L   1      -5.018  -2.666  -6.996  1.00  0.00    -0.0617  A
ATOM     60 C22  LIG L   1      -4.143  -2.310  -5.974  1.00  0.00    -0.0606  A
ATOM     61 C23  LIG L   1      -3.364  -1.159  -6.085  1.00  0.00    -0.0432  A
ATOM     62 H49  LIG L   1      -4.445  -0.113  -9.144  1.00  0.00    +0.0630  H
ATOM     63 H50  LIG L   1      -5.813  -2.158  -8.926  1.00  0.00    +0.0618  H
ATOM     64 H51  LIG L   1      -5.626  -3.563  -6.900  1.00  0.00    +0.0618  H
ATOM     65 H52  LIG L   1      -4.069  -2.928  -5.082  1.00  0.00    +0.0618  H
ATOM     66 H53  LIG L   1      -2.688  -0.875  -5.282  1.00  0.00    +0.0630  H
ENDBRANCH 53 56
ENDBRANCH 4 53
TORSDOF 6
