ROOT
ATOM      1 C16  CHE L   1       6.728   0.199  -1.001  1.00  0.00    +0.0153  A
ATOM      2 C17  CHE L   1       6.637  -0.248  -2.334  1.00  0.00    -0.0377  A
ATOM      3 C18  CHE L   1       7.680  -0.963  -2.927  1.00  0.00    +0.0205  A
ATOM      4 BR19 CHE L   1       7.506  -1.537  -4.724  1.00  0.00    -0.0502 Br
ATOM      5 C20  CHE L   1       8.850  -1.266  -2.231  1.00  0.00    -0.0223  A
ATOM      6 C21  CHE L   1       8.927  -0.820  -0.907  1.00  0.00    +0.0674  A
ATOM      7 N22  CHE L   1       9.920  -0.953   0.029  1.00  0.00    -0.2769  N
ATOM      8 N23  CHE L   1       9.639  -0.389   1.212  1.00  0.00    -0.1812 NA
ATOM      9 C24  CHE L   1       8.421   0.127   1.026  1.00  0.00    +0.0575  A
ATOM     10 C25  CHE L   1       7.909  -0.104  -0.278  1.00  0.00    +0.0288  A
ATOM     11 H47  CHE L   1       5.748  -0.037  -2.923  1.00  0.00    +0.0635  H
ATOM     12 H48  CHE L   1       9.662  -1.820  -2.690  1.00  0.00    +0.0650  H
ATOM     13 H49  CHE L   1      10.813  -1.418  -0.076  1.00  0.00    +0.1889 HD
ATOM     14 H50  CHE L   1       7.951   0.652   1.849  1.00  0.00    +0.0854  H
ENDROOT
BRANCH 1 17
ATOM     15 N13  CHE L   1       3.835   2.036   0.070  1.00  0.00    -0.2452  N
ATOM     16 C14  CHE L   1       4.466   1.339  -0.926  1.00  0.00    +0.0538  A
ATOM     17 C15  CHE L   1       5.666   0.956  -0.363  1.00  0.00    +0.1133  A
ATOM     18 N26  CHE L   1       5.715   1.428   0.925  1.00  0.00    -0.1295 NA
ATOM     19 N27  CHE L   1       4.597   2.093   1.175  1.00  0.00    -0.0648 NA
ATOM     20 H46  CHE L   1       4.020   1.200  -1.901  1.00  0.00    +0.0849  H
BRANCH 15 21
ATOM     21 C12  CHE L   1       2.574   2.750  -0.004  1.00  0.00    +0.0867  C
ATOM     22 H44  CHE L   1       2.402   3.014  -1.054  1.00  0.00    +0.0575  H
ATOM     23 H45  CHE L   1       2.688   3.680   0.564  1.00  0.00    +0.0575  H
BRANCH 21 29
ATOM     24  C6  CHE L   1      -1.935  -0.760   1.861  1.00  0.00    -0.0170  A
ATOM     25  C7  CHE L   1      -2.318   0.500   2.506  1.00  0.00    -0.0525  A
ATOM     26  C8  CHE L   1      -1.587   1.623   2.369  1.00  0.00    -0.0185  A
ATOM     27  C9  CHE L   1      -0.402   1.602   1.585  1.00  0.00    +0.1379  A
ATOM     28 N10  CHE L   1       0.465   2.547   1.288  1.00  0.00    -0.2309 NA
ATOM     29 C11  CHE L   1       1.434   1.942   0.513  1.00  0.00    +0.0814  A
ATOM     30 C28  CHE L   1       1.115   0.612   0.311  1.00  0.00    +0.0343  A
ATOM     31 N29  CHE L   1      -0.053   0.393   1.001  1.00  0.00    -0.3060  N
ATOM     32 C30  CHE L   1      -0.802  -0.774   1.130  1.00  0.00    +0.0156  A
ATOM     33 H42  CHE L   1      -3.228   0.510   3.101  1.00  0.00    +0.0622  H
ATOM     34 H43  CHE L   1      -1.876   2.552   2.846  1.00  0.00    +0.0654  H
ATOM     35 H51  CHE L   1       1.606  -0.178  -0.238  1.00  0.00    +0.0832  H
ATOM     36 H52  CHE L   1      -0.431  -1.654   0.622  1.00  0.00    +0.0816  H
BRANCH 24 37
ATOM     37  C5  CHE L   1      -2.810  -1.972   2.060  1.00  0.00    +0.0227  C
ATOM     38 H40  CHE L   1      -2.416  -2.842   1.518  1.00  0.00    +0.0474  H
ATOM     39 H41  CHE L   1      -2.773  -2.239   3.124  1.00  0.00    +0.0474  H
BRANCH 37 40
ATOM     40  N4  CHE L   1      -4.216  -1.750   1.702  1.00  0.00    -0.3093 NA
ATOM     41 H39  CHE L   1      -4.747  -2.559   2.029  1.00  0.00    +0.1223 HD
BRANCH 40 42
ATOM     42  C3  CHE L   1      -4.407  -1.668   0.239  1.00  0.00    +0.0251  C
ATOM     43 H37  CHE L   1      -3.683  -0.987  -0.221  1.00  0.00    +0.0452  H
ATOM     44 H38  CHE L   1      -4.239  -2.668  -0.180  1.00  0.00    +0.0452  H
BRANCH 42 46
ATOM     45  O1  CHE L   1      -6.776  -1.998   0.616  1.00  0.00    -0.3873 OA
ATOM     46  C2  CHE L   1      -5.843  -1.190  -0.124  1.00  0.00    +0.0785  C
ATOM     47 C31  CHE L   1      -6.098  -1.436  -1.628  1.00  0.00    -0.0228  C
ATOM     48 C32  CHE L   1      -7.145  -0.475  -2.188  1.00  0.00    -0.0504  C
ATOM     49 C33  CHE L   1      -6.671   0.975  -2.092  1.00  0.00    -0.0529  C
ATOM     50 C34  CHE L   1      -5.788   1.247  -0.871  1.00  0.00    -0.0504  C
ATOM     51 C35  CHE L   1      -6.092   0.285   0.273  1.00  0.00    -0.0228  C
ATOM     52 H36  CHE L   1      -6.634  -1.762   1.552  1.00  0.00    +0.2102 HD
ATOM     53 H53  CHE L   1      -5.171  -1.301  -2.202  1.00  0.00    +0.0293  H
ATOM     54 H54  CHE L   1      -6.432  -2.468  -1.792  1.00  0.00    +0.0293  H
ATOM     55 H55  CHE L   1      -8.085  -0.593  -1.633  1.00  0.00    +0.0266  H
ATOM     56 H56  CHE L   1      -7.366  -0.720  -3.233  1.00  0.00    +0.0266  H
ATOM     57 H57  CHE L   1      -6.108   1.239  -2.996  1.00  0.00    +0.0265  H
ATOM     58 H58  CHE L   1      -7.548   1.635  -2.076  1.00  0.00    +0.0265  H
ATOM     59 H59  CHE L   1      -5.928   2.285  -0.540  1.00  0.00    +0.0266  H
ATOM     60 H60  CHE L   1      -4.730   1.153  -1.155  1.00  0.00    +0.0266  H
ATOM     61 H61  CHE L   1      -5.497   0.560   1.153  1.00  0.00    +0.0293  H
ATOM     62 H62  CHE L   1      -7.140   0.420   0.581  1.00  0.00    +0.0293  H
ENDBRANCH 42 46
ENDBRANCH 40 42
ENDBRANCH 37 40
ENDBRANCH 24 37
ENDBRANCH 21 29
ENDBRANCH 15 21
ENDBRANCH 1 17
TORSDOF 7
