ROOT
ATOM      1  C1  SEL L   1       1.179   1.474   2.406  1.00  0.00    -0.0377  C
ATOM      2  C2  SEL L   1       0.922   2.172   1.108  1.00  0.00    -0.0166  A
ATOM      3  C3  SEL L   1       1.872   2.857   0.363  1.00  0.00    +0.0819  A
ATOM      4 S19  SEL L   1       1.211   3.591  -1.033  1.00  0.00    -0.0634  S
ATOM      5 C20  SEL L   1      -0.334   2.950  -0.719  1.00  0.00    +0.1160  A
ATOM      6 N21  SEL L   1      -1.371   3.164  -1.566  1.00  0.00    -0.2298 NA
ATOM      7 C22  SEL L   1      -2.482   2.615  -1.192  1.00  0.00    +0.1003  A
ATOM      8 N23  SEL L   1      -2.676   1.891  -0.031  1.00  0.00    -0.2896  N
ATOM      9 C34  SEL L   1      -1.629   1.631   0.851  1.00  0.00    +0.2629  A
ATOM     10 O35  SEL L   1      -1.759   0.972   1.880  1.00  0.00    -0.2669 OA
ATOM     11 C36  SEL L   1      -0.361   2.224   0.453  1.00  0.00    +0.0758  A
ATOM     12 H37  SEL L   1       1.055   0.393   2.284  1.00  0.00    +0.0278  H
ATOM     13 H38  SEL L   1       0.481   1.824   3.172  1.00  0.00    +0.0278  H
ATOM     14 H39  SEL L   1       2.192   1.659   2.776  1.00  0.00    +0.0278  H
ATOM     15 H51  SEL L   1      -3.380   2.717  -1.823  1.00  0.00    +0.1030  H
ENDROOT
BRANCH 3 16
ATOM     16  C4  SEL L   1       3.289   3.039   0.620  1.00  0.00    +0.2616  C
ATOM     17  O5  SEL L   1       3.751   4.125   0.967  1.00  0.00    -0.2668 OA
ATOM     18  N6  SEL L   1       4.109   1.919   0.473  1.00  0.00    -0.3345  N
ATOM     19  C7  SEL L   1       5.536   2.067   0.761  1.00  0.00    +0.0391  C
ATOM     20  C8  SEL L   1       6.275   0.727   0.924  1.00  0.00    +0.0364  C
ATOM     21  N9  SEL L   1       6.062  -0.151  -0.241  1.00  0.00    -0.3649  N
ATOM     22 C17  SEL L   1       4.795  -0.003  -0.980  1.00  0.00    +0.0364  C
ATOM     23 C18  SEL L   1       3.693   0.638  -0.112  1.00  0.00    +0.0391  C
ATOM     24 H40  SEL L   1       5.662   2.673   1.665  1.00  0.00    +0.0506  H
ATOM     25 H41  SEL L   1       5.969   2.630  -0.076  1.00  0.00    +0.0506  H
ATOM     26 H42  SEL L   1       7.340   0.958   1.051  1.00  0.00    +0.0505  H
ATOM     27 H43  SEL L   1       5.918   0.217   1.827  1.00  0.00    +0.0505  H
ATOM     28 H47  SEL L   1       4.970   0.621  -1.866  1.00  0.00    +0.0505  H
ATOM     29 H48  SEL L   1       4.422  -0.979  -1.315  1.00  0.00    +0.0505  H
ATOM     30 H49  SEL L   1       2.788   0.752  -0.716  1.00  0.00    +0.0506  H
ATOM     31 H50  SEL L   1       3.456  -0.026   0.729  1.00  0.00    +0.0506  H
BRANCH 21 32
ATOM     32 C10  SEL L   1       6.987  -1.134  -0.578  1.00  0.00    +0.0766  A
ATOM     33 C11  SEL L   1       7.028  -1.677  -1.872  1.00  0.00    -0.0175  A
ATOM     34 C12  SEL L   1       7.969  -2.650  -2.198  1.00  0.00    +0.0297  A
ATOM     35 N13  SEL L   1       8.881  -3.137  -1.334  1.00  0.00    -0.2603 NA
ATOM     36 C14  SEL L   1       8.841  -2.618  -0.087  1.00  0.00    +0.0648  A
ATOM     37 C15  SEL L   1       7.940  -1.643   0.321  1.00  0.00    +0.1644  A
ATOM     38 F16  SEL L   1       7.989  -1.230   1.598  1.00  0.00    -0.2017  F
ATOM     39 H44  SEL L   1       6.353  -1.338  -2.650  1.00  0.00    +0.0654  H
ATOM     40 H45  SEL L   1       8.010  -3.067  -3.202  1.00  0.00    +0.0830  H
ATOM     41 H46  SEL L   1       9.571  -3.013   0.611  1.00  0.00    +0.0859  H
ENDBRANCH 21 32
ENDBRANCH 3 16
BRANCH 8 42
ATOM     42 C24  SEL L   1      -3.970   1.279   0.231  1.00  0.00    +0.1060  C
ATOM     43 H52  SEL L   1      -4.129   1.203   1.312  1.00  0.00    +0.0591  H
ATOM     44 H53  SEL L   1      -4.752   1.896  -0.222  1.00  0.00    +0.0591  H
BRANCH 42 45
ATOM     45 C25  SEL L   1      -4.029  -0.124  -0.388  1.00  0.00    +0.2434  C
ATOM     46 O26  SEL L   1      -3.080  -0.567  -1.040  1.00  0.00    -0.2711 OA
ATOM     47 N27  SEL L   1      -5.206  -0.849  -0.214  1.00  0.00    -0.3407  N
ATOM     48 C28  SEL L   1      -5.293  -2.205  -0.751  1.00  0.00    +0.0214  C
ATOM     49 C29  SEL L   1      -6.522  -2.352  -1.648  1.00  0.00    -0.0326  C
ATOM     50 C30  SEL L   1      -7.818  -1.911  -0.950  1.00  0.00    -0.0407  C
ATOM     51 C31  SEL L   1      -8.284  -2.935   0.088  1.00  0.00    -0.0623  C
ATOM     52 C32  SEL L   1      -7.643  -0.514  -0.331  1.00  0.00    -0.0326  C
ATOM     53 C33  SEL L   1      -6.384  -0.401   0.531  1.00  0.00    +0.0214  C
ATOM     54 H54  SEL L   1      -5.348  -2.893   0.102  1.00  0.00    +0.0488  H
ATOM     55 H55  SEL L   1      -4.393  -2.471  -1.316  1.00  0.00    +0.0488  H
ATOM     56 H56  SEL L   1      -6.377  -1.728  -2.542  1.00  0.00    +0.0285  H
ATOM     57 H57  SEL L   1      -6.607  -3.388  -1.995  1.00  0.00    +0.0285  H
ATOM     58 H58  SEL L   1      -8.607  -1.848  -1.712  1.00  0.00    +0.0299  H
ATOM     59 H59  SEL L   1      -7.565  -3.066   0.903  1.00  0.00    +0.0232  H
ATOM     60 H60  SEL L   1      -9.237  -2.621   0.529  1.00  0.00    +0.0232  H
ATOM     61 H61  SEL L   1      -8.441  -3.914  -0.380  1.00  0.00    +0.0232  H
ATOM     62 H62  SEL L   1      -8.523  -0.247   0.264  1.00  0.00    +0.0285  H
ATOM     63 H63  SEL L   1      -7.575   0.220  -1.145  1.00  0.00    +0.0285  H
ATOM     64 H64  SEL L   1      -6.465  -1.027   1.428  1.00  0.00    +0.0488  H
ATOM     65 H65  SEL L   1      -6.276   0.630   0.873  1.00  0.00    +0.0488  H
ENDBRANCH 42 45
ENDBRANCH 8 42
TORSDOF 4
