ROOT
ATOM      1  C1  299 L   1       2.051   1.168  -0.941  1.00  0.00    -0.0057  C
ATOM      2  C2  299 L   1       2.566  -0.106  -0.326  1.00  0.00    +0.1132  C
ATOM      3  C3  299 L   1       1.826  -1.229  -0.206  1.00  0.00    +0.1093  C
ATOM      4 S17  299 L   1       2.391  -2.722   0.482  1.00  0.00    -0.1134 SA
ATOM      5 C18  299 L   1       3.937  -2.132   1.218  1.00  0.00    +0.0328  C
ATOM      6 C19  299 L   1       4.617  -1.195   0.239  1.00  0.00    +0.0984  C
ATOM      7 O20  299 L   1       3.888   0.024   0.076  1.00  0.00    -0.4944 OA
ATOM      8 H21  299 L   1       1.761   1.874  -0.156  1.00  0.00    +0.0308  H
ATOM      9 H22  299 L   1       2.834   1.637  -1.547  1.00  0.00    +0.0308  H
ATOM     10 H23  299 L   1       1.199   1.007  -1.606  1.00  0.00    +0.0308  H
ATOM     11 H35  299 L   1       4.574  -2.993   1.438  1.00  0.00    +0.0413  H
ATOM     12 H36  299 L   1       3.704  -1.617   2.155  1.00  0.00    +0.0413  H
ATOM     13 H37  299 L   1       4.790  -1.657  -0.742  1.00  0.00    +0.0705  H
ATOM     14 H38  299 L   1       5.601  -0.918   0.634  1.00  0.00    +0.0705  H
ENDROOT
BRANCH 3 15
ATOM     15  C4  299 L   1       0.406  -1.261  -0.675  1.00  0.00    +0.2644  C
ATOM     16  O5  299 L   1       0.126  -1.737  -1.774  1.00  0.00    -0.2667 OA
ATOM     17  N6  299 L   1      -0.549  -0.745   0.181  1.00  0.00    -0.3330  N
ATOM     18  C7  299 L   1      -0.349  -0.353   1.569  1.00  0.00    +0.0219  C
ATOM     19  C8  299 L   1      -1.687  -0.657   2.226  1.00  0.00    -0.0333  C
ATOM     20  C9  299 L   1      -2.687  -0.326   1.126  1.00  0.00    -0.0291  C
ATOM     21 C10  299 L   1      -1.973  -0.786  -0.157  1.00  0.00    +0.0524  C
ATOM     22 H24  299 L   1      -0.135   0.722   1.584  1.00  0.00    +0.0489  H
ATOM     23 H25  299 L   1       0.472  -0.889   2.048  1.00  0.00    +0.0489  H
ATOM     24 H26  299 L   1      -1.751  -1.723   2.475  1.00  0.00    +0.0283  H
ATOM     25 H27  299 L   1      -1.849  -0.078   3.139  1.00  0.00    +0.0283  H
ATOM     26 H28  299 L   1      -3.647  -0.832   1.267  1.00  0.00    +0.0286  H
ATOM     27 H29  299 L   1      -2.875   0.753   1.137  1.00  0.00    +0.0286  H
ATOM     28 H30  299 L   1      -2.203  -1.847  -0.328  1.00  0.00    +0.0543  H
BRANCH 21 29
ATOM     29 C11  299 L   1      -2.391  -0.010  -1.421  1.00  0.00    +0.0636  C
ATOM     30 H31  299 L   1      -3.413  -0.306  -1.687  1.00  0.00    +0.0530  H
ATOM     31 H32  299 L   1      -1.757  -0.246  -2.281  1.00  0.00    +0.0530  H
BRANCH 29 32
ATOM     32 N12  299 L   1      -2.397   1.432  -1.306  1.00  0.00    -0.2498  N
ATOM     33 C13  299 L   1      -3.446   2.279  -1.517  1.00  0.00    +0.0455  A
ATOM     34 C14  299 L   1      -2.917   3.524  -1.278  1.00  0.00    +0.0693  A
ATOM     35 N15  299 L   1      -1.600   3.401  -0.939  1.00  0.00    -0.1380 NA
ATOM     36 N16  299 L   1      -1.288   2.113  -0.970  1.00  0.00    -0.0657 NA
ATOM     37 H33  299 L   1      -4.430   1.943  -1.807  1.00  0.00    +0.0842  H
ATOM     38 H34  299 L   1      -3.401   4.488  -1.330  1.00  0.00    +0.0864  H
ENDBRANCH 29 32
ENDBRANCH 21 29
ENDBRANCH 3 15
TORSDOF 3
