ROOT
ATOM      1  C9  CHE L   1       3.112   0.619  -0.411  1.00  0.00    +0.0901  A
ATOM      2 C10  CHE L   1       2.640   1.671  -1.166  1.00  0.00    +0.0371  A
ATOM      3 N11  CHE L   1       1.280   1.501  -1.223  1.00  0.00    -0.3059  N
ATOM      4 C12  CHE L   1       0.316   2.271  -1.856  1.00  0.00    +0.0131  A
ATOM      5 C13  CHE L   1      -0.973   1.901  -1.770  1.00  0.00    -0.0218  A
ATOM      6 C14  CHE L   1      -1.364   0.700  -1.010  1.00  0.00    +0.0427  A
ATOM      7 C25  CHE L   1      -0.382  -0.029  -0.420  1.00  0.00    +0.0044  A
ATOM      8 C26  CHE L   1       0.986   0.354  -0.504  1.00  0.00    +0.1402  A
ATOM      9 N27  CHE L   1       2.076  -0.193  -0.004  1.00  0.00    -0.2277 NA
ATOM     10 H38  CHE L   1       3.131   2.504  -1.649  1.00  0.00    +0.0835  H
ATOM     11 H39  CHE L   1       0.647   3.140  -2.408  1.00  0.00    +0.0814  H
ATOM     12 H40  CHE L   1      -1.733   2.475  -2.287  1.00  0.00    +0.0653  H
ATOM     13 H54  CHE L   1      -0.602  -0.917   0.160  1.00  0.00    +0.0675  H
ENDROOT
BRANCH 1 17
ATOM     14  C3  CHE L   1       7.231  -0.192   0.470  1.00  0.00    +0.1387  A
ATOM     15  C4  CHE L   1       6.246  -0.433   1.433  1.00  0.00    -0.0125  A
ATOM     16  C5  CHE L   1       4.884  -0.151   1.183  1.00  0.00    -0.0094  A
ATOM     17  C8  CHE L   1       4.505   0.364  -0.075  1.00  0.00    +0.0088  A
ATOM     18 C28  CHE L   1       5.496   0.611  -1.037  1.00  0.00    -0.0303  A
ATOM     19 C29  CHE L   1       6.840   0.342  -0.765  1.00  0.00    +0.0831  A
ATOM     20 CL30 CHE L   1       7.996   0.677  -2.009  1.00  0.00    -0.0797 Cl
ATOM     21 H34  CHE L   1       6.508  -0.847   2.403  1.00  0.00    +0.0658  H
ATOM     22 H55  CHE L   1       5.225   0.994  -2.018  1.00  0.00    +0.0640  H
BRANCH 14 24
ATOM     23  C1  CHE L   1       8.965  -1.107   1.834  1.00  0.00    +0.0789  C
ATOM     24  O2  CHE L   1       8.568  -0.431   0.648  1.00  0.00    -0.4936 OA
ATOM     25 H31  CHE L   1       8.479  -2.084   1.916  1.00  0.00    +0.0660  H
ATOM     26 H32  CHE L   1       8.774  -0.491   2.718  1.00  0.00    +0.0660  H
ATOM     27 H33  CHE L   1      10.045  -1.277   1.776  1.00  0.00    +0.0660  H
ENDBRANCH 14 24
BRANCH 16 28
ATOM     28  C6  CHE L   1       3.888  -0.422   2.285  1.00  0.00    +0.0700  C
ATOM     29  O7  CHE L   1       3.185  -1.627   2.025  1.00  0.00    -0.3904 OA
ATOM     30 H35  CHE L   1       4.394  -0.533   3.251  1.00  0.00    +0.0607  H
ATOM     31 H36  CHE L   1       3.181   0.407   2.403  1.00  0.00    +0.0607  H
ATOM     32 H37  CHE L   1       2.653  -1.430   1.222  1.00  0.00    +0.2098 HD
ENDBRANCH 16 28
ENDBRANCH 1 17
BRANCH 6 33
ATOM     33 N15  CHE L   1      -2.726   0.362  -0.948  1.00  0.00    -0.3703  N
ATOM     34 C16  CHE L   1      -3.170  -1.018  -0.672  1.00  0.00    +0.0205  C
ATOM     35 C17  CHE L   1      -4.527  -1.298  -1.306  1.00  0.00    -0.0149  C
ATOM     36 C18  CHE L   1      -5.609  -0.352  -0.777  1.00  0.00    +0.0328  C
ATOM     37 C23  CHE L   1      -5.025   0.966  -0.261  1.00  0.00    -0.0149  C
ATOM     38 C24  CHE L   1      -3.798   1.371  -1.065  1.00  0.00    +0.0205  C
ATOM     39 H41  CHE L   1      -3.210  -1.182   0.412  1.00  0.00    +0.0488  H
ATOM     40 H42  CHE L   1      -2.455  -1.737  -1.089  1.00  0.00    +0.0488  H
ATOM     41 H43  CHE L   1      -4.436  -1.154  -2.391  1.00  0.00    +0.0302  H
ATOM     42 H44  CHE L   1      -4.807  -2.346  -1.153  1.00  0.00    +0.0302  H
ATOM     43 H45  CHE L   1      -6.289  -0.130  -1.609  1.00  0.00    +0.0523  H
ATOM     44 H50  CHE L   1      -5.784   1.755  -0.311  1.00  0.00    +0.0302  H
ATOM     45 H51  CHE L   1      -4.749   0.872   0.799  1.00  0.00    +0.0302  H
ATOM     46 H52  CHE L   1      -3.454   2.338  -0.680  1.00  0.00    +0.0488  H
ATOM     47 H53  CHE L   1      -4.059   1.505  -2.122  1.00  0.00    +0.0488  H
BRANCH 36 48
ATOM     48 N19  CHE L   1      -6.412  -0.997   0.259  1.00  0.00    -0.3534  N
ATOM     49 C20  CHE L   1      -7.684  -0.556   0.555  1.00  0.00    +0.2181  C
ATOM     50 C21  CHE L   1      -8.329  -1.258   1.720  1.00  0.00    +0.0143  C
ATOM     51 O22  CHE L   1      -8.259   0.331  -0.067  1.00  0.00    -0.2736 OA
ATOM     52 H46  CHE L   1      -5.934  -1.554   0.956  1.00  0.00    +0.1626 HD
ATOM     53 H47  CHE L   1      -8.525  -0.529   2.511  1.00  0.00    +0.0325  H
ATOM     54 H48  CHE L   1      -7.690  -2.048   2.124  1.00  0.00    +0.0325  H
ATOM     55 H49  CHE L   1      -9.269  -1.708   1.389  1.00  0.00    +0.0325  H
ENDBRANCH 36 48
ENDBRANCH 6 33
TORSDOF 5
