ROOT
ATOM      1  C3  CHE L   1       1.012  -1.277  -1.339  1.00  0.00    +0.1623  A
ATOM      2  C4  CHE L   1      -0.294  -1.576  -0.940  1.00  0.00    -0.0052  A
ATOM      3  C5  CHE L   1      -1.137  -0.599  -0.351  1.00  0.00    +0.0271  A
ATOM      4  C6  CHE L   1      -2.468  -0.856   0.090  1.00  0.00    +0.0470  A
ATOM      5 C14  CHE L   1      -3.223   0.225   0.551  1.00  0.00    -0.0090  A
ATOM      6 C15  CHE L   1      -2.642   1.482   0.651  1.00  0.00    +0.1086  A
ATOM      7 N22  CHE L   1      -1.361   1.717   0.296  1.00  0.00    -0.2433 NA
ATOM      8 C23  CHE L   1      -0.634   0.710  -0.202  1.00  0.00    +0.0774  A
ATOM      9 C24  CHE L   1       0.667   0.993  -0.591  1.00  0.00    +0.0098  A
ATOM     10 C25  CHE L   1       1.502   0.023  -1.150  1.00  0.00    +0.1639  A
ATOM     11 H38  CHE L   1      -0.689  -2.573  -1.097  1.00  0.00    +0.0662  H
ATOM     12 H50  CHE L   1      -4.256   0.102   0.849  1.00  0.00    +0.0661  H
ATOM     13 H56  CHE L   1       1.008   2.014  -0.447  1.00  0.00    +0.0677  H
ENDROOT
BRANCH 1 15
ATOM     14  C1  CHE L   1       1.380  -3.467  -2.224  1.00  0.00    +0.0790  C
ATOM     15  O2  CHE L   1       1.878  -2.175  -1.910  1.00  0.00    -0.4914 OA
ATOM     16 H35  CHE L   1       1.105  -4.014  -1.316  1.00  0.00    +0.0660  H
ATOM     17 H36  CHE L   1       0.539  -3.410  -2.923  1.00  0.00    +0.0660  H
ATOM     18 H37  CHE L   1       2.183  -4.024  -2.716  1.00  0.00    +0.0660  H
ENDBRANCH 1 15
BRANCH 4 19
ATOM     19  N7  CHE L   1      -3.008  -2.152  -0.041  1.00  0.00    -0.3811  N
ATOM     20 H39  CHE L   1      -2.304  -2.846   0.205  1.00  0.00    +0.1599 HD
BRANCH 19 21
ATOM     21  C8  CHE L   1      -4.342  -2.515   0.463  1.00  0.00    +0.0294  C
ATOM     22  C9  CHE L   1      -4.382  -4.032   0.721  1.00  0.00    -0.0201  C
ATOM     23 C10  CHE L   1      -5.816  -4.545   0.677  1.00  0.00    -0.0022  C
ATOM     24 N11  CHE L   1      -6.432  -4.369  -0.637  1.00  0.00    -0.3158 NA
ATOM     25 C12  CHE L   1      -5.895  -3.245  -1.404  1.00  0.00    -0.0022  C
ATOM     26 C13  CHE L   1      -5.437  -2.085  -0.527  1.00  0.00    -0.0201  C
ATOM     27 H40  CHE L   1      -4.516  -2.022   1.429  1.00  0.00    +0.0522  H
ATOM     28 H41  CHE L   1      -3.777  -4.575  -0.018  1.00  0.00    +0.0297  H
ATOM     29 H42  CHE L   1      -3.934  -4.249   1.698  1.00  0.00    +0.0297  H
ATOM     30 H43  CHE L   1      -5.838  -5.610   0.934  1.00  0.00    +0.0425  H
ATOM     31 H44  CHE L   1      -6.413  -4.023   1.434  1.00  0.00    +0.0425  H
ATOM     32 H45  CHE L   1      -7.442  -4.281  -0.534  1.00  0.00    +0.1219 HD
ATOM     33 H46  CHE L   1      -5.056  -3.599  -2.016  1.00  0.00    +0.0425  H
ATOM     34 H47  CHE L   1      -6.661  -2.898  -2.107  1.00  0.00    +0.0425  H
ATOM     35 H48  CHE L   1      -5.110  -1.255  -1.165  1.00  0.00    +0.0297  H
ATOM     36 H49  CHE L   1      -6.301  -1.713   0.040  1.00  0.00    +0.0297  H
ENDBRANCH 19 21
ENDBRANCH 4 19
BRANCH 6 37
ATOM     37 C16  CHE L   1      -3.389   2.635   1.150  1.00  0.00    +0.1534  A
ATOM     38 C17  CHE L   1      -4.693   2.839   1.567  1.00  0.00    -0.0141  A
ATOM     39 C18  CHE L   1      -4.799   4.202   1.942  1.00  0.00    -0.0203  A
ATOM     40 C19  CHE L   1      -3.557   4.755   1.733  1.00  0.00    +0.1028  A
ATOM     41 C20  CHE L   1      -2.997   6.108   1.917  1.00  0.00    -0.0063  C
ATOM     42 O21  CHE L   1      -2.699   3.814   1.255  1.00  0.00    -0.4584 OA
ATOM     43 H51  CHE L   1      -5.477   2.098   1.598  1.00  0.00    +0.0656  H
ATOM     44 H52  CHE L   1      -5.673   4.717   2.316  1.00  0.00    +0.0652  H
ATOM     45 H53  CHE L   1      -2.643   6.509   0.963  1.00  0.00    +0.0308  H
ATOM     46 H54  CHE L   1      -3.751   6.794   2.317  1.00  0.00    +0.0308  H
ATOM     47 H55  CHE L   1      -2.155   6.082   2.616  1.00  0.00    +0.0308  H
ENDBRANCH 6 37
BRANCH 10 48
ATOM     48 O26  CHE L   1       2.794   0.247  -1.556  1.00  0.00    -0.4882 OA
BRANCH 48 49
ATOM     49 C27  CHE L   1       3.345   1.548  -1.345  1.00  0.00    +0.0909  C
ATOM     50 H57  CHE L   1       2.779   2.281  -1.932  1.00  0.00    +0.0697  H
ATOM     51 H58  CHE L   1       3.305   1.819  -0.284  1.00  0.00    +0.0697  H
BRANCH 49 52
ATOM     52 C28  CHE L   1       4.791   1.549  -1.840  1.00  0.00    -0.0058  C
ATOM     53 H59  CHE L   1       5.165   2.578  -1.867  1.00  0.00    +0.0310  H
ATOM     54 H60  CHE L   1       4.812   1.175  -2.872  1.00  0.00    +0.0310  H
BRANCH 52 55
ATOM     55 C29  CHE L   1       5.716   0.656  -1.000  1.00  0.00    +0.0020  C
ATOM     56 H61  CHE L   1       5.285  -0.353  -0.988  1.00  0.00    +0.0428  H
ATOM     57 H62  CHE L   1       6.687   0.570  -1.503  1.00  0.00    +0.0428  H
BRANCH 55 58
ATOM     58 N30  CHE L   1       5.867   1.147   0.383  1.00  0.00    -0.3022 NA
ATOM     59 C31  CHE L   1       6.458   0.118   1.254  1.00  0.00    -0.0011  C
ATOM     60 C32  CHE L   1       7.961   0.220   1.052  1.00  0.00    -0.0390  C
ATOM     61 C33  CHE L   1       8.199   1.658   0.615  1.00  0.00    -0.0390  C
ATOM     62 C34  CHE L   1       6.810   2.272   0.482  1.00  0.00    -0.0011  C
ATOM     63 H63  CHE L   1       6.210   0.361   2.295  1.00  0.00    +0.0426  H
ATOM     64 H64  CHE L   1       6.076  -0.891   1.068  1.00  0.00    +0.0426  H
ATOM     65 H65  CHE L   1       8.294  -0.467   0.266  1.00  0.00    +0.0278  H
ATOM     66 H66  CHE L   1       8.511  -0.024   1.966  1.00  0.00    +0.0278  H
ATOM     67 H67  CHE L   1       8.730   1.676  -0.343  1.00  0.00    +0.0278  H
ATOM     68 H68  CHE L   1       8.804   2.205   1.345  1.00  0.00    +0.0278  H
ATOM     69 H69  CHE L   1       6.752   2.983  -0.347  1.00  0.00    +0.0426  H
ATOM     70 H70  CHE L   1       6.576   2.837   1.393  1.00  0.00    +0.0426  H
ENDBRANCH 55 58
ENDBRANCH 52 55
ENDBRANCH 49 52
ENDBRANCH 48 49
ENDBRANCH 10 48
TORSDOF 9
