ROOT
ATOM      1  C8  MCU L   1       0.772  -0.298  -0.019  1.00  0.00    +0.0880  C
ATOM      2  C9  MCU L   1       1.479  -1.634   0.050  1.00  0.00    -0.0171  A
ATOM      3 C10  MCU L   1       2.060  -2.192  -1.102  1.00  0.00    -0.0116  A
ATOM      4 C11  MCU L   1       2.681  -3.446  -1.052  1.00  0.00    +0.1618  A
ATOM      5 C14  MCU L   1       2.725  -4.154   0.164  1.00  0.00    +0.1622  A
ATOM      6 C17  MCU L   1       2.138  -3.601   1.306  1.00  0.00    -0.0037  A
ATOM      7 C18  MCU L   1       1.513  -2.346   1.253  1.00  0.00    +0.0468  A
ATOM      8 C19  MCU L   1       0.914  -1.790   2.502  1.00  0.00    +0.2553  C
ATOM      9 O20  MCU L   1       0.894  -2.493   3.510  1.00  0.00    -0.2674 OA
ATOM     10 N21  MCU L   1       0.444  -0.466   2.480  1.00  0.00    -0.3333  N
ATOM     11 C22  MCU L   1       0.198   0.132   3.789  1.00  0.00    +0.0107  C
ATOM     12 C23  MCU L   1       0.833   0.405   1.358  1.00  0.00    +0.0730  C
ATOM     13 H42  MCU L   1       1.325   0.331  -0.732  1.00  0.00    +0.0469  H
ATOM     14 H43  MCU L   1       2.016  -1.631  -2.030  1.00  0.00    +0.0658  H
ATOM     15 H50  MCU L   1       2.155  -4.126   2.256  1.00  0.00    +0.0663  H
ATOM     16 H51  MCU L   1      -0.099  -0.624   4.523  1.00  0.00    +0.0453  H
ATOM     17 H52  MCU L   1       1.121   0.608   4.136  1.00  0.00    +0.0453  H
ATOM     18 H53  MCU L   1      -0.605   0.868   3.741  1.00  0.00    +0.0453  H
ATOM     19 H54  MCU L   1       1.899   0.595   1.561  1.00  0.00    +0.0586  H
ENDROOT
BRANCH 1 21
ATOM     20  N5  MCU L   1      -0.976   0.369  -1.601  1.00  0.00    -0.3529  N
ATOM     21  C6  MCU L   1      -0.652  -0.486  -0.560  1.00  0.00    +0.2309  C
ATOM     22  O7  MCU L   1      -1.422  -1.348  -0.147  1.00  0.00    -0.2725 OA
ATOM     23 H41  MCU L   1      -0.471   1.244  -1.666  1.00  0.00    +0.1626 HD
BRANCH 20 24
ATOM     24  C3  MCU L   1      -2.273   0.301  -2.274  1.00  0.00    +0.0266  C
ATOM     25  C4  MCU L   1      -2.122   0.845  -3.693  1.00  0.00    -0.0447  C
ATOM     26 H37  MCU L   1      -2.556  -0.757  -2.337  1.00  0.00    +0.0520  H
ATOM     27 H38  MCU L   1      -1.880   1.914  -3.685  1.00  0.00    +0.0249  H
ATOM     28 H39  MCU L   1      -1.311   0.329  -4.220  1.00  0.00    +0.0249  H
ATOM     29 H40  MCU L   1      -3.036   0.704  -4.278  1.00  0.00    +0.0249  H
BRANCH 24 31
ATOM     30  C1  MCU L   1      -4.743   0.935  -2.050  1.00  0.00    -0.0634  C
ATOM     31  C2  MCU L   1      -3.343   1.053  -1.466  1.00  0.00    -0.0357  C
ATOM     32 H32  MCU L   1      -5.470   1.397  -1.375  1.00  0.00    +0.0230  H
ATOM     33 H33  MCU L   1      -5.026  -0.114  -2.185  1.00  0.00    +0.0230  H
ATOM     34 H34  MCU L   1      -4.821   1.444  -3.015  1.00  0.00    +0.0230  H
ATOM     35 H35  MCU L   1      -3.370   0.659  -0.443  1.00  0.00    +0.0282  H
ATOM     36 H36  MCU L   1      -3.075   2.113  -1.384  1.00  0.00    +0.0282  H
ENDBRANCH 24 31
ENDBRANCH 20 24
ENDBRANCH 1 21
BRANCH 4 37
ATOM     37 O12  MCU L   1       3.283  -4.050  -2.128  1.00  0.00    -0.4914 OA
ATOM     38 C13  MCU L   1       2.989  -3.532  -3.418  1.00  0.00    +0.0790  C
ATOM     39 H44  MCU L   1       3.453  -2.551  -3.560  1.00  0.00    +0.0660  H
ATOM     40 H45  MCU L   1       1.909  -3.489  -3.595  1.00  0.00    +0.0660  H
ATOM     41 H46  MCU L   1       3.420  -4.214  -4.158  1.00  0.00    +0.0660  H
ENDBRANCH 4 37
BRANCH 5 42
ATOM     42 O15  MCU L   1       3.363  -5.370   0.131  1.00  0.00    -0.4914 OA
ATOM     43 C16  MCU L   1       3.319  -6.166   1.308  1.00  0.00    +0.0790  C
ATOM     44 H47  MCU L   1       2.288  -6.394   1.595  1.00  0.00    +0.0660  H
ATOM     45 H48  MCU L   1       3.863  -5.685   2.128  1.00  0.00    +0.0660  H
ATOM     46 H49  MCU L   1       3.820  -7.114   1.089  1.00  0.00    +0.0660  H
ENDBRANCH 5 42
BRANCH 12 47
ATOM     47 C24  MCU L   1       0.160   1.774   1.311  1.00  0.00    -0.0237  A
ATOM     48 C25  MCU L   1       0.936   2.927   1.113  1.00  0.00    -0.0531  A
ATOM     49 C26  MCU L   1       0.341   4.191   1.027  1.00  0.00    -0.0196  A
ATOM     50 C27  MCU L   1      -1.042   4.325   1.134  1.00  0.00    +0.1201  A
ATOM     51 C30  MCU L   1      -1.821   3.184   1.328  1.00  0.00    -0.0196  A
ATOM     52 C31  MCU L   1      -1.230   1.921   1.414  1.00  0.00    -0.0531  A
ATOM     53 H55  MCU L   1       2.020   2.856   1.028  1.00  0.00    +0.0622  H
ATOM     54 H56  MCU L   1       0.986   5.051   0.877  1.00  0.00    +0.0654  H
ATOM     55 H60  MCU L   1      -2.901   3.276   1.415  1.00  0.00    +0.0654  H
ATOM     56 H61  MCU L   1      -1.867   1.051   1.570  1.00  0.00    +0.0622  H
BRANCH 50 57
ATOM     57 O28  MCU L   1      -1.747   5.493   1.062  1.00  0.00    -0.4951 OA
ATOM     58 C29  MCU L   1      -0.995   6.694   0.944  1.00  0.00    +0.0788  C
ATOM     59 H57  MCU L   1      -1.700   7.531   0.934  1.00  0.00    +0.0660  H
ATOM     60 H58  MCU L   1      -0.438   6.718   0.002  1.00  0.00    +0.0660  H
ATOM     61 H59  MCU L   1      -0.328   6.830   1.802  1.00  0.00    +0.0660  H
ENDBRANCH 50 57
ENDBRANCH 12 47
TORSDOF 7
