ROOT
ATOM      1 C10  WH0 L   1       0.065   0.849   1.767  1.00  0.00    +0.0907  C
ATOM      2 C11  WH0 L   1      -0.333   2.210   2.359  1.00  0.00    -0.0337  C
ATOM      3 C12  WH0 L   1       0.213  -0.137   2.943  1.00  0.00    -0.0036  C
ATOM      4 C13  WH0 L   1       0.653  -1.516   2.472  1.00  0.00    +0.0325  C
ATOM      5 N14  WH0 L   1      -0.321  -2.099   1.503  1.00  0.00    -0.2915 NA
ATOM      6 C19  WH0 L   1      -0.555  -1.191   0.318  1.00  0.00    +0.0880  C
ATOM      7 C26  WH0 L   1      -1.013   0.238   0.813  1.00  0.00    +0.0837  C
ATOM      8 H47  WH0 L   1      -0.450   2.979   1.589  1.00  0.00    +0.0258  H
ATOM      9 H48  WH0 L   1       0.446   2.577   3.038  1.00  0.00    +0.0258  H
ATOM     10 H49  WH0 L   1      -1.271   2.145   2.919  1.00  0.00    +0.0258  H
ATOM     11 H50  WH0 L   1       0.969   0.233   3.647  1.00  0.00    +0.0311  H
ATOM     12 H51  WH0 L   1      -0.733  -0.220   3.495  1.00  0.00    +0.0311  H
ATOM     13 H52  WH0 L   1       0.723  -2.147   3.364  1.00  0.00    +0.0496  H
ATOM     14 H53  WH0 L   1       1.646  -1.469   2.017  1.00  0.00    +0.0496  H
ATOM     15 H57  WH0 L   1       0.409  -1.071  -0.195  1.00  0.00    +0.0602  H
ATOM     16 H63  WH0 L   1      -1.932   0.111   1.403  1.00  0.00    +0.0575  H
ENDROOT
BRANCH 1 17
ATOM     17  O9  WH0 L   1       1.374   0.892   1.159  1.00  0.00    -0.3714 OA
BRANCH 17 18
ATOM     18  C8  WH0 L   1       1.671   1.976   0.287  1.00  0.00    +0.0501  C
ATOM     19 H45  WH0 L   1       0.839   2.175  -0.389  1.00  0.00    +0.0560  H
ATOM     20 H46  WH0 L   1       1.866   2.879   0.875  1.00  0.00    +0.0560  H
BRANCH 18 21
ATOM     21  C7  WH0 L   1       2.892   1.618  -0.558  1.00  0.00    -0.0119  C
ATOM     22 H43  WH0 L   1       2.973   2.347  -1.374  1.00  0.00    +0.0304  H
ATOM     23 H44  WH0 L   1       2.747   0.630  -1.009  1.00  0.00    +0.0304  H
BRANCH 21 24
ATOM     24  C6  WH0 L   1       4.207   1.640   0.222  1.00  0.00    +0.0204  C
ATOM     25 H41  WH0 L   1       4.347   2.609   0.713  1.00  0.00    +0.0487  H
ATOM     26 H42  WH0 L   1       5.039   1.498  -0.478  1.00  0.00    +0.0487  H
BRANCH 24 29
ATOM     27  C3  WH0 L   1       4.590  -0.686   0.943  1.00  0.00    +0.2443  C
ATOM     28  O4  WH0 L   1       4.783  -1.113  -0.188  1.00  0.00    -0.2683 OA
ATOM     29  N5  WH0 L   1       4.306   0.622   1.244  1.00  0.00    -0.3524  N
ATOM     30 H40  WH0 L   1       3.997   0.862   2.176  1.00  0.00    +0.1626 HD
BRANCH 27 32
ATOM     31  C1  WH0 L   1       4.885  -2.864   2.039  1.00  0.00    -0.0936  C
ATOM     32  C2  WH0 L   1       4.623  -1.555   2.148  1.00  0.00    -0.0047  C
ATOM     33 H37  WH0 L   1       4.915  -3.501   2.918  1.00  0.00    +0.0536  H
ATOM     34 H38  WH0 L   1       5.083  -3.328   1.076  1.00  0.00    +0.0536  H
ATOM     35 H39  WH0 L   1       4.442  -1.109   3.117  1.00  0.00    +0.0666  H
ENDBRANCH 27 32
ENDBRANCH 24 29
ENDBRANCH 21 24
ENDBRANCH 18 21
ENDBRANCH 17 18
ENDBRANCH 1 17
BRANCH 5 36
ATOM     36 S15  WH0 L   1      -0.049  -3.772   1.219  1.00  0.00    +0.2299  S
ATOM     37 C16  WH0 L   1       1.381  -3.776   0.151  1.00  0.00    +0.0573  C
ATOM     38 O17  WH0 L   1      -1.157  -4.334   0.482  1.00  0.00    -0.2056 OA
ATOM     39 O18  WH0 L   1       0.353  -4.367   2.478  1.00  0.00    -0.2056 OA
ATOM     40 H54  WH0 L   1       1.132  -3.310  -0.802  1.00  0.00    +0.0407  H
ATOM     41 H55  WH0 L   1       2.203  -3.257   0.641  1.00  0.00    +0.0407  H
ATOM     42 H56  WH0 L   1       1.661  -4.818  -0.019  1.00  0.00    +0.0407  H
ENDBRANCH 5 36
BRANCH 6 43
ATOM     43 C20  WH0 L   1      -1.567  -1.698  -0.707  1.00  0.00    -0.0224  A
ATOM     44 C21  WH0 L   1      -2.902  -1.945  -0.351  1.00  0.00    -0.0565  A
ATOM     45 C22  WH0 L   1      -3.830  -2.352  -1.312  1.00  0.00    -0.0614  A
ATOM     46 C23  WH0 L   1      -3.436  -2.516  -2.638  1.00  0.00    -0.0617  A
ATOM     47 C24  WH0 L   1      -2.114  -2.281  -3.006  1.00  0.00    -0.0614  A
ATOM     48 C25  WH0 L   1      -1.184  -1.873  -2.049  1.00  0.00    -0.0565  A
ATOM     49 H58  WH0 L   1      -3.224  -1.840   0.683  1.00  0.00    +0.0621  H
ATOM     50 H59  WH0 L   1      -4.857  -2.553  -1.020  1.00  0.00    +0.0618  H
ATOM     51 H60  WH0 L   1      -4.160  -2.842  -3.381  1.00  0.00    +0.0618  H
ATOM     52 H61  WH0 L   1      -1.807  -2.424  -4.039  1.00  0.00    +0.0618  H
ATOM     53 H62  WH0 L   1      -0.158  -1.696  -2.363  1.00  0.00    +0.0621  H
ENDBRANCH 6 43
BRANCH 7 54
ATOM     54 N27  WH0 L   1      -1.364   1.132  -0.311  1.00  0.00    -0.3442  N
ATOM     55 C28  WH0 L   1      -2.423   2.013  -0.224  1.00  0.00    +0.2524  C
ATOM     56 O29  WH0 L   1      -3.041   2.226   0.813  1.00  0.00    -0.2676 OA
ATOM     57 H64  WH0 L   1      -1.080   0.838  -1.236  1.00  0.00    +0.1631 HD
BRANCH 55 58
ATOM     58 C30  WH0 L   1      -2.822   2.700  -1.484  1.00  0.00    +0.0391  A
ATOM     59 C31  WH0 L   1      -1.912   2.940  -2.525  1.00  0.00    -0.0467  A
ATOM     60 C32  WH0 L   1      -2.337   3.595  -3.684  1.00  0.00    -0.0257  A
ATOM     61 C33  WH0 L   1      -3.659   4.012  -3.795  1.00  0.00    +0.1234  A
ATOM     62 F34  WH0 L   1      -4.059   4.642  -4.907  1.00  0.00    -0.2055  F
ATOM     63 C35  WH0 L   1      -4.569   3.792  -2.768  1.00  0.00    -0.0257  A
ATOM     64 C36  WH0 L   1      -4.149   3.139  -1.607  1.00  0.00    -0.0467  A
ATOM     65 H65  WH0 L   1      -0.870   2.649  -2.442  1.00  0.00    +0.0626  H
ATOM     66 H66  WH0 L   1      -1.645   3.791  -4.497  1.00  0.00    +0.0646  H
ATOM     67 H67  WH0 L   1      -5.594   4.132  -2.874  1.00  0.00    +0.0646  H
ATOM     68 H68  WH0 L   1      -4.859   2.968  -0.799  1.00  0.00    +0.0626  H
ENDBRANCH 55 58
ENDBRANCH 7 54
TORSDOF 10
