ROOT
ATOM      1 C15  CHE L   1      -2.901  -0.010  -0.510  1.00  0.00    +0.0332  C
ATOM      2 C16  CHE L   1      -3.725   1.274  -0.408  1.00  0.00    -0.0147  C
ATOM      3 C17  CHE L   1      -5.223   0.999  -0.178  1.00  0.00    +0.0159  C
ATOM      4 C18  CHE L   1      -5.899   2.329   0.233  1.00  0.00    -0.0470  C
ATOM      5 C19  CHE L   1      -5.916   0.536  -1.472  1.00  0.00    -0.0470  C
ATOM      6 N20  CHE L   1      -5.449   0.056   0.932  1.00  0.00    -0.3060 NA
ATOM      7 C21  CHE L   1      -4.615  -1.160   0.994  1.00  0.00    +0.0159  C
ATOM      8 C22  CHE L   1      -4.758  -1.715   2.431  1.00  0.00    -0.0470  C
ATOM      9 C23  CHE L   1      -5.129  -2.257   0.045  1.00  0.00    -0.0470  C
ATOM     10 C24  CHE L   1      -3.126  -0.854   0.746  1.00  0.00    -0.0147  C
ATOM     11 H40  CHE L   1      -3.200  -0.577  -1.398  1.00  0.00    +0.0524  H
ATOM     12 H41  CHE L   1      -3.330   1.884   0.417  1.00  0.00    +0.0303  H
ATOM     13 H42  CHE L   1      -3.584   1.875  -1.317  1.00  0.00    +0.0303  H
ATOM     14 H43  CHE L   1      -6.975   2.195   0.400  1.00  0.00    +0.0247  H
ATOM     15 H44  CHE L   1      -5.468   2.733   1.157  1.00  0.00    +0.0247  H
ATOM     16 H45  CHE L   1      -5.777   3.092  -0.545  1.00  0.00    +0.0247  H
ATOM     17 H46  CHE L   1      -5.396  -0.285  -1.969  1.00  0.00    +0.0247  H
ATOM     18 H47  CHE L   1      -6.946   0.215  -1.278  1.00  0.00    +0.0247  H
ATOM     19 H48  CHE L   1      -5.965   1.353  -2.202  1.00  0.00    +0.0247  H
ATOM     20 H49  CHE L   1      -5.348   0.562   1.814  1.00  0.00    +0.1229 HD
ATOM     21 H50  CHE L   1      -5.802  -1.961   2.662  1.00  0.00    +0.0247  H
ATOM     22 H51  CHE L   1      -4.165  -2.628   2.563  1.00  0.00    +0.0247  H
ATOM     23 H52  CHE L   1      -4.414  -0.992   3.180  1.00  0.00    +0.0247  H
ATOM     24 H53  CHE L   1      -6.210  -2.400   0.154  1.00  0.00    +0.0247  H
ATOM     25 H54  CHE L   1      -4.652  -3.218   0.269  1.00  0.00    +0.0247  H
ATOM     26 H55  CHE L   1      -4.921  -2.051  -1.005  1.00  0.00    +0.0247  H
ATOM     27 H56  CHE L   1      -2.709  -0.315   1.609  1.00  0.00    +0.0303  H
ATOM     28 H57  CHE L   1      -2.556  -1.790   0.676  1.00  0.00    +0.0303  H
ENDROOT
BRANCH 1 31
ATOM     29 C12  CHE L   1      -0.603  -0.568  -1.260  1.00  0.00    +0.2523  C
ATOM     30 O13  CHE L   1      -0.938  -1.616  -1.797  1.00  0.00    -0.2676 OA
ATOM     31 N14  CHE L   1      -1.482   0.308  -0.659  1.00  0.00    -0.3492  N
ATOM     32 H39  CHE L   1      -1.141   1.168  -0.252  1.00  0.00    +0.1629 HD
BRANCH 29 36
ATOM     33  C8  CHE L   1       3.539   0.501  -1.298  1.00  0.00    +0.1468  A
ATOM     34  C9  CHE L   1       2.965  -0.150  -2.393  1.00  0.00    -0.0171  A
ATOM     35 C10  CHE L   1       1.615  -0.501  -2.363  1.00  0.00    -0.0459  A
ATOM     36 C11  CHE L   1       0.828  -0.169  -1.253  1.00  0.00    +0.0406  A
ATOM     37 C25  CHE L   1       1.399   0.496  -0.162  1.00  0.00    -0.0275  A
ATOM     38 C26  CHE L   1       2.753   0.841  -0.190  1.00  0.00    +0.0838  A
ATOM     39 CL27 CHE L   1       3.395   1.708   1.158  1.00  0.00    -0.0797 Cl
ATOM     40 H37  CHE L   1       3.570  -0.389  -3.264  1.00  0.00    +0.0655  H
ATOM     41 H38  CHE L   1       1.173  -1.024  -3.209  1.00  0.00    +0.0626  H
ATOM     42 H58  CHE L   1       0.805   0.733   0.717  1.00  0.00    +0.0641  H
BRANCH 33 43
ATOM     43  O7  CHE L   1       4.866   0.847  -1.404  1.00  0.00    -0.4533 OA
BRANCH 43 49
ATOM     44  C1  CHE L   1       9.047   0.971   1.205  1.00  0.00    -0.0384  C
ATOM     45  C2  CHE L   1       7.850   0.235   0.664  1.00  0.00    -0.0295  A
ATOM     46  C3  CHE L   1       7.693  -1.129   0.955  1.00  0.00    -0.0574  A
ATOM     47  C4  CHE L   1       6.598  -1.839   0.464  1.00  0.00    -0.0580  A
ATOM     48  C5  CHE L   1       5.640  -1.199  -0.321  1.00  0.00    -0.0180  A
ATOM     49  C6  CHE L   1       5.768   0.166  -0.607  1.00  0.00    +0.1460  A
ATOM     50 C28  CHE L   1       6.878   0.885  -0.127  1.00  0.00    +0.0968  A
ATOM     51 H31  CHE L   1       8.728   1.767   1.887  1.00  0.00    +0.0278  H
ATOM     52 H32  CHE L   1       9.710   0.302   1.765  1.00  0.00    +0.0278  H
ATOM     53 H33  CHE L   1       9.634   1.402   0.387  1.00  0.00    +0.0278  H
ATOM     54 H34  CHE L   1       8.429  -1.650   1.564  1.00  0.00    +0.0621  H
ATOM     55 H35  CHE L   1       6.493  -2.898   0.690  1.00  0.00    +0.0619  H
ATOM     56 H36  CHE L   1       4.809  -1.781  -0.706  1.00  0.00    +0.0655  H
BRANCH 50 57
ATOM     57 C29  CHE L   1       7.008   2.282  -0.439  1.00  0.00    +0.1031  C
ATOM     58 N30  CHE L   1       7.131   3.412  -0.676  1.00  0.00    -0.1907 NA
ENDBRANCH 50 57
ENDBRANCH 43 49
ENDBRANCH 33 43
ENDBRANCH 29 36
ENDBRANCH 1 31
TORSDOF 5
