ROOT
ATOM      1  C5  961 L   1      -1.020  -0.875  -0.188  1.00  0.00    +0.0423  C
ATOM      2  C6  961 L   1       0.538  -0.789  -0.201  1.00  0.00    +0.0321  C
ATOM      3  N7  961 L   1       1.143  -0.964   1.139  1.00  0.00    -0.3335  N
ATOM      4  C8  961 L   1       2.294  -0.304   1.536  1.00  0.00    +0.2506  C
ATOM      5  O9  961 L   1       3.093  -0.761   2.351  1.00  0.00    -0.2677 OA
ATOM      6 C15  961 L   1       0.879  -2.251   1.799  1.00  0.00    +0.0498  C
ATOM      7 C16  961 L   1      -0.562  -2.578   1.652  1.00  0.00    +0.0129  A
ATOM      8 C17  961 L   1      -1.361  -3.508   2.336  1.00  0.00    +0.0545  A
ATOM      9 N18  961 L   1      -2.635  -3.465   1.938  1.00  0.00    -0.1793 NA
ATOM     10 N19  961 L   1      -2.664  -2.475   1.023  1.00  0.00    -0.2706  N
ATOM     11 C20  961 L   1      -3.941  -2.069   0.487  1.00  0.00    +0.0305  C
ATOM     12 C21  961 L   1      -1.424  -1.964   0.761  1.00  0.00    +0.0507  A
ATOM     13 H29  961 L   1      -1.400   0.073   0.211  1.00  0.00    +0.0404  H
ATOM     14 H30  961 L   1       0.960  -1.590  -0.824  1.00  0.00    +0.0496  H
ATOM     15 H31  961 L   1       0.855   0.147  -0.667  1.00  0.00    +0.0496  H
ATOM     16 H39  961 L   1       1.503  -3.015   1.320  1.00  0.00    +0.0539  H
ATOM     17 H40  961 L   1       1.152  -2.190   2.858  1.00  0.00    +0.0539  H
ATOM     18 H41  961 L   1      -1.077  -4.208   3.112  1.00  0.00    +0.0851  H
ATOM     19 H42  961 L   1      -4.724  -2.290   1.218  1.00  0.00    +0.0473  H
ATOM     20 H43  961 L   1      -3.924  -0.994   0.295  1.00  0.00    +0.0473  H
ATOM     21 H44  961 L   1      -4.118  -2.629  -0.434  1.00  0.00    +0.0473  H
ENDROOT
BRANCH 1 22
ATOM     22  C4  961 L   1      -1.522  -1.088  -1.625  1.00  0.00    +0.0575  C
ATOM     23 H27  961 L   1      -1.172  -2.059  -1.997  1.00  0.00    +0.0567  H
ATOM     24 H28  961 L   1      -2.615  -1.111  -1.685  1.00  0.00    +0.0567  H
BRANCH 22 25
ATOM     25  O3  961 L   1      -1.020  -0.098  -2.526  1.00  0.00    -0.3793 OA
BRANCH 25 27
ATOM     26  C1  961 L   1      -1.117   2.090  -3.471  1.00  0.00    -0.0416  C
ATOM     27  C2  961 L   1      -1.733   1.136  -2.467  1.00  0.00    +0.0449  C
ATOM     28 H22  961 L   1      -1.629   3.056  -3.456  1.00  0.00    +0.0252  H
ATOM     29 H23  961 L   1      -0.056   2.249  -3.251  1.00  0.00    +0.0252  H
ATOM     30 H24  961 L   1      -1.174   1.675  -4.483  1.00  0.00    +0.0252  H
ATOM     31 H25  961 L   1      -2.787   0.967  -2.713  1.00  0.00    +0.0557  H
ATOM     32 H26  961 L   1      -1.663   1.567  -1.464  1.00  0.00    +0.0557  H
ENDBRANCH 25 27
ENDBRANCH 22 25
ENDBRANCH 1 22
BRANCH 4 33
ATOM     33 C10  961 L   1       2.519   1.041   0.975  1.00  0.00    +0.0129  C
ATOM     34 C11  961 L   1       3.661   1.414   0.384  1.00  0.00    -0.0757  C
ATOM     35 C12  961 L   1       3.629   2.859   0.019  1.00  0.00    -0.0338  C
ATOM     36 C13  961 L   1       2.443   3.385   0.830  1.00  0.00    -0.0454  C
ATOM     37 C14  961 L   1       1.560   2.172   1.134  1.00  0.00    -0.0226  C
ATOM     38 H32  961 L   1       4.506   0.762   0.208  1.00  0.00    +0.0576  H
ATOM     39 H33  961 L   1       4.554   3.372   0.299  1.00  0.00    +0.0308  H
ATOM     40 H34  961 L   1       3.468   2.977  -1.058  1.00  0.00    +0.0308  H
ATOM     41 H35  961 L   1       1.895   4.169   0.296  1.00  0.00    +0.0271  H
ATOM     42 H36  961 L   1       2.803   3.824   1.769  1.00  0.00    +0.0271  H
ATOM     43 H37  961 L   1       0.736   2.105   0.418  1.00  0.00    +0.0315  H
ATOM     44 H38  961 L   1       1.146   2.232   2.146  1.00  0.00    +0.0315  H
ENDBRANCH 4 33
TORSDOF 4
