ROOT
ATOM      1 C21  CHE L   1       6.506   0.714  -0.315  1.00  0.00    +0.0143  A
ATOM      2 C22  CHE L   1       7.036  -0.564  -0.591  1.00  0.00    -0.0517  A
ATOM      3 C23  CHE L   1       8.037  -0.749  -1.547  1.00  0.00    -0.0591  A
ATOM      4 C24  CHE L   1       8.552   0.328  -2.268  1.00  0.00    -0.0363  A
ATOM      5 C25  CHE L   1       8.021   1.591  -1.991  1.00  0.00    +0.0664  A
ATOM      6 N26  CHE L   1       8.309   2.822  -2.519  1.00  0.00    -0.2769  N
ATOM      7 N27  CHE L   1       7.587   3.827  -2.001  1.00  0.00    -0.1812 NA
ATOM      8 C28  CHE L   1       6.807   3.214  -1.106  1.00  0.00    +0.0575  A
ATOM      9 C29  CHE L   1       7.022   1.812  -1.043  1.00  0.00    +0.0287  A
ATOM     10 H58  CHE L   1       6.670  -1.440  -0.061  1.00  0.00    +0.0624  H
ATOM     11 H59  CHE L   1       8.421  -1.751  -1.733  1.00  0.00    +0.0618  H
ATOM     12 H60  CHE L   1       9.330   0.185  -3.011  1.00  0.00    +0.0639  H
ATOM     13 H61  CHE L   1       8.990   3.042  -3.236  1.00  0.00    +0.1889 HD
ATOM     14 H62  CHE L   1       6.109   3.811  -0.533  1.00  0.00    +0.0854  H
ENDROOT
BRANCH 1 17
ATOM     15 N18  CHE L   1       3.979   0.667   2.229  1.00  0.00    -0.2452  N
ATOM     16 C19  CHE L   1       4.903  -0.026   1.499  1.00  0.00    +0.0538  A
ATOM     17 C20  CHE L   1       5.467   0.925   0.676  1.00  0.00    +0.1132  A
ATOM     18 N30  CHE L   1       4.881   2.138   0.945  1.00  0.00    -0.1295 NA
ATOM     19 N31  CHE L   1       3.977   1.971   1.900  1.00  0.00    -0.0648 NA
ATOM     20 H57  CHE L   1       5.052  -1.088   1.627  1.00  0.00    +0.0849  H
BRANCH 15 21
ATOM     21 C17  CHE L   1       3.107   0.167   3.272  1.00  0.00    +0.0867  C
ATOM     22 H55  CHE L   1       2.786   1.012   3.890  1.00  0.00    +0.0575  H
ATOM     23 H56  CHE L   1       3.701  -0.508   3.899  1.00  0.00    +0.0575  H
BRANCH 21 29
ATOM     24 C11  CHE L   1      -1.782  -2.269   0.760  1.00  0.00    -0.0141  A
ATOM     25 C12  CHE L   1      -1.121  -3.486   1.260  1.00  0.00    -0.0522  A
ATOM     26 C13  CHE L   1       0.049  -3.453   1.929  1.00  0.00    -0.0185  A
ATOM     27 C14  CHE L   1       0.692  -2.210   2.163  1.00  0.00    +0.1379  A
ATOM     28 N15  CHE L   1       1.818  -1.909   2.777  1.00  0.00    -0.2309 NA
ATOM     29 C16  CHE L   1       1.937  -0.537   2.681  1.00  0.00    +0.0814  A
ATOM     30 C32  CHE L   1       0.855  -0.009   2.004  1.00  0.00    +0.0343  A
ATOM     31 N33  CHE L   1       0.063  -1.076   1.668  1.00  0.00    -0.3060  N
ATOM     32 C34  CHE L   1      -1.143  -1.097   0.972  1.00  0.00    +0.0158  A
ATOM     33 H53  CHE L   1      -1.598  -4.444   1.072  1.00  0.00    +0.0622  H
ATOM     34 H54  CHE L   1       0.523  -4.359   2.290  1.00  0.00    +0.0654  H
ATOM     35 H63  CHE L   1       0.598   1.007   1.733  1.00  0.00    +0.0832  H
ATOM     36 H64  CHE L   1      -1.509  -0.138   0.634  1.00  0.00    +0.0816  H
BRANCH 24 38
ATOM     37  C1  CHE L   1      -4.212  -2.983   0.911  1.00  0.00    -0.0455  C
ATOM     38  C2  CHE L   1      -3.094  -2.459  -0.003  1.00  0.00    +0.0314  C
ATOM     39 H35  CHE L   1      -5.144  -3.118   0.350  1.00  0.00    +0.0248  H
ATOM     40 H36  CHE L   1      -4.409  -2.305   1.749  1.00  0.00    +0.0248  H
ATOM     41 H37  CHE L   1      -3.955  -3.960   1.334  1.00  0.00    +0.0248  H
ATOM     42 H38  CHE L   1      -2.902  -3.248  -0.742  1.00  0.00    +0.0508  H
BRANCH 38 43
ATOM     43  N3  CHE L   1      -3.518  -1.307  -0.812  1.00  0.00    -0.3092 NA
ATOM     44 H39  CHE L   1      -2.718  -0.921  -1.310  1.00  0.00    +0.1225 HD
BRANCH 43 45
ATOM     45  C4  CHE L   1      -4.280  -0.267  -0.125  1.00  0.00    -0.0007  C
ATOM     46 H40  CHE L   1      -3.784   0.021   0.808  1.00  0.00    +0.0427  H
ATOM     47 H41  CHE L   1      -5.271  -0.648   0.141  1.00  0.00    +0.0427  H
BRANCH 45 48
ATOM     48  C5  CHE L   1      -4.432   0.996  -1.007  1.00  0.00    -0.0285  C
ATOM     49  C6  CHE L   1      -5.154   2.120  -0.229  1.00  0.00    -0.0491  C
ATOM     50  C7  CHE L   1      -6.589   2.386  -0.691  1.00  0.00    -0.0528  C
ATOM     51  C8  CHE L   1      -7.315   1.101  -1.061  1.00  0.00    -0.0530  C
ATOM     52  C9  CHE L   1      -6.607   0.337  -2.181  1.00  0.00    -0.0528  C
ATOM     53 C10  CHE L   1      -5.135   0.720  -2.345  1.00  0.00    -0.0491  C
ATOM     54 H42  CHE L   1      -3.417   1.356  -1.230  1.00  0.00    +0.0313  H
ATOM     55 H43  CHE L   1      -4.586   3.053  -0.336  1.00  0.00    +0.0268  H
ATOM     56 H44  CHE L   1      -5.157   1.899   0.846  1.00  0.00    +0.0268  H
ATOM     57 H45  CHE L   1      -7.135   2.914   0.099  1.00  0.00    +0.0265  H
ATOM     58 H46  CHE L   1      -6.575   3.058  -1.559  1.00  0.00    +0.0265  H
ATOM     59 H47  CHE L   1      -7.388   0.461  -0.173  1.00  0.00    +0.0265  H
ATOM     60 H48  CHE L   1      -8.345   1.324  -1.363  1.00  0.00    +0.0265  H
ATOM     61 H49  CHE L   1      -7.122   0.519  -3.133  1.00  0.00    +0.0265  H
ATOM     62 H50  CHE L   1      -6.697  -0.739  -1.990  1.00  0.00    +0.0265  H
ATOM     63 H51  CHE L   1      -5.075   1.628  -2.961  1.00  0.00    +0.0268  H
ATOM     64 H52  CHE L   1      -4.617  -0.057  -2.918  1.00  0.00    +0.0268  H
ENDBRANCH 45 48
ENDBRANCH 43 45
ENDBRANCH 38 43
ENDBRANCH 24 38
ENDBRANCH 21 29
ENDBRANCH 15 21
ENDBRANCH 1 17
TORSDOF 7
