ROOT
ATOM      1  C8  CHE L   1      -3.802   0.036  -0.168  1.00  0.00    +0.0223  A
ATOM      2  C9  CHE L   1      -3.802   1.424   0.026  1.00  0.00    -0.0325  A
ATOM      3 C10  CHE L   1      -2.668   2.184  -0.255  1.00  0.00    +0.0456  A
ATOM      4 CL11 CHE L   1      -2.771   3.887   0.011  1.00  0.00    -0.0832 Cl
ATOM      5 C12  CHE L   1      -1.504   1.572  -0.738  1.00  0.00    -0.0136  A
ATOM      6 C13  CHE L   1      -1.511   0.178  -0.991  1.00  0.00    +0.0627  A
ATOM      7 C14  CHE L   1      -2.652  -0.596  -0.686  1.00  0.00    +0.0628  A
ATOM      8 CL15 CHE L   1      -2.674  -2.326  -0.867  1.00  0.00    -0.0821 Cl
ATOM      9 C16  CHE L   1      -0.289  -0.426  -1.616  1.00  0.00    +0.2566  C
ATOM     10 O17  CHE L   1      -0.375  -1.415  -2.334  1.00  0.00    -0.2673 OA
ATOM     11 N18  CHE L   1       0.921   0.230  -1.398  1.00  0.00    -0.3335  N
ATOM     12 C31  CHE L   1       0.973   1.516  -0.722  1.00  0.00    +0.0259  C
ATOM     13 C32  CHE L   1      -0.254   2.358  -1.045  1.00  0.00    -0.0078  C
ATOM     14 H39  CHE L   1      -4.698   1.915   0.406  1.00  0.00    +0.0639  H
ATOM     15 H49  CHE L   1       1.046   1.326   0.356  1.00  0.00    +0.0492  H
ATOM     16 H50  CHE L   1       1.869   2.058  -1.045  1.00  0.00    +0.0492  H
ATOM     17 H51  CHE L   1      -0.188   3.279  -0.458  1.00  0.00    +0.0331  H
ATOM     18 H52  CHE L   1      -0.266   2.634  -2.107  1.00  0.00    +0.0331  H
ENDROOT
BRANCH 1 25
ATOM     19  C1  CHE L   1      -6.611  -0.288  -1.844  1.00  0.00    -0.0185  C
ATOM     20  C2  CHE L   1      -6.224  -0.812  -0.519  1.00  0.00    +0.0876  A
ATOM     21  N3  CHE L   1      -7.106  -1.546   0.229  1.00  0.00    -0.1342 NA
ATOM     22  N4  CHE L   1      -6.505  -1.889   1.358  1.00  0.00    -0.0651 NA
ATOM     23  N5  CHE L   1      -5.252  -1.404   1.317  1.00  0.00    -0.2467  N
ATOM     24  C6  CHE L   1      -4.379  -1.635   2.438  1.00  0.00    +0.0325  C
ATOM     25  C7  CHE L   1      -5.027  -0.685   0.168  1.00  0.00    +0.0928  A
ATOM     26 H33  CHE L   1      -6.557   0.806  -1.855  1.00  0.00    +0.0294  H
ATOM     27 H34  CHE L   1      -7.636  -0.579  -2.097  1.00  0.00    +0.0294  H
ATOM     28 H35  CHE L   1      -5.946  -0.678  -2.622  1.00  0.00    +0.0294  H
ATOM     29 H36  CHE L   1      -4.483  -2.676   2.757  1.00  0.00    +0.0473  H
ATOM     30 H37  CHE L   1      -4.676  -0.958   3.244  1.00  0.00    +0.0473  H
ATOM     31 H38  CHE L   1      -3.341  -1.445   2.156  1.00  0.00    +0.0473  H
ENDBRANCH 1 25
BRANCH 11 32
ATOM     32 C19  CHE L   1       2.165  -0.442  -1.777  1.00  0.00    +0.0523  C
ATOM     33 H40  CHE L   1       1.972  -1.463  -2.124  1.00  0.00    +0.0540  H
ATOM     34 H41  CHE L   1       2.555   0.107  -2.641  1.00  0.00    +0.0540  H
BRANCH 32 35
ATOM     35 C20  CHE L   1       3.153  -0.480  -0.651  1.00  0.00    +0.0453  A
ATOM     36 C21  CHE L   1       2.828  -1.354   0.525  1.00  0.00    +0.2545  A
ATOM     37 O22  CHE L   1       1.774  -1.975   0.614  1.00  0.00    -0.2675 OA
ATOM     38 N23  CHE L   1       3.767  -1.429   1.533  1.00  0.00    -0.3243  N
ATOM     39 C24  CHE L   1       4.965  -0.746   1.555  1.00  0.00    +0.0398  A
ATOM     40 C25  CHE L   1       5.841  -0.947   2.749  1.00  0.00    -0.0224  C
ATOM     41 C26  CHE L   1       5.254   0.051   0.520  1.00  0.00    +0.0662  A
ATOM     42 N27  CHE L   1       6.307   0.862   0.192  1.00  0.00    -0.3593  N
ATOM     43 C28  CHE L   1       6.136   1.405  -1.062  1.00  0.00    +0.0028  A
ATOM     44 C29  CHE L   1       4.955   1.043  -1.597  1.00  0.00    -0.0361  A
ATOM     45 C30  CHE L   1       4.332   0.164  -0.614  1.00  0.00    +0.0113  A
ATOM     46 H42  CHE L   1       3.514  -2.033   2.305  1.00  0.00    +0.1687 HD
ATOM     47 H43  CHE L   1       5.320  -0.636   3.661  1.00  0.00    +0.0292  H
ATOM     48 H44  CHE L   1       6.112  -2.003   2.850  1.00  0.00    +0.0292  H
ATOM     49 H45  CHE L   1       6.769  -0.370   2.683  1.00  0.00    +0.0292  H
ATOM     50 H46  CHE L   1       7.193   0.845   0.674  1.00  0.00    +0.1654 HD
ATOM     51 H47  CHE L   1       6.904   2.032  -1.495  1.00  0.00    +0.0807  H
ATOM     52 H48  CHE L   1       4.569   1.323  -2.563  1.00  0.00    +0.0639  H
ENDBRANCH 32 35
ENDBRANCH 11 32
TORSDOF 3
