ROOT
ATOM      1 C10  678 L   1      -3.029  -0.056   0.351  1.00  0.00    +0.0631  C
ATOM      2 C11  678 L   1      -3.373  -1.511   0.206  1.00  0.00    -0.0501  C
ATOM      3 C12  678 L   1      -4.449  -1.782  -0.543  1.00  0.00    +0.0284  C
ATOM      4 S13  678 L   1      -5.171  -0.330  -1.151  1.00  0.00    +0.1745  S
ATOM      5 O14  678 L   1      -5.260  -0.411  -2.595  1.00  0.00    -0.2226 OA
ATOM      6 O15  678 L   1      -6.312   0.012  -0.328  1.00  0.00    -0.2226 OA
ATOM      7 C16  678 L   1      -3.801   0.726  -0.711  1.00  0.00    +0.0776  C
ATOM      8 H28  678 L   1      -3.316   0.283   1.355  1.00  0.00    +0.0577  H
ATOM      9 H29  678 L   1      -2.815  -2.284   0.722  1.00  0.00    +0.0599  H
ATOM     10 H30  678 L   1      -4.876  -2.751  -0.746  1.00  0.00    +0.0737  H
ATOM     11 H31  678 L   1      -4.182   1.679  -0.338  1.00  0.00    +0.0452  H
ATOM     12 H32  678 L   1      -3.207   0.899  -1.616  1.00  0.00    +0.0452  H
ENDROOT
BRANCH 1 15
ATOM     13  C7  678 L   1      -0.971   1.260   0.575  1.00  0.00    +0.2530  C
ATOM     14  O8  678 L   1      -1.592   2.194   1.073  1.00  0.00    -0.2676 OA
ATOM     15  N9  678 L   1      -1.594   0.083   0.211  1.00  0.00    -0.3449  N
ATOM     16 H27  678 L   1      -1.090  -0.582  -0.362  1.00  0.00    +0.1632 HD
BRANCH 13 19
ATOM     17  C4  678 L   1       2.653   0.716  -0.334  1.00  0.00    -0.0095  A
ATOM     18  C5  678 L   1       1.342   0.299  -0.194  1.00  0.00    -0.0392  A
ATOM     19  C6  678 L   1       0.467   1.329   0.302  1.00  0.00    +0.0462  A
ATOM     20 C17  678 L   1       1.186   2.493   0.522  1.00  0.00    -0.0118  A
ATOM     21 S18  678 L   1       2.840   2.351   0.129  1.00  0.00    -0.1008  S
ATOM     22 H26  678 L   1       1.041  -0.713  -0.436  1.00  0.00    +0.0633  H
ATOM     23 H33  678 L   1       0.804   3.435   0.897  1.00  0.00    +0.0701  H
BRANCH 17 24
ATOM     24  C3  678 L   1       3.830  -0.073  -0.836  1.00  0.00    -0.0216  C
ATOM     25 H24  678 L   1       3.557  -0.508  -1.807  1.00  0.00    +0.0318  H
ATOM     26 H25  678 L   1       4.692   0.579  -1.026  1.00  0.00    +0.0318  H
BRANCH 24 28
ATOM     27  C1  678 L   1       4.885  -0.703   1.398  1.00  0.00    -0.0650  C
ATOM     28  C2  678 L   1       4.240  -1.205   0.112  1.00  0.00    -0.0514  C
ATOM     29 H19  678 L   1       4.186  -0.110   1.996  1.00  0.00    +0.0230  H
ATOM     30 H20  678 L   1       5.212  -1.552   2.008  1.00  0.00    +0.0230  H
ATOM     31 H21  678 L   1       5.763  -0.086   1.180  1.00  0.00    +0.0230  H
ATOM     32 H22  678 L   1       3.379  -1.835   0.362  1.00  0.00    +0.0266  H
ATOM     33 H23  678 L   1       4.962  -1.848  -0.407  1.00  0.00    +0.0266  H
ENDBRANCH 24 28
ENDBRANCH 17 24
ENDBRANCH 13 19
ENDBRANCH 1 15
TORSDOF 4
