ROOT
ATOM      1  C3  CHE L   1      -3.740  -1.966  -0.556  1.00  0.00    +0.1635  A
ATOM      2  C4  CHE L   1      -2.859  -2.795   0.150  1.00  0.00    +0.0099  A
ATOM      3  C5  CHE L   1      -1.521  -2.467   0.324  1.00  0.00    +0.0828  A
ATOM      4  N6  CHE L   1      -0.733  -3.302   1.011  1.00  0.00    -0.2182 NA
ATOM      5  C7  CHE L   1       0.557  -2.947   1.155  1.00  0.00    +0.2356  A
ATOM      6 N10  CHE L   1       1.128  -1.835   0.673  1.00  0.00    -0.1830 NA
ATOM      7 C11  CHE L   1       0.309  -1.021  -0.011  1.00  0.00    +0.2270  A
ATOM      8 C20  CHE L   1      -1.048  -1.275  -0.229  1.00  0.00    +0.0657  A
ATOM      9 C21  CHE L   1      -1.924  -0.425  -0.946  1.00  0.00    -0.0020  A
ATOM     10 C22  CHE L   1      -3.267  -0.764  -1.110  1.00  0.00    +0.1623  A
ATOM     11 H28  CHE L   1      -3.199  -3.728   0.588  1.00  0.00    +0.0677  H
ATOM     12 H41  CHE L   1      -1.524   0.494  -1.363  1.00  0.00    +0.0663  H
ENDROOT
BRANCH 1 14
ATOM     13  C1  CHE L   1      -5.595  -3.435  -0.195  1.00  0.00    +0.0790  C
ATOM     14  O2  CHE L   1      -5.070  -2.240  -0.758  1.00  0.00    -0.4914 OA
ATOM     15 H25  CHE L   1      -5.114  -4.318  -0.627  1.00  0.00    +0.0660  H
ATOM     16 H26  CHE L   1      -6.659  -3.481  -0.443  1.00  0.00    +0.0660  H
ATOM     17 H27  CHE L   1      -5.508  -3.429   0.896  1.00  0.00    +0.0660  H
ENDBRANCH 1 14
BRANCH 5 18
ATOM     18  C8  CHE L   1       1.403  -3.845   1.896  1.00  0.00    +0.1400  C
ATOM     19  N9  CHE L   1       2.092  -4.568   2.494  1.00  0.00    -0.1876 NA
ENDBRANCH 5 18
BRANCH 7 20
ATOM     20 O12  CHE L   1       0.822   0.148  -0.546  1.00  0.00    -0.4725 OA
BRANCH 20 21
ATOM     21 C13  CHE L   1       2.209   0.414  -0.275  1.00  0.00    +0.1042  C
ATOM     22 C14  CHE L   1       2.361   1.015   1.129  1.00  0.00    -0.0029  C
ATOM     23 C15  CHE L   1       3.500   2.026   1.173  1.00  0.00    +0.0019  C
ATOM     24 N16  CHE L   1       3.234   3.175   0.298  1.00  0.00    -0.3051 NA
ATOM     25 C17  CHE L   1       4.461   3.925   0.040  1.00  0.00    -0.0128  C
ATOM     26 C18  CHE L   1       2.523   2.831  -0.940  1.00  0.00    +0.0019  C
ATOM     27 C19  CHE L   1       2.709   1.376  -1.363  1.00  0.00    -0.0029  C
ATOM     28 H29  CHE L   1       2.804  -0.504  -0.379  1.00  0.00    +0.0734  H
ATOM     29 H30  CHE L   1       2.555   0.214   1.852  1.00  0.00    +0.0313  H
ATOM     30 H31  CHE L   1       1.425   1.490   1.452  1.00  0.00    +0.0313  H
ATOM     31 H32  CHE L   1       3.626   2.383   2.202  1.00  0.00    +0.0428  H
ATOM     32 H33  CHE L   1       4.433   1.519   0.891  1.00  0.00    +0.0428  H
ATOM     33 H34  CHE L   1       5.180   3.346  -0.551  1.00  0.00    +0.0391  H
ATOM     34 H35  CHE L   1       4.942   4.216   0.981  1.00  0.00    +0.0391  H
ATOM     35 H36  CHE L   1       4.240   4.854  -0.497  1.00  0.00    +0.0391  H
ATOM     36 H37  CHE L   1       2.809   3.495  -1.765  1.00  0.00    +0.0428  H
ATOM     37 H38  CHE L   1       1.454   3.016  -0.775  1.00  0.00    +0.0428  H
ATOM     38 H39  CHE L   1       2.181   1.198  -2.307  1.00  0.00    +0.0313  H
ATOM     39 H40  CHE L   1       3.775   1.196  -1.552  1.00  0.00    +0.0313  H
ENDBRANCH 20 21
ENDBRANCH 7 20
BRANCH 10 40
ATOM     40 O23  CHE L   1      -4.185  -0.005  -1.788  1.00  0.00    -0.4914 OA
ATOM     41 C24  CHE L   1      -3.760   1.252  -2.297  1.00  0.00    +0.0790  C
ATOM     42 H42  CHE L   1      -4.623   1.731  -2.769  1.00  0.00    +0.0660  H
ATOM     43 H43  CHE L   1      -2.989   1.125  -3.064  1.00  0.00    +0.0660  H
ATOM     44 H44  CHE L   1      -3.414   1.909  -1.492  1.00  0.00    +0.0660  H
ENDBRANCH 10 40
TORSDOF 5
