ROOT
ATOM      1  C9  CHE L   1      -2.341  -0.900   0.054  1.00  0.00    +0.0901  A
ATOM      2 C10  CHE L   1      -1.745  -2.035  -0.454  1.00  0.00    +0.0371  A
ATOM      3 N11  CHE L   1      -0.411  -1.735  -0.558  1.00  0.00    -0.3060  N
ATOM      4 C12  CHE L   1       0.642  -2.520  -1.006  1.00  0.00    +0.0118  A
ATOM      5 C13  CHE L   1       1.883  -2.004  -1.015  1.00  0.00    -0.0377  A
ATOM      6 C14  CHE L   1       2.116  -0.623  -0.560  1.00  0.00    -0.0172  A
ATOM      7 C24  CHE L   1       1.062   0.111  -0.123  1.00  0.00    -0.0114  A
ATOM      8 C25  CHE L   1      -0.255  -0.430  -0.111  1.00  0.00    +0.1388  A
ATOM      9 N26  CHE L   1      -1.405   0.090   0.264  1.00  0.00    -0.2278 NA
ATOM     10 H37  CHE L   1      -2.136  -3.002  -0.737  1.00  0.00    +0.0835  H
ATOM     11 H38  CHE L   1       0.416  -3.526  -1.335  1.00  0.00    +0.0813  H
ATOM     12 H39  CHE L   1       2.729  -2.586  -1.368  1.00  0.00    +0.0638  H
ATOM     13 H49  CHE L   1       1.182   1.127   0.239  1.00  0.00    +0.0660  H
ENDROOT
BRANCH 1 17
ATOM     14  C3  CHE L   1      -6.537  -0.364   0.759  1.00  0.00    +0.1387  A
ATOM     15  C4  CHE L   1      -5.601   0.189   1.640  1.00  0.00    -0.0125  A
ATOM     16  C5  CHE L   1      -4.213   0.009   1.449  1.00  0.00    -0.0094  A
ATOM     17  C8  CHE L   1      -3.759  -0.730   0.336  1.00  0.00    +0.0088  A
ATOM     18 C27  CHE L   1      -4.701  -1.290  -0.541  1.00  0.00    -0.0303  A
ATOM     19 C28  CHE L   1      -6.071  -1.113  -0.328  1.00  0.00    +0.0831  A
ATOM     20 CL29 CHE L   1      -7.163  -1.832  -1.462  1.00  0.00    -0.0797 Cl
ATOM     21 H33  CHE L   1      -5.924   0.772   2.496  1.00  0.00    +0.0658  H
ATOM     22 H50  CHE L   1      -4.374  -1.849  -1.414  1.00  0.00    +0.0640  H
BRANCH 14 24
ATOM     23  C1  CHE L   1      -8.376   0.710   1.837  1.00  0.00    +0.0789  C
ATOM     24  O2  CHE L   1      -7.895  -0.236   0.890  1.00  0.00    -0.4936 OA
ATOM     25 H30  CHE L   1      -9.462   0.776   1.721  1.00  0.00    +0.0660  H
ATOM     26 H31  CHE L   1      -7.962   1.708   1.652  1.00  0.00    +0.0660  H
ATOM     27 H32  CHE L   1      -8.170   0.378   2.859  1.00  0.00    +0.0660  H
ENDBRANCH 14 24
BRANCH 16 28
ATOM     28  C6  CHE L   1      -3.271   0.631   2.454  1.00  0.00    +0.0700  C
ATOM     29  O7  CHE L   1      -2.705   1.818   1.920  1.00  0.00    -0.3904 OA
ATOM     30 H34  CHE L   1      -3.801   0.897   3.376  1.00  0.00    +0.0607  H
ATOM     31 H35  CHE L   1      -2.477  -0.065   2.747  1.00  0.00    +0.0607  H
ATOM     32 H36  CHE L   1      -2.138   1.507   1.179  1.00  0.00    +0.2098 HD
ENDBRANCH 16 28
ENDBRANCH 1 17
BRANCH 6 33
ATOM     33 C15  CHE L   1       3.457  -0.036  -0.533  1.00  0.00    -0.0416  C
ATOM     34 C16  CHE L   1       3.760   1.121  -1.151  1.00  0.00    -0.0663  C
ATOM     35 C17  CHE L   1       5.136   1.728  -1.150  1.00  0.00    +0.0186  C
ATOM     36 N18  CHE L   1       6.188   0.805  -0.689  1.00  0.00    -0.2859 NA
ATOM     37 C22  CHE L   1       5.753   0.099   0.526  1.00  0.00    +0.0041  C
ATOM     38 C23  CHE L   1       4.524  -0.780   0.237  1.00  0.00    -0.0145  C
ATOM     39 H40  CHE L   1       3.000   1.669  -1.703  1.00  0.00    +0.0588  H
ATOM     40 H41  CHE L   1       5.102   2.633  -0.529  1.00  0.00    +0.0470  H
ATOM     41 H42  CHE L   1       5.358   2.038  -2.177  1.00  0.00    +0.0470  H
ATOM     42 H45  CHE L   1       6.553  -0.554   0.895  1.00  0.00    +0.0430  H
ATOM     43 H46  CHE L   1       5.523   0.813   1.329  1.00  0.00    +0.0430  H
ATOM     44 H47  CHE L   1       4.835  -1.660  -0.340  1.00  0.00    +0.0326  H
ATOM     45 H48  CHE L   1       4.123  -1.138   1.193  1.00  0.00    +0.0326  H
BRANCH 36 46
ATOM     46 C19  CHE L   1       7.462   1.515  -0.450  1.00  0.00    +0.0870  C
ATOM     47 H43  CHE L   1       8.201   0.794  -0.073  1.00  0.00    +0.0584  H
ATOM     48 H44  CHE L   1       7.339   2.278   0.331  1.00  0.00    +0.0584  H
BRANCH 46 49
ATOM     49 C20  CHE L   1       8.047   2.138  -1.660  1.00  0.00    +0.0781  C
ATOM     50 N21  CHE L   1       8.503   2.655  -2.595  1.00  0.00    -0.1952 NA
ENDBRANCH 46 49
ENDBRANCH 36 46
ENDBRANCH 6 33
TORSDOF 6
