ROOT
ATOM      1 C13  EUB L   1      -4.141   0.958   0.313  1.00  0.00    +0.0284  C
ATOM      2 C14  EUB L   1      -4.529   2.404  -0.045  1.00  0.00    -0.0326  C
ATOM      3 C15  EUB L   1      -6.025   2.650   0.128  1.00  0.00    -0.0512  C
ATOM      4 C16  EUB L   1      -6.854   1.656  -0.679  1.00  0.00    -0.0529  C
ATOM      5 C17  EUB L   1      -6.475   0.216  -0.350  1.00  0.00    -0.0512  C
ATOM      6 C18  EUB L   1      -4.977  -0.027  -0.521  1.00  0.00    -0.0326  C
ATOM      7 H35  EUB L   1      -4.350   0.820   1.383  1.00  0.00    +0.0522  H
ATOM      8 H36  EUB L   1      -3.971   3.107   0.587  1.00  0.00    +0.0285  H
ATOM      9 H37  EUB L   1      -4.241   2.625  -1.081  1.00  0.00    +0.0285  H
ATOM     10 H38  EUB L   1      -6.270   3.672  -0.185  1.00  0.00    +0.0266  H
ATOM     11 H39  EUB L   1      -6.288   2.570   1.190  1.00  0.00    +0.0266  H
ATOM     12 H40  EUB L   1      -6.701   1.837  -1.750  1.00  0.00    +0.0265  H
ATOM     13 H41  EUB L   1      -7.919   1.813  -0.477  1.00  0.00    +0.0265  H
ATOM     14 H42  EUB L   1      -6.765  -0.012   0.683  1.00  0.00    +0.0266  H
ATOM     15 H43  EUB L   1      -7.035  -0.469  -0.997  1.00  0.00    +0.0266  H
ATOM     16 H44  EUB L   1      -4.713   0.068  -1.583  1.00  0.00    +0.0285  H
ATOM     17 H45  EUB L   1      -4.751  -1.063  -0.242  1.00  0.00    +0.0285  H
ENDROOT
BRANCH 1 18
ATOM     18 N12  EUB L   1      -2.712   0.778   0.029  1.00  0.00    -0.3669  N
ATOM     19 H34  EUB L   1      -2.177   1.626   0.202  1.00  0.00    +0.1613 HD
BRANCH 18 24
ATOM     20  C7  EUB L   1      -0.006  -1.504   1.095  1.00  0.00    +0.0053  A
ATOM     21  C8  EUB L   1      -0.730  -2.330   1.958  1.00  0.00    -0.0343  A
ATOM     22  C9  EUB L   1      -2.080  -2.087   2.135  1.00  0.00    +0.0305  A
ATOM     23 N10  EUB L   1      -2.754  -1.092   1.525  1.00  0.00    -0.2384 NA
ATOM     24 C11  EUB L   1      -2.068  -0.272   0.708  1.00  0.00    +0.1278  A
ATOM     25 C19  EUB L   1      -0.707  -0.459   0.473  1.00  0.00    -0.0105  A
ATOM     26 H32  EUB L   1      -0.261  -3.142   2.503  1.00  0.00    +0.0639  H
ATOM     27 H33  EUB L   1      -2.678  -2.707   2.798  1.00  0.00    +0.0830  H
ATOM     28 H46  EUB L   1      -0.187   0.207  -0.211  1.00  0.00    +0.0660  H
BRANCH 20 31
ATOM     29  C4  EUB L   1       3.389  -3.016   0.519  1.00  0.00    +0.0442  A
ATOM     30  C5  EUB L   1       2.021  -2.950   0.758  1.00  0.00    -0.0232  A
ATOM     31  C6  EUB L   1       1.433  -1.698   0.839  1.00  0.00    +0.0742  A
ATOM     32 N20  EUB L   1       2.153  -0.560   0.677  1.00  0.00    -0.2299 NA
ATOM     33 C21  EUB L   1       3.485  -0.613   0.453  1.00  0.00    +0.1310  A
ATOM     34 C28  EUB L   1       4.127  -1.840   0.388  1.00  0.00    -0.0071  A
ATOM     35 H31  EUB L   1       1.430  -3.848   0.891  1.00  0.00    +0.0646  H
ATOM     36 H56  EUB L   1       5.203  -1.899   0.253  1.00  0.00    +0.0661  H
BRANCH 29 38
ATOM     37  N1  EUB L   1       3.380  -5.413   0.069  1.00  0.00    -0.3659  N
ATOM     38  C2  EUB L   1       4.108  -4.310   0.423  1.00  0.00    +0.2497  C
ATOM     39  O3  EUB L   1       5.314  -4.391   0.615  1.00  0.00    -0.2678 OA
ATOM     40 H29  EUB L   1       3.924  -6.248  -0.117  1.00  0.00    +0.1589 HD
ATOM     41 H30  EUB L   1       2.487  -5.341  -0.396  1.00  0.00    +0.1589 HD
ENDBRANCH 29 38
BRANCH 33 42
ATOM     42 N22  EUB L   1       4.177   0.578   0.328  1.00  0.00    -0.3534  N
ATOM     43 C23  EUB L   1       3.432   1.821   0.565  1.00  0.00    +0.0325  C
ATOM     44 C24  EUB L   1       4.399   3.025   0.623  1.00  0.00    +0.0136  C
ATOM     45 N25  EUB L   1       5.238   3.226  -0.573  1.00  0.00    -0.3126 NA
ATOM     46 C26  EUB L   1       5.383   1.978  -1.344  1.00  0.00    +0.0136  C
ATOM     47 C27  EUB L   1       5.383   0.678  -0.507  1.00  0.00    +0.0325  C
ATOM     48 H47  EUB L   1       2.694   1.980  -0.232  1.00  0.00    +0.0501  H
ATOM     49 H48  EUB L   1       2.897   1.773   1.522  1.00  0.00    +0.0501  H
ATOM     50 H49  EUB L   1       5.073   2.894   1.479  1.00  0.00    +0.0441  H
ATOM     51 H50  EUB L   1       3.830   3.942   0.815  1.00  0.00    +0.0441  H
ATOM     52 H51  EUB L   1       4.813   3.930  -1.175  1.00  0.00    +0.1221 HD
ATOM     53 H52  EUB L   1       4.559   1.924  -2.068  1.00  0.00    +0.0441  H
ATOM     54 H53  EUB L   1       6.310   2.036  -1.926  1.00  0.00    +0.0441  H
ATOM     55 H54  EUB L   1       6.266   0.654   0.143  1.00  0.00    +0.0501  H
ATOM     56 H55  EUB L   1       5.463  -0.159  -1.210  1.00  0.00    +0.0501  H
ENDBRANCH 33 42
ENDBRANCH 20 31
ENDBRANCH 18 24
ENDBRANCH 1 18
TORSDOF 5
