ROOT
ATOM      1  C3  CHE L   1      -2.776   0.215  -2.176  1.00  0.00    +0.1623  A
ATOM      2  C4  CHE L   1      -1.440   0.607  -2.066  1.00  0.00    -0.0036  A
ATOM      3  C5  CHE L   1      -0.519  -0.148  -1.294  1.00  0.00    +0.0462  A
ATOM      4  C6  CHE L   1       0.839   0.165  -1.113  1.00  0.00    +0.1404  A
ATOM      5 N17  CHE L   1       1.659  -0.637  -0.414  1.00  0.00    -0.1948 NA
ATOM      6 C18  CHE L   1       1.160  -1.745   0.154  1.00  0.00    +0.2290  A
ATOM      7 N27  CHE L   1      -0.134  -2.077   0.063  1.00  0.00    -0.2121 NA
ATOM      8 C28  CHE L   1      -0.952  -1.305  -0.653  1.00  0.00    +0.0820  A
ATOM      9 C29  CHE L   1      -2.287  -1.677  -0.757  1.00  0.00    +0.0099  A
ATOM     10 C30  CHE L   1      -3.210  -0.932  -1.495  1.00  0.00    +0.1639  A
ATOM     11 H43  CHE L   1      -1.085   1.495  -2.576  1.00  0.00    +0.0663  H
ATOM     12 H67  CHE L   1      -2.580  -2.584  -0.239  1.00  0.00    +0.0677  H
ENDROOT
BRANCH 1 14
ATOM     13  C1  CHE L   1      -3.255   1.782  -3.903  1.00  0.00    +0.0790  C
ATOM     14  O2  CHE L   1      -3.724   0.904  -2.888  1.00  0.00    -0.4914 OA
ATOM     15 H40  CHE L   1      -2.820   2.686  -3.464  1.00  0.00    +0.0660  H
ATOM     16 H41  CHE L   1      -2.543   1.284  -4.569  1.00  0.00    +0.0660  H
ATOM     17 H42  CHE L   1      -4.116   2.087  -4.505  1.00  0.00    +0.0660  H
ENDBRANCH 1 14
BRANCH 4 18
ATOM     18  N7  CHE L   1       1.343   1.341  -1.699  1.00  0.00    -0.3662  N
ATOM     19 H44  CHE L   1       0.760   2.121  -1.403  1.00  0.00    +0.1613 HD
BRANCH 18 20
ATOM     20  C8  CHE L   1       2.767   1.694  -1.615  1.00  0.00    +0.0308  C
ATOM     21  C9  CHE L   1       3.689   0.698  -2.313  1.00  0.00    -0.0198  C
ATOM     22 C10  CHE L   1       5.121   1.240  -2.302  1.00  0.00    +0.0010  C
ATOM     23 N11  CHE L   1       5.589   1.732  -0.997  1.00  0.00    -0.2993 NA
ATOM     24 C15  CHE L   1       4.631   1.529   0.094  1.00  0.00    +0.0010  C
ATOM     25 C16  CHE L   1       3.228   2.058  -0.200  1.00  0.00    -0.0198  C
ATOM     26 H45  CHE L   1       2.845   2.623  -2.200  1.00  0.00    +0.0523  H
ATOM     27 H46  CHE L   1       3.364   0.539  -3.349  1.00  0.00    +0.0297  H
ATOM     28 H47  CHE L   1       3.671  -0.286  -1.833  1.00  0.00    +0.0297  H
ATOM     29 H48  CHE L   1       5.189   2.032  -3.059  1.00  0.00    +0.0427  H
ATOM     30 H49  CHE L   1       5.801   0.448  -2.636  1.00  0.00    +0.0427  H
ATOM     31 H55  CHE L   1       4.579   0.456   0.304  1.00  0.00    +0.0427  H
ATOM     32 H56  CHE L   1       5.005   1.978   1.023  1.00  0.00    +0.0427  H
ATOM     33 H57  CHE L   1       3.220   3.151  -0.098  1.00  0.00    +0.0297  H
ATOM     34 H58  CHE L   1       2.540   1.688   0.570  1.00  0.00    +0.0297  H
BRANCH 23 35
ATOM     35 C12  CHE L   1       6.130   3.098  -1.053  1.00  0.00    +0.0105  C
ATOM     36 C13  CHE L   1       7.516   3.313  -1.600  1.00  0.00    -0.0359  C
ATOM     37 C14  CHE L   1       7.258   3.476  -0.132  1.00  0.00    -0.0359  C
ATOM     38 H50  CHE L   1       5.403   3.878  -1.272  1.00  0.00    +0.0462  H
ATOM     39 H51  CHE L   1       7.695   4.205  -2.188  1.00  0.00    +0.0281  H
ATOM     40 H52  CHE L   1       8.085   2.447  -1.919  1.00  0.00    +0.0281  H
ATOM     41 H53  CHE L   1       7.655   2.720   0.536  1.00  0.00    +0.0281  H
ATOM     42 H54  CHE L   1       7.262   4.479   0.278  1.00  0.00    +0.0281  H
ENDBRANCH 23 35
ENDBRANCH 18 20
ENDBRANCH 4 18
BRANCH 6 43
ATOM     43 N19  CHE L   1       2.015  -2.618   0.848  1.00  0.00    -0.3399  N
ATOM     44 C20  CHE L   1       3.347  -2.067   1.099  1.00  0.00    +0.0268  C
ATOM     45 C21  CHE L   1       4.265  -3.144   1.652  1.00  0.00    +0.0285  C
ATOM     46 C22  CHE L   1       3.624  -3.799   2.851  1.00  0.00    +0.2522  C
ATOM     47 F23  CHE L   1       3.528  -2.900   3.866  1.00  0.00    -0.2055  F
ATOM     48 F24  CHE L   1       4.430  -4.794   3.304  1.00  0.00    -0.2055  F
ATOM     49 C25  CHE L   1       2.257  -4.364   2.546  1.00  0.00    +0.0285  C
ATOM     50 C26  CHE L   1       1.360  -3.273   1.984  1.00  0.00    +0.0268  C
ATOM     51 H59  CHE L   1       3.803  -1.709   0.170  1.00  0.00    +0.0490  H
ATOM     52 H60  CHE L   1       3.288  -1.225   1.802  1.00  0.00    +0.0490  H
ATOM     53 H61  CHE L   1       4.471  -3.901   0.884  1.00  0.00    +0.0340  H
ATOM     54 H62  CHE L   1       5.228  -2.702   1.932  1.00  0.00    +0.0340  H
ATOM     55 H63  CHE L   1       1.810  -4.779   3.457  1.00  0.00    +0.0340  H
ATOM     56 H64  CHE L   1       2.349  -5.190   1.831  1.00  0.00    +0.0340  H
ATOM     57 H65  CHE L   1       0.418  -3.754   1.691  1.00  0.00    +0.0490  H
ATOM     58 H66  CHE L   1       1.129  -2.535   2.764  1.00  0.00    +0.0490  H
ENDBRANCH 6 43
BRANCH 10 59
ATOM     59 O31  CHE L   1      -4.538  -1.243  -1.635  1.00  0.00    -0.4882 OA
BRANCH 59 60
ATOM     60 C32  CHE L   1      -5.111  -2.289  -0.853  1.00  0.00    +0.0909  C
ATOM     61 H68  CHE L   1      -6.060  -2.548  -1.337  1.00  0.00    +0.0697  H
ATOM     62 H69  CHE L   1      -4.507  -3.203  -0.891  1.00  0.00    +0.0697  H
BRANCH 60 63
ATOM     63 C33  CHE L   1      -5.399  -1.851   0.584  1.00  0.00    -0.0058  C
ATOM     64 H70  CHE L   1      -4.456  -1.650   1.100  1.00  0.00    +0.0310  H
ATOM     65 H71  CHE L   1      -5.887  -2.678   1.113  1.00  0.00    +0.0310  H
BRANCH 63 66
ATOM     66 C34  CHE L   1      -6.295  -0.605   0.627  1.00  0.00    +0.0020  C
ATOM     67 H72  CHE L   1      -5.826   0.229   0.092  1.00  0.00    +0.0428  H
ATOM     68 H73  CHE L   1      -7.218  -0.851   0.086  1.00  0.00    +0.0428  H
BRANCH 66 69
ATOM     69 N35  CHE L   1      -6.636  -0.239   2.015  1.00  0.00    -0.3022 NA
ATOM     70 C36  CHE L   1      -5.530   0.454   2.699  1.00  0.00    -0.0011  C
ATOM     71 C37  CHE L   1      -5.641   1.923   2.311  1.00  0.00    -0.0390  C
ATOM     72 C38  CHE L   1      -7.077   2.104   1.841  1.00  0.00    -0.0390  C
ATOM     73 C39  CHE L   1      -7.729   0.747   2.051  1.00  0.00    -0.0011  C
ATOM     74 H74  CHE L   1      -5.679   0.352   3.782  1.00  0.00    +0.0426  H
ATOM     75 H75  CHE L   1      -4.538   0.046   2.485  1.00  0.00    +0.0426  H
ATOM     76 H76  CHE L   1      -4.947   2.166   1.498  1.00  0.00    +0.0278  H
ATOM     77 H77  CHE L   1      -5.409   2.577   3.158  1.00  0.00    +0.0278  H
ATOM     78 H78  CHE L   1      -7.089   2.382   0.781  1.00  0.00    +0.0278  H
ATOM     79 H79  CHE L   1      -7.592   2.891   2.401  1.00  0.00    +0.0278  H
ATOM     80 H80  CHE L   1      -8.527   0.547   1.327  1.00  0.00    +0.0426  H
ATOM     81 H81  CHE L   1      -8.194   0.714   3.045  1.00  0.00    +0.0426  H
ENDBRANCH 66 69
ENDBRANCH 63 66
ENDBRANCH 60 63
ENDBRANCH 59 60
ENDBRANCH 10 59
TORSDOF 10
