ROOT
ATOM      1  C1  CHE L   1      -0.256   0.753  -1.294  1.00  0.00    -0.0438  C
ATOM      2  C2  CHE L   1      -0.873  -0.620  -1.564  1.00  0.00    +0.0410  C
ATOM      3  C3  CHE L   1       0.156  -1.718  -1.868  1.00  0.00    -0.0115  C
ATOM      4  C4  CHE L   1       0.923  -2.237  -0.642  1.00  0.00    +0.0335  C
ATOM      5 C16  CHE L   1      -0.059  -2.584   0.487  1.00  0.00    -0.0141  C
ATOM      6 C17  CHE L   1      -1.008  -1.437   0.795  1.00  0.00    +0.0329  C
ATOM      7 N18  CHE L   1      -1.740  -1.018  -0.425  1.00  0.00    -0.2815 NA
ATOM      8 H29  CHE L   1       0.345   0.786  -0.382  1.00  0.00    +0.0250  H
ATOM      9 H30  CHE L   1      -1.043   1.508  -1.182  1.00  0.00    +0.0250  H
ATOM     10 H31  CHE L   1       0.383   1.059  -2.129  1.00  0.00    +0.0250  H
ATOM     11 H32  CHE L   1      -1.480  -0.477  -2.466  1.00  0.00    +0.0529  H
ATOM     12 H33  CHE L   1       0.856  -1.372  -2.639  1.00  0.00    +0.0305  H
ATOM     13 H34  CHE L   1      -0.384  -2.570  -2.304  1.00  0.00    +0.0305  H
ATOM     14 H35  CHE L   1       1.447  -3.157  -0.933  1.00  0.00    +0.0524  H
ATOM     15 H43  CHE L   1      -0.640  -3.463   0.178  1.00  0.00    +0.0302  H
ATOM     16 H44  CHE L   1       0.464  -2.870   1.405  1.00  0.00    +0.0302  H
ATOM     17 H45  CHE L   1      -0.459  -0.579   1.199  1.00  0.00    +0.0496  H
ATOM     18 H46  CHE L   1      -1.705  -1.726   1.588  1.00  0.00    +0.0496  H
ENDROOT
BRANCH 4 19
ATOM     19  N5  CHE L   1       1.973  -1.303  -0.232  1.00  0.00    -0.3478  N
ATOM     20  C6  CHE L   1       2.951  -1.668   0.689  1.00  0.00    +0.2739  C
ATOM     21  O7  CHE L   1       2.920  -2.746   1.276  1.00  0.00    -0.2658 OA
ATOM     22 H36  CHE L   1       2.239  -0.590  -0.895  1.00  0.00    +0.1629 HD
BRANCH 20 23
ATOM     23  C8  CHE L   1       4.014  -0.672   0.896  1.00  0.00    +0.1701  A
ATOM     24  C9  CHE L   1       4.111   0.661   0.403  1.00  0.00    +0.0132  A
ATOM     25 C10  CHE L   1       5.288   1.139   0.919  1.00  0.00    +0.1411  A
ATOM     26 O14  CHE L   1       5.870   0.174   1.672  1.00  0.00    -0.3586 OA
ATOM     27 N15  CHE L   1       5.081  -0.957   1.662  1.00  0.00    -0.0732 NA
ATOM     28 H37  CHE L   1       3.421   1.204  -0.222  1.00  0.00    +0.0676  H
BRANCH 25 29
ATOM     29 C11  CHE L   1       5.866   2.560   0.705  1.00  0.00    +0.0199  C
ATOM     30 C12  CHE L   1       6.439   2.926  -0.640  1.00  0.00    -0.0426  C
ATOM     31 C13  CHE L   1       7.356   2.719   0.532  1.00  0.00    -0.0426  C
ATOM     32 H38  CHE L   1       5.357   3.338   1.269  1.00  0.00    +0.0380  H
ATOM     33 H39  CHE L   1       6.455   2.181  -1.426  1.00  0.00    +0.0272  H
ATOM     34 H40  CHE L   1       6.294   3.940  -0.993  1.00  0.00    +0.0272  H
ATOM     35 H41  CHE L   1       7.824   3.589   0.975  1.00  0.00    +0.0272  H
ATOM     36 H42  CHE L   1       7.979   1.833   0.539  1.00  0.00    +0.0272  H
ENDBRANCH 25 29
ENDBRANCH 20 23
ENDBRANCH 4 19
BRANCH 7 37
ATOM     37 S19  CHE L   1      -3.192  -1.820  -0.773  1.00  0.00    +0.3200  S
ATOM     38 O20  CHE L   1      -3.292  -2.986   0.073  1.00  0.00    -0.1823 OA
ATOM     39 O21  CHE L   1      -3.342  -1.910  -2.207  1.00  0.00    -0.1823 OA
BRANCH 37 40
ATOM     40 N22  CHE L   1      -4.291  -0.704  -0.228  1.00  0.00    -0.2786 NA
ATOM     41 C23  CHE L   1      -4.447   0.602  -0.929  1.00  0.00    +0.0465  C
ATOM     42 C24  CHE L   1      -4.723   1.573   0.257  1.00  0.00    +0.0279  C
ATOM     43 C25  CHE L   1      -3.787   1.013   1.317  1.00  0.00    -0.0134  C
ATOM     44 C26  CHE L   1      -4.404  -0.378   1.223  1.00  0.00    +0.0559  C
ATOM     45 C27  CHE L   1      -5.891  -0.041   1.479  1.00  0.00    +0.0175  C
ATOM     46 N28  CHE L   1      -6.063   1.310   0.858  1.00  0.00    -0.3095 NA
ATOM     47 H47  CHE L   1      -3.531   0.893  -1.450  1.00  0.00    +0.0511  H
ATOM     48 H48  CHE L   1      -5.279   0.565  -1.637  1.00  0.00    +0.0511  H
ATOM     49 H49  CHE L   1      -4.578   2.625   0.002  1.00  0.00    +0.0479  H
ATOM     50 H50  CHE L   1      -2.735   1.055   1.021  1.00  0.00    +0.0301  H
ATOM     51 H51  CHE L   1      -3.904   1.477   2.302  1.00  0.00    +0.0301  H
ATOM     52 H52  CHE L   1      -4.001  -1.132   1.899  1.00  0.00    +0.0545  H
ATOM     53 H53  CHE L   1      -6.099   0.025   2.552  1.00  0.00    +0.0444  H
ATOM     54 H54  CHE L   1      -6.573  -0.764   1.021  1.00  0.00    +0.0444  H
ATOM     55 H55  CHE L   1      -6.232   1.986   1.603  1.00  0.00    +0.1223 HD
ENDBRANCH 37 40
ENDBRANCH 7 37
TORSDOF 5
