ROOT
ATOM      1 C29  WH0 L   1      -2.736   2.774  -0.117  1.00  0.00    -0.0133  A
ATOM      2 C30  WH0 L   1      -2.273   3.547  -1.207  1.00  0.00    -0.0519  A
ATOM      3 C31  WH0 L   1      -2.592   4.904  -1.317  1.00  0.00    -0.0374  A
ATOM      4 C32  WH0 L   1      -3.375   5.449  -0.324  1.00  0.00    +0.0454  A
ATOM      5 C33  WH0 L   1      -3.843   4.705   0.756  1.00  0.00    -0.0145  A
ATOM      6 C34  WH0 L   1      -3.530   3.363   0.880  1.00  0.00    -0.0483  A
ATOM      7 C35  WH0 L   1      -4.667   5.585   1.648  1.00  0.00    +0.0535  C
ATOM      8 C36  WH0 L   1      -4.597   6.934   0.920  1.00  0.00    +0.2296  C
ATOM      9 O37  WH0 L   1      -5.124   7.977   1.269  1.00  0.00    -0.2725 OA
ATOM     10 N38  WH0 L   1      -3.821   6.756  -0.218  1.00  0.00    -0.3256  N
ATOM     11 H63  WH0 L   1      -1.660   3.088  -1.981  1.00  0.00    +0.0624  H
ATOM     12 H64  WH0 L   1      -2.235   5.493  -2.153  1.00  0.00    +0.0638  H
ATOM     13 H65  WH0 L   1      -3.886   2.789   1.730  1.00  0.00    +0.0627  H
ATOM     14 H66  WH0 L   1      -4.220   5.678   2.640  1.00  0.00    +0.0410  H
ATOM     15 H67  WH0 L   1      -5.704   5.245   1.692  1.00  0.00    +0.0410  H
ATOM     16 H68  WH0 L   1      -3.628   7.502  -0.869  1.00  0.00    +0.1686 HD
ENDROOT
BRANCH 1 25
ATOM     17 C14  WH0 L   1      -1.092   0.734  -0.016  1.00  0.00    +0.1015  A
ATOM     18 N15  WH0 L   1      -1.212  -0.602   0.041  1.00  0.00    -0.1627 NA
ATOM     19 N16  WH0 L   1      -2.548  -0.835   0.056  1.00  0.00    -0.1987  N
ATOM     20 C17  WH0 L   1      -3.142  -2.138   0.147  1.00  0.00    +0.2283  A
ATOM     21 N24  WH0 L   1      -4.457  -2.212   0.196  1.00  0.00    -0.2207 NA
ATOM     22 C25  WH0 L   1      -5.189  -1.050   0.122  1.00  0.00    +0.0334  A
ATOM     23 C26  WH0 L   1      -4.684   0.189   0.032  1.00  0.00    -0.0173  A
ATOM     24 C27  WH0 L   1      -3.280   0.334   0.021  1.00  0.00    +0.0803  A
ATOM     25 C28  WH0 L   1      -2.372   1.371  -0.026  1.00  0.00    +0.0353  A
ATOM     26 H61  WH0 L   1      -6.269  -1.187   0.132  1.00  0.00    +0.0831  H
ATOM     27 H62  WH0 L   1      -5.334   1.054  -0.033  1.00  0.00    +0.0654  H
BRANCH 17 30
ATOM     28 C11  WH0 L   1       2.504   1.380  -0.966  1.00  0.00    -0.0115  A
ATOM     29 C12  WH0 L   1       1.225   0.808  -0.899  1.00  0.00    -0.0466  A
ATOM     30 C13  WH0 L   1       0.236   1.348  -0.059  1.00  0.00    +0.0032  A
ATOM     31 C39  WH0 L   1       0.543   2.465   0.729  1.00  0.00    -0.0498  A
ATOM     32 C40  WH0 L   1       1.814   3.039   0.670  1.00  0.00    -0.0256  A
ATOM     33 C41  WH0 L   1       2.778   2.497  -0.173  1.00  0.00    +0.1266  A
ATOM     34 F42  WH0 L   1       3.993   3.061  -0.212  1.00  0.00    -0.2052  F
ATOM     35 H52  WH0 L   1       0.989  -0.064  -1.506  1.00  0.00    +0.0628  H
ATOM     36 H69  WH0 L   1      -0.197   2.892   1.403  1.00  0.00    +0.0625  H
ATOM     37 H70  WH0 L   1       2.058   3.905   1.277  1.00  0.00    +0.0646  H
BRANCH 28 38
ATOM     38 C10  WH0 L   1       3.561   0.795  -1.867  1.00  0.00    -0.0234  C
ATOM     39 H50  WH0 L   1       3.096   0.145  -2.619  1.00  0.00    +0.0315  H
ATOM     40 H51  WH0 L   1       4.026   1.613  -2.432  1.00  0.00    +0.0315  H
BRANCH 38 41
ATOM     41  C9  WH0 L   1       4.648   0.019  -1.119  1.00  0.00    -0.0314  C
ATOM     42 H48  WH0 L   1       5.147   0.665  -0.385  1.00  0.00    +0.0285  H
ATOM     43 H49  WH0 L   1       5.419  -0.272  -1.844  1.00  0.00    +0.0285  H
BRANCH 41 44
ATOM     44  C8  WH0 L   1       4.114  -1.229  -0.417  1.00  0.00    +0.0187  C
ATOM     45 H46  WH0 L   1       3.560  -1.859  -1.122  1.00  0.00    +0.0486  H
ATOM     46 H47  WH0 L   1       3.442  -0.960   0.405  1.00  0.00    +0.0486  H
BRANCH 44 49
ATOM     47  C5  WH0 L   1       5.905  -2.916  -0.586  1.00  0.00    +0.2618  C
ATOM     48  O6  WH0 L   1       5.644  -3.178  -1.754  1.00  0.00    -0.2669 OA
ATOM     49  N7  WH0 L   1       5.190  -2.007   0.166  1.00  0.00    -0.3514  N
ATOM     50 H45  WH0 L   1       5.549  -1.710   1.063  1.00  0.00    +0.1626 HD
BRANCH 47 52
ATOM     51  C1  WH0 L   1       6.998  -3.894   1.402  1.00  0.00    -0.0760  C
ATOM     52  C2  WH0 L   1       7.069  -3.539   0.107  1.00  0.00    +0.1085  C
ATOM     53 H43  WH0 L   1       7.837  -4.376   1.898  1.00  0.00    +0.0549  H
ATOM     54 H44  WH0 L   1       6.100  -3.751   1.995  1.00  0.00    +0.0549  H
BRANCH 52 55
ATOM     55  C3  WH0 L   1       8.232  -3.814  -0.667  1.00  0.00    +0.1040  C
ATOM     56  N4  WH0 L   1       9.215  -4.037  -1.244  1.00  0.00    -0.1907 NA
ENDBRANCH 52 55
ENDBRANCH 47 52
ENDBRANCH 44 49
ENDBRANCH 41 44
ENDBRANCH 38 41
ENDBRANCH 28 38
ENDBRANCH 17 30
BRANCH 20 57
ATOM     57 N18  WH0 L   1      -2.393  -3.326   0.197  1.00  0.00    -0.3359  N
ATOM     58 C19  WH0 L   1      -0.932  -3.380   0.022  1.00  0.00    +0.0449  C
ATOM     59 C20  WH0 L   1      -0.459  -4.801  -0.328  1.00  0.00    +0.0653  C
ATOM     60 O21  WH0 L   1      -0.926  -5.771   0.617  1.00  0.00    -0.3763 OA
ATOM     61 C22  WH0 L   1      -2.360  -5.776   0.622  1.00  0.00    +0.0653  C
ATOM     62 C23  WH0 L   1      -2.913  -4.416   1.053  1.00  0.00    +0.0449  C
ATOM     63 H53  WH0 L   1      -0.610  -2.742  -0.805  1.00  0.00    +0.0511  H
ATOM     64 H54  WH0 L   1      -0.448  -3.056   0.951  1.00  0.00    +0.0511  H
ATOM     65 H55  WH0 L   1      -0.796  -5.089  -1.332  1.00  0.00    +0.0577  H
ATOM     66 H56  WH0 L   1       0.636  -4.835  -0.327  1.00  0.00    +0.0577  H
ATOM     67 H57  WH0 L   1      -2.686  -6.550   1.325  1.00  0.00    +0.0577  H
ATOM     68 H58  WH0 L   1      -2.724  -6.055  -0.374  1.00  0.00    +0.0577  H
ATOM     69 H59  WH0 L   1      -2.611  -4.208   2.087  1.00  0.00    +0.0511  H
ATOM     70 H60  WH0 L   1      -4.006  -4.470   1.026  1.00  0.00    +0.0511  H
ENDBRANCH 20 57
ENDBRANCH 1 25
TORSDOF 9
