ROOT
ATOM      1  C3  MCU L   1      -3.620   2.447   0.659  1.00  0.00    +0.1618  A
ATOM      2  C4  MCU L   1      -2.885   2.908   1.756  1.00  0.00    -0.0114  A
ATOM      3  C5  MCU L   1      -1.752   3.719   1.573  1.00  0.00    -0.0246  A
ATOM      4  C6  MCU L   1      -1.370   4.078   0.273  1.00  0.00    -0.0532  A
ATOM      5  C7  MCU L   1      -2.102   3.628  -0.824  1.00  0.00    -0.0160  A
ATOM      6  C8  MCU L   1      -3.205   2.791  -0.635  1.00  0.00    +0.1625  A
ATOM      7  O9  MCU L   1      -3.853   2.388  -1.775  1.00  0.00    -0.4813 OA
ATOM      8 C10  MCU L   1      -3.853   0.964  -1.956  1.00  0.00    +0.1395  C
ATOM      9 C11  MCU L   1      -4.874   0.598  -3.041  1.00  0.00    +0.0605  C
ATOM     10 N12  MCU L   1      -4.320  -0.547  -3.750  1.00  0.00    -0.3326  N
ATOM     11 C13  MCU L   1      -5.139  -1.367  -4.499  1.00  0.00    +0.2548  C
ATOM     12 O14  MCU L   1      -6.335  -1.158  -4.677  1.00  0.00    -0.2674 OA
ATOM     13 C21  MCU L   1      -2.963  -0.829  -3.297  1.00  0.00    +0.0454  C
ATOM     14 C22  MCU L   1      -2.531   0.452  -2.572  1.00  0.00    +0.0860  C
ATOM     15 N23  MCU L   1      -1.417   0.295  -1.640  1.00  0.00    -0.3440  N
ATOM     16 C24  MCU L   1      -1.468  -0.507  -0.520  1.00  0.00    +0.2525  C
ATOM     17 O25  MCU L   1      -2.406  -1.258  -0.276  1.00  0.00    -0.2676 OA
ATOM     18 C26  MCU L   1      -0.305  -0.454   0.411  1.00  0.00    +0.0427  A
ATOM     19 C27  MCU L   1      -0.096  -1.545   1.265  1.00  0.00    -0.0457  A
ATOM     20 C28  MCU L   1       0.991  -1.567   2.148  1.00  0.00    -0.0156  A
ATOM     21 C29  MCU L   1       1.880  -0.493   2.191  1.00  0.00    +0.1621  A
ATOM     22 C40  MCU L   1       1.630   0.625   1.380  1.00  0.00    +0.1633  A
ATOM     23 C41  MCU L   1       0.560   0.640   0.481  1.00  0.00    -0.0040  A
ATOM     24 O42  MCU L   1       2.464   1.715   1.340  1.00  0.00    -0.4789 OA
ATOM     25 C43  MCU L   1       2.464   2.476   2.546  1.00  0.00    +0.1674  C
ATOM     26 C44  MCU L   1       1.450   3.614   2.451  1.00  0.00    +0.2588  C
ATOM     27 O45  MCU L   1       1.723   4.709   1.965  1.00  0.00    -0.2695 OA
ATOM     28 N46  MCU L   1       0.200   3.293   2.940  1.00  0.00    -0.3492  N
ATOM     29 C47  MCU L   1      -0.932   4.173   2.753  1.00  0.00    +0.0436  C
ATOM     30 H51  MCU L   1      -3.197   2.669   2.768  1.00  0.00    +0.0659  H
ATOM     31 H52  MCU L   1      -0.498   4.711   0.115  1.00  0.00    +0.0622  H
ATOM     32 H53  MCU L   1      -1.810   3.921  -1.828  1.00  0.00    +0.0655  H
ATOM     33 H54  MCU L   1      -4.111   0.413  -1.047  1.00  0.00    +0.0772  H
ATOM     34 H55  MCU L   1      -5.850   0.352  -2.608  1.00  0.00    +0.0526  H
ATOM     35 H56  MCU L   1      -5.021   1.408  -3.764  1.00  0.00    +0.0526  H
ATOM     36 H61  MCU L   1      -2.305  -1.057  -4.139  1.00  0.00    +0.0510  H
ATOM     37 H62  MCU L   1      -3.004  -1.706  -2.645  1.00  0.00    +0.0510  H
ATOM     38 H63  MCU L   1      -2.185   1.183  -3.315  1.00  0.00    +0.0577  H
ATOM     39 H64  MCU L   1      -0.610   0.880  -1.800  1.00  0.00    +0.1631 HD
ATOM     40 H65  MCU L   1      -0.776  -2.396   1.237  1.00  0.00    +0.0626  H
ATOM     41 H66  MCU L   1       1.108  -2.435   2.786  1.00  0.00    +0.0655  H
ATOM     42 H80  MCU L   1       0.420   1.522  -0.133  1.00  0.00    +0.0663  H
ATOM     43 H81  MCU L   1       3.458   2.920   2.666  1.00  0.00    +0.0797  H
ATOM     44 H82  MCU L   1       2.271   1.886   3.450  1.00  0.00    +0.0797  H
ATOM     45 H83  MCU L   1       0.001   2.322   3.140  1.00  0.00    +0.1627 HD
ATOM     46 H84  MCU L   1      -1.527   4.137   3.671  1.00  0.00    +0.0536  H
ATOM     47 H85  MCU L   1      -0.605   5.209   2.617  1.00  0.00    +0.0536  H
ENDROOT
BRANCH 1 49
ATOM     48  C1  MCU L   1      -4.826   0.826   1.885  1.00  0.00    +0.0790  C
ATOM     49  O2  MCU L   1      -4.781   1.730   0.784  1.00  0.00    -0.4914 OA
ATOM     50 H48  MCU L   1      -5.627   0.107   1.692  1.00  0.00    +0.0660  H
ATOM     51 H49  MCU L   1      -3.890   0.265   1.990  1.00  0.00    +0.0660  H
ATOM     52 H50  MCU L   1      -5.069   1.359   2.810  1.00  0.00    +0.0660  H
ENDBRANCH 1 49
BRANCH 11 53
ATOM     53 C15  MCU L   1      -4.546  -2.569  -5.110  1.00  0.00    +0.0420  A
ATOM     54 C16  MCU L   1      -3.610  -2.449  -6.133  1.00  0.00    -0.0313  A
ATOM     55 C17  MCU L   1      -3.110  -3.617  -6.675  1.00  0.00    +0.0283  A
ATOM     56 N18  MCU L   1      -3.487  -4.851  -6.274  1.00  0.00    -0.2632 NA
ATOM     57 C19  MCU L   1      -4.421  -4.926  -5.299  1.00  0.00    +0.0283  A
ATOM     58 C20  MCU L   1      -4.985  -3.821  -4.692  1.00  0.00    -0.0313  A
ATOM     59 H57  MCU L   1      -3.287  -1.480  -6.497  1.00  0.00    +0.0640  H
ATOM     60 H58  MCU L   1      -2.372  -3.597  -7.473  1.00  0.00    +0.0830  H
ATOM     61 H59  MCU L   1      -4.714  -5.932  -5.014  1.00  0.00    +0.0830  H
ATOM     62 H60  MCU L   1      -5.738  -3.928  -3.920  1.00  0.00    +0.0640  H
ENDBRANCH 11 53
BRANCH 21 63
ATOM     63 O30  MCU L   1       2.986  -0.434   2.990  1.00  0.00    -0.4857 OA
BRANCH 63 64
ATOM     64 C31  MCU L   1       3.608  -1.648   3.397  1.00  0.00    +0.1180  C
ATOM     65 H67  MCU L   1       2.907  -2.299   3.935  1.00  0.00    +0.0723  H
ATOM     66 H68  MCU L   1       4.337  -1.374   4.168  1.00  0.00    +0.0723  H
BRANCH 64 67
ATOM     67 C32  MCU L   1       4.336  -2.423   2.279  1.00  0.00    +0.1151  C
ATOM     68 O33  MCU L   1       5.054  -3.522   2.860  1.00  0.00    -0.3858 OA
ATOM     69 H69  MCU L   1       3.579  -2.863   1.618  1.00  0.00    +0.0653  H
ATOM     70 H70  MCU L   1       4.395  -4.166   3.175  1.00  0.00    +0.2100 HD
BRANCH 67 71
ATOM     71 C34  MCU L   1       5.297  -1.594   1.384  1.00  0.00    +0.0875  C
ATOM     72 O35  MCU L   1       4.502  -0.966   0.372  1.00  0.00    -0.3888 OA
ATOM     73 H71  MCU L   1       5.955  -2.302   0.861  1.00  0.00    +0.0623  H
ATOM     74 H72  MCU L   1       5.092  -0.668  -0.340  1.00  0.00    +0.2099 HD
BRANCH 71 75
ATOM     75 C36  MCU L   1       6.194  -0.549   2.110  1.00  0.00    -0.0065  C
ATOM     76 C37  MCU L   1       6.993   0.280   1.084  1.00  0.00    -0.0592  C
ATOM     77 H73  MCU L   1       5.544   0.160   2.636  1.00  0.00    +0.0332  H
ATOM     78 H74  MCU L   1       7.649   1.011   1.566  1.00  0.00    +0.0233  H
ATOM     79 H75  MCU L   1       6.326   0.854   0.432  1.00  0.00    +0.0233  H
ATOM     80 H76  MCU L   1       7.613  -0.369   0.455  1.00  0.00    +0.0233  H
BRANCH 75 81
ATOM     81 C38  MCU L   1       7.139  -1.231   3.118  1.00  0.00    -0.0043  C
ATOM     82 S39  MCU L   1       8.014  -0.052   4.199  1.00  0.00    -0.1779 SA
ATOM     83 H77  MCU L   1       7.888  -1.833   2.592  1.00  0.00    +0.0377  H
ATOM     84 H78  MCU L   1       6.599  -1.893   3.794  1.00  0.00    +0.0377  H
ATOM     85 H79  MCU L   1       8.760  -0.962   4.842  1.00  0.00    +0.1016 HD
ENDBRANCH 75 81
ENDBRANCH 71 75
ENDBRANCH 67 71
ENDBRANCH 64 67
ENDBRANCH 63 64
ENDBRANCH 21 63
TORSDOF 8
