ROOT
ATOM      1 C11  WH0 L   1       1.216  -0.702  -0.716  1.00  0.00    -0.0453  A
ATOM      2 C12  WH0 L   1       0.800   0.641  -0.564  1.00  0.00    -0.0581  A
ATOM      3 C13  WH0 L   1      -0.500   1.042  -0.891  1.00  0.00    -0.0528  A
ATOM      4 C14  WH0 L   1      -1.378   0.083  -1.368  1.00  0.00    +0.0212  A
ATOM      5 C15  WH0 L   1      -0.965  -1.247  -1.503  1.00  0.00    +0.0488  A
ATOM      6 C16  WH0 L   1       0.312  -1.665  -1.187  1.00  0.00    -0.0347  A
ATOM      7 N17  WH0 L   1      -2.015  -2.045  -1.938  1.00  0.00    -0.3228  N
ATOM      8 C18  WH0 L   1      -3.190  -1.304  -2.098  1.00  0.00    +0.2665  C
ATOM      9 O19  WH0 L   1      -4.273  -1.777  -2.408  1.00  0.00    -0.2689 OA
ATOM     10 C20  WH0 L   1      -2.819   0.203  -1.819  1.00  0.00    +0.2010  C
ATOM     11 S21  WH0 L   1      -2.848   1.037  -3.458  1.00  0.00    -0.1088 SA
ATOM     12 C22  WH0 L   1      -3.534   2.539  -2.785  1.00  0.00    +0.0758  C
ATOM     13 C23  WH0 L   1      -4.042   2.237  -1.396  1.00  0.00    +0.2395  C
ATOM     14 O24  WH0 L   1      -4.646   3.106  -0.770  1.00  0.00    -0.2717 OA
ATOM     15 N25  WH0 L   1      -3.706   0.956  -0.940  1.00  0.00    -0.2840  N
ATOM     16 H41  WH0 L   1       1.499   1.385  -0.182  1.00  0.00    +0.0620  H
ATOM     17 H42  WH0 L   1      -0.801   2.078  -0.766  1.00  0.00    +0.0622  H
ATOM     18 H43  WH0 L   1       0.603  -2.704  -1.295  1.00  0.00    +0.0641  H
ATOM     19 H44  WH0 L   1      -1.984  -3.045  -2.072  1.00  0.00    +0.1687 HD
ATOM     20 H45  WH0 L   1      -4.360   2.887  -3.410  1.00  0.00    +0.0474  H
ATOM     21 H46  WH0 L   1      -2.762   3.311  -2.724  1.00  0.00    +0.0474  H
ENDROOT
BRANCH 1 22
ATOM     22 C10  WH0 L   1       2.625  -1.099  -0.341  1.00  0.00    -0.0260  C
ATOM     23 H39  WH0 L   1       3.314  -0.318  -0.685  1.00  0.00    +0.0314  H
ATOM     24 H40  WH0 L   1       2.906  -2.010  -0.885  1.00  0.00    +0.0314  H
BRANCH 22 25
ATOM     25  C9  WH0 L   1       2.769  -1.323   1.166  1.00  0.00    -0.0315  C
ATOM     26 H37  WH0 L   1       2.049  -2.084   1.493  1.00  0.00    +0.0285  H
ATOM     27 H38  WH0 L   1       2.516  -0.402   1.705  1.00  0.00    +0.0285  H
BRANCH 25 28
ATOM     28  C8  WH0 L   1       4.173  -1.788   1.554  1.00  0.00    +0.0187  C
ATOM     29 H35  WH0 L   1       4.199  -2.007   2.627  1.00  0.00    +0.0486  H
ATOM     30 H36  WH0 L   1       4.439  -2.704   1.017  1.00  0.00    +0.0486  H
BRANCH 28 33
ATOM     31  C5  WH0 L   1       5.389   0.298   2.071  1.00  0.00    +0.2618  C
ATOM     32  O6  WH0 L   1       4.729   0.519   3.078  1.00  0.00    -0.2669 OA
ATOM     33  N7  WH0 L   1       5.199  -0.805   1.264  1.00  0.00    -0.3514  N
ATOM     34 H34  WH0 L   1       5.687  -0.871   0.381  1.00  0.00    +0.1626 HD
BRANCH 31 36
ATOM     35  C1  WH0 L   1       7.597   0.809   1.092  1.00  0.00    -0.0760  C
ATOM     36  C2  WH0 L   1       6.435   1.251   1.605  1.00  0.00    +0.1085  C
ATOM     37 H32  WH0 L   1       8.373   1.504   0.781  1.00  0.00    +0.0549  H
ATOM     38 H33  WH0 L   1       7.828  -0.248   1.003  1.00  0.00    +0.0549  H
BRANCH 36 39
ATOM     39  C3  WH0 L   1       6.195   2.642   1.786  1.00  0.00    +0.1040  C
ATOM     40  N4  WH0 L   1       6.036   3.788   1.882  1.00  0.00    -0.1907 NA
ENDBRANCH 36 39
ENDBRANCH 31 36
ENDBRANCH 28 33
ENDBRANCH 25 28
ENDBRANCH 22 25
ENDBRANCH 1 22
BRANCH 15 41
ATOM     41 C26  WH0 L   1      -4.209   0.421   0.298  1.00  0.00    +0.0468  A
ATOM     42 C27  WH0 L   1      -5.396   0.913   0.867  1.00  0.00    -0.0380  A
ATOM     43 C28  WH0 L   1      -5.913   0.399   2.063  1.00  0.00    -0.0598  A
ATOM     44 C29  WH0 L   1      -5.254  -0.628   2.723  1.00  0.00    -0.0616  A
ATOM     45 C30  WH0 L   1      -4.080  -1.137   2.185  1.00  0.00    -0.0598  A
ATOM     46 C31  WH0 L   1      -3.567  -0.620   0.987  1.00  0.00    -0.0380  A
ATOM     47 H47  WH0 L   1      -5.978   1.692   0.382  1.00  0.00    +0.0638  H
ATOM     48 H48  WH0 L   1      -6.837   0.805   2.467  1.00  0.00    +0.0618  H
ATOM     49 H49  WH0 L   1      -5.652  -1.027   3.652  1.00  0.00    +0.0618  H
ATOM     50 H50  WH0 L   1      -3.551  -1.936   2.699  1.00  0.00    +0.0618  H
ATOM     51 H51  WH0 L   1      -2.630  -1.048   0.656  1.00  0.00    +0.0638  H
ENDBRANCH 15 41
TORSDOF 7
