ROOT
ATOM      1  C3  917 L   1      -3.836  -0.523  -0.244  1.00  0.00    +0.0687  C
ATOM      2  C4  917 L   1      -4.504   0.314   0.870  1.00  0.00    +0.0007  C
ATOM      3  C5  917 L   1      -3.735   1.537   0.333  1.00  0.00    +0.0657  C
ATOM      4  O6  917 L   1      -3.282   2.483   1.317  1.00  0.00    -0.3911 OA
ATOM      5  C7  917 L   1      -2.676   0.538  -0.251  1.00  0.00    +0.0253  C
ATOM      6  C8  917 L   1      -1.495   0.226   0.693  1.00  0.00    -0.0297  C
ATOM      7  C9  917 L   1      -0.348  -0.387  -0.109  1.00  0.00    -0.0000  C
ATOM      8 N10  917 L   1       0.192   0.546  -1.110  1.00  0.00    -0.2952 NA
ATOM      9 C20  917 L   1      -0.807   1.490  -1.630  1.00  0.00    -0.0000  C
ATOM     10 C21  917 L   1      -2.202   0.868  -1.677  1.00  0.00    -0.0297  C
ATOM     11 H25  917 L   1      -4.420  -0.508  -1.175  1.00  0.00    +0.0603  H
ATOM     12 H26  917 L   1      -5.594   0.385   0.803  1.00  0.00    +0.0315  H
ATOM     13 H27  917 L   1      -4.235   0.016   1.890  1.00  0.00    +0.0315  H
ATOM     14 H28  917 L   1      -4.313   2.062  -0.440  1.00  0.00    +0.0600  H
ATOM     15 H29  917 L   1      -2.769   3.142   0.818  1.00  0.00    +0.2098 HD
ATOM     16 H30  917 L   1      -1.135   1.141   1.181  1.00  0.00    +0.0285  H
ATOM     17 H31  917 L   1      -1.794  -0.453   1.498  1.00  0.00    +0.0285  H
ATOM     18 H32  917 L   1       0.424  -0.758   0.572  1.00  0.00    +0.0427  H
ATOM     19 H33  917 L   1      -0.713  -1.275  -0.641  1.00  0.00    +0.0427  H
ATOM     20 H45  917 L   1      -0.514   1.796  -2.641  1.00  0.00    +0.0427  H
ATOM     21 H46  917 L   1      -0.849   2.397  -1.013  1.00  0.00    +0.0427  H
ATOM     22 H47  917 L   1      -2.897   1.552  -2.177  1.00  0.00    +0.0285  H
ATOM     23 H48  917 L   1      -2.171  -0.043  -2.289  1.00  0.00    +0.0285  H
ENDROOT
BRANCH 1 25
ATOM     24  C1  917 L   1      -4.519  -2.815   0.162  1.00  0.00    +0.0368  C
ATOM     25  O2  917 L   1      -3.457  -1.875   0.089  1.00  0.00    -0.3790 OA
ATOM     26 H22  917 L   1      -4.100  -3.795   0.404  1.00  0.00    +0.0524  H
ATOM     27 H23  917 L   1      -5.033  -2.878  -0.801  1.00  0.00    +0.0524  H
ATOM     28 H24  917 L   1      -5.225  -2.528   0.946  1.00  0.00    +0.0524  H
ENDBRANCH 1 25
BRANCH 8 29
ATOM     29 C11  917 L   1       1.405   1.263  -0.677  1.00  0.00    +0.0572  C
ATOM     30 H34  917 L   1       1.682   1.993  -1.450  1.00  0.00    +0.0506  H
ATOM     31 H35  917 L   1       1.202   1.844   0.230  1.00  0.00    +0.0506  H
BRANCH 29 32
ATOM     32 C12  917 L   1       2.608   0.374  -0.507  1.00  0.00    +0.1240  A
ATOM     33 N13  917 L   1       3.261  -0.228  -1.484  1.00  0.00    -0.2359 NA
ATOM     34 C14  917 L   1       4.292  -0.915  -0.898  1.00  0.00    +0.0593  A
ATOM     35 C15  917 L   1       5.215  -1.724  -1.727  1.00  0.00    -0.0206  C
ATOM     36 C16  917 L   1       4.294  -0.714   0.469  1.00  0.00    +0.0379  A
ATOM     37 C17  917 L   1       5.204  -1.230   1.520  1.00  0.00    -0.0225  C
ATOM     38 N18  917 L   1       3.220   0.115   0.703  1.00  0.00    -0.3335  N
ATOM     39 C19  917 L   1       2.808   0.645   1.982  1.00  0.00    +0.0133  C
ATOM     40 H36  917 L   1       5.187  -2.773  -1.418  1.00  0.00    +0.0293  H
ATOM     41 H37  917 L   1       4.940  -1.673  -2.785  1.00  0.00    +0.0293  H
ATOM     42 H38  917 L   1       6.242  -1.358  -1.624  1.00  0.00    +0.0293  H
ATOM     43 H39  917 L   1       4.655  -1.850   2.236  1.00  0.00    +0.0292  H
ATOM     44 H40  917 L   1       6.000  -1.847   1.089  1.00  0.00    +0.0292  H
ATOM     45 H41  917 L   1       5.680  -0.406   2.061  1.00  0.00    +0.0292  H
ATOM     46 H42  917 L   1       3.380   0.184   2.789  1.00  0.00    +0.0456  H
ATOM     47 H43  917 L   1       1.748   0.429   2.133  1.00  0.00    +0.0456  H
ATOM     48 H44  917 L   1       2.984   1.723   1.978  1.00  0.00    +0.0456  H
ENDBRANCH 29 32
ENDBRANCH 8 29
TORSDOF 3
