ROOT
ATOM      1 N16  CHE L   1       6.302  -1.077  -0.360  1.00  0.00    -0.3824  N
ATOM      2 C17  CHE L   1       6.481  -2.194   0.569  1.00  0.00    +0.0063  C
ATOM      3 C18  CHE L   1       7.407  -0.877  -1.300  1.00  0.00    +0.0063  C
ATOM      4 H34  CHE L   1       6.028  -3.104   0.159  1.00  0.00    +0.0451  H
ATOM      5 H35  CHE L   1       6.025  -1.975   1.540  1.00  0.00    +0.0451  H
ATOM      6 H36  CHE L   1       7.542  -2.397   0.754  1.00  0.00    +0.0451  H
ATOM      7 H37  CHE L   1       8.376  -0.990  -0.801  1.00  0.00    +0.0451  H
ATOM      8 H38  CHE L   1       7.385   0.130  -1.730  1.00  0.00    +0.0451  H
ATOM      9 H39  CHE L   1       7.347  -1.607  -2.114  1.00  0.00    +0.0451  H
ENDROOT
BRANCH 1 11
ATOM     10 C14  CHE L   1       3.883  -0.748  -0.009  1.00  0.00    -0.0459  C
ATOM     11 C15  CHE L   1       5.055  -0.523  -0.619  1.00  0.00    -0.0003  C
ATOM     12 H32  CHE L   1       3.826  -1.456   0.812  1.00  0.00    +0.0632  H
ATOM     13 H33  CHE L   1       5.092   0.192  -1.441  1.00  0.00    +0.0805  H
BRANCH 10 15
ATOM     14 C12  CHE L   1       1.474  -0.337   0.191  1.00  0.00    -0.0617  C
ATOM     15 C13  CHE L   1       2.655  -0.087  -0.395  1.00  0.00    -0.0604  C
ATOM     16 H30  CHE L   1       1.409  -1.067   0.996  1.00  0.00    +0.0618  H
ATOM     17 H31  CHE L   1       2.718   0.639  -1.204  1.00  0.00    +0.0618  H
BRANCH 14 19
ATOM     18 C10  CHE L   1      -0.947   0.049   0.346  1.00  0.00    -0.0376  C
ATOM     19 C11  CHE L   1       0.249   0.326  -0.202  1.00  0.00    -0.0598  C
ATOM     20 H28  CHE L   1      -0.974  -0.724   1.109  1.00  0.00    +0.0638  H
ATOM     21 H29  CHE L   1       0.326   1.076  -0.987  1.00  0.00    +0.0618  H
BRANCH 18 23
ATOM     22  C5  CHE L   1      -3.414   0.176   0.369  1.00  0.00    +0.1240  C
ATOM     23  C9  CHE L   1      -2.221   0.691  -0.028  1.00  0.00    +0.0549  C
BRANCH 22 24
ATOM     24  C3  CHE L   1      -3.572  -1.009   1.241  1.00  0.00    +0.3443  C
ATOM     25  O4  CHE L   1      -2.937  -1.219   2.264  1.00  0.00    -0.2448 OA
BRANCH 24 27
ATOM     26  C1  CHE L   1      -4.802  -2.981   1.518  1.00  0.00    +0.0820  C
ATOM     27  O2  CHE L   1      -4.560  -1.800   0.752  1.00  0.00    -0.4643 OA
ATOM     28 H22  CHE L   1      -5.218  -2.717   2.496  1.00  0.00    +0.0661  H
ATOM     29 H23  CHE L   1      -3.885  -3.567   1.633  1.00  0.00    +0.0661  H
ATOM     30 H24  CHE L   1      -5.536  -3.589   0.981  1.00  0.00    +0.0661  H
ENDBRANCH 24 27
ENDBRANCH 22 24
BRANCH 22 31
ATOM     31  C6  CHE L   1      -4.664   0.878  -0.022  1.00  0.00    +0.1689  C
ATOM     32  C7  CHE L   1      -5.295   1.764   1.019  1.00  0.00    -0.0011  C
ATOM     33  O8  CHE L   1      -5.184   0.709  -1.124  1.00  0.00    -0.2920 OA
ATOM     34 H25  CHE L   1      -4.610   1.940   1.851  1.00  0.00    +0.0309  H
ATOM     35 H26  CHE L   1      -6.205   1.292   1.397  1.00  0.00    +0.0309  H
ATOM     36 H27  CHE L   1      -5.532   2.729   0.565  1.00  0.00    +0.0309  H
ENDBRANCH 22 31
BRANCH 23 37
ATOM     37 N19  CHE L   1      -2.076   1.861  -0.799  1.00  0.00    -0.3760  N
ATOM     38 C20  CHE L   1      -2.637   1.974  -2.148  1.00  0.00    +0.0069  C
ATOM     39 C21  CHE L   1      -1.803   3.143  -0.146  1.00  0.00    +0.0069  C
ATOM     40 H40  CHE L   1      -2.793   0.989  -2.600  1.00  0.00    +0.0451  H
ATOM     41 H41  CHE L   1      -3.586   2.517  -2.133  1.00  0.00    +0.0451  H
ATOM     42 H42  CHE L   1      -1.943   2.523  -2.793  1.00  0.00    +0.0451  H
ATOM     43 H43  CHE L   1      -1.239   3.802  -0.815  1.00  0.00    +0.0451  H
ATOM     44 H44  CHE L   1      -1.209   3.010   0.766  1.00  0.00    +0.0451  H
ATOM     45 H45  CHE L   1      -2.741   3.637   0.126  1.00  0.00    +0.0451  H
ENDBRANCH 23 37
ENDBRANCH 18 23
ENDBRANCH 14 19
ENDBRANCH 10 15
ENDBRANCH 1 11
TORSDOF 8
