ROOT
ATOM      1  O1  177 L   1      -3.663   0.145  -1.251  1.00  0.00    -0.3915 OA
ATOM      2  C2  177 L   1      -2.784  -0.961  -1.225  1.00  0.00    +0.0596  C
ATOM      3  C3  177 L   1      -3.361  -2.083  -0.369  1.00  0.00    -0.0265  C
ATOM      4  C4  177 L   1      -2.135  -2.856   0.065  1.00  0.00    -0.0503  C
ATOM      5  C5  177 L   1      -1.148  -1.751   0.412  1.00  0.00    -0.0463  C
ATOM      6  C6  177 L   1      -1.380  -0.649  -0.640  1.00  0.00    +0.0028  C
ATOM      7 H22  177 L   1      -4.506  -0.158  -1.633  1.00  0.00    +0.2098 HD
ATOM      8 H23  177 L   1      -2.662  -1.311  -2.258  1.00  0.00    +0.0596  H
ATOM      9 H24  177 L   1      -4.069  -2.702  -0.928  1.00  0.00    +0.0290  H
ATOM     10 H25  177 L   1      -3.896  -1.675   0.498  1.00  0.00    +0.0290  H
ATOM     11 H26  177 L   1      -2.335  -3.515   0.915  1.00  0.00    +0.0266  H
ATOM     12 H27  177 L   1      -1.751  -3.465  -0.762  1.00  0.00    +0.0266  H
ATOM     13 H28  177 L   1      -1.349  -1.398   1.428  1.00  0.00    +0.0269  H
ATOM     14 H29  177 L   1      -0.124  -2.136   0.386  1.00  0.00    +0.0269  H
ATOM     15 H30  177 L   1      -0.669  -0.848  -1.456  1.00  0.00    +0.0342  H
ENDROOT
BRANCH 6 16
ATOM     16  C7  177 L   1      -1.153   0.828  -0.211  1.00  0.00    +0.0393  C
ATOM     17  C8  177 L   1      -2.006   1.316   0.997  1.00  0.00    +0.0636  C
ATOM     18  O9  177 L   1      -1.528   2.555   1.564  1.00  0.00    -0.3770 OA
ATOM     19 C10  177 L   1      -0.942   3.395   0.566  1.00  0.00    +0.0605  C
ATOM     20 C11  177 L   1       0.301   2.731  -0.068  1.00  0.00    +0.0231  C
ATOM     21 N12  177 L   1       0.281   1.239  -0.087  1.00  0.00    -0.2904 NA
ATOM     22 H31  177 L   1      -1.507   1.398  -1.084  1.00  0.00    +0.0489  H
ATOM     23 H32  177 L   1      -2.006   0.593   1.816  1.00  0.00    +0.0575  H
ATOM     24 H33  177 L   1      -3.046   1.481   0.704  1.00  0.00    +0.0575  H
ATOM     25 H34  177 L   1      -0.658   4.339   1.042  1.00  0.00    +0.0572  H
ATOM     26 H35  177 L   1      -1.699   3.624  -0.194  1.00  0.00    +0.0572  H
ATOM     27 H36  177 L   1       0.385   3.087  -1.102  1.00  0.00    +0.0449  H
ATOM     28 H37  177 L   1       1.200   3.115   0.429  1.00  0.00    +0.0449  H
BRANCH 21 29
ATOM     29 C13  177 L   1       0.947   0.714   1.118  1.00  0.00    +0.0293  C
ATOM     30 H38  177 L   1       0.605   1.209   2.034  1.00  0.00    +0.0477  H
ATOM     31 H39  177 L   1       0.751  -0.350   1.253  1.00  0.00    +0.0477  H
BRANCH 29 32
ATOM     32 C14  177 L   1       2.428   0.840   0.984  1.00  0.00    +0.0287  A
ATOM     33 C15  177 L   1       3.309   1.538   1.842  1.00  0.00    +0.0747  A
ATOM     34 N16  177 L   1       4.583   1.446   1.456  1.00  0.00    -0.0862 NA
ATOM     35 O17  177 L   1       4.558   0.664   0.313  1.00  0.00    -0.3591 OA
ATOM     36 C18  177 L   1       3.276   0.297   0.041  1.00  0.00    +0.1447  A
ATOM     37 H40  177 L   1       3.076   2.110   2.729  1.00  0.00    +0.0867  H
BRANCH 36 38
ATOM     38 C19  177 L   1       2.859  -0.585  -1.164  1.00  0.00    +0.0202  C
ATOM     39 C20  177 L   1       2.594  -2.050  -0.938  1.00  0.00    -0.0426  C
ATOM     40 C21  177 L   1       3.823  -1.620  -1.682  1.00  0.00    -0.0426  C
ATOM     41 H41  177 L   1       2.246  -0.073  -1.899  1.00  0.00    +0.0380  H
ATOM     42 H42  177 L   1       1.791  -2.509  -1.504  1.00  0.00    +0.0272  H
ATOM     43 H43  177 L   1       2.723  -2.454   0.060  1.00  0.00    +0.0272  H
ATOM     44 H44  177 L   1       3.857  -1.785  -2.753  1.00  0.00    +0.0272  H
ATOM     45 H45  177 L   1       4.782  -1.731  -1.188  1.00  0.00    +0.0272  H
ENDBRANCH 36 38
ENDBRANCH 29 32
ENDBRANCH 21 29
ENDBRANCH 6 16
TORSDOF 4
