ROOT
ATOM      1 C15  CHE L   1      -4.923   1.108   1.727  1.00  0.00    +0.0389  A
ATOM      2 C16  CHE L   1      -5.012  -0.243   1.678  1.00  0.00    -0.0388  A
ATOM      3 C17  CHE L   1      -3.849  -1.195   1.697  1.00  0.00    -0.0392  C
ATOM      4 C18  CHE L   1      -6.317  -0.892   1.611  1.00  0.00    -0.0393  A
ATOM      5 C19  CHE L   1      -7.451  -0.179   1.633  1.00  0.00    +0.0162  A
ATOM      6 C20  CHE L   1      -8.819  -0.781   1.548  1.00  0.00    -0.0244  C
ATOM      7 N21  CHE L   1      -7.374   1.185   1.740  1.00  0.00    -0.3262  N
ATOM      8 C22  CHE L   1      -6.203   1.894   1.821  1.00  0.00    +0.2540  A
ATOM      9 O23  CHE L   1      -6.217   3.110   1.993  1.00  0.00    -0.2675 OA
ATOM     10 H48  CHE L   1      -3.584  -1.497   0.679  1.00  0.00    +0.0278  H
ATOM     11 H49  CHE L   1      -2.970  -0.767   2.184  1.00  0.00    +0.0278  H
ATOM     12 H50  CHE L   1      -4.088  -2.100   2.268  1.00  0.00    +0.0278  H
ATOM     13 H51  CHE L   1      -6.350  -1.974   1.520  1.00  0.00    +0.0637  H
ATOM     14 H52  CHE L   1      -9.416  -0.502   2.423  1.00  0.00    +0.0292  H
ATOM     15 H53  CHE L   1      -9.334  -0.427   0.649  1.00  0.00    +0.0292  H
ATOM     16 H54  CHE L   1      -8.780  -1.874   1.502  1.00  0.00    +0.0292  H
ATOM     17 H55  CHE L   1      -8.216   1.745   1.782  1.00  0.00    +0.1686 HD
ENDROOT
BRANCH 1 18
ATOM     18 C14  CHE L   1      -3.699   1.987   1.693  1.00  0.00    +0.0491  C
ATOM     19 H46  CHE L   1      -3.918   2.967   1.255  1.00  0.00    +0.0538  H
ATOM     20 H47  CHE L   1      -3.326   2.146   2.710  1.00  0.00    +0.0538  H
BRANCH 18 23
ATOM     21 C11  CHE L   1      -2.633   1.439  -0.466  1.00  0.00    +0.2527  C
ATOM     22 O12  CHE L   1      -3.545   1.877  -1.153  1.00  0.00    -0.2676 OA
ATOM     23 N13  CHE L   1      -2.617   1.425   0.910  1.00  0.00    -0.3478  N
ATOM     24 H45  CHE L   1      -1.832   1.008   1.393  1.00  0.00    +0.1630 HD
BRANCH 21 29
ATOM     25  C4  CHE L   1       0.913   0.520  -1.502  1.00  0.00    +0.0452  A
ATOM     26  C5  CHE L   1       0.598  -0.599  -2.294  1.00  0.00    +0.0036  A
ATOM     27  C6  CHE L   1      -0.717  -1.021  -2.507  1.00  0.00    +0.1228  A
ATOM     28  C9  CHE L   1      -1.753  -0.324  -1.906  1.00  0.00    -0.0073  A
ATOM     29 C10  CHE L   1      -1.467   0.791  -1.106  1.00  0.00    +0.0473  A
ATOM     30 C24  CHE L   1      -0.146   1.253  -0.923  1.00  0.00    -0.0147  A
ATOM     31 C25  CHE L   1       0.127   2.494  -0.111  1.00  0.00    -0.0370  C
ATOM     32 H40  CHE L   1       1.398  -1.149  -2.783  1.00  0.00    +0.0675  H
ATOM     33 H44  CHE L   1      -2.791  -0.616  -2.030  1.00  0.00    +0.0662  H
ATOM     34 H56  CHE L   1       0.241   2.238   0.946  1.00  0.00    +0.0278  H
ATOM     35 H57  CHE L   1       1.031   3.013  -0.442  1.00  0.00    +0.0278  H
ATOM     36 H58  CHE L   1      -0.682   3.224  -0.215  1.00  0.00    +0.0278  H
BRANCH 25 37
ATOM     37  N3  CHE L   1       2.233   0.932  -1.357  1.00  0.00    -0.3676  N
BRANCH 37 39
ATOM     38  C1  CHE L   1       3.486   1.156  -3.497  1.00  0.00    -0.0475  C
ATOM     39  C2  CHE L   1       2.733   1.861  -2.379  1.00  0.00    +0.0161  C
ATOM     40 H35  CHE L   1       4.392   0.668  -3.122  1.00  0.00    +0.0247  H
ATOM     41 H36  CHE L   1       3.793   1.883  -4.256  1.00  0.00    +0.0247  H
ATOM     42 H37  CHE L   1       2.869   0.398  -3.987  1.00  0.00    +0.0247  H
ATOM     43 H38  CHE L   1       1.911   2.444  -2.814  1.00  0.00    +0.0485  H
ATOM     44 H39  CHE L   1       3.399   2.590  -1.901  1.00  0.00    +0.0485  H
ENDBRANCH 37 39
BRANCH 37 45
ATOM     45 C26  CHE L   1       3.206   0.245  -0.481  1.00  0.00    +0.0300  C
ATOM     46 C27  CHE L   1       2.835   0.409   1.005  1.00  0.00    -0.0311  C
ATOM     47 C28  CHE L   1       3.564  -0.578   1.929  1.00  0.00    -0.0355  C
ATOM     48 C29  CHE L   1       4.882  -1.118   1.329  1.00  0.00    +0.0100  C
ATOM     49 C33  CHE L   1       4.475  -1.920   0.067  1.00  0.00    -0.0355  C
ATOM     50 C34  CHE L   1       3.433  -1.229  -0.830  1.00  0.00    -0.0311  C
ATOM     51 H59  CHE L   1       4.163   0.759  -0.625  1.00  0.00    +0.0524  H
ATOM     52 H60  CHE L   1       1.759   0.277   1.164  1.00  0.00    +0.0285  H
ATOM     53 H61  CHE L   1       3.059   1.438   1.312  1.00  0.00    +0.0285  H
ATOM     54 H62  CHE L   1       3.714  -0.125   2.915  1.00  0.00    +0.0281  H
ATOM     55 H63  CHE L   1       2.896  -1.432   2.113  1.00  0.00    +0.0281  H
ATOM     56 H64  CHE L   1       5.320  -1.829   2.043  1.00  0.00    +0.0462  H
ATOM     57 H71  CHE L   1       5.340  -2.220  -0.532  1.00  0.00    +0.0281  H
ATOM     58 H72  CHE L   1       4.042  -2.875   0.399  1.00  0.00    +0.0281  H
ATOM     59 H73  CHE L   1       3.730  -1.340  -1.879  1.00  0.00    +0.0285  H
ATOM     60 H74  CHE L   1       2.494  -1.786  -0.721  1.00  0.00    +0.0285  H
BRANCH 48 61
ATOM     61 N30  CHE L   1       5.870  -0.038   1.073  1.00  0.00    -0.3054 NA
ATOM     62 C31  CHE L   1       7.097  -0.536   0.438  1.00  0.00    -0.0128  C
ATOM     63 C32  CHE L   1       6.241   0.668   2.307  1.00  0.00    -0.0128  C
ATOM     64 H65  CHE L   1       7.544  -1.364   1.000  1.00  0.00    +0.0391  H
ATOM     65 H66  CHE L   1       7.844   0.262   0.352  1.00  0.00    +0.0391  H
ATOM     66 H67  CHE L   1       6.911  -0.861  -0.589  1.00  0.00    +0.0391  H
ATOM     67 H68  CHE L   1       6.629  -0.016   3.071  1.00  0.00    +0.0391  H
ATOM     68 H69  CHE L   1       5.395   1.223   2.725  1.00  0.00    +0.0391  H
ATOM     69 H70  CHE L   1       7.009   1.425   2.105  1.00  0.00    +0.0391  H
ENDBRANCH 48 61
ENDBRANCH 37 45
ENDBRANCH 25 37
BRANCH 27 70
ATOM     70  O7  CHE L   1      -0.847  -2.124  -3.306  1.00  0.00    -0.4950 OA
ATOM     71  C8  CHE L   1      -2.172  -2.501  -3.666  1.00  0.00    +0.0788  C
ATOM     72 H41  CHE L   1      -2.102  -3.360  -4.339  1.00  0.00    +0.0660  H
ATOM     73 H42  CHE L   1      -2.744  -2.812  -2.787  1.00  0.00    +0.0660  H
ATOM     74 H43  CHE L   1      -2.680  -1.694  -4.204  1.00  0.00    +0.0660  H
ENDBRANCH 27 70
ENDBRANCH 21 29
ENDBRANCH 18 23
ENDBRANCH 1 18
TORSDOF 8
