ROOT
ATOM      1  C1  CHE L   1      -2.675  -1.676  -0.587  1.00  0.00    -0.0442  C
ATOM      2  C2  CHE L   1      -2.391  -0.408   0.222  1.00  0.00    +0.0323  C
ATOM      3  N3  CHE L   1      -1.589  -0.738   1.405  1.00  0.00    -0.3664  N
ATOM      4  C4  CHE L   1      -0.257  -0.505   1.002  1.00  0.00    +0.1307  A
ATOM      5  N5  CHE L   1       0.808  -1.012   1.628  1.00  0.00    -0.2374 NA
ATOM      6  C6  CHE L   1       2.013  -0.640   1.118  1.00  0.00    +0.0422  A
ATOM      7  C7  CHE L   1       2.185   0.182   0.001  1.00  0.00    +0.0572  A
ATOM      8 C11  CHE L   1       1.045   0.684  -0.632  1.00  0.00    -0.0410  A
ATOM      9 C12  CHE L   1      -0.185   0.320  -0.114  1.00  0.00    +0.0001  A
ATOM     10 C13  CHE L   1      -1.567   0.641  -0.591  1.00  0.00    +0.0048  C
ATOM     11 C14  CHE L   1      -1.955   2.075  -0.248  1.00  0.00    -0.0564  C
ATOM     12 H15  CHE L   1      -3.222  -2.405   0.020  1.00  0.00    +0.0250  H
ATOM     13 H16  CHE L   1      -3.285  -1.441  -1.466  1.00  0.00    +0.0250  H
ATOM     14 H17  CHE L   1      -1.755  -2.159  -0.932  1.00  0.00    +0.0250  H
ATOM     15 H18  CHE L   1      -3.352   0.014   0.539  1.00  0.00    +0.0525  H
ATOM     16 H19  CHE L   1      -1.675  -1.629   1.880  1.00  0.00    +0.1613 HD
ATOM     17 H20  CHE L   1       2.859  -1.028   1.676  1.00  0.00    +0.0838  H
ATOM     18 H23  CHE L   1       1.123   1.329  -1.501  1.00  0.00    +0.0630  H
ATOM     19 H24  CHE L   1      -1.666   0.472  -1.669  1.00  0.00    +0.0367  H
ATOM     20 H25  CHE L   1      -1.310   2.790  -0.770  1.00  0.00    +0.0236  H
ATOM     21 H26  CHE L   1      -2.989   2.274  -0.546  1.00  0.00    +0.0236  H
ATOM     22 H27  CHE L   1      -1.869   2.277   0.826  1.00  0.00    +0.0236  H
ENDROOT
BRANCH 7 23
ATOM     23  C8  CHE L   1       3.521   0.548  -0.519  1.00  0.00    +0.2510  C
ATOM     24  N9  CHE L   1       4.582  -0.253  -0.194  1.00  0.00    -0.3658  N
ATOM     25 O10  CHE L   1       3.675   1.518  -1.251  1.00  0.00    -0.2678 OA
ATOM     26 H21  CHE L   1       5.453  -0.034  -0.663  1.00  0.00    +0.1589 HD
ATOM     27 H22  CHE L   1       4.477  -1.194   0.156  1.00  0.00    +0.1589 HD
ENDBRANCH 7 23
TORSDOF 1
