ROOT
ATOM      1  N8  CHE L   1       0.030  -0.600  -0.050  1.00  0.00    -0.2909 NA
ATOM      2  C9  CHE L   1       0.099   0.553  -0.969  1.00  0.00    +0.0176  C
ATOM      3 C10  CHE L   1       1.129   1.587  -0.487  1.00  0.00    +0.0359  C
ATOM      4 N11  CHE L   1       2.441   0.980  -0.179  1.00  0.00    -0.3446  N
ATOM      5 C12  CHE L   1       3.543   1.805   0.030  1.00  0.00    +0.0504  A
ATOM      6 C13  CHE L   1       4.714   1.398   0.531  1.00  0.00    +0.1801  A
ATOM      7 O14  CHE L   1       5.788   2.239   0.725  1.00  0.00    -0.5022 OA
ATOM      8 C15  CHE L   1       4.834  -0.036   0.910  1.00  0.00    +0.2232  A
ATOM      9 O16  CHE L   1       5.886  -0.466   1.377  1.00  0.00    -0.2839 OA
ATOM     10 C17  CHE L   1       3.654  -0.905   0.705  1.00  0.00    +0.0094  A
ATOM     11 C18  CHE L   1       2.530  -0.380   0.179  1.00  0.00    +0.0366  A
ATOM     12 C19  CHE L   1       1.333  -1.290  -0.074  1.00  0.00    +0.0398  C
ATOM     13 H26  CHE L   1      -0.870   1.062  -1.031  1.00  0.00    +0.0444  H
ATOM     14 H27  CHE L   1       0.355   0.222  -1.985  1.00  0.00    +0.0444  H
ATOM     15 H28  CHE L   1       0.752   2.080   0.419  1.00  0.00    +0.0504  H
ATOM     16 H29  CHE L   1       1.244   2.358  -1.259  1.00  0.00    +0.0504  H
ATOM     17 H30  CHE L   1       3.395   2.846  -0.240  1.00  0.00    +0.0847  H
ATOM     18 H31  CHE L   1       6.483   1.665   1.109  1.00  0.00    +0.2923 HD
ATOM     19 H32  CHE L   1       3.761  -1.945   0.981  1.00  0.00    +0.0675  H
ATOM     20 H33  CHE L   1       1.321  -2.084   0.685  1.00  0.00    +0.0490  H
ATOM     21 H34  CHE L   1       1.485  -1.773  -1.050  1.00  0.00    +0.0490  H
ENDROOT
BRANCH 1 22
ATOM     22  C7  CHE L   1      -1.040  -1.536  -0.427  1.00  0.00    +0.0245  C
ATOM     23 H24  CHE L   1      -0.958  -2.456   0.168  1.00  0.00    +0.0476  H
ATOM     24 H25  CHE L   1      -0.938  -1.838  -1.478  1.00  0.00    +0.0476  H
BRANCH 22 28
ATOM     25  C3  CHE L   1      -5.012   0.004   0.332  1.00  0.00    +0.0518  A
ATOM     26  C4  CHE L   1      -4.071  -0.047   1.363  1.00  0.00    -0.0441  A
ATOM     27  C5  CHE L   1      -2.788  -0.543   1.115  1.00  0.00    -0.0561  A
ATOM     28  C6  CHE L   1      -2.428  -0.987  -0.167  1.00  0.00    -0.0333  A
ATOM     29 C20  CHE L   1      -3.381  -0.938  -1.195  1.00  0.00    -0.0561  A
ATOM     30 C21  CHE L   1      -4.665  -0.443  -0.947  1.00  0.00    -0.0441  A
ATOM     31 H22  CHE L   1      -4.325   0.297   2.364  1.00  0.00    +0.0630  H
ATOM     32 H23  CHE L   1      -2.060  -0.575   1.924  1.00  0.00    +0.0621  H
ATOM     33 H35  CHE L   1      -3.130  -1.282  -2.196  1.00  0.00    +0.0621  H
ATOM     34 H36  CHE L   1      -5.390  -0.410  -1.759  1.00  0.00    +0.0630  H
BRANCH 25 36
ATOM     35  N1  CHE L   1      -7.395   0.925   0.782  1.00  0.00    -0.1909 NA
ATOM     36  C2  CHE L   1      -6.328   0.513   0.583  1.00  0.00    +0.0992  C
ENDBRANCH 25 36
ENDBRANCH 22 28
ENDBRANCH 1 22
TORSDOF 3
