ROOT
ATOM      1  C3  CHE L   1       0.878  -0.225  -1.617  1.00  0.00    +0.1623  A
ATOM      2  C4  CHE L   1      -0.287   0.027  -0.893  1.00  0.00    -0.0052  A
ATOM      3  C5  CHE L   1      -0.452  -0.447   0.437  1.00  0.00    +0.0271  A
ATOM      4  C6  CHE L   1      -1.618  -0.235   1.220  1.00  0.00    +0.0474  A
ATOM      5 C16  CHE L   1      -1.687  -0.789   2.502  1.00  0.00    -0.0021  A
ATOM      6 C17  CHE L   1      -0.604  -1.498   2.981  1.00  0.00    +0.1427  A
ATOM      7 N20  CHE L   1       0.528  -1.701   2.269  1.00  0.00    -0.2361 NA
ATOM      8 C21  CHE L   1       0.593  -1.199   1.027  1.00  0.00    +0.0781  A
ATOM      9 C22  CHE L   1       1.738  -1.450   0.294  1.00  0.00    +0.0098  A
ATOM     10 C23  CHE L   1       1.889  -0.965  -1.004  1.00  0.00    +0.1639  A
ATOM     11 H36  CHE L   1      -1.097   0.574  -1.360  1.00  0.00    +0.0662  H
ATOM     12 H52  CHE L   1      -2.576  -0.652   3.111  1.00  0.00    +0.0667  H
ATOM     13 H53  CHE L   1       2.536  -2.040   0.737  1.00  0.00    +0.0677  H
ENDROOT
BRANCH 1 15
ATOM     14  C1  CHE L   1       0.237   1.160  -3.449  1.00  0.00    +0.0790  C
ATOM     15  O2  CHE L   1       1.110   0.181  -2.901  1.00  0.00    -0.4914 OA
ATOM     16 H33  CHE L   1       0.658   1.484  -4.407  1.00  0.00    +0.0660  H
ATOM     17 H34  CHE L   1      -0.754   0.737  -3.644  1.00  0.00    +0.0660  H
ATOM     18 H35  CHE L   1       0.174   2.044  -2.804  1.00  0.00    +0.0660  H
ENDBRANCH 1 15
BRANCH 4 19
ATOM     19  N7  CHE L   1      -2.760   0.444   0.741  1.00  0.00    -0.3836  N
ATOM     20 H37  CHE L   1      -2.552   1.078  -0.026  1.00  0.00    +0.1597 HD
BRANCH 19 21
ATOM     21  C8  CHE L   1      -3.889  -0.440   0.409  1.00  0.00    +0.0185  C
ATOM     22 H38  CHE L   1      -3.686  -1.480   0.703  1.00  0.00    +0.0488  H
ATOM     23 H39  CHE L   1      -4.031  -0.446  -0.679  1.00  0.00    +0.0488  H
BRANCH 21 24
ATOM     24  C9  CHE L   1      -5.159   0.059   1.120  1.00  0.00    -0.0213  C
ATOM     25 C10  CHE L   1      -5.595   1.437   0.583  1.00  0.00    -0.0357  C
ATOM     26 C11  CHE L   1      -7.100   1.636   0.734  1.00  0.00    -0.0011  C
ATOM     27 N12  CHE L   1      -7.862   0.671  -0.073  1.00  0.00    -0.3053 NA
ATOM     28 C13  CHE L   1      -9.246   0.601   0.399  1.00  0.00    -0.0128  C
ATOM     29 C14  CHE L   1      -7.244  -0.659  -0.151  1.00  0.00    -0.0011  C
ATOM     30 C15  CHE L   1      -6.302  -0.969   1.012  1.00  0.00    -0.0357  C
ATOM     31 H40  CHE L   1      -4.927   0.167   2.189  1.00  0.00    +0.0319  H
ATOM     32 H41  CHE L   1      -5.320   1.555  -0.473  1.00  0.00    +0.0281  H
ATOM     33 H42  CHE L   1      -5.064   2.225   1.130  1.00  0.00    +0.0281  H
ATOM     34 H43  CHE L   1      -7.359   2.651   0.415  1.00  0.00    +0.0426  H
ATOM     35 H44  CHE L   1      -7.360   1.556   1.799  1.00  0.00    +0.0426  H
ATOM     36 H45  CHE L   1      -9.841  -0.052  -0.246  1.00  0.00    +0.0391  H
ATOM     37 H46  CHE L   1      -9.305   0.224   1.430  1.00  0.00    +0.0391  H
ATOM     38 H47  CHE L   1      -9.715   1.590   0.366  1.00  0.00    +0.0391  H
ATOM     39 H48  CHE L   1      -6.672  -0.703  -1.089  1.00  0.00    +0.0426  H
ATOM     40 H49  CHE L   1      -8.000  -1.450  -0.235  1.00  0.00    +0.0426  H
ATOM     41 H50  CHE L   1      -5.913  -1.989   0.915  1.00  0.00    +0.0281  H
ATOM     42 H51  CHE L   1      -6.880  -0.958   1.948  1.00  0.00    +0.0281  H
ENDBRANCH 21 24
ENDBRANCH 19 21
ENDBRANCH 4 19
BRANCH 6 43
ATOM     43 C18  CHE L   1      -0.636  -2.082   4.295  1.00  0.00    +0.1192  C
ATOM     44 N19  CHE L   1      -0.704  -2.546   5.359  1.00  0.00    -0.1893 NA
ENDBRANCH 6 43
BRANCH 10 45
ATOM     45 O24  CHE L   1       3.034  -1.298  -1.684  1.00  0.00    -0.4882 OA
BRANCH 45 46
ATOM     46 C25  CHE L   1       4.034  -0.286  -1.495  1.00  0.00    +0.0909  C
ATOM     47 H54  CHE L   1       3.747   0.622  -2.039  1.00  0.00    +0.0697  H
ATOM     48 H55  CHE L   1       4.137  -0.048  -0.429  1.00  0.00    +0.0697  H
BRANCH 46 49
ATOM     49 C26  CHE L   1       5.348  -0.834  -2.048  1.00  0.00    -0.0058  C
ATOM     50 H56  CHE L   1       5.562  -1.808  -1.589  1.00  0.00    +0.0310  H
ATOM     51 H57  CHE L   1       5.224  -1.046  -3.119  1.00  0.00    +0.0310  H
BRANCH 49 52
ATOM     52 C27  CHE L   1       6.527   0.122  -1.854  1.00  0.00    +0.0020  C
ATOM     53 H58  CHE L   1       6.314   1.044  -2.411  1.00  0.00    +0.0428  H
ATOM     54 H59  CHE L   1       7.425  -0.323  -2.304  1.00  0.00    +0.0428  H
BRANCH 52 55
ATOM     55 N28  CHE L   1       6.764   0.454  -0.448  1.00  0.00    -0.3022 NA
ATOM     56 C29  CHE L   1       7.190  -0.688   0.370  1.00  0.00    -0.0011  C
ATOM     57 C30  CHE L   1       7.899  -0.059   1.569  1.00  0.00    -0.0390  C
ATOM     58 C31  CHE L   1       7.999   1.424   1.234  1.00  0.00    -0.0390  C
ATOM     59 C32  CHE L   1       7.808   1.466  -0.271  1.00  0.00    -0.0011  C
ATOM     60 H60  CHE L   1       7.902  -1.325  -0.169  1.00  0.00    +0.0426  H
ATOM     61 H61  CHE L   1       6.343  -1.306   0.687  1.00  0.00    +0.0426  H
ATOM     62 H62  CHE L   1       7.350  -0.212   2.505  1.00  0.00    +0.0278  H
ATOM     63 H63  CHE L   1       8.899  -0.501   1.678  1.00  0.00    +0.0278  H
ATOM     64 H64  CHE L   1       7.183   1.963   1.728  1.00  0.00    +0.0278  H
ATOM     65 H65  CHE L   1       8.943   1.866   1.560  1.00  0.00    +0.0278  H
ATOM     66 H66  CHE L   1       7.489   2.456  -0.613  1.00  0.00    +0.0426  H
ATOM     67 H67  CHE L   1       8.736   1.191  -0.785  1.00  0.00    +0.0426  H
ENDBRANCH 52 55
ENDBRANCH 49 52
ENDBRANCH 46 49
ENDBRANCH 45 46
ENDBRANCH 10 45
TORSDOF 10
