ROOT
ATOM      1 C13  448 L   1      -2.714   0.670   0.261  1.00  0.00    -0.0430  A
ATOM      2 C14  448 L   1      -3.380   1.765  -0.309  1.00  0.00    -0.0583  A
ATOM      3 C15  448 L   1      -4.776   1.806  -0.351  1.00  0.00    -0.0588  A
ATOM      4 C16  448 L   1      -5.519   0.751   0.174  1.00  0.00    -0.0264  A
ATOM      5 C17  448 L   1      -4.861  -0.337   0.734  1.00  0.00    +0.1237  A
ATOM      6 F18  448 L   1      -5.575  -1.353   1.236  1.00  0.00    -0.2055  F
ATOM      7 C19  448 L   1      -3.471  -0.389   0.781  1.00  0.00    -0.0232  A
ATOM      8 H31  448 L   1      -2.814   2.597  -0.726  1.00  0.00    +0.0620  H
ATOM      9 H32  448 L   1      -5.282   2.661  -0.793  1.00  0.00    +0.0619  H
ATOM     10 H33  448 L   1      -6.604   0.768   0.149  1.00  0.00    +0.0646  H
ATOM     11 H34  448 L   1      -2.993  -1.258   1.223  1.00  0.00    +0.0649  H
ENDROOT
BRANCH 1 12
ATOM     12 C12  448 L   1      -1.208   0.618   0.289  1.00  0.00    -0.0101  C
ATOM     13 H29  448 L   1      -0.874   0.092   1.194  1.00  0.00    +0.0330  H
ATOM     14 H30  448 L   1      -0.807   1.636   0.380  1.00  0.00    +0.0330  H
BRANCH 12 15
ATOM     15 C11  448 L   1      -0.634  -0.063  -0.953  1.00  0.00    +0.0221  C
ATOM     16 H27  448 L   1      -1.005  -1.091  -1.039  1.00  0.00    +0.0489  H
ATOM     17 H28  448 L   1      -0.932   0.469  -1.864  1.00  0.00    +0.0489  H
BRANCH 15 20
ATOM     18  O1  448 L   1       1.007  -1.778  -2.471  1.00  0.00    -0.2713 OA
ATOM     19  C2  448 L   1       1.530  -0.936  -1.747  1.00  0.00    +0.2405  C
ATOM     20 N10  448 L   1       0.816  -0.087  -0.924  1.00  0.00    -0.3542  N
ATOM     21 H26  448 L   1       1.302   0.764  -0.639  1.00  0.00    +0.1624 HD
BRANCH 19 22
ATOM     22  C3  448 L   1       3.041  -0.681  -1.757  1.00  0.00    +0.1004  C
ATOM     23 H20  448 L   1       3.216   0.285  -2.243  1.00  0.00    +0.0587  H
ATOM     24 H21  448 L   1       3.540  -1.460  -2.342  1.00  0.00    +0.0587  H
BRANCH 22 25
ATOM     25  N4  448 L   1       3.617  -0.662  -0.417  1.00  0.00    -0.3235  N
ATOM     26  C5  448 L   1       3.903  -1.906   0.243  1.00  0.00    +0.0685  C
ATOM     27  S6  448 L   1       4.655  -1.498   1.823  1.00  0.00    -0.1299 SA
ATOM     28  C7  448 L   1       4.160   0.239   1.749  1.00  0.00    +0.0742  C
ATOM     29  C8  448 L   1       3.583   0.471   0.372  1.00  0.00    +0.2345  C
ATOM     30  O9  448 L   1       3.102   1.538   0.004  1.00  0.00    -0.2721 OA
ATOM     31 H22  448 L   1       4.586  -2.502  -0.368  1.00  0.00    +0.0604  H
ATOM     32 H23  448 L   1       2.970  -2.455   0.402  1.00  0.00    +0.0604  H
ATOM     33 H24  448 L   1       3.394   0.440   2.503  1.00  0.00    +0.0474  H
ATOM     34 H25  448 L   1       5.026   0.887   1.902  1.00  0.00    +0.0474  H
ENDBRANCH 22 25
ENDBRANCH 19 22
ENDBRANCH 15 20
ENDBRANCH 12 15
ENDBRANCH 1 12
TORSDOF 5
