ROOT
ATOM      1 C11  WH0 L   1       3.524   0.062   2.070  1.00  0.00    -0.0453  A
ATOM      2 C12  WH0 L   1       2.555   1.017   1.684  1.00  0.00    -0.0580  A
ATOM      3 C13  WH0 L   1       1.264   0.614   1.306  1.00  0.00    -0.0507  A
ATOM      4 C14  WH0 L   1       0.958  -0.750   1.300  1.00  0.00    +0.0442  A
ATOM      5 C15  WH0 L   1       1.901  -1.679   1.693  1.00  0.00    +0.0509  A
ATOM      6 C16  WH0 L   1       3.188  -1.306   2.076  1.00  0.00    -0.0347  A
ATOM      7 N17  WH0 L   1       1.387  -2.995   1.686  1.00  0.00    -0.3210  N
ATOM      8 C18  WH0 L   1       0.038  -2.856   1.259  1.00  0.00    +0.2902  C
ATOM      9 O19  WH0 L   1      -0.724  -3.846   1.104  1.00  0.00    -0.2665 OA
ATOM     10 C20  WH0 L   1      -0.349  -1.425   0.964  1.00  0.00    +0.2804  C
ATOM     11 O21  WH0 L   1      -1.369  -0.971   1.850  1.00  0.00    -0.3368 OA
ATOM     12 C22  WH0 L   1      -2.650  -1.295   1.350  1.00  0.00    +0.0637  C
ATOM     13 C23  WH0 L   1      -2.926  -0.561   0.011  1.00  0.00    +0.0644  C
ATOM     14 C24  WH0 L   1      -3.706   0.741   0.246  1.00  0.00    +0.0637  C
ATOM     15 O25  WH0 L   1      -5.007   0.494   0.736  1.00  0.00    -0.3368 OA
ATOM     16 C26  WH0 L   1      -5.749  -0.412  -0.073  1.00  0.00    +0.2804  C
ATOM     17 O27  WH0 L   1      -5.077  -1.632  -0.370  1.00  0.00    -0.3368 OA
ATOM     18 C28  WH0 L   1      -3.792  -1.431  -0.913  1.00  0.00    +0.0637  C
ATOM     19 C29  WH0 L   1      -6.980  -0.781   0.710  1.00  0.00    +0.2902  C
ATOM     20 O30  WH0 L   1      -6.952  -1.357   1.830  1.00  0.00    -0.2665 OA
ATOM     21 N31  WH0 L   1      -8.194  -0.420   0.069  1.00  0.00    -0.3210  N
ATOM     22 C32  WH0 L   1      -7.797   0.198  -1.136  1.00  0.00    +0.0507  A
ATOM     23 C33  WH0 L   1      -8.658   0.729  -2.096  1.00  0.00    -0.0378  A
ATOM     24 C34  WH0 L   1      -8.101   1.321  -3.237  1.00  0.00    -0.0598  A
ATOM     25 C35  WH0 L   1      -6.705   1.375  -3.396  1.00  0.00    -0.0612  A
ATOM     26 C36  WH0 L   1      -5.855   0.835  -2.417  1.00  0.00    -0.0510  A
ATOM     27 C37  WH0 L   1      -6.419   0.239  -1.277  1.00  0.00    +0.0441  A
ATOM     28 C38  WH0 L   1      -1.568  -0.247  -0.656  1.00  0.00    +0.0637  C
ATOM     29 O39  WH0 L   1      -0.647  -1.291  -0.424  1.00  0.00    -0.3368 OA
ATOM     30 H49  WH0 L   1       2.801   2.071   1.678  1.00  0.00    +0.0620  H
ATOM     31 H50  WH0 L   1       0.527   1.357   1.041  1.00  0.00    +0.0623  H
ATOM     32 H51  WH0 L   1       3.909  -2.058   2.374  1.00  0.00    +0.0641  H
ATOM     33 H52  WH0 L   1       1.886  -3.876   1.940  1.00  0.00    +0.1688 HD
ATOM     34 H53  WH0 L   1      -2.751  -2.397   1.242  1.00  0.00    +0.0569  H
ATOM     35 H54  WH0 L   1      -3.404  -1.014   2.117  1.00  0.00    +0.0569  H
ATOM     36 H55  WH0 L   1      -3.169   1.355   1.001  1.00  0.00    +0.0569  H
ATOM     37 H56  WH0 L   1      -3.749   1.364  -0.670  1.00  0.00    +0.0569  H
ATOM     38 H57  WH0 L   1      -3.311  -2.424  -1.044  1.00  0.00    +0.0569  H
ATOM     39 H58  WH0 L   1      -3.867  -1.007  -1.933  1.00  0.00    +0.0569  H
ATOM     40 H59  WH0 L   1      -9.166  -0.571   0.418  1.00  0.00    +0.1688 HD
ATOM     41 H60  WH0 L   1      -9.731   0.686  -1.963  1.00  0.00    +0.0638  H
ATOM     42 H61  WH0 L   1      -8.747   1.740  -3.997  1.00  0.00    +0.0618  H
ATOM     43 H62  WH0 L   1      -6.283   1.836  -4.279  1.00  0.00    +0.0618  H
ATOM     44 H63  WH0 L   1      -4.789   0.896  -2.567  1.00  0.00    +0.0623  H
ATOM     45 H64  WH0 L   1      -1.689  -0.117  -1.753  1.00  0.00    +0.0569  H
ATOM     46 H65  WH0 L   1      -1.157   0.716  -0.287  1.00  0.00    +0.0569  H
ENDROOT
BRANCH 1 47
ATOM     47 C10  WH0 L   1       4.915   0.499   2.451  1.00  0.00    -0.0260  C
ATOM     48 H47  WH0 L   1       5.251  -0.093   3.330  1.00  0.00    +0.0314  H
ATOM     49 H48  WH0 L   1       4.920   1.566   2.765  1.00  0.00    +0.0314  H
BRANCH 47 50
ATOM     50  C9  WH0 L   1       5.916   0.290   1.305  1.00  0.00    -0.0315  C
ATOM     51 H45  WH0 L   1       5.876  -0.765   0.956  1.00  0.00    +0.0285  H
ATOM     52 H46  WH0 L   1       6.937   0.474   1.702  1.00  0.00    +0.0285  H
BRANCH 50 53
ATOM     53  C8  WH0 L   1       5.655   1.234   0.124  1.00  0.00    +0.0187  C
ATOM     54 H43  WH0 L   1       5.662   2.294   0.461  1.00  0.00    +0.0486  H
ATOM     55 H44  WH0 L   1       4.653   1.019  -0.305  1.00  0.00    +0.0486  H
BRANCH 53 58
ATOM     56  C5  WH0 L   1       8.006   1.541  -0.792  1.00  0.00    +0.2618  C
ATOM     57  O6  WH0 L   1       8.321   2.227   0.219  1.00  0.00    -0.2669 OA
ATOM     58  N7  WH0 L   1       6.664   1.039  -0.917  1.00  0.00    -0.3514  N
ATOM     59 H42  WH0 L   1       6.364   0.566  -1.798  1.00  0.00    +0.1626 HD
BRANCH 56 61
ATOM     60  C1  WH0 L   1      10.260   1.761  -1.751  1.00  0.00    -0.0760  C
ATOM     61  C2  WH0 L   1       9.023   1.265  -1.839  1.00  0.00    +0.1085  C
ATOM     62 H40  WH0 L   1      10.999   1.553  -2.518  1.00  0.00    +0.0549  H
ATOM     63 H41  WH0 L   1      10.563   2.382  -0.918  1.00  0.00    +0.0549  H
BRANCH 61 64
ATOM     64  C3  WH0 L   1       8.690   0.442  -2.976  1.00  0.00    +0.1040  C
ATOM     65  N4  WH0 L   1       8.423  -0.218  -3.889  1.00  0.00    -0.1907 NA
ENDBRANCH 61 64
ENDBRANCH 56 61
ENDBRANCH 53 58
ENDBRANCH 50 53
ENDBRANCH 47 50
ENDBRANCH 1 47
TORSDOF 6
