ROOT
ATOM      1 C15  CHE L   1      -0.467   0.472  -0.108  1.00  0.00    +0.0686  A
ATOM      2 C16  CHE L   1       0.658   1.043  -0.707  1.00  0.00    +0.0307  A
ATOM      3 C17  CHE L   1       0.832   2.428  -1.241  1.00  0.00    -0.0234  C
ATOM      4 N18  CHE L   1       1.659   0.082  -0.750  1.00  0.00    -0.3255  N
ATOM      5 C28  CHE L   1       1.203  -1.076  -0.161  1.00  0.00    +0.1419  A
ATOM      6 N29  CHE L   1       1.920  -2.209  -0.006  1.00  0.00    -0.2373 NA
ATOM      7 C30  CHE L   1       1.234  -3.224   0.554  1.00  0.00    +0.0299  A
ATOM      8 C31  CHE L   1      -0.089  -3.173   0.955  1.00  0.00    -0.0429  A
ATOM      9 C32  CHE L   1      -0.794  -1.983   0.787  1.00  0.00    -0.0489  A
ATOM     10 C33  CHE L   1      -0.122  -0.879   0.223  1.00  0.00    +0.0314  A
ATOM     11 H45  CHE L   1       1.830   2.822  -1.025  1.00  0.00    +0.0292  H
ATOM     12 H46  CHE L   1       0.121   3.130  -0.793  1.00  0.00    +0.0292  H
ATOM     13 H47  CHE L   1       0.681   2.433  -2.326  1.00  0.00    +0.0292  H
ATOM     14 H63  CHE L   1       1.806  -4.140   0.676  1.00  0.00    +0.0830  H
ATOM     15 H64  CHE L   1      -0.568  -4.044   1.385  1.00  0.00    +0.0633  H
ATOM     16 H65  CHE L   1      -1.838  -1.930   1.078  1.00  0.00    +0.0625  H
ENDROOT
BRANCH 1 18
ATOM     17 N12  CHE L   1      -2.412   0.812   1.235  1.00  0.00    -0.3477  N
ATOM     18 C13  CHE L   1      -1.741   1.167   0.092  1.00  0.00    +0.2546  C
ATOM     19 O14  CHE L   1      -2.158   2.017  -0.688  1.00  0.00    -0.2675 OA
ATOM     20 H44  CHE L   1      -1.999   0.144   1.873  1.00  0.00    +0.1630 HD
BRANCH 17 21
ATOM     21 C11  CHE L   1      -3.702   1.355   1.599  1.00  0.00    +0.0499  C
ATOM     22 H42  CHE L   1      -3.819   2.343   1.146  1.00  0.00    +0.0538  H
ATOM     23 H43  CHE L   1      -3.699   1.507   2.684  1.00  0.00    +0.0538  H
BRANCH 21 31
ATOM     24  C3  CHE L   1      -5.778   0.580   0.319  1.00  0.00    +0.0192  A
ATOM     25  C4  CHE L   1      -6.786  -0.441   0.087  1.00  0.00    -0.0288  A
ATOM     26  C5  CHE L   1      -6.763  -1.597   0.764  1.00  0.00    +0.0170  A
ATOM     27  C6  CHE L   1      -7.769  -2.690   0.582  1.00  0.00    -0.0243  C
ATOM     28  N7  CHE L   1      -5.766  -1.806   1.682  1.00  0.00    -0.3262  N
ATOM     29  C8  CHE L   1      -4.770  -0.908   1.967  1.00  0.00    +0.2548  A
ATOM     30  O9  CHE L   1      -3.905  -1.167   2.800  1.00  0.00    -0.2675 OA
ATOM     31 C10  CHE L   1      -4.787   0.389   1.215  1.00  0.00    +0.0493  A
ATOM     32 H37  CHE L   1      -7.567  -0.245  -0.643  1.00  0.00    +0.0646  H
ATOM     33 H38  CHE L   1      -7.275  -3.617   0.275  1.00  0.00    +0.0292  H
ATOM     34 H39  CHE L   1      -8.510  -2.438  -0.184  1.00  0.00    +0.0292  H
ATOM     35 H40  CHE L   1      -8.306  -2.874   1.518  1.00  0.00    +0.0292  H
ATOM     36 H41  CHE L   1      -5.731  -2.675   2.203  1.00  0.00    +0.1686 HD
BRANCH 24 38
ATOM     37  C1  CHE L   1      -5.185   1.568  -2.140  1.00  0.00    -0.0134  C
ATOM     38  S2  CHE L   1      -5.959   2.064  -0.580  1.00  0.00    -0.1280 SA
ATOM     39 H34  CHE L   1      -4.918   2.455  -2.719  1.00  0.00    +0.0344  H
ATOM     40 H35  CHE L   1      -4.278   0.984  -1.966  1.00  0.00    +0.0344  H
ATOM     41 H36  CHE L   1      -5.885   0.965  -2.727  1.00  0.00    +0.0344  H
ENDBRANCH 24 38
ENDBRANCH 21 31
ENDBRANCH 17 21
ENDBRANCH 1 18
BRANCH 4 42
ATOM     42 C19  CHE L   1       2.983   0.270  -1.365  1.00  0.00    +0.0361  C
ATOM     43 C20  CHE L   1       3.459  -0.925  -2.205  1.00  0.00    -0.0439  C
ATOM     44 H48  CHE L   1       2.818   1.059  -2.111  1.00  0.00    +0.0528  H
ATOM     45 H49  CHE L   1       2.651  -1.300  -2.842  1.00  0.00    +0.0250  H
ATOM     46 H50  CHE L   1       3.819  -1.758  -1.595  1.00  0.00    +0.0250  H
ATOM     47 H51  CHE L   1       4.281  -0.630  -2.866  1.00  0.00    +0.0250  H
BRANCH 42 48
ATOM     48 C21  CHE L   1       4.028   0.826  -0.353  1.00  0.00    -0.0202  C
ATOM     49 C22  CHE L   1       5.239   1.435  -1.089  1.00  0.00    -0.0460  C
ATOM     50 C23  CHE L   1       6.246   2.054  -0.117  1.00  0.00    -0.0265  C
ATOM     51 C24  CHE L   1       6.709   1.051   0.938  1.00  0.00    +0.0553  C
ATOM     52 O25  CHE L   1       7.476   0.039   0.290  1.00  0.00    -0.3918 OA
ATOM     53 C26  CHE L   1       5.522   0.424   1.665  1.00  0.00    -0.0265  C
ATOM     54 C27  CHE L   1       4.503  -0.191   0.699  1.00  0.00    -0.0460  C
ATOM     55 H52  CHE L   1       3.546   1.648   0.197  1.00  0.00    +0.0321  H
ATOM     56 H53  CHE L   1       4.899   2.209  -1.789  1.00  0.00    +0.0269  H
ATOM     57 H54  CHE L   1       5.746   0.668  -1.686  1.00  0.00    +0.0269  H
ATOM     58 H55  CHE L   1       5.789   2.924   0.373  1.00  0.00    +0.0290  H
ATOM     59 H56  CHE L   1       7.107   2.415  -0.693  1.00  0.00    +0.0290  H
ATOM     60 H57  CHE L   1       7.368   1.551   1.656  1.00  0.00    +0.0593  H
ATOM     61 H58  CHE L   1       7.709  -0.631   0.953  1.00  0.00    +0.2098 HD
ATOM     62 H59  CHE L   1       5.872  -0.359   2.348  1.00  0.00    +0.0290  H
ATOM     63 H60  CHE L   1       5.023   1.189   2.274  1.00  0.00    +0.0290  H
ATOM     64 H61  CHE L   1       4.955  -1.064   0.215  1.00  0.00    +0.0269  H
ATOM     65 H62  CHE L   1       3.654  -0.551   1.289  1.00  0.00    +0.0269  H
ENDBRANCH 42 48
ENDBRANCH 4 42
TORSDOF 6
