ROOT
ATOM      1  C8  WH0 L   1       4.276   0.485   1.336  1.00  0.00    -0.0451  A
ATOM      2  C9  WH0 L   1       4.739   0.329   2.661  1.00  0.00    -0.0566  A
ATOM      3 C10  WH0 L   1       3.855   0.047   3.706  1.00  0.00    -0.0376  A
ATOM      4 C11  WH0 L   1       2.517  -0.077   3.394  1.00  0.00    +0.0507  A
ATOM      5 C12  WH0 L   1       2.033   0.071   2.095  1.00  0.00    +0.0444  A
ATOM      6 C13  WH0 L   1       2.906   0.350   1.054  1.00  0.00    -0.0478  A
ATOM      7 C14  WH0 L   1       0.532  -0.128   2.071  1.00  0.00    +0.2804  C
ATOM      8 O15  WH0 L   1       0.249  -1.226   1.213  1.00  0.00    -0.3368 OA
ATOM      9 C16  WH0 L   1      -1.156  -1.374   0.998  1.00  0.00    +0.0637  C
ATOM     10 C17  WH0 L   1      -1.731  -0.104   0.341  1.00  0.00    +0.0644  C
ATOM     11 C18  WH0 L   1      -2.136  -0.369  -1.109  1.00  0.00    +0.0637  C
ATOM     12 O19  WH0 L   1      -3.184  -1.317  -1.206  1.00  0.00    -0.3368 OA
ATOM     13 C20  WH0 L   1      -4.320  -1.036  -0.392  1.00  0.00    +0.2804  C
ATOM     14 O21  WH0 L   1      -4.028  -0.652   0.948  1.00  0.00    -0.3368 OA
ATOM     15 C22  WH0 L   1      -3.004   0.321   1.076  1.00  0.00    +0.0637  C
ATOM     16 C23  WH0 L   1      -5.119  -2.402  -0.285  1.00  0.00    +0.2902  C
ATOM     17 O24  WH0 L   1      -4.738  -3.468   0.182  1.00  0.00    -0.2665 OA
ATOM     18 N25  WH0 L   1      -6.380  -2.197  -0.835  1.00  0.00    -0.3210  N
ATOM     19 C26  WH0 L   1      -6.523  -0.899  -1.293  1.00  0.00    +0.0507  A
ATOM     20 C27  WH0 L   1      -7.646  -0.367  -1.895  1.00  0.00    -0.0378  A
ATOM     21 C28  WH0 L   1      -7.592   0.970  -2.290  1.00  0.00    -0.0598  A
ATOM     22 C29  WH0 L   1      -6.431   1.731  -2.076  1.00  0.00    -0.0612  A
ATOM     23 C30  WH0 L   1      -5.305   1.168  -1.464  1.00  0.00    -0.0510  A
ATOM     24 C31  WH0 L   1      -5.357  -0.161  -1.069  1.00  0.00    +0.0441  A
ATOM     25 C32  WH0 L   1      -0.678   1.005   0.382  1.00  0.00    +0.0637  C
ATOM     26 O33  WH0 L   1      -0.092   1.094   1.673  1.00  0.00    -0.3368 OA
ATOM     27 C34  WH0 L   1       0.259  -0.402   3.616  1.00  0.00    +0.2902  C
ATOM     28 O35  WH0 L   1      -0.816  -0.606   4.161  1.00  0.00    -0.2665 OA
ATOM     29 N36  WH0 L   1       1.485  -0.355   4.275  1.00  0.00    -0.3210  N
ATOM     30 H44  WH0 L   1       5.800   0.429   2.882  1.00  0.00    +0.0621  H
ATOM     31 H45  WH0 L   1       4.217  -0.071   4.721  1.00  0.00    +0.0638  H
ATOM     32 H46  WH0 L   1       2.533   0.456   0.038  1.00  0.00    +0.0625  H
ATOM     33 H47  WH0 L   1      -1.285  -2.253   0.358  1.00  0.00    +0.0569  H
ATOM     34 H48  WH0 L   1      -1.641  -1.619   1.949  1.00  0.00    +0.0569  H
ATOM     35 H49  WH0 L   1      -1.287  -0.764  -1.678  1.00  0.00    +0.0569  H
ATOM     36 H50  WH0 L   1      -2.440   0.554  -1.615  1.00  0.00    +0.0569  H
ATOM     37 H51  WH0 L   1      -3.376   1.285   0.712  1.00  0.00    +0.0569  H
ATOM     38 H52  WH0 L   1      -2.810   0.456   2.146  1.00  0.00    +0.0569  H
ATOM     39 H53  WH0 L   1      -7.075  -2.927  -0.881  1.00  0.00    +0.1688 HD
ATOM     40 H54  WH0 L   1      -8.540  -0.958  -2.057  1.00  0.00    +0.0638  H
ATOM     41 H55  WH0 L   1      -8.455   1.428  -2.767  1.00  0.00    +0.0618  H
ATOM     42 H56  WH0 L   1      -6.409   2.772  -2.392  1.00  0.00    +0.0618  H
ATOM     43 H57  WH0 L   1      -4.422   1.776  -1.309  1.00  0.00    +0.0623  H
ATOM     44 H58  WH0 L   1      -1.123   1.979   0.150  1.00  0.00    +0.0569  H
ATOM     45 H59  WH0 L   1       0.114   0.841  -0.360  1.00  0.00    +0.0569  H
ATOM     46 H60  WH0 L   1       1.574  -0.496   5.269  1.00  0.00    +0.1688 HD
ENDROOT
BRANCH 1 47
ATOM     47  C7  WH0 L   1       5.247   0.768   0.215  1.00  0.00    -0.0102  C
ATOM     48 H42  WH0 L   1       4.812   1.522  -0.452  1.00  0.00    +0.0330  H
ATOM     49 H43  WH0 L   1       6.159   1.227   0.619  1.00  0.00    +0.0330  H
BRANCH 47 50
ATOM     50  C6  WH0 L   1       5.606  -0.504  -0.558  1.00  0.00    +0.0221  C
ATOM     51 H40  WH0 L   1       4.710  -0.964  -0.991  1.00  0.00    +0.0489  H
ATOM     52 H41  WH0 L   1       6.067  -1.240   0.110  1.00  0.00    +0.0489  H
BRANCH 50 55
ATOM     53  O1  WH0 L   1       5.027   0.748  -3.012  1.00  0.00    -0.2720 OA
ATOM     54  C2  WH0 L   1       6.161   0.308  -2.827  1.00  0.00    +0.2356  C
ATOM     55  N5  WH0 L   1       6.551  -0.252  -1.629  1.00  0.00    -0.3547  N
ATOM     56 H39  WH0 L   1       7.437  -0.750  -1.619  1.00  0.00    +0.1623 HD
BRANCH 54 57
ATOM     57  C3  WH0 L   1       7.241   0.438  -3.887  1.00  0.00    +0.1010  C
ATOM     58 CL4  WH0 L   1       8.471  -0.841  -3.743  1.00  0.00    -0.1154 Cl
ATOM     59 H37  WH0 L   1       6.787   0.350  -4.878  1.00  0.00    +0.0527  H
ATOM     60 H38  WH0 L   1       7.733   1.408  -3.785  1.00  0.00    +0.0527  H
ENDBRANCH 54 57
ENDBRANCH 50 55
ENDBRANCH 47 50
ENDBRANCH 1 47
TORSDOF 4
