ROOT
ATOM      1  C8  CHE L   1       1.064   0.256  -0.110  1.00  0.00    +0.2264  A
ATOM      2  N9  CHE L   1       0.108  -0.525   0.399  1.00  0.00    -0.1950 NA
ATOM      3 C10  CHE L   1      -1.053   0.058   0.729  1.00  0.00    +0.1404  A
ATOM      4 C19  CHE L   1      -1.272   1.437   0.618  1.00  0.00    +0.0462  A
ATOM      5 C20  CHE L   1      -2.444   2.118   1.031  1.00  0.00    -0.0036  A
ATOM      6 C21  CHE L   1      -2.573   3.495   0.855  1.00  0.00    +0.1623  A
ATOM      7 C24  CHE L   1      -1.514   4.208   0.273  1.00  0.00    +0.1635  A
ATOM      8 C27  CHE L   1      -0.347   3.527  -0.097  1.00  0.00    +0.0099  A
ATOM      9 C28  CHE L   1      -0.208   2.155   0.074  1.00  0.00    +0.0820  A
ATOM     10 N29  CHE L   1       0.941   1.575  -0.288  1.00  0.00    -0.2123 NA
ATOM     11 H57  CHE L   1      -3.230   1.538   1.503  1.00  0.00    +0.0663  H
ATOM     12 H64  CHE L   1       0.495   4.053  -0.533  1.00  0.00    +0.0677  H
ENDROOT
BRANCH 1 13
ATOM     13  N7  CHE L   1       2.279  -0.283  -0.509  1.00  0.00    -0.3540  N
ATOM     14 H43  CHE L   1       2.923   0.496  -0.569  1.00  0.00    +0.1625 HD
BRANCH 13 15
ATOM     15  C6  CHE L   1       2.722  -1.435   0.255  1.00  0.00    +0.0183  C
ATOM     16 H41  CHE L   1       2.758  -1.210   1.329  1.00  0.00    +0.0486  H
ATOM     17 H42  CHE L   1       2.023  -2.268   0.105  1.00  0.00    +0.0486  H
BRANCH 15 18
ATOM     18  C5  CHE L   1       4.100  -1.892  -0.232  1.00  0.00    -0.0355  C
ATOM     19 H39  CHE L   1       4.105  -1.965  -1.327  1.00  0.00    +0.0282  H
ATOM     20 H40  CHE L   1       4.290  -2.901   0.157  1.00  0.00    +0.0282  H
BRANCH 18 21
ATOM     21  C4  CHE L   1       5.231  -0.969   0.232  1.00  0.00    -0.0515  C
ATOM     22 H37  CHE L   1       5.245  -0.933   1.328  1.00  0.00    +0.0266  H
ATOM     23 H38  CHE L   1       5.057   0.054  -0.123  1.00  0.00    +0.0266  H
BRANCH 21 24
ATOM     24  C3  CHE L   1       6.588  -1.456  -0.282  1.00  0.00    -0.0533  C
ATOM     25 H35  CHE L   1       6.756  -2.491   0.039  1.00  0.00    +0.0265  H
ATOM     26 H36  CHE L   1       6.583  -1.453  -1.378  1.00  0.00    +0.0265  H
BRANCH 24 28
ATOM     27  C1  CHE L   1       9.071  -1.024  -0.326  1.00  0.00    -0.0653  C
ATOM     28  C2  CHE L   1       7.728  -0.573   0.228  1.00  0.00    -0.0559  C
ATOM     29 H30  CHE L   1       9.085  -0.961  -1.419  1.00  0.00    +0.0230  H
ATOM     30 H31  CHE L   1       9.873  -0.389   0.061  1.00  0.00    +0.0230  H
ATOM     31 H32  CHE L   1       9.288  -2.059  -0.040  1.00  0.00    +0.0230  H
ATOM     32 H33  CHE L   1       7.551   0.470  -0.060  1.00  0.00    +0.0263  H
ATOM     33 H34  CHE L   1       7.761  -0.604   1.324  1.00  0.00    +0.0263  H
ENDBRANCH 24 28
ENDBRANCH 21 24
ENDBRANCH 18 21
ENDBRANCH 15 18
ENDBRANCH 13 15
ENDBRANCH 1 13
BRANCH 3 34
ATOM     34 N11  CHE L   1      -2.041  -0.834   1.191  1.00  0.00    -0.3662  N
ATOM     35 H44  CHE L   1      -1.516  -1.703   1.318  1.00  0.00    +0.1613 HD
BRANCH 34 36
ATOM     36 C12  CHE L   1      -3.114  -1.073   0.204  1.00  0.00    +0.0308  C
ATOM     37 C13  CHE L   1      -2.668  -2.052  -0.890  1.00  0.00    -0.0198  C
ATOM     38 C14  CHE L   1      -3.839  -2.409  -1.806  1.00  0.00    +0.0005  C
ATOM     39 N15  CHE L   1      -5.022  -2.913  -1.099  1.00  0.00    -0.3052 NA
ATOM     40 C16  CHE L   1      -4.844  -4.285  -0.626  1.00  0.00    -0.0128  C
ATOM     41 C17  CHE L   1      -5.442  -2.004  -0.027  1.00  0.00    +0.0005  C
ATOM     42 C18  CHE L   1      -4.326  -1.639   0.951  1.00  0.00    -0.0198  C
ATOM     43 H45  CHE L   1      -3.427  -0.134  -0.272  1.00  0.00    +0.0523  H
ATOM     44 H46  CHE L   1      -2.248  -2.962  -0.444  1.00  0.00    +0.0297  H
ATOM     45 H47  CHE L   1      -1.867  -1.607  -1.493  1.00  0.00    +0.0297  H
ATOM     46 H48  CHE L   1      -4.133  -1.514  -2.370  1.00  0.00    +0.0427  H
ATOM     47 H49  CHE L   1      -3.512  -3.134  -2.562  1.00  0.00    +0.0427  H
ATOM     48 H50  CHE L   1      -4.622  -4.952  -1.467  1.00  0.00    +0.0391  H
ATOM     49 H51  CHE L   1      -4.041  -4.387   0.111  1.00  0.00    +0.0391  H
ATOM     50 H52  CHE L   1      -5.771  -4.656  -0.174  1.00  0.00    +0.0391  H
ATOM     51 H53  CHE L   1      -5.824  -1.084  -0.488  1.00  0.00    +0.0427  H
ATOM     52 H54  CHE L   1      -6.292  -2.428   0.522  1.00  0.00    +0.0427  H
ATOM     53 H55  CHE L   1      -4.700  -0.899   1.668  1.00  0.00    +0.0297  H
ATOM     54 H56  CHE L   1      -4.036  -2.518   1.540  1.00  0.00    +0.0297  H
ENDBRANCH 34 36
ENDBRANCH 3 34
BRANCH 6 55
ATOM     55 O22  CHE L   1      -3.676   4.226   1.215  1.00  0.00    -0.4914 OA
ATOM     56 C23  CHE L   1      -4.814   3.514   1.685  1.00  0.00    +0.0790  C
ATOM     57 H58  CHE L   1      -5.168   2.795   0.937  1.00  0.00    +0.0660  H
ATOM     58 H59  CHE L   1      -4.603   3.021   2.641  1.00  0.00    +0.0660  H
ATOM     59 H60  CHE L   1      -5.617   4.238   1.855  1.00  0.00    +0.0660  H
ENDBRANCH 6 55
BRANCH 7 60
ATOM     60 O25  CHE L   1      -1.706   5.558   0.116  1.00  0.00    -0.4914 OA
ATOM     61 C26  CHE L   1      -0.712   6.285  -0.594  1.00  0.00    +0.0790  C
ATOM     62 H61  CHE L   1      -0.571   5.883  -1.603  1.00  0.00    +0.0660  H
ATOM     63 H62  CHE L   1       0.231   6.304  -0.038  1.00  0.00    +0.0660  H
ATOM     64 H63  CHE L   1      -1.061   7.316  -0.696  1.00  0.00    +0.0660  H
ENDBRANCH 7 60
TORSDOF 10
