ROOT
ATOM      1 C10  WH0 L   1       3.526  -0.268   1.732  1.00  0.00    -0.0451  A
ATOM      2 C11  WH0 L   1       4.423   0.790   2.007  1.00  0.00    -0.0566  A
ATOM      3 C12  WH0 L   1       4.016   2.124   1.928  1.00  0.00    -0.0376  A
ATOM      4 C13  WH0 L   1       2.708   2.371   1.569  1.00  0.00    +0.0507  A
ATOM      5 C14  WH0 L   1       1.803   1.347   1.294  1.00  0.00    +0.0444  A
ATOM      6 C15  WH0 L   1       2.199   0.019   1.375  1.00  0.00    -0.0478  A
ATOM      7 C16  WH0 L   1       0.452   1.921   0.922  1.00  0.00    +0.2804  C
ATOM      8 O17  WH0 L   1       0.172   1.471  -0.397  1.00  0.00    -0.3368 OA
ATOM      9 C18  WH0 L   1      -1.132   1.852  -0.828  1.00  0.00    +0.0637  C
ATOM     10 C19  WH0 L   1      -2.211   1.345   0.139  1.00  0.00    +0.0644  C
ATOM     11 C20  WH0 L   1      -3.578   1.908  -0.266  1.00  0.00    +0.0637  C
ATOM     12 O21  WH0 L   1      -4.585   0.912  -0.109  1.00  0.00    -0.3368 OA
ATOM     13 C22  WH0 L   1      -4.361  -0.182  -0.993  1.00  0.00    +0.2804  C
ATOM     14 O23  WH0 L   1      -3.014  -0.655  -1.000  1.00  0.00    -0.3368 OA
ATOM     15 C24  WH0 L   1      -2.269  -0.192   0.122  1.00  0.00    +0.0637  C
ATOM     16 C25  WH0 L   1      -4.834   0.096  -2.488  1.00  0.00    +0.2902  C
ATOM     17 O26  WH0 L   1      -4.400   0.936  -3.265  1.00  0.00    -0.2665 OA
ATOM     18 N27  WH0 L   1      -5.855  -0.803  -2.781  1.00  0.00    -0.3210  N
ATOM     19 C28  WH0 L   1      -6.127  -1.623  -1.698  1.00  0.00    +0.0507  A
ATOM     20 C29  WH0 L   1      -7.080  -2.619  -1.640  1.00  0.00    -0.0378  A
ATOM     21 C30  WH0 L   1      -7.201  -3.326  -0.442  1.00  0.00    -0.0598  A
ATOM     22 C31  WH0 L   1      -6.377  -3.023   0.656  1.00  0.00    -0.0612  A
ATOM     23 C32  WH0 L   1      -5.417  -2.009   0.573  1.00  0.00    -0.0510  A
ATOM     24 C33  WH0 L   1      -5.296  -1.312  -0.620  1.00  0.00    +0.0441  A
ATOM     25 C34  WH0 L   1      -1.815   1.814   1.544  1.00  0.00    +0.0637  C
ATOM     26 O35  WH0 L   1      -0.487   1.409   1.858  1.00  0.00    -0.3368 OA
ATOM     27 C36  WH0 L   1       0.774   3.484   1.050  1.00  0.00    +0.2902  C
ATOM     28 O37  WH0 L   1       0.008   4.418   0.856  1.00  0.00    -0.2665 OA
ATOM     29 N38  WH0 L   1       2.107   3.611   1.427  1.00  0.00    -0.3210  N
ATOM     30 H46  WH0 L   1       5.453   0.569   2.287  1.00  0.00    +0.0621  H
ATOM     31 H47  WH0 L   1       4.712   2.928   2.143  1.00  0.00    +0.0638  H
ATOM     32 H48  WH0 L   1       1.484  -0.772   1.163  1.00  0.00    +0.0625  H
ATOM     33 H49  WH0 L   1      -1.280   1.430  -1.829  1.00  0.00    +0.0569  H
ATOM     34 H50  WH0 L   1      -1.171   2.942  -0.940  1.00  0.00    +0.0569  H
ATOM     35 H51  WH0 L   1      -3.588   2.279  -1.296  1.00  0.00    +0.0569  H
ATOM     36 H52  WH0 L   1      -3.861   2.759   0.363  1.00  0.00    +0.0569  H
ATOM     37 H53  WH0 L   1      -1.270  -0.637   0.062  1.00  0.00    +0.0569  H
ATOM     38 H54  WH0 L   1      -2.727  -0.590   1.036  1.00  0.00    +0.0569  H
ATOM     39 H55  WH0 L   1      -6.320  -0.829  -3.675  1.00  0.00    +0.1688 HD
ATOM     40 H56  WH0 L   1      -7.718  -2.849  -2.486  1.00  0.00    +0.0638  H
ATOM     41 H57  WH0 L   1      -7.941  -4.118  -0.354  1.00  0.00    +0.0618  H
ATOM     42 H58  WH0 L   1      -6.490  -3.583   1.582  1.00  0.00    +0.0618  H
ATOM     43 H59  WH0 L   1      -4.789  -1.774   1.426  1.00  0.00    +0.0623  H
ATOM     44 H60  WH0 L   1      -1.899   2.902   1.650  1.00  0.00    +0.0569  H
ATOM     45 H61  WH0 L   1      -2.480   1.381   2.300  1.00  0.00    +0.0569  H
ATOM     46 H62  WH0 L   1       2.553   4.504   1.576  1.00  0.00    +0.1688 HD
ENDROOT
BRANCH 1 47
ATOM     47  C9  WH0 L   1       4.006  -1.702   1.799  1.00  0.00    -0.0102  C
ATOM     48 H44  WH0 L   1       3.316  -2.275   2.431  1.00  0.00    +0.0330  H
ATOM     49 H45  WH0 L   1       4.980  -1.741   2.302  1.00  0.00    +0.0330  H
BRANCH 47 50
ATOM     50  C8  WH0 L   1       4.106  -2.365   0.419  1.00  0.00    +0.0224  C
ATOM     51 H42  WH0 L   1       3.122  -2.427  -0.058  1.00  0.00    +0.0489  H
ATOM     52 H43  WH0 L   1       4.490  -3.385   0.532  1.00  0.00    +0.0489  H
BRANCH 50 55
ATOM     53  C5  WH0 L   1       6.343  -1.688  -0.371  1.00  0.00    +0.2618  C
ATOM     54  O6  WH0 L   1       6.923  -2.404   0.437  1.00  0.00    -0.2669 OA
ATOM     55  N7  WH0 L   1       4.973  -1.644  -0.498  1.00  0.00    -0.3511  N
ATOM     56 H41  WH0 L   1       4.552  -0.880  -1.014  1.00  0.00    +0.1627 HD
BRANCH 53 58
ATOM     57  C1  WH0 L   1       6.704  -0.521  -2.517  1.00  0.00    -0.0760  C
ATOM     58  C2  WH0 L   1       7.091  -0.743  -1.248  1.00  0.00    +0.1085  C
ATOM     59 H39  WH0 L   1       7.264   0.149  -3.166  1.00  0.00    +0.0549  H
ATOM     60 H40  WH0 L   1       5.846  -1.019  -2.957  1.00  0.00    +0.0549  H
BRANCH 58 61
ATOM     61  C3  WH0 L   1       8.261  -0.131  -0.718  1.00  0.00    +0.1040  C
ATOM     62  N4  WH0 L   1       9.205   0.418  -0.322  1.00  0.00    -0.1907 NA
ENDBRANCH 58 61
ENDBRANCH 53 58
ENDBRANCH 50 55
ENDBRANCH 47 50
ENDBRANCH 1 47
TORSDOF 5
