ROOT
ATOM      1 C15  CHE L   1       5.453  -1.038  -0.684  1.00  0.00    +0.1351  A
ATOM      2 C16  CHE L   1       6.055  -0.742  -1.838  1.00  0.00    +0.0341  A
ATOM      3 C17  CHE L   1       7.141   0.246  -1.822  1.00  0.00    +0.2590  A
ATOM      4 O18  CHE L   1       7.703   0.524  -2.881  1.00  0.00    -0.2672 OA
ATOM      5 N19  CHE L   1       7.442   0.793  -0.584  1.00  0.00    -0.2682  N
ATOM      6 C20  CHE L   1       8.457   1.739  -0.490  1.00  0.00    +0.0146  A
ATOM      7 C21  CHE L   1       8.793   2.300   0.678  1.00  0.00    -0.0450  A
ATOM      8 C22  CHE L   1       8.096   1.928   1.880  1.00  0.00    -0.0569  A
ATOM      9 C23  CHE L   1       7.111   1.023   1.839  1.00  0.00    -0.0187  A
ATOM     10 C24  CHE L   1       6.732   0.393   0.543  1.00  0.00    +0.1410  A
ATOM     11 N25  CHE L   1       5.773  -0.482   0.533  1.00  0.00    -0.2242 NA
ATOM     12 H45  CHE L   1       5.793  -1.184  -2.790  1.00  0.00    +0.0695  H
ATOM     13 H46  CHE L   1       8.971   2.006  -1.411  1.00  0.00    +0.0814  H
ATOM     14 H47  CHE L   1       9.588   3.037   0.740  1.00  0.00    +0.0632  H
ATOM     15 H48  CHE L   1       8.387   2.397   2.814  1.00  0.00    +0.0619  H
ATOM     16 H49  CHE L   1       6.563   0.717   2.722  1.00  0.00    +0.0654  H
ENDROOT
BRANCH 1 18
ATOM     17 N12  CHE L   1       3.798  -2.318   0.484  1.00  0.00    -0.3452  N
ATOM     18 C13  CHE L   1       4.336  -2.051  -0.749  1.00  0.00    +0.2709  C
ATOM     19 O14  CHE L   1       3.951  -2.558  -1.797  1.00  0.00    -0.2659 OA
ATOM     20 H44  CHE L   1       4.101  -1.721   1.247  1.00  0.00    +0.1631 HD
BRANCH 17 21
ATOM     21 C11  CHE L   1       2.574  -3.061   0.648  1.00  0.00    +0.0623  C
ATOM     22 H42  CHE L   1       2.436  -3.765  -0.179  1.00  0.00    +0.0552  H
ATOM     23 H43  CHE L   1       2.650  -3.626   1.582  1.00  0.00    +0.0552  H
BRANCH 21 29
ATOM     24  C5  CHE L   1      -1.971   0.853   0.463  1.00  0.00    -0.0170  A
ATOM     25  C6  CHE L   1      -1.676   0.902   1.899  1.00  0.00    -0.0525  A
ATOM     26  C7  CHE L   1      -0.700   0.156   2.451  1.00  0.00    -0.0185  A
ATOM     27  C8  CHE L   1       0.083  -0.705   1.632  1.00  0.00    +0.1379  A
ATOM     28  N9  CHE L   1       1.077  -1.517   1.921  1.00  0.00    -0.2310 NA
ATOM     29 C10  CHE L   1       1.445  -2.090   0.719  1.00  0.00    +0.0791  A
ATOM     30 C26  CHE L   1       0.660  -1.604  -0.307  1.00  0.00    +0.0342  A
ATOM     31 N27  CHE L   1      -0.210  -0.720   0.274  1.00  0.00    -0.3060  N
ATOM     32 C28  CHE L   1      -1.213   0.048  -0.310  1.00  0.00    +0.0156  A
ATOM     33 H40  CHE L   1      -2.268   1.567   2.522  1.00  0.00    +0.0622  H
ATOM     34 H41  CHE L   1      -0.484   0.194   3.513  1.00  0.00    +0.0654  H
ATOM     35 H50  CHE L   1       0.662  -1.802  -1.370  1.00  0.00    +0.0832  H
ATOM     36 H51  CHE L   1      -1.345  -0.048  -1.381  1.00  0.00    +0.0816  H
BRANCH 24 37
ATOM     37  C4  CHE L   1      -3.070   1.727  -0.082  1.00  0.00    +0.0229  C
ATOM     38 H38  CHE L   1      -3.019   1.790  -1.177  1.00  0.00    +0.0474  H
ATOM     39 H39  CHE L   1      -2.901   2.754   0.267  1.00  0.00    +0.0474  H
BRANCH 37 40
ATOM     40  N3  CHE L   1      -4.415   1.329   0.331  1.00  0.00    -0.3090 NA
ATOM     41 H37  CHE L   1      -4.457   1.231   1.343  1.00  0.00    +0.1225 HD
BRANCH 40 43
ATOM     42  C1  CHE L   1      -4.911  -1.052   0.658  1.00  0.00    -0.0492  C
ATOM     43  C2  CHE L   1      -4.920   0.117  -0.339  1.00  0.00    +0.0100  C
ATOM     44 H33  CHE L   1      -5.221  -1.986   0.182  1.00  0.00    +0.0245  H
ATOM     45 H34  CHE L   1      -3.904  -1.227   1.052  1.00  0.00    +0.0245  H
ATOM     46 H35  CHE L   1      -5.568  -0.870   1.515  1.00  0.00    +0.0245  H
ATOM     47 H36  CHE L   1      -4.251  -0.164  -1.165  1.00  0.00    +0.0463  H
BRANCH 43 48
ATOM     48 C29  CHE L   1      -6.332   0.396  -0.972  1.00  0.00    -0.0226  C
ATOM     49 C30  CHE L   1      -7.384   0.800   0.080  1.00  0.00    -0.0587  C
ATOM     50 C31  CHE L   1      -6.847  -0.855  -1.716  1.00  0.00    -0.0587  C
ATOM     51 C32  CHE L   1      -6.223   1.537  -2.011  1.00  0.00    -0.0587  C
ATOM     52 H52  CHE L   1      -7.086   1.699   0.628  1.00  0.00    +0.0235  H
ATOM     53 H53  CHE L   1      -7.555   0.001   0.809  1.00  0.00    +0.0235  H
ATOM     54 H54  CHE L   1      -8.349   1.014  -0.394  1.00  0.00    +0.0235  H
ATOM     55 H55  CHE L   1      -6.110  -1.212  -2.444  1.00  0.00    +0.0235  H
ATOM     56 H56  CHE L   1      -7.773  -0.637  -2.261  1.00  0.00    +0.0235  H
ATOM     57 H57  CHE L   1      -7.070  -1.676  -1.027  1.00  0.00    +0.0235  H
ATOM     58 H58  CHE L   1      -7.179   1.698  -2.524  1.00  0.00    +0.0235  H
ATOM     59 H59  CHE L   1      -5.945   2.488  -1.544  1.00  0.00    +0.0235  H
ATOM     60 H60  CHE L   1      -5.473   1.304  -2.775  1.00  0.00    +0.0235  H
ENDBRANCH 43 48
ENDBRANCH 40 43
ENDBRANCH 37 40
ENDBRANCH 24 37
ENDBRANCH 21 29
ENDBRANCH 17 21
ENDBRANCH 1 18
TORSDOF 7
