ROOT
ATOM      1  C1  MCU L   1      -0.309  -3.429  -1.971  1.00  0.00    -0.0489  C
ATOM      2  C2  MCU L   1      -0.869  -2.843  -0.684  1.00  0.00    +0.0181  C
ATOM      3  N3  MCU L   1      -1.723  -1.675  -0.937  1.00  0.00    -0.2954 NA
ATOM      4  C4  MCU L   1      -1.784  -0.920   0.341  1.00  0.00    +0.1382  C
ATOM      5  C5  MCU L   1      -3.135  -1.254   1.073  1.00  0.00    +0.2508  C
ATOM      6  O6  MCU L   1      -3.504  -2.343   1.486  1.00  0.00    -0.2705 OA
ATOM      7  N7  MCU L   1      -3.844  -0.067   1.201  1.00  0.00    -0.3240  N
ATOM      8  C8  MCU L   1      -3.160   0.995   0.637  1.00  0.00    +0.0472  A
ATOM      9  C9  MCU L   1      -3.583   2.306   0.569  1.00  0.00    -0.0380  A
ATOM     10 C10  MCU L   1      -2.749   3.218  -0.078  1.00  0.00    -0.0598  A
ATOM     11 C11  MCU L   1      -1.533   2.800  -0.646  1.00  0.00    -0.0613  A
ATOM     12 C12  MCU L   1      -1.127   1.464  -0.568  1.00  0.00    -0.0544  A
ATOM     13 C13  MCU L   1      -1.945   0.563   0.099  1.00  0.00    +0.0058  A
ATOM     14 C14  MCU L   1      -0.642  -1.429   1.229  1.00  0.00    +0.0824  C
ATOM     15 C15  MCU L   1       0.370  -0.401   1.617  1.00  0.00    +0.2408  C
ATOM     16 O16  MCU L   1       0.205   0.327   2.586  1.00  0.00    -0.2718 OA
ATOM     17 N17  MCU L   1       1.430  -0.459   0.735  1.00  0.00    -0.2505  N
ATOM     18 C25  MCU L   1       1.311  -1.553  -0.103  1.00  0.00    +0.2397  C
ATOM     19 O26  MCU L   1       2.011  -1.861  -1.057  1.00  0.00    -0.2719 OA
ATOM     20 C27  MCU L   1       0.142  -2.390   0.357  1.00  0.00    +0.0675  C
ATOM     21 H28  MCU L   1       0.398  -4.236  -1.755  1.00  0.00    +0.0245  H
ATOM     22 H29  MCU L   1      -1.117  -3.847  -2.583  1.00  0.00    +0.0245  H
ATOM     23 H30  MCU L   1       0.201  -2.679  -2.584  1.00  0.00    +0.0245  H
ATOM     24 H31  MCU L   1      -1.501  -3.615  -0.225  1.00  0.00    +0.0466  H
ATOM     25 H32  MCU L   1      -1.315  -1.093  -1.669  1.00  0.00    +0.1235 HD
ATOM     26 H33  MCU L   1      -4.754  -0.020   1.636  1.00  0.00    +0.1687 HD
ATOM     27 H34  MCU L   1      -4.528   2.623   0.995  1.00  0.00    +0.0638  H
ATOM     28 H35  MCU L   1      -3.046   4.262  -0.154  1.00  0.00    +0.0618  H
ATOM     29 H36  MCU L   1      -0.905   3.526  -1.158  1.00  0.00    +0.0618  H
ATOM     30 H37  MCU L   1      -0.194   1.160  -1.032  1.00  0.00    +0.0622  H
ATOM     31 H38  MCU L   1      -0.988  -1.954   2.127  1.00  0.00    +0.0431  H
ATOM     32 H43  MCU L   1       0.539  -3.235   0.933  1.00  0.00    +0.0420  H
ENDROOT
BRANCH 17 33
ATOM     33 C18  MCU L   1       2.502   0.490   0.695  1.00  0.00    +0.0524  A
ATOM     34 C19  MCU L   1       2.412   1.727   1.358  1.00  0.00    -0.0363  A
ATOM     35 C20  MCU L   1       3.454   2.664   1.314  1.00  0.00    -0.0414  A
ATOM     36 C21  MCU L   1       4.611   2.382   0.603  1.00  0.00    +0.0411  A
ATOM     37 CL22 MCU L   1       5.889   3.529   0.545  1.00  0.00    -0.0835 Cl
ATOM     38 C23  MCU L   1       4.733   1.170  -0.064  1.00  0.00    -0.0414  A
ATOM     39 C24  MCU L   1       3.688   0.236  -0.017  1.00  0.00    -0.0363  A
ATOM     40 H39  MCU L   1       1.524   2.018   1.914  1.00  0.00    +0.0639  H
ATOM     41 H40  MCU L   1       3.345   3.611   1.839  1.00  0.00    +0.0633  H
ATOM     42 H41  MCU L   1       5.636   0.935  -0.621  1.00  0.00    +0.0633  H
ATOM     43 H42  MCU L   1       3.854  -0.701  -0.541  1.00  0.00    +0.0639  H
ENDBRANCH 17 33
TORSDOF 1
