ROOT
ATOM      1  C1  SEL L   1       1.151  -1.388   2.276  1.00  0.00    -0.0377  C
ATOM      2  C2  SEL L   1       1.039  -2.254   1.062  1.00  0.00    -0.0166  A
ATOM      3  C3  SEL L   1       2.091  -2.924   0.454  1.00  0.00    +0.0819  A
ATOM      4 S19  SEL L   1       1.589  -3.885  -0.869  1.00  0.00    -0.0634  S
ATOM      5 C20  SEL L   1      -0.025  -3.363  -0.715  1.00  0.00    +0.1160  A
ATOM      6 N21  SEL L   1      -0.988  -3.779  -1.575  1.00  0.00    -0.2298 NA
ATOM      7 C22  SEL L   1      -2.165  -3.298  -1.331  1.00  0.00    +0.1003  A
ATOM      8 N23  SEL L   1      -2.490  -2.458  -0.283  1.00  0.00    -0.2896  N
ATOM      9 C34  SEL L   1      -1.523  -1.983   0.599  1.00  0.00    +0.2629  A
ATOM     10 O35  SEL L   1      -1.767  -1.192   1.507  1.00  0.00    -0.2669 OA
ATOM     11 C36  SEL L   1      -0.188  -2.504   0.351  1.00  0.00    +0.0758  A
ATOM     12 H37  SEL L   1       0.438  -1.711   3.042  1.00  0.00    +0.0278  H
ATOM     13 H38  SEL L   1       0.945  -0.344   2.021  1.00  0.00    +0.0278  H
ATOM     14 H39  SEL L   1       2.149  -1.437   2.719  1.00  0.00    +0.0278  H
ATOM     15 H51  SEL L   1      -3.012  -3.562  -1.985  1.00  0.00    +0.1030  H
ENDROOT
BRANCH 3 16
ATOM     16  C4  SEL L   1       3.498  -2.920   0.808  1.00  0.00    +0.2616  C
ATOM     17  O5  SEL L   1       4.016  -3.855   1.420  1.00  0.00    -0.2668 OA
ATOM     18  N6  SEL L   1       4.227  -1.780   0.465  1.00  0.00    -0.3345  N
ATOM     19  C7  SEL L   1       5.625  -1.681   0.880  1.00  0.00    +0.0391  C
ATOM     20  C8  SEL L   1       6.062  -0.234   1.169  1.00  0.00    +0.0365  C
ATOM     21  N9  SEL L   1       5.767   0.674   0.044  1.00  0.00    -0.3638  N
ATOM     22 C17  SEL L   1       4.795   0.213  -0.964  1.00  0.00    +0.0365  C
ATOM     23 C18  SEL L   1       3.698  -0.661  -0.325  1.00  0.00    +0.0391  C
ATOM     24 H40  SEL L   1       6.227  -2.098   0.062  1.00  0.00    +0.0506  H
ATOM     25 H41  SEL L   1       5.804  -2.298   1.768  1.00  0.00    +0.0506  H
ATOM     26 H42  SEL L   1       5.535   0.132   2.060  1.00  0.00    +0.0505  H
ATOM     27 H43  SEL L   1       7.135  -0.251   1.393  1.00  0.00    +0.0505  H
ATOM     28 H47  SEL L   1       5.318  -0.359  -1.740  1.00  0.00    +0.0505  H
ATOM     29 H48  SEL L   1       4.292   1.062  -1.441  1.00  0.00    +0.0505  H
ATOM     30 H49  SEL L   1       3.103  -0.048   0.362  1.00  0.00    +0.0506  H
ATOM     31 H50  SEL L   1       3.030  -1.035  -1.107  1.00  0.00    +0.0506  H
BRANCH 21 32
ATOM     32 C10  SEL L   1       6.548   1.805  -0.180  1.00  0.00    +0.0930  A
ATOM     33 C11  SEL L   1       7.206   2.448   0.882  1.00  0.00    -0.0327  A
ATOM     34 C12  SEL L   1       7.973   3.597   0.676  1.00  0.00    -0.0415  A
ATOM     35 C13  SEL L   1       8.076   4.096  -0.607  1.00  0.00    +0.0308  A
ATOM     36 N14  SEL L   1       7.476   3.535  -1.671  1.00  0.00    -0.2259 NA
ATOM     37 C15  SEL L   1       6.737   2.421  -1.435  1.00  0.00    +0.2365  A
ATOM     38 F16  SEL L   1       6.181   1.869  -2.529  1.00  0.00    -0.1817  F
ATOM     39 H44  SEL L   1       7.106   2.079   1.899  1.00  0.00    +0.0640  H
ATOM     40 H45  SEL L   1       8.468   4.089   1.506  1.00  0.00    +0.0633  H
ATOM     41 H46  SEL L   1       8.658   4.988  -0.821  1.00  0.00    +0.0830  H
ENDBRANCH 21 32
ENDBRANCH 3 16
BRANCH 8 42
ATOM     42 C24  SEL L   1      -3.842  -1.937  -0.152  1.00  0.00    +0.1060  C
ATOM     43 H52  SEL L   1      -4.555  -2.644  -0.588  1.00  0.00    +0.0591  H
ATOM     44 H53  SEL L   1      -4.058  -1.796   0.911  1.00  0.00    +0.0591  H
BRANCH 42 45
ATOM     45 C25  SEL L   1      -3.965  -0.602  -0.902  1.00  0.00    +0.2434  C
ATOM     46 O26  SEL L   1      -3.107  -0.259  -1.720  1.00  0.00    -0.2711 OA
ATOM     47 N27  SEL L   1      -5.114   0.165  -0.673  1.00  0.00    -0.3407  N
ATOM     48 C28  SEL L   1      -5.091   1.532  -1.197  1.00  0.00    +0.0214  C
ATOM     49 C29  SEL L   1      -6.484   2.114  -1.412  1.00  0.00    -0.0326  C
ATOM     50 C30  SEL L   1      -7.335   1.987  -0.147  1.00  0.00    -0.0407  C
ATOM     51 C31  SEL L   1      -8.735   2.563  -0.363  1.00  0.00    -0.0623  C
ATOM     52 C32  SEL L   1      -7.401   0.513   0.259  1.00  0.00    -0.0326  C
ATOM     53 C33  SEL L   1      -6.006  -0.072   0.464  1.00  0.00    +0.0214  C
ATOM     54 H54  SEL L   1      -4.534   2.146  -0.477  1.00  0.00    +0.0488  H
ATOM     55 H55  SEL L   1      -4.544   1.566  -2.144  1.00  0.00    +0.0488  H
ATOM     56 H56  SEL L   1      -6.970   1.586  -2.244  1.00  0.00    +0.0285  H
ATOM     57 H57  SEL L   1      -6.396   3.167  -1.706  1.00  0.00    +0.0285  H
ATOM     58 H58  SEL L   1      -6.857   2.557   0.662  1.00  0.00    +0.0299  H
ATOM     59 H59  SEL L   1      -9.320   2.512   0.563  1.00  0.00    +0.0232  H
ATOM     60 H60  SEL L   1      -8.677   3.614  -0.661  1.00  0.00    +0.0232  H
ATOM     61 H61  SEL L   1      -9.280   2.016  -1.142  1.00  0.00    +0.0232  H
ATOM     62 H62  SEL L   1      -7.981   0.399   1.181  1.00  0.00    +0.0285  H
ATOM     63 H63  SEL L   1      -7.920  -0.061  -0.521  1.00  0.00    +0.0285  H
ATOM     64 H64  SEL L   1      -6.106  -1.147   0.647  1.00  0.00    +0.0488  H
ATOM     65 H65  SEL L   1      -5.528   0.372   1.347  1.00  0.00    +0.0488  H
ENDBRANCH 42 45
ENDBRANCH 8 42
TORSDOF 4
