ROOT
ATOM      1  C5  EUB L   1      -1.815   0.389  -2.309  1.00  0.00    +0.1255  A
ATOM      2  C6  EUB L   1      -2.211   0.021  -1.036  1.00  0.00    -0.0187  A
ATOM      3  C7  EUB L   1      -1.089   0.116  -0.167  1.00  0.00    +0.0423  A
ATOM      4  C8  EUB L   1      -0.874  -0.131   1.201  1.00  0.00    +0.1335  A
ATOM      5 C13  EUB L   1       0.389   0.109   1.756  1.00  0.00    +0.0225  A
ATOM      6 C14  EUB L   1       1.450   0.556   0.966  1.00  0.00    +0.1263  A
ATOM      7 C19  EUB L   1       1.266   0.775  -0.404  1.00  0.00    +0.0042  A
ATOM      8 C20  EUB L   1      -0.015   0.556  -0.938  1.00  0.00    +0.0541  A
ATOM      9 N21  EUB L   1      -0.478   0.708  -2.224  1.00  0.00    -0.3489  N
ATOM     10 H25  EUB L   1      -3.212  -0.287  -0.755  1.00  0.00    +0.0648  H
ATOM     11 H33  EUB L   1       0.545  -0.048   2.820  1.00  0.00    +0.0691  H
ATOM     12 H41  EUB L   1       2.067   1.103  -1.054  1.00  0.00    +0.0675  H
ATOM     13 H42  EUB L   1       0.077   1.019  -3.010  1.00  0.00    +0.1661 HD
ENDROOT
BRANCH 1 14
ATOM     14  C3  EUB L   1      -2.602   0.446  -3.516  1.00  0.00    +0.3554  C
ATOM     15  O4  EUB L   1      -3.784   0.147  -3.613  1.00  0.00    -0.2433 OA
BRANCH 14 17
ATOM     16  C1  EUB L   1      -2.512   0.979  -5.791  1.00  0.00    +0.0820  C
ATOM     17  O2  EUB L   1      -1.820   0.885  -4.545  1.00  0.00    -0.4634 OA
ATOM     18 H22  EUB L   1      -3.364   1.660  -5.711  1.00  0.00    +0.0661  H
ATOM     19 H23  EUB L   1      -1.818   1.382  -6.534  1.00  0.00    +0.0661  H
ATOM     20 H24  EUB L   1      -2.836  -0.013  -6.122  1.00  0.00    +0.0661  H
ENDBRANCH 14 17
ENDBRANCH 1 14
BRANCH 4 21
ATOM     21  O9  EUB L   1      -1.909  -0.540   2.009  1.00  0.00    -0.4886 OA
BRANCH 21 22
ATOM     22 C10  EUB L   1      -1.797  -1.931   2.353  1.00  0.00    +0.0946  C
ATOM     23 C11  EUB L   1      -2.976  -2.672   1.731  1.00  0.00    -0.0281  C
ATOM     24 C12  EUB L   1      -1.838  -2.039   3.873  1.00  0.00    -0.0281  C
ATOM     25 H26  EUB L   1      -0.863  -2.382   1.989  1.00  0.00    +0.0727  H
ATOM     26 H27  EUB L   1      -2.936  -2.604   0.639  1.00  0.00    +0.0265  H
ATOM     27 H28  EUB L   1      -2.973  -3.730   2.010  1.00  0.00    +0.0265  H
ATOM     28 H29  EUB L   1      -3.928  -2.228   2.040  1.00  0.00    +0.0265  H
ATOM     29 H30  EUB L   1      -2.750  -1.584   4.276  1.00  0.00    +0.0265  H
ATOM     30 H31  EUB L   1      -0.995  -1.499   4.318  1.00  0.00    +0.0265  H
ATOM     31 H32  EUB L   1      -1.792  -3.082   4.200  1.00  0.00    +0.0265  H
ENDBRANCH 21 22
ENDBRANCH 4 21
BRANCH 6 32
ATOM     32 O15  EUB L   1       2.623   0.721   1.652  1.00  0.00    -0.4892 OA
BRANCH 32 33
ATOM     33 C16  EUB L   1       3.716   1.393   1.018  1.00  0.00    +0.0946  C
ATOM     34 C17  EUB L   1       4.613   0.375   0.320  1.00  0.00    -0.0281  C
ATOM     35 C18  EUB L   1       4.495   2.104   2.122  1.00  0.00    -0.0281  C
ATOM     36 H34  EUB L   1       3.372   2.163   0.318  1.00  0.00    +0.0727  H
ATOM     37 H35  EUB L   1       4.071  -0.159  -0.467  1.00  0.00    +0.0265  H
ATOM     38 H36  EUB L   1       4.962  -0.387   1.027  1.00  0.00    +0.0265  H
ATOM     39 H37  EUB L   1       5.484   0.858  -0.131  1.00  0.00    +0.0265  H
ATOM     40 H38  EUB L   1       4.845   1.392   2.879  1.00  0.00    +0.0265  H
ATOM     41 H39  EUB L   1       5.359   2.640   1.718  1.00  0.00    +0.0265  H
ATOM     42 H40  EUB L   1       3.850   2.821   2.641  1.00  0.00    +0.0265  H
ENDBRANCH 32 33
ENDBRANCH 6 32
TORSDOF 6
