ROOT
ATOM      1  C4  SEL L   1      -1.711  -0.582   0.345  1.00  0.00    +0.0965  C
ATOM      2  C8  SEL L   1      -0.901  -0.175   1.601  1.00  0.00    -0.0171  C
ATOM      3  C9  SEL L   1       0.471   0.405   1.254  1.00  0.00    +0.0198  C
ATOM      4 N10  SEL L   1       1.217  -0.544   0.408  1.00  0.00    -0.3681  N
ATOM      5 C18  SEL L   1       0.529  -0.890  -0.863  1.00  0.00    +0.0457  C
ATOM      6 C19  SEL L   1      -0.832  -1.529  -0.517  1.00  0.00    +0.0884  C
ATOM      7 O20  SEL L   1      -0.552  -2.744   0.206  1.00  0.00    -0.3889 OA
ATOM      8 H29  SEL L   1      -1.455   0.540   2.219  1.00  0.00    +0.0294  H
ATOM      9 H30  SEL L   1      -0.752  -1.053   2.245  1.00  0.00    +0.0294  H
ATOM     10 H31  SEL L   1       0.356   1.371   0.749  1.00  0.00    +0.0488  H
ATOM     11 H32  SEL L   1       1.008   0.577   2.195  1.00  0.00    +0.0488  H
ATOM     12 H37  SEL L   1       0.417  -0.002  -1.494  1.00  0.00    +0.0513  H
ATOM     13 H38  SEL L   1       1.106  -1.628  -1.433  1.00  0.00    +0.0513  H
ATOM     14 H39  SEL L   1      -1.346  -1.817  -1.441  1.00  0.00    +0.0622  H
ATOM     15 H40  SEL L   1       0.231  -2.544   0.763  1.00  0.00    +0.2099 HD
ENDROOT
BRANCH 1 16
ATOM     16  C3  SEL L   1      -2.168   0.650  -0.493  1.00  0.00    -0.0350  C
ATOM     17 H26  SEL L   1      -1.300   1.200  -0.871  1.00  0.00    +0.0277  H
ATOM     18 H27  SEL L   1      -2.706   0.297  -1.383  1.00  0.00    +0.0277  H
BRANCH 16 20
ATOM     19  C1  SEL L   1      -3.533   2.764  -0.677  1.00  0.00    -0.0652  C
ATOM     20  C2  SEL L   1      -3.067   1.649   0.249  1.00  0.00    -0.0548  C
ATOM     21 H21  SEL L   1      -4.166   3.470  -0.132  1.00  0.00    +0.0230  H
ATOM     22 H22  SEL L   1      -4.114   2.362  -1.513  1.00  0.00    +0.0230  H
ATOM     23 H23  SEL L   1      -2.680   3.317  -1.085  1.00  0.00    +0.0230  H
ATOM     24 H24  SEL L   1      -3.948   1.144   0.660  1.00  0.00    +0.0263  H
ATOM     25 H25  SEL L   1      -2.526   2.101   1.086  1.00  0.00    +0.0263  H
ENDBRANCH 16 20
ENDBRANCH 1 16
BRANCH 1 26
ATOM     26  C5  SEL L   1      -2.951  -1.350   0.781  1.00  0.00    +0.3136  C
ATOM     27  O6  SEL L   1      -3.361  -1.486   1.923  1.00  0.00    -0.2503 OA
ATOM     28  O7  SEL L   1      -3.662  -1.856  -0.248  1.00  0.00    -0.4802 OA
ATOM     29 H28  SEL L   1      -4.393  -2.339   0.193  1.00  0.00    +0.2951 HD
ENDBRANCH 1 26
BRANCH 4 30
ATOM     30 C11  SEL L   1       2.596  -0.318   0.242  1.00  0.00    +0.0381  A
ATOM     31 C12  SEL L   1       3.216   0.916   0.496  1.00  0.00    -0.0358  A
ATOM     32 C13  SEL L   1       4.594   1.086   0.323  1.00  0.00    -0.0245  A
ATOM     33 C14  SEL L   1       5.371   0.018  -0.100  1.00  0.00    +0.1235  A
ATOM     34 F15  SEL L   1       6.689   0.181  -0.265  1.00  0.00    -0.2055  F
ATOM     35 C16  SEL L   1       4.796  -1.218  -0.349  1.00  0.00    -0.0245  A
ATOM     36 C17  SEL L   1       3.419  -1.382  -0.176  1.00  0.00    -0.0358  A
ATOM     37 H33  SEL L   1       2.641   1.779   0.820  1.00  0.00    +0.0639  H
ATOM     38 H34  SEL L   1       5.062   2.046   0.516  1.00  0.00    +0.0647  H
ATOM     39 H35  SEL L   1       5.417  -2.049  -0.668  1.00  0.00    +0.0647  H
ATOM     40 H36  SEL L   1       2.988  -2.366  -0.347  1.00  0.00    +0.0639  H
ENDBRANCH 4 30
TORSDOF 4
