ROOT
ATOM      1  N6  SEL L   1      -1.822  -0.157   0.065  1.00  0.00    -0.2972 NA
ATOM      2  C7  SEL L   1      -1.297   1.076  -0.623  1.00  0.00    +0.0467  C
ATOM      3  C8  SEL L   1       0.177   0.912  -1.036  1.00  0.00    +0.0372  C
ATOM      4  N9  SEL L   1       1.053   0.724   0.146  1.00  0.00    -0.3645  N
ATOM      5 C17  SEL L   1       0.378   0.074   1.314  1.00  0.00    +0.0454  C
ATOM      6 C18  SEL L   1       1.318  -0.622   2.298  1.00  0.00    -0.0429  C
ATOM      7 C19  SEL L   1      -0.746  -0.880   0.846  1.00  0.00    +0.0493  C
ATOM      8 H25  SEL L   1      -1.394   1.950   0.031  1.00  0.00    +0.0513  H
ATOM      9 H26  SEL L   1      -1.894   1.250  -1.524  1.00  0.00    +0.0513  H
ATOM     10 H27  SEL L   1       0.246   0.062  -1.727  1.00  0.00    +0.0505  H
ATOM     11 H28  SEL L   1       0.499   1.808  -1.579  1.00  0.00    +0.0505  H
ATOM     12 H33  SEL L   1      -0.094   0.893   1.874  1.00  0.00    +0.0539  H
ATOM     13 H34  SEL L   1       1.784  -1.512   1.864  1.00  0.00    +0.0250  H
ATOM     14 H35  SEL L   1       2.111   0.053   2.637  1.00  0.00    +0.0250  H
ATOM     15 H36  SEL L   1       0.764  -0.948   3.185  1.00  0.00    +0.0250  H
ATOM     16 H37  SEL L   1      -0.344  -1.664   0.192  1.00  0.00    +0.0515  H
ATOM     17 H38  SEL L   1      -1.176  -1.397   1.711  1.00  0.00    +0.0515  H
ENDROOT
BRANCH 1 18
ATOM     18  S3  SEL L   1      -3.266   0.055   0.939  1.00  0.00    +0.2321  S
ATOM     19  O4  SEL L   1      -3.065   1.179   1.828  1.00  0.00    -0.2054 OA
ATOM     20  O5  SEL L   1      -3.658  -1.237   1.460  1.00  0.00    -0.2054 OA
BRANCH 18 22
ATOM     21  C1  SEL L   1      -4.587  -0.511  -1.418  1.00  0.00    -0.0498  C
ATOM     22  C2  SEL L   1      -4.446   0.527  -0.324  1.00  0.00    +0.0659  C
ATOM     23 H20  SEL L   1      -5.341  -0.193  -2.145  1.00  0.00    +0.0240  H
ATOM     24 H21  SEL L   1      -4.897  -1.478  -1.009  1.00  0.00    +0.0240  H
ATOM     25 H22  SEL L   1      -3.645  -0.661  -1.954  1.00  0.00    +0.0240  H
ATOM     26 H23  SEL L   1      -5.403   0.665   0.190  1.00  0.00    +0.0441  H
ATOM     27 H24  SEL L   1      -4.141   1.496  -0.728  1.00  0.00    +0.0441  H
ENDBRANCH 18 22
ENDBRANCH 1 18
BRANCH 4 28
ATOM     28 C10  SEL L   1       2.340   0.304  -0.204  1.00  0.00    +0.0384  A
ATOM     29 C11  SEL L   1       3.417   1.157   0.080  1.00  0.00    -0.0358  A
ATOM     30 C12  SEL L   1       4.726   0.795  -0.245  1.00  0.00    -0.0245  A
ATOM     31 C13  SEL L   1       4.961  -0.428  -0.858  1.00  0.00    +0.1235  A
ATOM     32 F14  SEL L   1       6.215  -0.780  -1.172  1.00  0.00    -0.2055  F
ATOM     33 C15  SEL L   1       3.915  -1.293  -1.150  1.00  0.00    -0.0245  A
ATOM     34 C16  SEL L   1       2.607  -0.927  -0.823  1.00  0.00    -0.0358  A
ATOM     35 H29  SEL L   1       3.229   2.114   0.561  1.00  0.00    +0.0639  H
ATOM     36 H30  SEL L   1       5.555   1.457  -0.024  1.00  0.00    +0.0647  H
ATOM     37 H31  SEL L   1       4.121  -2.246  -1.626  1.00  0.00    +0.0647  H
ATOM     38 H32  SEL L   1       1.798  -1.616  -1.050  1.00  0.00    +0.0639  H
ENDBRANCH 4 28
TORSDOF 3
