ROOT
ATOM      1  C6  409 L   1      -1.405   0.138  -0.075  1.00  0.00    +0.4122  C
ATOM      2  O7  409 L   1      -0.932   1.256  -0.229  1.00  0.00    -0.2234 OA
ATOM      3  N8  409 L   1      -0.640  -1.043  -0.094  1.00  0.00    -0.3034  N
ATOM      4  C9  409 L   1      -1.189  -2.160   0.682  1.00  0.00    +0.0247  C
ATOM      5 C10  409 L   1      -0.403  -3.454   0.589  1.00  0.00    -0.0351  C
ATOM      6 C11  409 L   1       1.056  -3.196   0.906  1.00  0.00    -0.0495  C
ATOM      7 C12  409 L   1       1.608  -2.221  -0.118  1.00  0.00    -0.0305  C
ATOM      8 C13  409 L   1       0.839  -0.878  -0.174  1.00  0.00    +0.0552  C
ATOM      9 H31  409 L   1      -1.238  -1.832   1.729  1.00  0.00    +0.0490  H
ATOM     10 H32  409 L   1      -2.217  -2.357   0.358  1.00  0.00    +0.0490  H
ATOM     11 H33  409 L   1      -0.816  -4.190   1.287  1.00  0.00    +0.0282  H
ATOM     12 H34  409 L   1      -0.498  -3.876  -0.420  1.00  0.00    +0.0282  H
ATOM     13 H35  409 L   1       1.166  -2.791   1.918  1.00  0.00    +0.0266  H
ATOM     14 H36  409 L   1       1.619  -4.135   0.866  1.00  0.00    +0.0266  H
ATOM     15 H37  409 L   1       2.665  -2.037   0.107  1.00  0.00    +0.0286  H
ATOM     16 H38  409 L   1       1.577  -2.706  -1.103  1.00  0.00    +0.0286  H
ATOM     17 H39  409 L   1       1.119  -0.290   0.711  1.00  0.00    +0.0544  H
ENDROOT
BRANCH 1 18
ATOM     18  O5  409 L   1      -2.724  -0.104   0.141  1.00  0.00    -0.4429 OA
BRANCH 18 20
ATOM     19  C1  409 L   1      -5.036   0.281   0.451  1.00  0.00    -0.0253  C
ATOM     20  C2  409 L   1      -3.691   0.977   0.192  1.00  0.00    +0.1070  C
ATOM     21  C3  409 L   1      -3.402   1.929   1.358  1.00  0.00    -0.0253  C
ATOM     22  C4  409 L   1      -3.772   1.716  -1.148  1.00  0.00    -0.0253  C
ATOM     23 H22  409 L   1      -5.259  -0.442  -0.343  1.00  0.00    +0.0268  H
ATOM     24 H23  409 L   1      -5.861   0.998   0.508  1.00  0.00    +0.0268  H
ATOM     25 H24  409 L   1      -5.006  -0.288   1.387  1.00  0.00    +0.0268  H
ATOM     26 H25  409 L   1      -2.491   2.513   1.195  1.00  0.00    +0.0268  H
ATOM     27 H26  409 L   1      -4.223   2.640   1.504  1.00  0.00    +0.0268  H
ATOM     28 H27  409 L   1      -3.254   1.370   2.289  1.00  0.00    +0.0268  H
ATOM     29 H28  409 L   1      -4.613   2.418  -1.165  1.00  0.00    +0.0268  H
ATOM     30 H29  409 L   1      -3.892   1.008  -1.975  1.00  0.00    +0.0268  H
ATOM     31 H30  409 L   1      -2.864   2.290  -1.355  1.00  0.00    +0.0268  H
ENDBRANCH 18 20
ENDBRANCH 1 18
BRANCH 8 32
ATOM     32 C14  409 L   1       1.291  -0.129  -1.459  1.00  0.00    +0.0637  C
ATOM     33 H40  409 L   1       1.180  -0.771  -2.341  1.00  0.00    +0.0530  H
ATOM     34 H41  409 L   1       0.711   0.770  -1.674  1.00  0.00    +0.0530  H
BRANCH 32 35
ATOM     35 N15  409 L   1       2.669   0.310  -1.393  1.00  0.00    -0.2494  N
ATOM     36 C16  409 L   1       3.163   1.415  -0.773  1.00  0.00    +0.0510  A
ATOM     37 C17  409 L   1       4.520   1.351  -1.007  1.00  0.00    +0.1081  A
ATOM     38 N20  409 L   1       4.788   0.237  -1.764  1.00  0.00    -0.1322 NA
ATOM     39 N21  409 L   1       3.643  -0.389  -2.001  1.00  0.00    -0.0653 NA
ATOM     40 H42  409 L   1       2.547   2.121  -0.234  1.00  0.00    +0.0846  H
BRANCH 37 41
ATOM     41 C18  409 L   1       5.610   2.264  -0.591  1.00  0.00    +0.0894  C
ATOM     42 O19  409 L   1       5.257   3.055   0.545  1.00  0.00    -0.3888 OA
ATOM     43 H43  409 L   1       5.858   2.942  -1.415  1.00  0.00    +0.0624  H
ATOM     44 H44  409 L   1       6.505   1.687  -0.335  1.00  0.00    +0.0624  H
ATOM     45 H45  409 L   1       6.035   3.600   0.749  1.00  0.00    +0.2099 HD
ENDBRANCH 37 41
ENDBRANCH 32 35
ENDBRANCH 8 32
TORSDOF 5
