ROOT
ATOM      1 C31  WH0 L   1      -1.840   2.496   0.070  1.00  0.00    -0.0133  A
ATOM      2 C32  WH0 L   1      -2.234   3.240   1.206  1.00  0.00    -0.0519  A
ATOM      3 C33  WH0 L   1      -2.383   4.629   1.144  1.00  0.00    -0.0374  A
ATOM      4 C34  WH0 L   1      -2.130   5.237  -0.065  1.00  0.00    +0.0454  A
ATOM      5 C35  WH0 L   1      -1.741   4.524  -1.196  1.00  0.00    -0.0145  A
ATOM      6 C36  WH0 L   1      -1.588   3.150  -1.148  1.00  0.00    -0.0483  A
ATOM      7 C37  WH0 L   1      -1.541   5.474  -2.339  1.00  0.00    +0.0535  C
ATOM      8 C38  WH0 L   1      -1.877   6.825  -1.696  1.00  0.00    +0.2296  C
ATOM      9 O39  WH0 L   1      -1.859   7.915  -2.242  1.00  0.00    -0.2725 OA
ATOM     10 N40  WH0 L   1      -2.208   6.586  -0.368  1.00  0.00    -0.3256  N
ATOM     11 H64  WH0 L   1      -2.432   2.734   2.149  1.00  0.00    +0.0624  H
ATOM     12 H65  WH0 L   1      -2.685   5.195   2.018  1.00  0.00    +0.0638  H
ATOM     13 H66  WH0 L   1      -1.272   2.599  -2.028  1.00  0.00    +0.0627  H
ATOM     14 H67  WH0 L   1      -0.503   5.476  -2.679  1.00  0.00    +0.0410  H
ATOM     15 H68  WH0 L   1      -2.241   5.270  -3.153  1.00  0.00    +0.0410  H
ATOM     16 H69  WH0 L   1      -2.466   7.323   0.271  1.00  0.00    +0.1686 HD
ENDROOT
BRANCH 1 25
ATOM     17 C16  WH0 L   1      -0.871   0.277   1.059  1.00  0.00    +0.1018  A
ATOM     18 N17  WH0 L   1      -1.027  -1.037   0.843  1.00  0.00    -0.1627 NA
ATOM     19 N18  WH0 L   1      -1.892  -1.112  -0.199  1.00  0.00    -0.1987  N
ATOM     20 C19  WH0 L   1      -2.331  -2.342  -0.789  1.00  0.00    +0.2283  A
ATOM     21 N26  WH0 L   1      -3.219  -2.279  -1.759  1.00  0.00    -0.2207 NA
ATOM     22 C27  WH0 L   1      -3.672  -1.042  -2.158  1.00  0.00    +0.0334  A
ATOM     23 C28  WH0 L   1      -3.282   0.137  -1.650  1.00  0.00    -0.0173  A
ATOM     24 C29  WH0 L   1      -2.328   0.130  -0.610  1.00  0.00    +0.0803  A
ATOM     25 C30  WH0 L   1      -1.674   1.058   0.173  1.00  0.00    +0.0353  A
ATOM     26 H62  WH0 L   1      -4.412  -1.060  -2.956  1.00  0.00    +0.0831  H
ATOM     27 H63  WH0 L   1      -3.699   1.069  -2.017  1.00  0.00    +0.0654  H
BRANCH 17 34
ATOM     28  C9  WH0 L   1       1.308   1.278   1.816  1.00  0.00    -0.0354  A
ATOM     29 C10  WH0 L   1       2.116   1.708   2.883  1.00  0.00    -0.0226  A
ATOM     30 C11  WH0 L   1       1.663   1.610   4.195  1.00  0.00    +0.1237  A
ATOM     31 F12  WH0 L   1       2.448   2.028   5.196  1.00  0.00    -0.2055  F
ATOM     32 C13  WH0 L   1       0.415   1.077   4.484  1.00  0.00    -0.0258  A
ATOM     33 C14  WH0 L   1      -0.399   0.640   3.440  1.00  0.00    -0.0495  A
ATOM     34 C15  WH0 L   1       0.033   0.744   2.106  1.00  0.00    +0.0061  A
ATOM     35 H51  WH0 L   1       3.109   2.113   2.706  1.00  0.00    +0.0649  H
ATOM     36 H52  WH0 L   1       0.087   0.999   5.515  1.00  0.00    +0.0646  H
ATOM     37 H53  WH0 L   1      -1.372   0.209   3.667  1.00  0.00    +0.0625  H
BRANCH 28 38
ATOM     38  C8  WH0 L   1       1.867   1.358   0.412  1.00  0.00    -0.0254  C
ATOM     39 H49  WH0 L   1       1.085   1.658  -0.292  1.00  0.00    +0.0314  H
ATOM     40 H50  WH0 L   1       2.615   2.161   0.364  1.00  0.00    +0.0314  H
BRANCH 38 41
ATOM     41  C7  WH0 L   1       2.507   0.039  -0.026  1.00  0.00    -0.0315  C
ATOM     42 H47  WH0 L   1       3.348  -0.204   0.635  1.00  0.00    +0.0285  H
ATOM     43 H48  WH0 L   1       1.795  -0.789   0.072  1.00  0.00    +0.0285  H
BRANCH 41 44
ATOM     44  C6  WH0 L   1       2.985   0.121  -1.473  1.00  0.00    +0.0187  C
ATOM     45 H45  WH0 L   1       2.143   0.322  -2.144  1.00  0.00    +0.0486  H
ATOM     46 H46  WH0 L   1       3.716   0.928  -1.590  1.00  0.00    +0.0486  H
BRANCH 44 49
ATOM     47  C3  WH0 L   1       4.897  -1.420  -1.632  1.00  0.00    +0.2443  C
ATOM     48  O4  WH0 L   1       5.668  -0.667  -1.052  1.00  0.00    -0.2683 OA
ATOM     49  N5  WH0 L   1       3.585  -1.124  -1.908  1.00  0.00    -0.3525  N
ATOM     50 H44  WH0 L   1       2.987  -1.820  -2.332  1.00  0.00    +0.1626 HD
BRANCH 47 52
ATOM     51  C1  WH0 L   1       6.525  -3.239  -1.866  1.00  0.00    -0.0936  C
ATOM     52  C2  WH0 L   1       5.294  -2.770  -2.107  1.00  0.00    -0.0047  C
ATOM     53 H41  WH0 L   1       7.259  -2.651  -1.321  1.00  0.00    +0.0536  H
ATOM     54 H42  WH0 L   1       6.826  -4.222  -2.211  1.00  0.00    +0.0536  H
ATOM     55 H43  WH0 L   1       4.574  -3.365  -2.653  1.00  0.00    +0.0666  H
ENDBRANCH 47 52
ENDBRANCH 44 49
ENDBRANCH 41 44
ENDBRANCH 38 41
ENDBRANCH 28 38
ENDBRANCH 17 34
BRANCH 20 56
ATOM     56 N20  WH0 L   1      -1.858  -3.586  -0.364  1.00  0.00    -0.3359  N
ATOM     57 C21  WH0 L   1      -2.553  -4.817  -0.771  1.00  0.00    +0.0449  C
ATOM     58 C22  WH0 L   1      -2.368  -5.905   0.296  1.00  0.00    +0.0653  C
ATOM     59 O23  WH0 L   1      -0.999  -6.261   0.530  1.00  0.00    -0.3763 OA
ATOM     60 C24  WH0 L   1      -0.080  -5.207   0.221  1.00  0.00    +0.0653  C
ATOM     61 C25  WH0 L   1      -0.647  -3.795   0.442  1.00  0.00    +0.0449  C
ATOM     62 H54  WH0 L   1      -2.144  -5.153  -1.730  1.00  0.00    +0.0511  H
ATOM     63 H55  WH0 L   1      -3.626  -4.639  -0.896  1.00  0.00    +0.0511  H
ATOM     64 H56  WH0 L   1      -2.790  -5.574   1.253  1.00  0.00    +0.0577  H
ATOM     65 H57  WH0 L   1      -2.899  -6.816   0.002  1.00  0.00    +0.0577  H
ATOM     66 H58  WH0 L   1       0.811  -5.355   0.840  1.00  0.00    +0.0577  H
ATOM     67 H59  WH0 L   1       0.229  -5.332  -0.824  1.00  0.00    +0.0577  H
ATOM     68 H60  WH0 L   1       0.139  -3.088   0.157  1.00  0.00    +0.0511  H
ATOM     69 H61  WH0 L   1      -0.897  -3.664   1.501  1.00  0.00    +0.0511  H
ENDBRANCH 20 56
ENDBRANCH 1 25
TORSDOF 8
