ROOT
ATOM      1  C3  CHE L   1       3.793   0.256   0.186  1.00  0.00    +0.1635  A
ATOM      2  C4  CHE L   1       3.149   1.479   0.406  1.00  0.00    +0.0099  A
ATOM      3  C5  CHE L   1       1.765   1.582   0.461  1.00  0.00    +0.0812  A
ATOM      4  N6  CHE L   1       1.228   2.788   0.662  1.00  0.00    -0.2183 NA
ATOM      5  C7  CHE L   1      -0.112   2.851   0.698  1.00  0.00    +0.2343  A
ATOM      6 N10  CHE L   1      -0.956   1.817   0.571  1.00  0.00    -0.2010 NA
ATOM      7 C11  CHE L   1      -0.406   0.607   0.387  1.00  0.00    +0.1396  A
ATOM      8 C19  CHE L   1       0.990   0.427   0.303  1.00  0.00    +0.0461  A
ATOM      9 C20  CHE L   1       1.633  -0.814   0.065  1.00  0.00    -0.0036  A
ATOM     10 C21  CHE L   1       3.025  -0.905   0.006  1.00  0.00    +0.1623  A
ATOM     11 H27  CHE L   1       3.717   2.394   0.538  1.00  0.00    +0.0677  H
ATOM     12 H38  CHE L   1       1.017  -1.695  -0.083  1.00  0.00    +0.0663  H
ENDROOT
BRANCH 1 14
ATOM     13  C1  CHE L   1       5.967   1.248   0.300  1.00  0.00    +0.0790  C
ATOM     14  O2  CHE L   1       5.154   0.096   0.123  1.00  0.00    -0.4914 OA
ATOM     15 H24  CHE L   1       7.013   0.934   0.223  1.00  0.00    +0.0660  H
ATOM     16 H25  CHE L   1       5.823   1.684   1.294  1.00  0.00    +0.0660  H
ATOM     17 H26  CHE L   1       5.783   1.985  -0.488  1.00  0.00    +0.0660  H
ENDBRANCH 1 14
BRANCH 5 18
ATOM     18  C8  CHE L   1      -0.700   4.150   0.896  1.00  0.00    +0.1400  C
ATOM     19  N9  CHE L   1      -1.176   5.199   1.056  1.00  0.00    -0.1876 NA
ENDBRANCH 5 18
BRANCH 7 20
ATOM     20 N12  CHE L   1      -1.253  -0.518   0.263  1.00  0.00    -0.3662  N
ATOM     21 H28  CHE L   1      -0.974  -1.185   0.981  1.00  0.00    +0.1613 HD
BRANCH 20 22
ATOM     22 C13  CHE L   1      -2.705  -0.271   0.309  1.00  0.00    +0.0326  C
ATOM     23 C14  CHE L   1      -3.420  -1.604   0.594  1.00  0.00    -0.0090  C
ATOM     24 C15  CHE L   1      -4.821  -1.644  -0.007  1.00  0.00    +0.0495  C
ATOM     25 O16  CHE L   1      -5.379  -0.337  -0.024  1.00  0.00    -0.3796 OA
ATOM     26 C17  CHE L   1      -4.717   0.529  -0.950  1.00  0.00    +0.0495  C
ATOM     27 C18  CHE L   1      -3.210   0.296  -1.018  1.00  0.00    -0.0090  C
ATOM     28 H29  CHE L   1      -2.951   0.417   1.129  1.00  0.00    +0.0523  H
ATOM     29 H30  CHE L   1      -3.485  -1.729   1.683  1.00  0.00    +0.0307  H
ATOM     30 H31  CHE L   1      -2.851  -2.468   0.227  1.00  0.00    +0.0307  H
ATOM     31 H32  CHE L   1      -5.468  -2.291   0.593  1.00  0.00    +0.0560  H
ATOM     32 H33  CHE L   1      -4.808  -2.051  -1.025  1.00  0.00    +0.0560  H
ATOM     33 H34  CHE L   1      -5.170   0.405  -1.940  1.00  0.00    +0.0560  H
ATOM     34 H35  CHE L   1      -4.923   1.554  -0.626  1.00  0.00    +0.0560  H
ATOM     35 H36  CHE L   1      -2.709   1.226  -1.306  1.00  0.00    +0.0307  H
ATOM     36 H37  CHE L   1      -2.990  -0.419  -1.824  1.00  0.00    +0.0307  H
ENDBRANCH 20 22
ENDBRANCH 7 20
BRANCH 10 37
ATOM     37 O22  CHE L   1       3.721  -2.065  -0.215  1.00  0.00    -0.4914 OA
ATOM     38 C23  CHE L   1       2.979  -3.238  -0.518  1.00  0.00    +0.0790  C
ATOM     39 H39  CHE L   1       2.361  -3.542   0.333  1.00  0.00    +0.0660  H
ATOM     40 H40  CHE L   1       2.373  -3.102  -1.419  1.00  0.00    +0.0660  H
ATOM     41 H41  CHE L   1       3.692  -4.044  -0.715  1.00  0.00    +0.0660  H
ENDBRANCH 10 37
TORSDOF 5
