ROOT
ATOM      1  C6  EUB L   1       2.574   0.255  -0.383  1.00  0.00    +0.0750  A
ATOM      2  C7  EUB L   1       3.432   0.730   0.737  1.00  0.00    +0.0723  A
ATOM      3  N8  EUB L   1       4.719   0.811   0.756  1.00  0.00    -0.1748 NA
ATOM      4  N9  EUB L   1       5.380   0.429  -0.379  1.00  0.00    -0.2316  N
ATOM      5 C10  EUB L   1       6.825   0.569  -0.344  1.00  0.00    +0.0340  C
ATOM      6 C11  EUB L   1       4.747   0.046  -1.557  1.00  0.00    +0.2830  A
ATOM      7 O12  EUB L   1       5.366  -0.223  -2.588  1.00  0.00    -0.2649 OA
ATOM      8 C13  EUB L   1       3.250  -0.041  -1.508  1.00  0.00    +0.1081  A
ATOM      9 BR14 EUB L   1       2.394  -0.529  -3.112  1.00  0.00    -0.0425 Br
ATOM     10 H31  EUB L   1       2.891   1.035   1.648  1.00  0.00    +0.0869  H
ATOM     11 H32  EUB L   1       7.301  -0.046  -1.112  1.00  0.00    +0.0474  H
ATOM     12 H33  EUB L   1       7.197   0.264   0.638  1.00  0.00    +0.0474  H
ATOM     13 H34  EUB L   1       7.074   1.620  -0.523  1.00  0.00    +0.0474  H
ENDROOT
BRANCH 1 14
ATOM     14  N5  EUB L   1       1.197   0.229  -0.152  1.00  0.00    -0.3783  N
ATOM     15 H30  EUB L   1       0.948   0.683   0.735  1.00  0.00    +0.1600 HD
BRANCH 14 19
ATOM     16  C1  EUB L   1      -0.861  -1.113   3.325  1.00  0.00    -0.0127  C
ATOM     17  N2  EUB L   1      -0.487  -0.539   2.034  1.00  0.00    -0.3028 NA
ATOM     18  C3  EUB L   1       0.153  -1.559   1.178  1.00  0.00    +0.0189  C
ATOM     19  C4  EUB L   1       0.397  -1.013  -0.250  1.00  0.00    +0.0405  C
ATOM     20 C15  EUB L   1      -0.937  -0.687  -0.941  1.00  0.00    -0.0235  C
ATOM     21 C16  EUB L   1      -2.101  -0.523   0.059  1.00  0.00    -0.0012  C
ATOM     22 C23  EUB L   1      -1.637   0.128   1.382  1.00  0.00    +0.0056  C
ATOM     23 H24  EUB L   1      -1.628  -1.890   3.222  1.00  0.00    +0.0391  H
ATOM     24 H25  EUB L   1       0.012  -1.552   3.820  1.00  0.00    +0.0391  H
ATOM     25 H26  EUB L   1      -1.243  -0.336   3.996  1.00  0.00    +0.0391  H
ATOM     26 H27  EUB L   1      -0.449  -2.475   1.124  1.00  0.00    +0.0446  H
ATOM     27 H28  EUB L   1       1.119  -1.832   1.623  1.00  0.00    +0.0446  H
ATOM     28 H29  EUB L   1       0.931  -1.771  -0.832  1.00  0.00    +0.0534  H
ATOM     29 H35  EUB L   1      -0.822   0.196  -1.581  1.00  0.00    +0.0292  H
ATOM     30 H36  EUB L   1      -1.195  -1.509  -1.622  1.00  0.00    +0.0292  H
ATOM     31 H37  EUB L   1      -2.445  -1.536   0.316  1.00  0.00    +0.0362  H
ATOM     32 H43  EUB L   1      -2.493   0.204   2.067  1.00  0.00    +0.0432  H
ATOM     33 H44  EUB L   1      -1.331   1.164   1.193  1.00  0.00    +0.0432  H
BRANCH 21 34
ATOM     34 C17  EUB L   1      -3.281   0.209  -0.558  1.00  0.00    -0.0430  A
ATOM     35 C18  EUB L   1      -4.508  -0.453  -0.721  1.00  0.00    -0.0583  A
ATOM     36 C19  EUB L   1      -5.604   0.207  -1.281  1.00  0.00    -0.0615  A
ATOM     37 C20  EUB L   1      -5.489   1.534  -1.687  1.00  0.00    -0.0617  A
ATOM     38 C21  EUB L   1      -4.277   2.203  -1.534  1.00  0.00    -0.0615  A
ATOM     39 C22  EUB L   1      -3.180   1.546  -0.973  1.00  0.00    -0.0583  A
ATOM     40 H38  EUB L   1      -4.623  -1.490  -0.413  1.00  0.00    +0.0620  H
ATOM     41 H39  EUB L   1      -6.549  -0.317  -1.403  1.00  0.00    +0.0618  H
ATOM     42 H40  EUB L   1      -6.341   2.046  -2.124  1.00  0.00    +0.0618  H
ATOM     43 H41  EUB L   1      -4.183   3.238  -1.854  1.00  0.00    +0.0618  H
ATOM     44 H42  EUB L   1      -2.243   2.089  -0.870  1.00  0.00    +0.0620  H
ENDBRANCH 21 34
ENDBRANCH 14 19
ENDBRANCH 1 14
TORSDOF 3
