ROOT
ATOM      1 C12  MCU L   1      -0.662   1.926  -1.505  1.00  0.00    +0.1371  C
ATOM      2 C13  MCU L   1      -0.301   1.910  -0.031  1.00  0.00    +0.0797  C
ATOM      3 O14  MCU L   1       0.689   0.926   0.166  1.00  0.00    -0.3515 OA
ATOM      4 C15  MCU L   1       0.632   0.024  -0.929  1.00  0.00    +0.1490  C
ATOM      5 C16  MCU L   1       0.012  -1.317  -0.433  1.00  0.00    +0.0132  C
ATOM      6 C17  MCU L   1       1.063  -2.390  -0.102  1.00  0.00    +0.0258  C
ATOM      7 N18  MCU L   1       2.283  -1.777   0.443  1.00  0.00    -0.3380  N
ATOM      8 C19  MCU L   1       2.690  -2.051   1.799  1.00  0.00    +0.2546  C
ATOM      9 O20  MCU L   1       1.821  -2.363   2.658  1.00  0.00    -0.2674 OA
ATOM     10 C29  MCU L   1       2.976  -0.742  -0.343  1.00  0.00    +0.0258  C
ATOM     11 C30  MCU L   1       2.072  -0.177  -1.450  1.00  0.00    +0.0132  C
ATOM     12 N31  MCU L   1      -0.195   0.642  -1.969  1.00  0.00    -0.2959  N
ATOM     13 C32  MCU L   1      -0.352   0.139  -3.317  1.00  0.00    +0.2574  C
ATOM     14 O33  MCU L   1      -0.183  -1.087  -3.555  1.00  0.00    -0.2673 OA
ATOM     15 H53  MCU L   1      -0.076   2.728  -2.003  1.00  0.00    +0.0648  H
ATOM     16 H54  MCU L   1       0.091   2.902   0.283  1.00  0.00    +0.0586  H
ATOM     17 H55  MCU L   1      -1.171   1.665   0.614  1.00  0.00    +0.0586  H
ATOM     18 H56  MCU L   1      -0.681  -1.744  -1.186  1.00  0.00    +0.0329  H
ATOM     19 H57  MCU L   1      -0.602  -1.125   0.475  1.00  0.00    +0.0329  H
ATOM     20 H58  MCU L   1       1.328  -2.940  -1.032  1.00  0.00    +0.0490  H
ATOM     21 H59  MCU L   1       0.630  -3.139   0.597  1.00  0.00    +0.0490  H
ATOM     22 H69  MCU L   1       3.892  -1.164  -0.806  1.00  0.00    +0.0490  H
ATOM     23 H70  MCU L   1       3.276   0.093   0.326  1.00  0.00    +0.0490  H
ATOM     24 H71  MCU L   1       2.486   0.793  -1.805  1.00  0.00    +0.0329  H
ATOM     25 H72  MCU L   1       2.078  -0.880  -2.310  1.00  0.00    +0.0329  H
ENDROOT
BRANCH 1 30
ATOM     26  C6  MCU L   1      -5.136  -0.056   0.424  1.00  0.00    +0.0596  C
ATOM     27  C7  MCU L   1      -3.972  -0.782  -0.269  1.00  0.00    -0.0223  C
ATOM     28  C8  MCU L   1      -3.459   0.036  -1.458  1.00  0.00    +0.0220  C
ATOM     29  N9  MCU L   1      -3.139   1.403  -1.036  1.00  0.00    -0.3404  N
ATOM     30 C10  MCU L   1      -2.138   2.143  -1.751  1.00  0.00    +0.2485  C
ATOM     31 O11  MCU L   1      -2.496   3.042  -2.561  1.00  0.00    -0.2707 OA
ATOM     32 C41  MCU L   1      -4.172   2.157  -0.317  1.00  0.00    +0.0220  C
ATOM     33 C42  MCU L   1      -4.694   1.347   0.876  1.00  0.00    -0.0223  C
ATOM     34 H48  MCU L   1      -5.973   0.055  -0.306  1.00  0.00    +0.0414  H
ATOM     35 H49  MCU L   1      -4.308  -1.778  -0.630  1.00  0.00    +0.0290  H
ATOM     36 H50  MCU L   1      -3.138  -0.938   0.453  1.00  0.00    +0.0290  H
ATOM     37 H51  MCU L   1      -4.236   0.072  -2.254  1.00  0.00    +0.0489  H
ATOM     38 H52  MCU L   1      -2.569  -0.471  -1.876  1.00  0.00    +0.0489  H
ATOM     39 H77  MCU L   1      -5.010   2.388  -1.010  1.00  0.00    +0.0489  H
ATOM     40 H78  MCU L   1      -3.755   3.117   0.062  1.00  0.00    +0.0489  H
ATOM     41 H79  MCU L   1      -5.556   1.884   1.333  1.00  0.00    +0.0290  H
ATOM     42 H80  MCU L   1      -3.887   1.269   1.641  1.00  0.00    +0.0290  H
BRANCH 26 43
ATOM     43  C4  MCU L   1      -5.628  -0.866   1.593  1.00  0.00    +0.3103  C
ATOM     44  O5  MCU L   1      -6.713  -1.504   1.495  1.00  0.00    -0.2505 OA
BRANCH 43 45
ATOM     45  O3  MCU L   1      -4.854  -0.951   2.760  1.00  0.00    -0.4647 OA
BRANCH 45 47
ATOM     46  C1  MCU L   1      -6.354  -1.002   4.671  1.00  0.00    -0.0306  C
ATOM     47  C2  MCU L   1      -5.240  -1.708   3.904  1.00  0.00    +0.0897  C
ATOM     48 H43  MCU L   1      -7.271  -0.930   4.049  1.00  0.00    +0.0262  H
ATOM     49 H44  MCU L   1      -6.027   0.019   4.959  1.00  0.00    +0.0262  H
ATOM     50 H45  MCU L   1      -6.592  -1.578   5.589  1.00  0.00    +0.0262  H
ATOM     51 H46  MCU L   1      -4.358  -1.811   4.573  1.00  0.00    +0.0694  H
ATOM     52 H47  MCU L   1      -5.569  -2.725   3.599  1.00  0.00    +0.0694  H
ENDBRANCH 45 47
ENDBRANCH 43 45
ENDBRANCH 26 43
ENDBRANCH 1 30
BRANCH 8 53
ATOM     53 C21  MCU L   1       4.103  -1.941   2.224  1.00  0.00    +0.0392  A
ATOM     54 C22  MCU L   1       4.421  -1.400   3.482  1.00  0.00    -0.0492  A
ATOM     55 C23  MCU L   1       5.754  -1.292   3.891  1.00  0.00    -0.0579  A
ATOM     56 C24  MCU L   1       6.789  -1.742   3.056  1.00  0.00    -0.0476  A
ATOM     57 C27  MCU L   1       6.472  -2.291   1.804  1.00  0.00    -0.0579  A
ATOM     58 C28  MCU L   1       5.139  -2.399   1.396  1.00  0.00    -0.0492  A
ATOM     59 H60  MCU L   1       3.638  -1.043   4.138  1.00  0.00    +0.0625  H
ATOM     60 H61  MCU L   1       5.980  -0.850   4.854  1.00  0.00    +0.0620  H
ATOM     61 H67  MCU L   1       7.257  -2.643   1.148  1.00  0.00    +0.0620  H
ATOM     62 H68  MCU L   1       4.918  -2.862   0.444  1.00  0.00    +0.0625  H
BRANCH 56 63
ATOM     63 C25  MCU L   1       8.225  -1.612   3.489  1.00  0.00    -0.0305  C
ATOM     64 C26  MCU L   1       8.801  -0.267   3.059  1.00  0.00    -0.0613  C
ATOM     65 H62  MCU L   1       8.835  -2.432   3.051  1.00  0.00    +0.0311  H
ATOM     66 H63  MCU L   1       8.298  -1.705   4.596  1.00  0.00    +0.0311  H
ATOM     67 H64  MCU L   1       8.770  -0.169   1.952  1.00  0.00    +0.0233  H
ATOM     68 H65  MCU L   1       8.222   0.564   3.518  1.00  0.00    +0.0233  H
ATOM     69 H66  MCU L   1       9.856  -0.191   3.393  1.00  0.00    +0.0233  H
ENDBRANCH 56 63
ENDBRANCH 8 53
BRANCH 13 70
ATOM     70 C34  MCU L   1      -0.744   1.023  -4.428  1.00  0.00    +0.0394  A
ATOM     71 C35  MCU L   1       0.000   2.180  -4.719  1.00  0.00    -0.0467  A
ATOM     72 C36  MCU L   1      -0.382   3.015  -5.774  1.00  0.00    -0.0257  A
ATOM     73 C37  MCU L   1      -1.498   2.694  -6.554  1.00  0.00    +0.1234  A
ATOM     74 F38  MCU L   1      -1.866   3.507  -7.577  1.00  0.00    -0.2055  F
ATOM     75 C39  MCU L   1      -2.231   1.533  -6.283  1.00  0.00    -0.0257  A
ATOM     76 C40  MCU L   1      -1.852   0.696  -5.227  1.00  0.00    -0.0467  A
ATOM     77 H73  MCU L   1       0.882   2.428  -4.138  1.00  0.00    +0.0626  H
ATOM     78 H74  MCU L   1       0.190   3.910  -5.990  1.00  0.00    +0.0646  H
ATOM     79 H75  MCU L   1      -3.096   1.285  -6.885  1.00  0.00    +0.0646  H
ATOM     80 H76  MCU L   1      -2.433  -0.196  -5.021  1.00  0.00    +0.0626  H
ENDBRANCH 13 70
TORSDOF 7
