ROOT
ATOM      1  C1  CHE L   1       7.991   0.188  -2.758  1.00  0.00    +0.0303  A
ATOM      2  C2  CHE L   1       8.872   1.230  -2.511  1.00  0.00    -0.0181  A
ATOM      3  C3  CHE L   1       8.858   1.705  -1.203  1.00  0.00    +0.0693  A
ATOM      4  N4  CHE L   1       9.567   2.701  -0.587  1.00  0.00    -0.2768  N
ATOM      5  N5  CHE L   1       9.267   2.865   0.712  1.00  0.00    -0.1811 NA
ATOM      6  C6  CHE L   1       8.331   1.936   0.934  1.00  0.00    +0.0590  A
ATOM      7  C7  CHE L   1       8.025   1.174  -0.219  1.00  0.00    +0.0470  A
ATOM      8  C8  CHE L   1       7.166   0.119  -0.562  1.00  0.00    +0.1030  A
ATOM      9 N33  CHE L   1       7.164  -0.362  -1.842  1.00  0.00    -0.2526 NA
ATOM     10 H34  CHE L   1       7.926  -0.253  -3.750  1.00  0.00    +0.0830  H
ATOM     11 H35  CHE L   1       9.515   1.636  -3.281  1.00  0.00    +0.0654  H
ATOM     12 H36  CHE L   1      10.270   3.306  -0.995  1.00  0.00    +0.1889 HD
ATOM     13 H37  CHE L   1       7.908   1.850   1.927  1.00  0.00    +0.0855  H
ENDROOT
BRANCH 8 14
ATOM     14  C9  CHE L   1       6.275  -0.483   0.403  1.00  0.00    +0.1314  A
ATOM     15 C10  CHE L   1       5.378  -1.497   0.148  1.00  0.00    +0.0553  A
ATOM     16 N11  CHE L   1       4.770  -1.713   1.348  1.00  0.00    -0.2452  N
ATOM     17 N31  CHE L   1       5.267  -0.899   2.302  1.00  0.00    -0.0647 NA
ATOM     18 N32  CHE L   1       6.187  -0.134   1.728  1.00  0.00    -0.1279 NA
ATOM     19 H38  CHE L   1       5.129  -2.048  -0.748  1.00  0.00    +0.0849  H
BRANCH 16 20
ATOM     20 C12  CHE L   1       3.754  -2.695   1.672  1.00  0.00    +0.0867  C
ATOM     21 H39  CHE L   1       3.806  -2.904   2.746  1.00  0.00    +0.0575  H
ATOM     22 H40  CHE L   1       4.006  -3.616   1.134  1.00  0.00    +0.0575  H
BRANCH 20 23
ATOM     23 C13  CHE L   1       2.404  -2.201   1.291  1.00  0.00    +0.0814  A
ATOM     24 C14  CHE L   1       1.680  -1.146   1.814  1.00  0.00    +0.0343  A
ATOM     25 N15  CHE L   1       0.504  -1.111   1.112  1.00  0.00    -0.3060  N
ATOM     26 C16  CHE L   1      -0.571  -0.234   1.229  1.00  0.00    +0.0156  A
ATOM     27 C17  CHE L   1      -1.645  -0.386   0.427  1.00  0.00    -0.0170  A
ATOM     28 C27  CHE L   1      -1.622  -1.483  -0.547  1.00  0.00    -0.0525  A
ATOM     29 C28  CHE L   1      -0.575  -2.325  -0.652  1.00  0.00    -0.0185  A
ATOM     30 C29  CHE L   1       0.552  -2.157   0.199  1.00  0.00    +0.1379  A
ATOM     31 N30  CHE L   1       1.682  -2.827   0.294  1.00  0.00    -0.2309 NA
ATOM     32 H41  CHE L   1       1.907  -0.432   2.593  1.00  0.00    +0.0832  H
ATOM     33 H42  CHE L   1      -0.487   0.548   1.974  1.00  0.00    +0.0816  H
ATOM     34 H59  CHE L   1      -2.492  -1.609  -1.188  1.00  0.00    +0.0622  H
ATOM     35 H60  CHE L   1      -0.568  -3.136  -1.371  1.00  0.00    +0.0654  H
BRANCH 27 36
ATOM     36 C18  CHE L   1      -2.846   0.524   0.459  1.00  0.00    +0.0226  C
ATOM     37 H43  CHE L   1      -2.683   1.333   1.182  1.00  0.00    +0.0474  H
ATOM     38 H44  CHE L   1      -2.948   0.985  -0.530  1.00  0.00    +0.0474  H
BRANCH 36 39
ATOM     39 N19  CHE L   1      -4.055  -0.224   0.813  1.00  0.00    -0.3117 NA
ATOM     40 H45  CHE L   1      -3.893  -0.685   1.708  1.00  0.00    +0.1223 HD
BRANCH 39 41
ATOM     41 C20  CHE L   1      -5.239   0.631   0.935  1.00  0.00    -0.0010  C
ATOM     42 H46  CHE L   1      -6.024   0.021   1.395  1.00  0.00    +0.0427  H
ATOM     43 H47  CHE L   1      -5.037   1.443   1.646  1.00  0.00    +0.0427  H
BRANCH 41 44
ATOM     44 C21  CHE L   1      -5.756   1.217  -0.400  1.00  0.00    -0.0285  C
ATOM     45 C22  CHE L   1      -6.993   2.104  -0.168  1.00  0.00    -0.0491  C
ATOM     46 C23  CHE L   1      -8.257   1.306   0.151  1.00  0.00    -0.0528  C
ATOM     47 C24  CHE L   1      -8.531   0.236  -0.901  1.00  0.00    -0.0530  C
ATOM     48 C25  CHE L   1      -7.323  -0.668  -1.125  1.00  0.00    -0.0528  C
ATOM     49 C26  CHE L   1      -6.071   0.142  -1.456  1.00  0.00    -0.0491  C
ATOM     50 H48  CHE L   1      -4.973   1.868  -0.809  1.00  0.00    +0.0313  H
ATOM     51 H49  CHE L   1      -6.799   2.823   0.637  1.00  0.00    +0.0268  H
ATOM     52 H50  CHE L   1      -7.175   2.696  -1.074  1.00  0.00    +0.0268  H
ATOM     53 H51  CHE L   1      -8.165   0.837   1.137  1.00  0.00    +0.0265  H
ATOM     54 H52  CHE L   1      -9.113   1.988   0.210  1.00  0.00    +0.0265  H
ATOM     55 H53  CHE L   1      -8.802   0.721  -1.848  1.00  0.00    +0.0265  H
ATOM     56 H54  CHE L   1      -9.393  -0.368  -0.597  1.00  0.00    +0.0265  H
ATOM     57 H55  CHE L   1      -7.536  -1.362  -1.947  1.00  0.00    +0.0265  H
ATOM     58 H56  CHE L   1      -7.149  -1.280  -0.233  1.00  0.00    +0.0265  H
ATOM     59 H57  CHE L   1      -5.220  -0.535  -1.592  1.00  0.00    +0.0268  H
ATOM     60 H58  CHE L   1      -6.222   0.638  -2.424  1.00  0.00    +0.0268  H
ENDBRANCH 41 44
ENDBRANCH 39 41
ENDBRANCH 36 39
ENDBRANCH 27 36
ENDBRANCH 20 23
ENDBRANCH 16 20
ENDBRANCH 8 14
TORSDOF 7
