ROOT
ATOM      1  C9  CHE L   1      -1.943   0.159  -0.416  1.00  0.00    +0.0020  C
ATOM      2 C16  CHE L   1      -2.252  -0.813  -1.585  1.00  0.00    -0.0196  C
ATOM      3 C17  CHE L   1      -1.352  -2.047  -1.604  1.00  0.00    +0.0492  C
ATOM      4 O18  CHE L   1      -0.663  -2.273  -0.376  1.00  0.00    -0.3738 OA
ATOM      5 C19  CHE L   1      -1.438  -2.101   0.811  1.00  0.00    +0.0648  C
ATOM      6 C20  CHE L   1      -2.546  -3.166   0.879  1.00  0.00    -0.0361  C
ATOM      7 C21  CHE L   1      -0.474  -2.345   1.980  1.00  0.00    -0.0361  C
ATOM      8 C22  CHE L   1      -2.021  -0.668   0.907  1.00  0.00    -0.0145  C
ATOM      9 H41  CHE L   1      -3.289  -1.169  -1.519  1.00  0.00    +0.0296  H
ATOM     10 H42  CHE L   1      -2.195  -0.301  -2.555  1.00  0.00    +0.0296  H
ATOM     11 H43  CHE L   1      -1.923  -2.943  -1.872  1.00  0.00    +0.0560  H
ATOM     12 H44  CHE L   1      -0.585  -1.930  -2.377  1.00  0.00    +0.0560  H
ATOM     13 H45  CHE L   1      -3.057  -3.151   1.848  1.00  0.00    +0.0257  H
ATOM     14 H46  CHE L   1      -3.303  -3.015   0.103  1.00  0.00    +0.0257  H
ATOM     15 H47  CHE L   1      -2.131  -4.168   0.721  1.00  0.00    +0.0257  H
ATOM     16 H48  CHE L   1      -0.977  -2.246   2.948  1.00  0.00    +0.0257  H
ATOM     17 H49  CHE L   1      -0.031  -3.346   1.919  1.00  0.00    +0.0257  H
ATOM     18 H50  CHE L   1       0.362  -1.637   1.951  1.00  0.00    +0.0257  H
ATOM     19 H51  CHE L   1      -1.553  -0.108   1.724  1.00  0.00    +0.0301  H
ATOM     20 H52  CHE L   1      -3.054  -0.764   1.260  1.00  0.00    +0.0301  H
ENDROOT
BRANCH 1 21
ATOM     21  C8  CHE L   1      -0.490   0.722  -0.639  1.00  0.00    -0.0257  C
ATOM     22 H34  CHE L   1      -0.472   1.347  -1.542  1.00  0.00    +0.0291  H
ATOM     23 H35  CHE L   1       0.195  -0.092  -0.889  1.00  0.00    +0.0291  H
BRANCH 21 24
ATOM     24  C7  CHE L   1       0.127   1.489   0.542  1.00  0.00    +0.0163  C
ATOM     25 H32  CHE L   1      -0.584   2.227   0.925  1.00  0.00    +0.0485  H
ATOM     26 H33  CHE L   1       0.361   0.831   1.385  1.00  0.00    +0.0485  H
BRANCH 24 27
ATOM     27  N6  CHE L   1       1.321   2.214   0.108  1.00  0.00    -0.3843  N
ATOM     28 H31  CHE L   1       1.340   3.175   0.442  1.00  0.00    +0.1596 HD
BRANCH 27 31
ATOM     29  C3  CHE L   1       4.119  -0.286   0.186  1.00  0.00    +0.1249  A
ATOM     30  C4  CHE L   1       2.823   0.251   0.231  1.00  0.00    +0.0033  A
ATOM     31  C5  CHE L   1       2.592   1.631   0.151  1.00  0.00    +0.0388  A
ATOM     32 C23  CHE L   1       3.704   2.463  -0.031  1.00  0.00    -0.0382  A
ATOM     33 C24  CHE L   1       5.002   1.947  -0.065  1.00  0.00    -0.0534  A
ATOM     34 C25  CHE L   1       5.222   0.571   0.053  1.00  0.00    -0.0087  A
ATOM     35 C26  CHE L   1       6.622   0.028   0.004  1.00  0.00    -0.0362  C
ATOM     36 H30  CHE L   1       1.979  -0.417   0.335  1.00  0.00    +0.0675  H
ATOM     37 H53  CHE L   1       3.568   3.534  -0.152  1.00  0.00    +0.0638  H
ATOM     38 H54  CHE L   1       5.838   2.630  -0.196  1.00  0.00    +0.0622  H
ATOM     39 H55  CHE L   1       6.756  -0.593  -0.887  1.00  0.00    +0.0279  H
ATOM     40 H56  CHE L   1       7.364   0.833  -0.035  1.00  0.00    +0.0279  H
ATOM     41 H57  CHE L   1       6.832  -0.568   0.898  1.00  0.00    +0.0279  H
BRANCH 29 43
ATOM     42  C1  CHE L   1       3.318  -2.534   0.225  1.00  0.00    +0.0788  C
ATOM     43  O2  CHE L   1       4.412  -1.625   0.263  1.00  0.00    -0.4948 OA
ATOM     44 H27  CHE L   1       2.717  -2.399  -0.681  1.00  0.00    +0.0660  H
ATOM     45 H28  CHE L   1       3.729  -3.548   0.202  1.00  0.00    +0.0660  H
ATOM     46 H29  CHE L   1       2.705  -2.445   1.127  1.00  0.00    +0.0660  H
ENDBRANCH 29 43
ENDBRANCH 27 31
ENDBRANCH 24 27
ENDBRANCH 21 24
ENDBRANCH 1 21
BRANCH 1 47
ATOM     47 C10  CHE L   1      -3.034   1.268  -0.433  1.00  0.00    -0.0410  A
ATOM     48 C11  CHE L   1      -4.382   0.947  -0.163  1.00  0.00    -0.0580  A
ATOM     49 C12  CHE L   1      -5.391   1.915  -0.183  1.00  0.00    -0.0615  A
ATOM     50 C13  CHE L   1      -5.085   3.234  -0.488  1.00  0.00    -0.0617  A
ATOM     51 C14  CHE L   1      -3.772   3.579  -0.783  1.00  0.00    -0.0615  A
ATOM     52 C15  CHE L   1      -2.762   2.608  -0.762  1.00  0.00    -0.0580  A
ATOM     53 H36  CHE L   1      -4.679  -0.076   0.057  1.00  0.00    +0.0620  H
ATOM     54 H37  CHE L   1      -6.418   1.631   0.034  1.00  0.00    +0.0618  H
ATOM     55 H38  CHE L   1      -5.866   3.988  -0.508  1.00  0.00    +0.0618  H
ATOM     56 H39  CHE L   1      -3.526   4.607  -1.038  1.00  0.00    +0.0618  H
ATOM     57 H40  CHE L   1      -1.763   2.946  -1.022  1.00  0.00    +0.0620  H
ENDBRANCH 1 47
TORSDOF 6
