ROOT
ATOM      1  C3  185 L   1      -2.503   0.581   0.797  1.00  0.00    +0.0615  C
ATOM      2  C4  185 L   1      -3.462   0.372  -0.370  1.00  0.00    -0.0004  C
ATOM      3  C5  185 L   1      -3.608  -1.116  -0.678  1.00  0.00    +0.0602  C
ATOM      4  O6  185 L   1      -3.802  -1.279  -2.081  1.00  0.00    -0.3916 OA
ATOM      5  C7  185 L   1      -2.416  -1.940  -0.196  1.00  0.00    +0.0025  C
ATOM      6  C8  185 L   1      -1.092  -1.150  -0.223  1.00  0.00    +0.0746  C
ATOM      7  C9  185 L   1      -0.006  -1.973   0.497  1.00  0.00    -0.0108  C
ATOM      8 C10  185 L   1       1.385  -1.346   0.369  1.00  0.00    +0.0019  C
ATOM      9 N11  185 L   1       1.741  -1.166  -1.039  1.00  0.00    -0.2965 NA
ATOM     10 C19  185 L   1       0.785  -0.282  -1.712  1.00  0.00    +0.0019  C
ATOM     11 C20  185 L   1      -0.625  -0.875  -1.666  1.00  0.00    -0.0108  C
ATOM     12 O21  185 L   1      -1.191   0.105   0.473  1.00  0.00    -0.3699 OA
ATOM     13 H27  185 L   1      -2.851   0.028   1.679  1.00  0.00    +0.0597  H
ATOM     14 H28  185 L   1      -3.101   0.910  -1.255  1.00  0.00    +0.0315  H
ATOM     15 H29  185 L   1      -4.455   0.781  -0.150  1.00  0.00    +0.0315  H
ATOM     16 H30  185 L   1      -4.515  -1.498  -0.193  1.00  0.00    +0.0595  H
ATOM     17 H31  185 L   1      -3.976  -2.221  -2.251  1.00  0.00    +0.2098 HD
ATOM     18 H32  185 L   1      -2.322  -2.866  -0.775  1.00  0.00    +0.0318  H
ATOM     19 H33  185 L   1      -2.618  -2.232   0.843  1.00  0.00    +0.0318  H
ATOM     20 H34  185 L   1      -0.246  -2.056   1.564  1.00  0.00    +0.0305  H
ATOM     21 H35  185 L   1       0.024  -2.993   0.091  1.00  0.00    +0.0305  H
ATOM     22 H36  185 L   1       1.418  -0.398   0.920  1.00  0.00    +0.0428  H
ATOM     23 H37  185 L   1       2.098  -2.027   0.848  1.00  0.00    +0.0428  H
ATOM     24 H45  185 L   1       0.771   0.718  -1.262  1.00  0.00    +0.0428  H
ATOM     25 H46  185 L   1       1.065  -0.161  -2.766  1.00  0.00    +0.0428  H
ATOM     26 H47  185 L   1      -0.643  -1.806  -2.249  1.00  0.00    +0.0305  H
ATOM     27 H48  185 L   1      -1.295  -0.169  -2.167  1.00  0.00    +0.0305  H
ENDROOT
BRANCH 1 29
ATOM     28  C1  185 L   1      -3.611   2.700   1.714  1.00  0.00    -0.0629  C
ATOM     29  C2  185 L   1      -2.341   2.057   1.182  1.00  0.00    -0.0293  C
ATOM     30 H22  185 L   1      -4.021   2.127   2.552  1.00  0.00    +0.0231  H
ATOM     31 H23  185 L   1      -4.379   2.777   0.938  1.00  0.00    +0.0231  H
ATOM     32 H24  185 L   1      -3.398   3.713   2.069  1.00  0.00    +0.0231  H
ATOM     33 H25  185 L   1      -1.970   2.628   0.321  1.00  0.00    +0.0287  H
ATOM     34 H26  185 L   1      -1.557   2.139   1.946  1.00  0.00    +0.0287  H
ENDBRANCH 1 29
BRANCH 9 35
ATOM     35 C12  185 L   1       3.142  -0.781  -1.249  1.00  0.00    +0.0409  C
ATOM     36 H38  185 L   1       3.782  -1.593  -0.883  1.00  0.00    +0.0491  H
ATOM     37 H39  185 L   1       3.340  -0.750  -2.329  1.00  0.00    +0.0491  H
BRANCH 35 38
ATOM     38 C13  185 L   1       3.561   0.525  -0.657  1.00  0.00    +0.0528  A
ATOM     39 C14  185 L   1       3.365   1.819  -1.103  1.00  0.00    -0.0197  A
ATOM     40 C15  185 L   1       4.002   2.638  -0.158  1.00  0.00    +0.0497  A
ATOM     41 N16  185 L   1       4.585   1.932   0.810  1.00  0.00    -0.1796 NA
ATOM     42 N17  185 L   1       4.314   0.652   0.487  1.00  0.00    -0.2701  N
ATOM     43 C18  185 L   1       4.834  -0.400   1.329  1.00  0.00    +0.0305  C
ATOM     44 H40  185 L   1       2.828   2.125  -1.989  1.00  0.00    +0.0651  H
ATOM     45 H41  185 L   1       4.070   3.717  -0.137  1.00  0.00    +0.0848  H
ATOM     46 H42  185 L   1       5.492   0.033   2.089  1.00  0.00    +0.0473  H
ATOM     47 H43  185 L   1       3.996  -0.903   1.814  1.00  0.00    +0.0473  H
ATOM     48 H44  185 L   1       5.406  -1.095   0.710  1.00  0.00    +0.0473  H
ENDBRANCH 35 38
ENDBRANCH 9 35
TORSDOF 3
