ROOT
ATOM      1 C14  WH0 L   1      -1.212   2.777   0.032  1.00  0.00    -0.0133  A
ATOM      2 C15  WH0 L   1      -1.820   3.461   1.111  1.00  0.00    -0.0519  A
ATOM      3 C16  WH0 L   1      -1.641   4.844   1.272  1.00  0.00    -0.0374  A
ATOM      4 C17  WH0 L   1      -0.850   5.519   0.345  1.00  0.00    +0.0454  A
ATOM      5 C18  WH0 L   1      -0.254   4.863  -0.711  1.00  0.00    -0.0145  A
ATOM      6 C19  WH0 L   1      -0.420   3.491  -0.892  1.00  0.00    -0.0483  A
ATOM      7 C20  WH0 L   1       0.536   5.817  -1.548  1.00  0.00    +0.0535  C
ATOM      8 C21  WH0 L   1       0.284   7.088  -0.793  1.00  0.00    +0.2296  C
ATOM      9 O22  WH0 L   1       0.756   8.209  -1.118  1.00  0.00    -0.2725 OA
ATOM     10 N23  WH0 L   1      -0.551   6.902   0.345  1.00  0.00    -0.3256  N
ATOM     11 H51  WH0 L   1      -2.425   2.921   1.829  1.00  0.00    +0.0624  H
ATOM     12 H52  WH0 L   1      -2.103   5.371   2.097  1.00  0.00    +0.0638  H
ATOM     13 H53  WH0 L   1       0.044   2.995  -1.735  1.00  0.00    +0.0627  H
ATOM     14 H54  WH0 L   1       0.127   5.876  -2.579  1.00  0.00    +0.0410  H
ATOM     15 H55  WH0 L   1       1.615   5.555  -1.540  1.00  0.00    +0.0410  H
ATOM     16 H56  WH0 L   1      -0.870   7.625   1.028  1.00  0.00    +0.1686 HD
ENDROOT
BRANCH 1 20
ATOM     17 C10  WH0 L   1       1.719  -0.682  -0.524  1.00  0.00    +0.0488  A
ATOM     18 C11  WH0 L   1       0.965   0.498  -0.378  1.00  0.00    -0.0140  A
ATOM     19 C12  WH0 L   1      -0.418   0.359  -0.275  1.00  0.00    +0.0806  A
ATOM     20 C13  WH0 L   1      -1.401   1.321  -0.125  1.00  0.00    +0.0353  A
ATOM     21 C24  WH0 L   1      -2.585   0.577  -0.048  1.00  0.00    +0.1015  A
ATOM     22 N32  WH0 L   1      -2.303  -0.743  -0.153  1.00  0.00    -0.1627 NA
ATOM     23 N33  WH0 L   1      -0.992  -0.852  -0.282  1.00  0.00    -0.1987  N
ATOM     24 C34  WH0 L   1      -0.270  -1.997  -0.427  1.00  0.00    +0.2285  A
ATOM     25 N42  WH0 L   1       1.082  -1.892  -0.566  1.00  0.00    -0.2172 NA
ATOM     26 H50  WH0 L   1       1.439   1.470  -0.351  1.00  0.00    +0.0657  H
BRANCH 17 27
ATOM     27  C9  WH0 L   1       3.212  -0.610  -0.706  1.00  0.00    +0.0073  C
ATOM     28 H48  WH0 L   1       3.444  -0.685  -1.791  1.00  0.00    +0.0345  H
ATOM     29 H49  WH0 L   1       3.589   0.371  -0.342  1.00  0.00    +0.0345  H
BRANCH 27 30
ATOM     30  C8  WH0 L   1       3.932  -1.732   0.052  1.00  0.00    +0.0238  C
ATOM     31 H46  WH0 L   1       3.622  -2.715  -0.364  1.00  0.00    +0.0490  H
ATOM     32 H47  WH0 L   1       3.655  -1.714   1.129  1.00  0.00    +0.0490  H
BRANCH 30 35
ATOM     33  C5  WH0 L   1       6.140  -0.630   0.657  1.00  0.00    +0.2618  C
ATOM     34  O6  WH0 L   1       5.558   0.082   1.524  1.00  0.00    -0.2669 OA
ATOM     35  N7  WH0 L   1       5.380  -1.594  -0.092  1.00  0.00    -0.3511  N
ATOM     36 H45  WH0 L   1       5.871  -2.266  -0.725  1.00  0.00    +0.1627 HD
BRANCH 33 38
ATOM     37  C1  WH0 L   1       8.331   0.351   1.192  1.00  0.00    -0.0760  C
ATOM     38  C2  WH0 L   1       7.597  -0.464   0.428  1.00  0.00    +0.1085  C
ATOM     39 H43  WH0 L   1       7.891   0.911   2.007  1.00  0.00    +0.0549  H
ATOM     40 H44  WH0 L   1       9.394   0.471   1.017  1.00  0.00    +0.0549  H
BRANCH 38 41
ATOM     41  C3  WH0 L   1       8.250  -1.181  -0.641  1.00  0.00    +0.1040  C
ATOM     42  N4  WH0 L   1       8.775  -1.755  -1.498  1.00  0.00    -0.1907 NA
ENDBRANCH 38 41
ENDBRANCH 33 38
ENDBRANCH 30 35
ENDBRANCH 27 30
ENDBRANCH 17 27
BRANCH 21 43
ATOM     43 C25  WH0 L   1      -3.965   1.087   0.096  1.00  0.00    +0.0029  A
ATOM     44 C26  WH0 L   1      -4.370   2.282  -0.524  1.00  0.00    -0.0498  A
ATOM     45 C27  WH0 L   1      -5.685   2.739  -0.387  1.00  0.00    -0.0258  A
ATOM     46 C28  WH0 L   1      -6.609   2.002   0.359  1.00  0.00    +0.1234  A
ATOM     47 F29  WH0 L   1      -7.883   2.447   0.492  1.00  0.00    -0.2055  F
ATOM     48 C30  WH0 L   1      -6.220   0.804   0.966  1.00  0.00    -0.0258  A
ATOM     49 C31  WH0 L   1      -4.907   0.343   0.829  1.00  0.00    -0.0498  A
ATOM     50 H57  WH0 L   1      -3.680   2.853  -1.132  1.00  0.00    +0.0625  H
ATOM     51 H58  WH0 L   1      -5.990   3.661  -0.866  1.00  0.00    +0.0646  H
ATOM     52 H59  WH0 L   1      -6.935   0.232   1.543  1.00  0.00    +0.0646  H
ATOM     53 H60  WH0 L   1      -4.623  -0.586   1.308  1.00  0.00    +0.0625  H
ENDBRANCH 21 43
BRANCH 24 54
ATOM     54 N35  WH0 L   1      -0.895  -3.294  -0.445  1.00  0.00    -0.3401  N
ATOM     55 C36  WH0 L   1      -0.539  -4.260  -1.491  1.00  0.00    +0.0237  C
ATOM     56 C37  WH0 L   1      -0.329  -5.648  -0.881  1.00  0.00    -0.0090  C
ATOM     57 C38  WH0 L   1      -1.542  -6.061  -0.037  1.00  0.00    +0.0585  C
ATOM     58 O39  WH0 L   1      -1.291  -7.313   0.545  1.00  0.00    -0.3917 OA
ATOM     59 C40  WH0 L   1      -1.804  -5.019   1.062  1.00  0.00    -0.0090  C
ATOM     60 C41  WH0 L   1      -2.000  -3.620   0.467  1.00  0.00    +0.0237  C
ATOM     61 H61  WH0 L   1      -1.359  -4.302  -2.242  1.00  0.00    +0.0489  H
ATOM     62 H62  WH0 L   1       0.389  -3.955  -2.021  1.00  0.00    +0.0489  H
ATOM     63 H63  WH0 L   1      -0.174  -6.387  -1.696  1.00  0.00    +0.0307  H
ATOM     64 H64  WH0 L   1       0.585  -5.635  -0.247  1.00  0.00    +0.0307  H
ATOM     65 H65  WH0 L   1      -2.434  -6.127  -0.705  1.00  0.00    +0.0594  H
ATOM     66 H66  WH0 L   1      -2.171  -7.685   0.813  1.00  0.00    +0.2098 HD
ATOM     67 H67  WH0 L   1      -2.714  -5.302   1.635  1.00  0.00    +0.0307  H
ATOM     68 H68  WH0 L   1      -0.946  -4.998   1.770  1.00  0.00    +0.0307  H
ATOM     69 H69  WH0 L   1      -2.962  -3.577  -0.089  1.00  0.00    +0.0489  H
ATOM     70 H70  WH0 L   1      -2.043  -2.893   1.308  1.00  0.00    +0.0489  H
ENDBRANCH 24 54
ENDBRANCH 1 20
TORSDOF 8
