ROOT
ATOM      1 C10  WH0 L   1       0.576  -2.176  -0.867  1.00  0.00    -0.0370  A
ATOM      2 C11  WH0 L   1       1.091  -3.431  -0.488  1.00  0.00    -0.0580  A
ATOM      3 C12  WH0 L   1       0.248  -4.520  -0.206  1.00  0.00    -0.0595  A
ATOM      4 C13  WH0 L   1      -1.136  -4.388  -0.283  1.00  0.00    -0.0379  A
ATOM      5 C14  WH0 L   1      -1.636  -3.154  -0.644  1.00  0.00    +0.0488  A
ATOM      6 C15  WH0 L   1      -0.816  -2.050  -0.938  1.00  0.00    +0.0244  A
ATOM      7 C16  WH0 L   1      -1.720  -0.878  -1.304  1.00  0.00    +0.2013  C
ATOM      8 S17  WH0 L   1      -1.649  -0.620  -3.127  1.00  0.00    -0.1088 SA
ATOM      9 C18  WH0 L   1      -1.134   1.083  -2.981  1.00  0.00    +0.0758  C
ATOM     10 C19  WH0 L   1      -0.880   1.360  -1.520  1.00  0.00    +0.2395  C
ATOM     11 O20  WH0 L   1      -0.209   2.333  -1.174  1.00  0.00    -0.2717 OA
ATOM     12 N21  WH0 L   1      -1.423   0.398  -0.664  1.00  0.00    -0.2839  N
ATOM     13 C28  WH0 L   1      -3.153  -1.464  -1.025  1.00  0.00    +0.2665  C
ATOM     14 O29  WH0 L   1      -4.229  -0.888  -1.072  1.00  0.00    -0.2689 OA
ATOM     15 N30  WH0 L   1      -2.981  -2.812  -0.713  1.00  0.00    -0.3228  N
ATOM     16 H38  WH0 L   1       2.168  -3.576  -0.412  1.00  0.00    +0.0620  H
ATOM     17 H39  WH0 L   1       0.685  -5.475   0.080  1.00  0.00    +0.0618  H
ATOM     18 H40  WH0 L   1      -1.786  -5.225  -0.056  1.00  0.00    +0.0638  H
ATOM     19 H41  WH0 L   1      -1.915   1.755  -3.344  1.00  0.00    +0.0474  H
ATOM     20 H42  WH0 L   1      -0.215   1.242  -3.550  1.00  0.00    +0.0474  H
ATOM     21 H48  WH0 L   1      -3.757  -3.422  -0.499  1.00  0.00    +0.1687 HD
ENDROOT
BRANCH 1 22
ATOM     22  C9  WH0 L   1       1.536  -1.049  -1.153  1.00  0.00    -0.0097  C
ATOM     23 H36  WH0 L   1       1.116  -0.389  -1.915  1.00  0.00    +0.0330  H
ATOM     24 H37  WH0 L   1       2.442  -1.450  -1.627  1.00  0.00    +0.0330  H
BRANCH 22 25
ATOM     25  C8  WH0 L   1       1.932  -0.264   0.100  1.00  0.00    +0.0224  C
ATOM     26 H34  WH0 L   1       2.739  -0.786   0.626  1.00  0.00    +0.0489  H
ATOM     27 H35  WH0 L   1       1.102  -0.174   0.804  1.00  0.00    +0.0489  H
BRANCH 25 30
ATOM     28  C5  WH0 L   1       3.345   1.732   0.453  1.00  0.00    +0.2618  C
ATOM     29  O6  WH0 L   1       4.038   1.173   1.298  1.00  0.00    -0.2669 OA
ATOM     30  N7  WH0 L   1       2.337   1.094  -0.234  1.00  0.00    -0.3511  N
ATOM     31 H33  WH0 L   1       1.630   1.676  -0.684  1.00  0.00    +0.1627 HD
BRANCH 28 33
ATOM     32  C1  WH0 L   1       4.194   3.953   0.997  1.00  0.00    -0.0760  C
ATOM     33  C2  WH0 L   1       3.541   3.177   0.114  1.00  0.00    +0.1085  C
ATOM     34 H31  WH0 L   1       4.385   5.003   0.801  1.00  0.00    +0.0549  H
ATOM     35 H32  WH0 L   1       4.558   3.553   1.941  1.00  0.00    +0.0549  H
BRANCH 33 36
ATOM     36  C3  WH0 L   1       3.095   3.703  -1.129  1.00  0.00    +0.1040  C
ATOM     37  N4  WH0 L   1       2.748   4.135  -2.149  1.00  0.00    -0.1907 NA
ENDBRANCH 33 36
ENDBRANCH 28 33
ENDBRANCH 25 30
ENDBRANCH 22 25
ENDBRANCH 1 22
BRANCH 12 38
ATOM     38 C22  WH0 L   1      -1.634   0.651   0.739  1.00  0.00    +0.0468  A
ATOM     39 C23  WH0 L   1      -1.673   1.968   1.231  1.00  0.00    -0.0380  A
ATOM     40 C24  WH0 L   1      -1.881   2.248   2.587  1.00  0.00    -0.0598  A
ATOM     41 C25  WH0 L   1      -2.066   1.215   3.492  1.00  0.00    -0.0616  A
ATOM     42 C26  WH0 L   1      -2.050  -0.096   3.036  1.00  0.00    -0.0598  A
ATOM     43 C27  WH0 L   1      -1.840  -0.372   1.677  1.00  0.00    -0.0380  A
ATOM     44 H43  WH0 L   1      -1.575   2.826   0.572  1.00  0.00    +0.0638  H
ATOM     45 H44  WH0 L   1      -1.906   3.281   2.927  1.00  0.00    +0.0618  H
ATOM     46 H45  WH0 L   1      -2.230   1.428   4.545  1.00  0.00    +0.0618  H
ATOM     47 H46  WH0 L   1      -2.196  -0.913   3.737  1.00  0.00    +0.0618  H
ATOM     48 H47  WH0 L   1      -1.819  -1.420   1.416  1.00  0.00    +0.0638  H
ENDBRANCH 12 38
TORSDOF 6
