ROOT
ATOM      1  C1  CHE L   1       6.955  -1.855   0.714  1.00  0.00    -0.0244  C
ATOM      2  C2  CHE L   1       5.859  -1.023   0.124  1.00  0.00    +0.0162  A
ATOM      3  C3  CHE L   1       5.170  -0.100   0.810  1.00  0.00    -0.0393  A
ATOM      4  C4  CHE L   1       4.106   0.671   0.181  1.00  0.00    -0.0388  A
ATOM      5  C5  CHE L   1       3.477   1.703   1.073  1.00  0.00    -0.0392  C
ATOM      6  C6  CHE L   1       3.768   0.442  -1.111  1.00  0.00    +0.0389  A
ATOM      7 C25  CHE L   1       4.586  -0.552  -1.889  1.00  0.00    +0.2540  A
ATOM      8 O26  CHE L   1       4.427  -0.738  -3.092  1.00  0.00    -0.2675 OA
ATOM      9 N27  CHE L   1       5.560  -1.227  -1.198  1.00  0.00    -0.3262  N
ATOM     10 H28  CHE L   1       7.895  -1.682   0.179  1.00  0.00    +0.0292  H
ATOM     11 H29  CHE L   1       7.123  -1.620   1.770  1.00  0.00    +0.0292  H
ATOM     12 H30  CHE L   1       6.707  -2.919   0.643  1.00  0.00    +0.0292  H
ATOM     13 H31  CHE L   1       5.385   0.079   1.860  1.00  0.00    +0.0637  H
ATOM     14 H32  CHE L   1       4.235   2.208   1.683  1.00  0.00    +0.0278  H
ATOM     15 H33  CHE L   1       2.974   2.495   0.512  1.00  0.00    +0.0278  H
ATOM     16 H34  CHE L   1       2.753   1.235   1.748  1.00  0.00    +0.0278  H
ATOM     17 H51  CHE L   1       6.082  -1.903  -1.742  1.00  0.00    +0.1686 HD
ENDROOT
BRANCH 6 18
ATOM     18  C7  CHE L   1       2.659   1.065  -1.915  1.00  0.00    +0.0491  C
ATOM     19 H35  CHE L   1       2.369   0.449  -2.773  1.00  0.00    +0.0538  H
ATOM     20 H36  CHE L   1       2.986   2.039  -2.296  1.00  0.00    +0.0538  H
BRANCH 18 21
ATOM     21  N8  CHE L   1       1.453   1.281  -1.134  1.00  0.00    -0.3478  N
ATOM     22  C9  CHE L   1       0.598   0.237  -0.843  1.00  0.00    +0.2527  C
ATOM     23 O10  CHE L   1       0.830  -0.934  -1.111  1.00  0.00    -0.2676 OA
ATOM     24 H37  CHE L   1       1.088   2.223  -1.108  1.00  0.00    +0.1630 HD
BRANCH 22 25
ATOM     25 C11  CHE L   1      -0.675   0.620  -0.179  1.00  0.00    +0.0453  A
ATOM     26 C12  CHE L   1      -0.697   1.625   0.795  1.00  0.00    -0.0316  A
ATOM     27 C13  CHE L   1      -1.908   1.990   1.402  1.00  0.00    +0.0544  A
ATOM     28 C16  CHE L   1      -3.106   1.356   1.044  1.00  0.00    -0.0208  A
ATOM     29 C17  CHE L   1      -3.090   0.343   0.099  1.00  0.00    +0.0433  A
ATOM     30 C18  CHE L   1      -1.871  -0.018  -0.496  1.00  0.00    -0.0102  A
ATOM     31 C19  CHE L   1      -2.118  -1.087  -1.513  1.00  0.00    -0.0073  C
ATOM     32 C20  CHE L   1      -3.548  -1.506  -1.149  1.00  0.00    +0.0230  C
ATOM     33 N21  CHE L   1      -4.159  -0.383  -0.415  1.00  0.00    -0.3676  N
ATOM     34 H38  CHE L   1       0.226   2.116   1.098  1.00  0.00    +0.0638  H
ATOM     35 H39  CHE L   1      -4.033   1.665   1.513  1.00  0.00    +0.0651  H
ATOM     36 H40  CHE L   1      -2.075  -0.664  -2.522  1.00  0.00    +0.0331  H
ATOM     37 H41  CHE L   1      -1.439  -1.939  -1.432  1.00  0.00    +0.0331  H
ATOM     38 H42  CHE L   1      -4.125  -1.757  -2.045  1.00  0.00    +0.0491  H
ATOM     39 H43  CHE L   1      -3.522  -2.397  -0.506  1.00  0.00    +0.0491  H
BRANCH 27 40
ATOM     40 C14  CHE L   1      -1.920   3.026   2.394  1.00  0.00    +0.0992  C
ATOM     41 N15  CHE L   1      -1.914   3.868   3.191  1.00  0.00    -0.1909 NA
ENDBRANCH 27 40
BRANCH 33 42
ATOM     42 C22  CHE L   1      -5.472  -0.594   0.202  1.00  0.00    +0.0243  C
ATOM     43 C23  CHE L   1      -5.382  -1.086   1.644  1.00  0.00    -0.0449  C
ATOM     44 C24  CHE L   1      -6.359   0.640   0.058  1.00  0.00    -0.0449  C
ATOM     45 H44  CHE L   1      -5.974  -1.387  -0.369  1.00  0.00    +0.0518  H
ATOM     46 H45  CHE L   1      -6.373  -1.373   2.011  1.00  0.00    +0.0249  H
ATOM     47 H46  CHE L   1      -4.994  -0.322   2.323  1.00  0.00    +0.0249  H
ATOM     48 H47  CHE L   1      -4.730  -1.963   1.721  1.00  0.00    +0.0249  H
ATOM     49 H48  CHE L   1      -6.398   0.970  -0.986  1.00  0.00    +0.0249  H
ATOM     50 H49  CHE L   1      -7.382   0.414   0.376  1.00  0.00    +0.0249  H
ATOM     51 H50  CHE L   1      -6.011   1.483   0.658  1.00  0.00    +0.0249  H
ENDBRANCH 33 42
ENDBRANCH 22 25
ENDBRANCH 18 21
ENDBRANCH 6 18
TORSDOF 5
