ROOT
ATOM      1  C1  CHE L   1      -1.575   3.467  -1.199  1.00  0.00    -0.0608  C
ATOM      2  C2  CHE L   1      -1.759   1.956  -1.067  1.00  0.00    -0.0261  C
ATOM      3  C3  CHE L   1      -2.445   1.378  -2.311  1.00  0.00    -0.0467  C
ATOM      4  C4  CHE L   1      -2.291  -0.144  -2.439  1.00  0.00    -0.0279  C
ATOM      5  C5  CHE L   1      -1.773  -0.837  -1.163  1.00  0.00    +0.0582  C
ATOM      6 N15  CHE L   1      -0.498  -0.202  -0.773  1.00  0.00    -0.3272  N
ATOM      7 C16  CHE L   1       0.614  -1.019  -0.546  1.00  0.00    +0.3126  C
ATOM      8 O17  CHE L   1       0.576  -2.252  -0.569  1.00  0.00    -0.2621 OA
ATOM      9 C30  CHE L   1      -0.419   1.260  -0.804  1.00  0.00    +0.0248  C
ATOM     10 H31  CHE L   1      -0.920   3.718  -2.039  1.00  0.00    +0.0233  H
ATOM     11 H32  CHE L   1      -1.131   3.883  -0.288  1.00  0.00    +0.0233  H
ATOM     12 H33  CHE L   1      -2.538   3.962  -1.360  1.00  0.00    +0.0233  H
ATOM     13 H34  CHE L   1      -2.410   1.789  -0.200  1.00  0.00    +0.0315  H
ATOM     14 H35  CHE L   1      -3.510   1.642  -2.287  1.00  0.00    +0.0269  H
ATOM     15 H36  CHE L   1      -2.046   1.843  -3.222  1.00  0.00    +0.0269  H
ATOM     16 H37  CHE L   1      -3.226  -0.592  -2.793  1.00  0.00    +0.0288  H
ATOM     17 H38  CHE L   1      -1.559  -0.330  -3.239  1.00  0.00    +0.0288  H
ATOM     18 H39  CHE L   1      -1.571  -1.877  -1.457  1.00  0.00    +0.0575  H
ATOM     19 H49  CHE L   1      -0.021   1.598   0.159  1.00  0.00    +0.0491  H
ATOM     20 H50  CHE L   1       0.296   1.531  -1.590  1.00  0.00    +0.0491  H
ENDROOT
BRANCH 5 21
ATOM     21  C6  CHE L   1      -2.745  -0.957   0.016  1.00  0.00    -0.0229  A
ATOM     22  C7  CHE L   1      -2.307  -1.528   1.222  1.00  0.00    -0.0554  A
ATOM     23  C8  CHE L   1      -3.151  -1.679   2.333  1.00  0.00    -0.0456  A
ATOM     24  C9  CHE L   1      -4.479  -1.252   2.216  1.00  0.00    +0.0390  A
ATOM     25 S10  CHE L   1      -5.747  -1.295   3.385  1.00  0.00    -0.0754  S
ATOM     26 C11  CHE L   1      -6.810  -0.593   2.240  1.00  0.00    +0.0659  A
ATOM     27 N12  CHE L   1      -6.305  -0.328   1.056  1.00  0.00    -0.2474 NA
ATOM     28 C13  CHE L   1      -4.969  -0.699   1.033  1.00  0.00    +0.0785  A
ATOM     29 C14  CHE L   1      -4.095  -0.566  -0.070  1.00  0.00    -0.0301  A
ATOM     30 H40  CHE L   1      -1.282  -1.882   1.318  1.00  0.00    +0.0621  H
ATOM     31 H41  CHE L   1      -2.782  -2.120   3.254  1.00  0.00    +0.0629  H
ATOM     32 H42  CHE L   1      -7.843  -0.383   2.485  1.00  0.00    +0.0907  H
ATOM     33 H43  CHE L   1      -4.517  -0.144  -0.976  1.00  0.00    +0.0642  H
ENDBRANCH 5 21
BRANCH 7 34
ATOM     34 C18  CHE L   1       2.008  -0.395  -0.234  1.00  0.00    +0.3138  C
ATOM     35 O19  CHE L   1       2.208   0.809  -0.214  1.00  0.00    -0.2620 OA
ATOM     36 N20  CHE L   1       2.943  -1.386   0.002  1.00  0.00    -0.3152  N
ATOM     37 H44  CHE L   1       2.568  -2.332  -0.079  1.00  0.00    +0.1692 HD
BRANCH 36 38
ATOM     38 C21  CHE L   1       4.304  -1.247   0.320  1.00  0.00    +0.0861  A
ATOM     39 C22  CHE L   1       5.080  -2.397   0.507  1.00  0.00    +0.0530  A
ATOM     40 N23  CHE L   1       6.400  -2.430   0.820  1.00  0.00    -0.2605 NA
ATOM     41 C24  CHE L   1       7.058  -1.257   0.972  1.00  0.00    +0.0384  A
ATOM     42 C25  CHE L   1       6.380  -0.047   0.808  1.00  0.00    +0.0396  A
ATOM     43 C26  CHE L   1       6.721   1.320   0.884  1.00  0.00    +0.0584  A
ATOM     44 N27  CHE L   1       5.685   2.123   0.637  1.00  0.00    -0.1811 NA
ATOM     45 N28  CHE L   1       4.676   1.264   0.399  1.00  0.00    -0.2749  N
ATOM     46 C29  CHE L   1       5.023  -0.061   0.486  1.00  0.00    +0.0920  A
ATOM     47 H45  CHE L   1       4.637  -3.385   0.403  1.00  0.00    +0.0851  H
ATOM     48 H46  CHE L   1       8.112  -1.321   1.222  1.00  0.00    +0.0837  H
ATOM     49 H47  CHE L   1       7.683   1.761   1.111  1.00  0.00    +0.0854  H
ATOM     50 H48  CHE L   1       3.753   1.632   0.176  1.00  0.00    +0.1890 HD
ENDBRANCH 36 38
ENDBRANCH 7 34
TORSDOF 3
