ROOT
ATOM      1 C13  CHE L   1       0.047   1.001  -0.687  1.00  0.00    -0.0144  A
ATOM      2 C14  CHE L   1      -0.574   0.311  -1.738  1.00  0.00    -0.0505  A
ATOM      3 C15  CHE L   1      -1.916  -0.066  -1.641  1.00  0.00    -0.0188  A
ATOM      4 C16  CHE L   1      -2.649   0.269  -0.501  1.00  0.00    +0.1285  A
ATOM      5 C28  CHE L   1      -2.037   0.928   0.567  1.00  0.00    -0.0188  A
ATOM      6 C29  CHE L   1      -0.691   1.300   0.470  1.00  0.00    -0.0505  A
ATOM      7 H45  CHE L   1      -0.022   0.077  -2.646  1.00  0.00    +0.0625  H
ATOM      8 H46  CHE L   1      -2.392  -0.596  -2.462  1.00  0.00    +0.0654  H
ATOM      9 H55  CHE L   1      -2.594   1.158   1.473  1.00  0.00    +0.0654  H
ATOM     10 H56  CHE L   1      -0.222   1.822   1.303  1.00  0.00    +0.0625  H
ENDROOT
BRANCH 1 15
ATOM     11  C8  CHE L   1       2.622   0.727  -1.154  1.00  0.00    +0.0844  A
ATOM     12  N9  CHE L   1       3.653   1.578  -1.302  1.00  0.00    -0.1770 NA
ATOM     13 N10  CHE L   1       3.148   2.776  -0.992  1.00  0.00    -0.2838  N
ATOM     14 C11  CHE L   1       1.815   2.749  -0.709  1.00  0.00    +0.0303  A
ATOM     15 C12  CHE L   1       1.426   1.432  -0.821  1.00  0.00    +0.0238  A
ATOM     16 H43  CHE L   1       3.768   3.579  -1.013  1.00  0.00    +0.1882 HD
ATOM     17 H44  CHE L   1       1.270   3.654  -0.485  1.00  0.00    +0.0830  H
BRANCH 11 18
ATOM     18  C7  CHE L   1       2.795  -0.757  -1.387  1.00  0.00    +0.0433  C
ATOM     19 H41  CHE L   1       3.236  -0.939  -2.378  1.00  0.00    +0.0492  H
ATOM     20 H42  CHE L   1       1.795  -1.209  -1.415  1.00  0.00    +0.0492  H
BRANCH 18 21
ATOM     21  N5  CHE L   1       3.594  -1.383  -0.308  1.00  0.00    -0.2984 NA
ATOM     22  C6  CHE L   1       3.200  -2.782  -0.140  1.00  0.00    -0.0123  C
ATOM     23 H38  CHE L   1       2.139  -2.848   0.134  1.00  0.00    +0.0391  H
ATOM     24 H39  CHE L   1       3.358  -3.366  -1.057  1.00  0.00    +0.0391  H
ATOM     25 H40  CHE L   1       3.755  -3.261   0.674  1.00  0.00    +0.0391  H
BRANCH 21 26
ATOM     26  C4  CHE L   1       5.041  -1.288  -0.607  1.00  0.00    +0.0115  C
ATOM     27 H36  CHE L   1       5.274  -0.314  -1.051  1.00  0.00    +0.0439  H
ATOM     28 H37  CHE L   1       5.324  -2.037  -1.360  1.00  0.00    +0.0439  H
BRANCH 26 29
ATOM     29  C3  CHE L   1       5.926  -1.438   0.658  1.00  0.00    +0.0084  C
ATOM     30 H34  CHE L   1       5.683  -0.652   1.385  1.00  0.00    +0.0436  H
ATOM     31 H35  CHE L   1       5.703  -2.391   1.157  1.00  0.00    +0.0436  H
BRANCH 29 33
ATOM     32  C1  CHE L   1       7.870  -0.146  -0.052  1.00  0.00    -0.0157  C
ATOM     33  N2  CHE L   1       7.381  -1.443   0.394  1.00  0.00    -0.3178 NA
ATOM     34 H30  CHE L   1       7.602   0.647   0.652  1.00  0.00    +0.0388  H
ATOM     35 H31  CHE L   1       8.963  -0.174  -0.115  1.00  0.00    +0.0388  H
ATOM     36 H32  CHE L   1       7.496   0.114  -1.049  1.00  0.00    +0.0388  H
ATOM     37 H33  CHE L   1       7.595  -2.145  -0.315  1.00  0.00    +0.1217 HD
ENDBRANCH 29 33
ENDBRANCH 26 29
ENDBRANCH 21 26
ENDBRANCH 18 21
ENDBRANCH 11 18
ENDBRANCH 1 15
BRANCH 4 38
ATOM     38 O17  CHE L   1      -3.968  -0.127  -0.458  1.00  0.00    -0.4553 OA
BRANCH 38 39
ATOM     39 C18  CHE L   1      -4.898   0.859  -0.190  1.00  0.00    +0.1407  A
ATOM     40 C19  CHE L   1      -4.883   2.053  -0.931  1.00  0.00    -0.0186  A
ATOM     41 C20  CHE L   1      -5.831   3.047  -0.692  1.00  0.00    -0.0582  A
ATOM     42 C21  CHE L   1      -6.807   2.854   0.280  1.00  0.00    -0.0608  A
ATOM     43 C22  CHE L   1      -6.842   1.658   1.002  1.00  0.00    -0.0459  A
ATOM     44 C23  CHE L   1      -5.901   0.638   0.769  1.00  0.00    +0.0811  A
ATOM     45 H47  CHE L   1      -4.136   2.215  -1.703  1.00  0.00    +0.0654  H
ATOM     46 H48  CHE L   1      -5.810   3.970  -1.266  1.00  0.00    +0.0619  H
ATOM     47 H49  CHE L   1      -7.548   3.626   0.473  1.00  0.00    +0.0618  H
ATOM     48 H50  CHE L   1      -7.622   1.519   1.749  1.00  0.00    +0.0626  H
BRANCH 44 49
ATOM     49 C24  CHE L   1      -6.052  -0.613   1.584  1.00  0.00    +0.2554  C
ATOM     50 O25  CHE L   1      -6.856  -0.647   2.510  1.00  0.00    -0.2675 OA
ATOM     51 N26  CHE L   1      -5.280  -1.702   1.252  1.00  0.00    -0.3549  N
ATOM     52 C27  CHE L   1      -5.339  -2.929   2.004  1.00  0.00    +0.0069  C
ATOM     53 H51  CHE L   1      -4.563  -1.599   0.543  1.00  0.00    +0.1623 HD
ATOM     54 H52  CHE L   1      -4.895  -3.727   1.407  1.00  0.00    +0.0450  H
ATOM     55 H53  CHE L   1      -6.376  -3.179   2.241  1.00  0.00    +0.0450  H
ATOM     56 H54  CHE L   1      -4.777  -2.803   2.932  1.00  0.00    +0.0450  H
ENDBRANCH 44 49
ENDBRANCH 38 39
ENDBRANCH 4 38
TORSDOF 9
