ROOT
ATOM      1  C1  MCU L   1      -2.741   4.052  -2.500  1.00  0.00    -0.0377  C
ATOM      2  C2  MCU L   1      -2.630   3.651  -1.056  1.00  0.00    -0.0265  A
ATOM      3  C3  MCU L   1      -3.110   4.518  -0.062  1.00  0.00    -0.0569  A
ATOM      4  C4  MCU L   1      -3.028   4.172   1.288  1.00  0.00    -0.0608  A
ATOM      5  C5  MCU L   1      -2.462   2.956   1.666  1.00  0.00    -0.0526  A
ATOM      6  C6  MCU L   1      -1.979   2.079   0.692  1.00  0.00    -0.0009  A
ATOM      7  C7  MCU L   1      -1.362   0.804   1.062  1.00  0.00    -0.0420  A
ATOM      8  C8  MCU L   1      -0.892  -0.072   0.147  1.00  0.00    +0.0474  A
ATOM      9 C34  MCU L   1      -1.081   0.279  -1.302  1.00  0.00    +0.2547  A
ATOM     10 O35  MCU L   1      -0.821  -0.502  -2.211  1.00  0.00    -0.2675 OA
ATOM     11 N36  MCU L   1      -1.593   1.510  -1.606  1.00  0.00    -0.3216  N
ATOM     12 C37  MCU L   1      -2.066   2.427  -0.661  1.00  0.00    +0.0521  A
ATOM     13 H38  MCU L   1      -1.752   4.065  -2.968  1.00  0.00    +0.0278  H
ATOM     14 H39  MCU L   1      -3.168   5.055  -2.608  1.00  0.00    +0.0278  H
ATOM     15 H40  MCU L   1      -3.391   3.355  -3.038  1.00  0.00    +0.0278  H
ATOM     16 H41  MCU L   1      -3.556   5.473  -0.334  1.00  0.00    +0.0621  H
ATOM     17 H42  MCU L   1      -3.406   4.854   2.045  1.00  0.00    +0.0618  H
ATOM     18 H43  MCU L   1      -2.405   2.703   2.721  1.00  0.00    +0.0624  H
ATOM     19 H44  MCU L   1      -1.279   0.613   2.126  1.00  0.00    +0.0629  H
ATOM     20 H68  MCU L   1      -1.689   1.699  -2.594  1.00  0.00    +0.1689 HD
ENDROOT
BRANCH 8 21
ATOM     21  C9  MCU L   1      -0.166  -1.388   0.483  1.00  0.00    +0.1372  C
BRANCH 21 22
ATOM     22 C10  MCU L   1      -0.353  -1.867   1.997  1.00  0.00    +0.0741  C
ATOM     23 O11  MCU L   1      -1.706  -2.151   2.357  1.00  0.00    -0.3924 OA
ATOM     24 H45  MCU L   1       0.229  -2.782   2.174  1.00  0.00    +0.0583  H
ATOM     25 H46  MCU L   1       0.001  -1.125   2.719  1.00  0.00    +0.0583  H
ATOM     26 H47  MCU L   1      -1.671  -2.658   3.189  1.00  0.00    +0.2095 HD
ENDBRANCH 21 22
BRANCH 21 27
ATOM     27 C12  MCU L   1      -0.533  -2.669  -0.310  1.00  0.00    +0.1790  A
ATOM     28 N13  MCU L   1       0.398  -3.583  -0.581  1.00  0.00    -0.1110 NA
ATOM     29 N14  MCU L   1      -0.187  -4.596  -1.254  1.00  0.00    -0.0229 NA
ATOM     30 N15  MCU L   1      -1.477  -4.382  -1.370  1.00  0.00    -0.0433 NA
ATOM     31 N16  MCU L   1      -1.744  -3.193  -0.753  1.00  0.00    -0.2218  N
BRANCH 31 32
ATOM     32 C17  MCU L   1      -3.182  -2.903  -0.627  1.00  0.00    +0.0590  C
ATOM     33 C18  MCU L   1      -3.810  -3.936   0.343  1.00  0.00    -0.0401  C
ATOM     34 C19  MCU L   1      -3.859  -3.082  -2.017  1.00  0.00    -0.0401  C
ATOM     35 C20  MCU L   1      -3.621  -1.514  -0.150  1.00  0.00    -0.0401  C
ATOM     36 H48  MCU L   1      -3.366  -3.867   1.341  1.00  0.00    +0.0253  H
ATOM     37 H49  MCU L   1      -4.890  -3.782   0.447  1.00  0.00    +0.0253  H
ATOM     38 H50  MCU L   1      -3.666  -4.966  -0.005  1.00  0.00    +0.0253  H
ATOM     39 H51  MCU L   1      -4.929  -2.846  -1.974  1.00  0.00    +0.0253  H
ATOM     40 H52  MCU L   1      -3.399  -2.421  -2.762  1.00  0.00    +0.0253  H
ATOM     41 H53  MCU L   1      -3.780  -4.109  -2.392  1.00  0.00    +0.0253  H
ATOM     42 H54  MCU L   1      -3.232  -1.258   0.831  1.00  0.00    +0.0253  H
ATOM     43 H55  MCU L   1      -3.358  -0.740  -0.871  1.00  0.00    +0.0253  H
ATOM     44 H56  MCU L   1      -4.714  -1.464  -0.054  1.00  0.00    +0.0253  H
ENDBRANCH 31 32
ENDBRANCH 21 27
BRANCH 21 45
ATOM     45 N21  MCU L   1       1.329  -1.125   0.343  1.00  0.00    -0.2812 NA
ATOM     46 C22  MCU L   1       1.995  -0.267   1.334  1.00  0.00    +0.0179  C
ATOM     47 C23  MCU L   1       3.151   0.621   0.811  1.00  0.00    +0.0344  C
ATOM     48 N24  MCU L   1       4.035  -0.058  -0.134  1.00  0.00    -0.3333  N
ATOM     49 C25  MCU L   1       5.423   0.099  -0.206  1.00  0.00    +0.2899  C
ATOM     50 O26  MCU L   1       6.104  -0.707  -0.842  1.00  0.00    -0.2640 OA
ATOM     51 C32  MCU L   1       3.417  -1.082  -0.977  1.00  0.00    +0.0344  C
ATOM     52 C33  MCU L   1       1.883  -0.971  -1.011  1.00  0.00    +0.0179  C
ATOM     53 H57  MCU L   1       1.295   0.409   1.836  1.00  0.00    +0.0444  H
ATOM     54 H58  MCU L   1       2.406  -0.929   2.106  1.00  0.00    +0.0444  H
ATOM     55 H59  MCU L   1       2.731   1.484   0.281  1.00  0.00    +0.0501  H
ATOM     56 H60  MCU L   1       3.717   0.992   1.670  1.00  0.00    +0.0501  H
ATOM     57 H64  MCU L   1       3.821  -0.989  -1.992  1.00  0.00    +0.0501  H
ATOM     58 H65  MCU L   1       3.722  -2.062  -0.589  1.00  0.00    +0.0501  H
ATOM     59 H66  MCU L   1       1.615   0.008  -1.425  1.00  0.00    +0.0444  H
ATOM     60 H67  MCU L   1       1.517  -1.731  -1.706  1.00  0.00    +0.0444  H
BRANCH 49 61
ATOM     61 C27  MCU L   1       6.025   1.242   0.460  1.00  0.00    +0.1915  A
ATOM     62 C28  MCU L   1       5.642   2.565   0.608  1.00  0.00    -0.0111  A
ATOM     63 C29  MCU L   1       6.670   3.217   1.332  1.00  0.00    -0.0231  A
ATOM     64 C30  MCU L   1       7.628   2.263   1.571  1.00  0.00    +0.0928  A
ATOM     65 O31  MCU L   1       7.255   1.071   1.042  1.00  0.00    -0.4581 OA
ATOM     66 H61  MCU L   1       4.738   3.011   0.219  1.00  0.00    +0.0657  H
ATOM     67 H62  MCU L   1       6.717   4.255   1.628  1.00  0.00    +0.0649  H
ATOM     68 H63  MCU L   1       8.589   2.271   2.069  1.00  0.00    +0.1029  H
ENDBRANCH 49 61
ENDBRANCH 21 45
ENDBRANCH 8 21
TORSDOF 6
