ROOT
ATOM      1  N5  EUB L   1       1.606   0.041  -0.525  1.00  0.00    -0.3010 NA
ATOM      2  C6  EUB L   1       1.476  -1.285   0.069  1.00  0.00    +0.0013  C
ATOM      3  C7  EUB L   1      -0.003  -1.652   0.218  1.00  0.00    -0.0137  C
ATOM      4  C8  EUB L   1      -0.889  -0.448   0.571  1.00  0.00    +0.0614  C
ATOM      5 C17  EUB L   1      -0.062   0.641   1.246  1.00  0.00    -0.0137  C
ATOM      6 C18  EUB L   1       1.081   1.106   0.338  1.00  0.00    +0.0013  C
ATOM      7 H27  EUB L   1       1.953  -2.046  -0.561  1.00  0.00    +0.0427  H
ATOM      8 H28  EUB L   1       1.970  -1.327   1.048  1.00  0.00    +0.0427  H
ATOM      9 H29  EUB L   1      -0.367  -2.081  -0.725  1.00  0.00    +0.0302  H
ATOM     10 H30  EUB L   1      -0.103  -2.446   0.968  1.00  0.00    +0.0302  H
ATOM     11 H31  EUB L   1      -1.329  -0.027  -0.343  1.00  0.00    +0.0597  H
ATOM     12 H39  EUB L   1      -0.699   1.491   1.518  1.00  0.00    +0.0302  H
ATOM     13 H40  EUB L   1       0.341   0.258   2.193  1.00  0.00    +0.0302  H
ATOM     14 H41  EUB L   1       1.857   1.540   0.979  1.00  0.00    +0.0427  H
ATOM     15 H42  EUB L   1       0.716   1.914  -0.307  1.00  0.00    +0.0427  H
ENDROOT
BRANCH 1 16
ATOM     16  C4  EUB L   1       2.947   0.331  -1.056  1.00  0.00    +0.0114  C
ATOM     17 H25  EUB L   1       3.132  -0.354  -1.894  1.00  0.00    +0.0439  H
ATOM     18 H26  EUB L   1       2.935   1.334  -1.503  1.00  0.00    +0.0439  H
BRANCH 16 19
ATOM     19  C3  EUB L   1       4.130   0.225  -0.065  1.00  0.00    +0.0084  C
ATOM     20 H23  EUB L   1       4.195  -0.801   0.316  1.00  0.00    +0.0436  H
ATOM     21 H24  EUB L   1       3.967   0.893   0.788  1.00  0.00    +0.0436  H
BRANCH 19 23
ATOM     22  C1  EUB L   1       6.513   0.480   0.206  1.00  0.00    -0.0157  C
ATOM     23  N2  EUB L   1       5.396   0.573  -0.725  1.00  0.00    -0.3178 NA
ATOM     24 H19  EUB L   1       7.442   0.737  -0.313  1.00  0.00    +0.0388  H
ATOM     25 H20  EUB L   1       6.623  -0.539   0.592  1.00  0.00    +0.0388  H
ATOM     26 H21  EUB L   1       6.394   1.172   1.047  1.00  0.00    +0.0388  H
ATOM     27 H22  EUB L   1       5.338   1.525  -1.086  1.00  0.00    +0.1217 HD
ENDBRANCH 19 23
ENDBRANCH 16 19
ENDBRANCH 1 16
BRANCH 4 28
ATOM     28  O9  EUB L   1      -1.930  -0.834   1.477  1.00  0.00    -0.3719 OA
BRANCH 28 29
ATOM     29 C10  EUB L   1      -3.020  -1.512   0.846  1.00  0.00    +0.0730  C
ATOM     30 H32  EUB L   1      -2.649  -2.261   0.137  1.00  0.00    +0.0610  H
ATOM     31 H33  EUB L   1      -3.565  -2.052   1.628  1.00  0.00    +0.0610  H
BRANCH 29 32
ATOM     32 C11  EUB L   1      -3.976  -0.544   0.193  1.00  0.00    -0.0219  A
ATOM     33 C12  EUB L   1      -4.457  -0.782  -1.102  1.00  0.00    -0.0564  A
ATOM     34 C13  EUB L   1      -5.357   0.105  -1.697  1.00  0.00    -0.0614  A
ATOM     35 C14  EUB L   1      -5.789   1.233  -1.002  1.00  0.00    -0.0617  A
ATOM     36 C15  EUB L   1      -5.324   1.476   0.289  1.00  0.00    -0.0614  A
ATOM     37 C16  EUB L   1      -4.425   0.591   0.885  1.00  0.00    -0.0564  A
ATOM     38 H34  EUB L   1      -4.132  -1.658  -1.658  1.00  0.00    +0.0621  H
ATOM     39 H35  EUB L   1      -5.721  -0.085  -2.703  1.00  0.00    +0.0618  H
ATOM     40 H36  EUB L   1      -6.489   1.923  -1.467  1.00  0.00    +0.0618  H
ATOM     41 H37  EUB L   1      -5.661   2.355   0.833  1.00  0.00    +0.0618  H
ATOM     42 H38  EUB L   1      -4.066   0.788   1.893  1.00  0.00    +0.0621  H
ENDBRANCH 29 32
ENDBRANCH 28 29
ENDBRANCH 4 28
TORSDOF 6
