ROOT
ATOM      1  C9  WH0 L   1       1.460  -1.025   0.116  1.00  0.00    -0.0468  A
ATOM      2 C10  WH0 L   1       2.057  -0.941  -1.163  1.00  0.00    -0.0566  A
ATOM      3 C11  WH0 L   1       1.373  -1.341  -2.314  1.00  0.00    -0.0377  A
ATOM      4 C12  WH0 L   1       0.092  -1.820  -2.155  1.00  0.00    +0.0486  A
ATOM      5 C13  WH0 L   1      -0.518  -1.924  -0.902  1.00  0.00    +0.0214  A
ATOM      6 C14  WH0 L   1       0.159  -1.537   0.245  1.00  0.00    -0.0499  A
ATOM      7 C15  WH0 L   1      -1.912  -2.476  -1.072  1.00  0.00    +0.2010  C
ATOM      8 S16  WH0 L   1      -1.971  -4.195  -0.443  1.00  0.00    -0.1088 SA
ATOM      9 C17  WH0 L   1      -3.737  -4.090  -0.172  1.00  0.00    +0.0758  C
ATOM     10 C18  WH0 L   1      -4.065  -2.620  -0.016  1.00  0.00    +0.2395  C
ATOM     11 O19  WH0 L   1      -5.163  -2.273   0.414  1.00  0.00    -0.2717 OA
ATOM     12 N20  WH0 L   1      -3.020  -1.777  -0.433  1.00  0.00    -0.2840  N
ATOM     13 C27  WH0 L   1      -2.031  -2.562  -2.638  1.00  0.00    +0.2665  C
ATOM     14 O28  WH0 L   1      -3.007  -2.879  -3.301  1.00  0.00    -0.2689 OA
ATOM     15 N29  WH0 L   1      -0.784  -2.209  -3.161  1.00  0.00    -0.3228  N
ATOM     16 H40  WH0 L   1       3.064  -0.539  -1.265  1.00  0.00    +0.0621  H
ATOM     17 H41  WH0 L   1       1.839  -1.253  -3.289  1.00  0.00    +0.0638  H
ATOM     18 H42  WH0 L   1      -0.317  -1.617   1.219  1.00  0.00    +0.0625  H
ATOM     19 H43  WH0 L   1      -4.285  -4.495  -1.026  1.00  0.00    +0.0474  H
ATOM     20 H44  WH0 L   1      -4.009  -4.629   0.739  1.00  0.00    +0.0474  H
ATOM     21 H50  WH0 L   1      -0.590  -2.186  -4.151  1.00  0.00    +0.1687 HD
ENDROOT
BRANCH 1 22
ATOM     22  C8  WH0 L   1       2.213  -0.549   1.338  1.00  0.00    -0.0261  C
ATOM     23 H38  WH0 L   1       2.178  -1.355   2.084  1.00  0.00    +0.0314  H
ATOM     24 H39  WH0 L   1       3.275  -0.408   1.106  1.00  0.00    +0.0314  H
BRANCH 22 25
ATOM     25  C7  WH0 L   1       1.624   0.725   1.957  1.00  0.00    -0.0315  C
ATOM     26 H36  WH0 L   1       2.056   0.857   2.957  1.00  0.00    +0.0285  H
ATOM     27 H37  WH0 L   1       0.543   0.603   2.098  1.00  0.00    +0.0285  H
BRANCH 25 28
ATOM     28  C6  WH0 L   1       1.868   1.992   1.135  1.00  0.00    +0.0187  C
ATOM     29 H34  WH0 L   1       1.620   1.848   0.079  1.00  0.00    +0.0486  H
ATOM     30 H35  WH0 L   1       1.225   2.792   1.519  1.00  0.00    +0.0486  H
BRANCH 28 33
ATOM     31  C3  WH0 L   1       4.168   2.359   0.291  1.00  0.00    +0.2443  C
ATOM     32  O4  WH0 L   1       3.987   1.809  -0.788  1.00  0.00    -0.2683 OA
ATOM     33  N5  WH0 L   1       3.227   2.478   1.277  1.00  0.00    -0.3525  N
ATOM     34 H33  WH0 L   1       3.495   2.868   2.169  1.00  0.00    +0.1626 HD
BRANCH 31 36
ATOM     35  C1  WH0 L   1       5.757   3.915   1.460  1.00  0.00    -0.0936  C
ATOM     36  C2  WH0 L   1       5.512   2.900   0.622  1.00  0.00    -0.0047  C
ATOM     37 H30  WH0 L   1       4.975   4.450   1.986  1.00  0.00    +0.0536  H
ATOM     38 H31  WH0 L   1       6.776   4.261   1.608  1.00  0.00    +0.0536  H
ATOM     39 H32  WH0 L   1       6.322   2.440   0.063  1.00  0.00    +0.0666  H
ENDBRANCH 31 36
ENDBRANCH 28 33
ENDBRANCH 25 28
ENDBRANCH 22 25
ENDBRANCH 1 22
BRANCH 12 40
ATOM     40 C21  WH0 L   1      -3.118  -0.347  -0.353  1.00  0.00    +0.0468  A
ATOM     41 C22  WH0 L   1      -3.873   0.258   0.665  1.00  0.00    -0.0380  A
ATOM     42 C23  WH0 L   1      -3.959   1.649   0.790  1.00  0.00    -0.0598  A
ATOM     43 C24  WH0 L   1      -3.288   2.472  -0.107  1.00  0.00    -0.0616  A
ATOM     44 C25  WH0 L   1      -2.539   1.900  -1.127  1.00  0.00    -0.0598  A
ATOM     45 C26  WH0 L   1      -2.458   0.506  -1.249  1.00  0.00    -0.0380  A
ATOM     46 H45  WH0 L   1      -4.394  -0.338   1.411  1.00  0.00    +0.0638  H
ATOM     47 H46  WH0 L   1      -4.552   2.083   1.591  1.00  0.00    +0.0618  H
ATOM     48 H47  WH0 L   1      -3.357   3.552  -0.016  1.00  0.00    +0.0618  H
ATOM     49 H48  WH0 L   1      -2.022   2.535  -1.842  1.00  0.00    +0.0618  H
ATOM     50 H49  WH0 L   1      -1.892   0.134  -2.093  1.00  0.00    +0.0638  H
ENDBRANCH 12 40
TORSDOF 6
