ROOT
ATOM      1 C30  WH0 L   1      -1.696  -1.516  -1.476  1.00  0.00    -0.0133  A
ATOM      2 C31  WH0 L   1      -1.575  -2.079  -2.768  1.00  0.00    -0.0519  A
ATOM      3 C32  WH0 L   1      -1.283  -3.436  -2.939  1.00  0.00    -0.0374  A
ATOM      4 C33  WH0 L   1      -1.123  -4.194  -1.800  1.00  0.00    +0.0454  A
ATOM      5 C34  WH0 L   1      -1.236  -3.658  -0.520  1.00  0.00    -0.0145  A
ATOM      6 C35  WH0 L   1      -1.524  -2.318  -0.337  1.00  0.00    -0.0483  A
ATOM      7 C36  WH0 L   1      -0.998  -4.736   0.495  1.00  0.00    +0.0535  C
ATOM      8 C37  WH0 L   1      -0.716  -5.955  -0.393  1.00  0.00    +0.2296  C
ATOM      9 O38  WH0 L   1      -0.445  -7.082  -0.017  1.00  0.00    -0.2725 OA
ATOM     10 N39  WH0 L   1      -0.824  -5.543  -1.716  1.00  0.00    -0.3256  N
ATOM     11 H63  WH0 L   1      -1.697  -1.452  -3.649  1.00  0.00    +0.0624  H
ATOM     12 H64  WH0 L   1      -1.185  -3.864  -3.930  1.00  0.00    +0.0638  H
ATOM     13 H65  WH0 L   1      -1.611  -1.904   0.663  1.00  0.00    +0.0627  H
ATOM     14 H66  WH0 L   1      -0.122  -4.519   1.113  1.00  0.00    +0.0410  H
ATOM     15 H67  WH0 L   1      -1.893  -4.919   1.098  1.00  0.00    +0.0410  H
ATOM     16 H68  WH0 L   1      -0.673  -6.166  -2.496  1.00  0.00    +0.1686 HD
ENDROOT
BRANCH 1 25
ATOM     17 C15  WH0 L   1      -1.257   0.921  -0.616  1.00  0.00    +0.1015  A
ATOM     18 N16  WH0 L   1      -1.900   2.098  -0.679  1.00  0.00    -0.1627 NA
ATOM     19 N17  WH0 L   1      -2.993   1.857  -1.444  1.00  0.00    -0.1987  N
ATOM     20 C18  WH0 L   1      -3.968   2.849  -1.782  1.00  0.00    +0.2283  A
ATOM     21 N25  WH0 L   1      -5.030   2.469  -2.461  1.00  0.00    -0.2207 NA
ATOM     22 C26  WH0 L   1      -5.140   1.144  -2.820  1.00  0.00    +0.0334  A
ATOM     23 C27  WH0 L   1      -4.249   0.181  -2.544  1.00  0.00    -0.0173  A
ATOM     24 C28  WH0 L   1      -3.092   0.534  -1.817  1.00  0.00    +0.0803  A
ATOM     25 C29  WH0 L   1      -1.971  -0.099  -1.323  1.00  0.00    +0.0353  A
ATOM     26 H61  WH0 L   1      -6.043   0.893  -3.373  1.00  0.00    +0.0831  H
ATOM     27 H62  WH0 L   1      -4.417  -0.844  -2.859  1.00  0.00    +0.0654  H
BRANCH 17 31
ATOM     28 C11  WH0 L   1       2.434   0.631   1.539  1.00  0.00    -0.0473  A
ATOM     29 C12  WH0 L   1       1.341   1.319   2.081  1.00  0.00    -0.0580  A
ATOM     30 C13  WH0 L   1       0.141   1.414   1.372  1.00  0.00    -0.0522  A
ATOM     31 C14  WH0 L   1       0.007   0.811   0.114  1.00  0.00    +0.0027  A
ATOM     32 C40  WH0 L   1       1.098   0.125  -0.427  1.00  0.00    -0.0522  A
ATOM     33 C41  WH0 L   1       2.303   0.037   0.277  1.00  0.00    -0.0580  A
ATOM     34 H51  WH0 L   1       1.420   1.796   3.056  1.00  0.00    +0.0620  H
ATOM     35 H52  WH0 L   1      -0.692   1.964   1.802  1.00  0.00    +0.0624  H
ATOM     36 H69  WH0 L   1       1.033  -0.330  -1.414  1.00  0.00    +0.0624  H
ATOM     37 H70  WH0 L   1       3.140  -0.488  -0.176  1.00  0.00    +0.0620  H
BRANCH 28 38
ATOM     38 C10  WH0 L   1       3.733   0.546   2.299  1.00  0.00    -0.0261  C
ATOM     39 H49  WH0 L   1       3.959   1.543   2.700  1.00  0.00    +0.0314  H
ATOM     40 H50  WH0 L   1       4.560   0.318   1.612  1.00  0.00    +0.0314  H
BRANCH 38 41
ATOM     41  C9  WH0 L   1       3.711  -0.454   3.460  1.00  0.00    -0.0315  C
ATOM     42 H47  WH0 L   1       2.905  -0.196   4.158  1.00  0.00    +0.0285  H
ATOM     43 H48  WH0 L   1       4.650  -0.342   4.016  1.00  0.00    +0.0285  H
BRANCH 41 44
ATOM     44  C8  WH0 L   1       3.547  -1.916   3.041  1.00  0.00    +0.0187  C
ATOM     45 H45  WH0 L   1       3.590  -2.552   3.932  1.00  0.00    +0.0486  H
ATOM     46 H46  WH0 L   1       2.576  -2.085   2.567  1.00  0.00    +0.0486  H
BRANCH 44 49
ATOM     47  C5  WH0 L   1       5.854  -2.642   2.526  1.00  0.00    +0.2618  C
ATOM     48  O6  WH0 L   1       6.205  -2.550   3.700  1.00  0.00    -0.2669 OA
ATOM     49  N7  WH0 L   1       4.570  -2.366   2.115  1.00  0.00    -0.3514  N
ATOM     50 H44  WH0 L   1       4.298  -2.450   1.143  1.00  0.00    +0.1626 HD
BRANCH 47 52
ATOM     51  C1  WH0 L   1       8.082  -3.345   1.798  1.00  0.00    -0.0760  C
ATOM     52  C2  WH0 L   1       6.816  -3.055   1.451  1.00  0.00    +0.1085  C
ATOM     53 H42  WH0 L   1       8.825  -3.648   1.066  1.00  0.00    +0.0549  H
ATOM     54 H43  WH0 L   1       8.412  -3.283   2.833  1.00  0.00    +0.0549  H
BRANCH 52 55
ATOM     55  C3  WH0 L   1       6.398  -3.139   0.098  1.00  0.00    +0.1040  C
ATOM     56  N4  WH0 L   1       6.017  -3.186  -0.997  1.00  0.00    -0.1907 NA
ENDBRANCH 52 55
ENDBRANCH 47 52
ENDBRANCH 44 49
ENDBRANCH 41 44
ENDBRANCH 38 41
ENDBRANCH 28 38
ENDBRANCH 17 31
BRANCH 20 57
ATOM     57 N19  WH0 L   1      -3.830   4.186  -1.401  1.00  0.00    -0.3359  N
ATOM     58 C20  WH0 L   1      -2.553   4.820  -1.042  1.00  0.00    +0.0449  C
ATOM     59 C21  WH0 L   1      -2.592   6.330  -1.324  1.00  0.00    +0.0653  C
ATOM     60 O22  WH0 L   1      -3.638   7.022  -0.631  1.00  0.00    -0.3763 OA
ATOM     61 C23  WH0 L   1      -4.819   6.229  -0.450  1.00  0.00    +0.0653  C
ATOM     62 C24  WH0 L   1      -4.977   5.102  -1.480  1.00  0.00    +0.0449  C
ATOM     63 H53  WH0 L   1      -2.364   4.655   0.024  1.00  0.00    +0.0511  H
ATOM     64 H54  WH0 L   1      -1.730   4.402  -1.631  1.00  0.00    +0.0511  H
ATOM     65 H55  WH0 L   1      -1.642   6.791  -1.033  1.00  0.00    +0.0577  H
ATOM     66 H56  WH0 L   1      -2.726   6.515  -2.397  1.00  0.00    +0.0577  H
ATOM     67 H57  WH0 L   1      -4.779   5.812   0.563  1.00  0.00    +0.0577  H
ATOM     68 H58  WH0 L   1      -5.680   6.905  -0.490  1.00  0.00    +0.0577  H
ATOM     69 H59  WH0 L   1      -5.030   5.518  -2.493  1.00  0.00    +0.0511  H
ATOM     70 H60  WH0 L   1      -5.915   4.574  -1.273  1.00  0.00    +0.0511  H
ENDBRANCH 20 57
ENDBRANCH 1 25
TORSDOF 9
