ROOT
ATOM      1 C11  EUB L   1       4.962   1.007   0.245  1.00  0.00    +0.0968  C
ATOM      2 S12  EUB L   1       5.202   0.221   1.879  1.00  0.00    -0.0516 SA
ATOM      3 C13  EUB L   1       6.824   0.834   2.049  1.00  0.00    +0.2870  C
ATOM      4 O14  EUB L   1       7.554   0.580   2.991  1.00  0.00    -0.2599 OA
ATOM      5 N15  EUB L   1       7.159   1.590   0.979  1.00  0.00    -0.2870  N
ATOM      6 C16  EUB L   1       6.301   1.638  -0.077  1.00  0.00    +0.2416  C
ATOM      7 O17  EUB L   1       6.598   2.143  -1.152  1.00  0.00    -0.2716 OA
ATOM      8 H37  EUB L   1       4.232   1.816   0.356  1.00  0.00    +0.0517  H
ATOM      9 H38  EUB L   1       8.098   1.945   0.894  1.00  0.00    +0.1722 HD
ENDROOT
BRANCH 1 10
ATOM     10 C10  EUB L   1       4.556   0.019  -0.851  1.00  0.00    -0.0067  C
ATOM     11 H35  EUB L   1       4.661   0.491  -1.838  1.00  0.00    +0.0329  H
ATOM     12 H36  EUB L   1       5.244  -0.837  -0.880  1.00  0.00    +0.0329  H
BRANCH 10 16
ATOM     13  C6  EUB L   1       0.464  -1.336  -0.480  1.00  0.00    +0.1206  A
ATOM     14  C7  EUB L   1       0.744  -0.086  -1.029  1.00  0.00    -0.0197  A
ATOM     15  C8  EUB L   1       2.069   0.349  -1.151  1.00  0.00    -0.0551  A
ATOM     16  C9  EUB L   1       3.130  -0.462  -0.727  1.00  0.00    -0.0456  A
ATOM     17 C18  EUB L   1       2.843  -1.716  -0.178  1.00  0.00    -0.0551  A
ATOM     18 C19  EUB L   1       1.519  -2.146  -0.057  1.00  0.00    -0.0197  A
ATOM     19 H33  EUB L   1      -0.043   0.578  -1.373  1.00  0.00    +0.0654  H
ATOM     20 H34  EUB L   1       2.263   1.327  -1.587  1.00  0.00    +0.0621  H
ATOM     21 H39  EUB L   1       3.642  -2.369   0.165  1.00  0.00    +0.0621  H
ATOM     22 H40  EUB L   1       1.310  -3.122   0.374  1.00  0.00    +0.0654  H
BRANCH 13 23
ATOM     23  O5  EUB L   1      -0.779  -1.879  -0.304  1.00  0.00    -0.4902 OA
BRANCH 23 24
ATOM     24  C4  EUB L   1      -1.897  -1.090  -0.723  1.00  0.00    +0.1071  C
ATOM     25 H31  EUB L   1      -1.826  -0.890  -1.799  1.00  0.00    +0.0714  H
ATOM     26 H32  EUB L   1      -1.908  -0.142  -0.172  1.00  0.00    +0.0714  H
BRANCH 24 27
ATOM     27  C3  EUB L   1      -3.180  -1.882  -0.428  1.00  0.00    +0.0538  C
ATOM     28 H29  EUB L   1      -3.111  -2.862  -0.919  1.00  0.00    +0.0522  H
ATOM     29 H30  EUB L   1      -3.226  -2.125   0.641  1.00  0.00    +0.0522  H
BRANCH 27 31
ATOM     30  C1  EUB L   1      -4.651  -1.212  -2.316  1.00  0.00    +0.0086  C
ATOM     31  N2  EUB L   1      -4.414  -1.209  -0.873  1.00  0.00    -0.3557  N
ATOM     32 H26  EUB L   1      -4.526  -2.226  -2.713  1.00  0.00    +0.0452  H
ATOM     33 H27  EUB L   1      -3.955  -0.556  -2.850  1.00  0.00    +0.0452  H
ATOM     34 H28  EUB L   1      -5.679  -0.909  -2.547  1.00  0.00    +0.0452  H
BRANCH 31 35
ATOM     35 C20  EUB L   1      -4.685   0.023  -0.256  1.00  0.00    +0.1294  A
ATOM     36 C21  EUB L   1      -4.763   0.108   1.136  1.00  0.00    -0.0195  A
ATOM     37 C22  EUB L   1      -5.028   1.332   1.749  1.00  0.00    -0.0569  A
ATOM     38 C23  EUB L   1      -5.220   2.455   0.960  1.00  0.00    -0.0435  A
ATOM     39 C24  EUB L   1      -5.141   2.297  -0.410  1.00  0.00    +0.0299  A
ATOM     40 N25  EUB L   1      -4.881   1.119  -1.022  1.00  0.00    -0.2382 NA
ATOM     41 H41  EUB L   1      -4.645  -0.778   1.750  1.00  0.00    +0.0654  H
ATOM     42 H42  EUB L   1      -5.094   1.398   2.831  1.00  0.00    +0.0619  H
ATOM     43 H43  EUB L   1      -5.433   3.422   1.399  1.00  0.00    +0.0633  H
ATOM     44 H44  EUB L   1      -5.291   3.139  -1.079  1.00  0.00    +0.0830  H
ENDBRANCH 31 35
ENDBRANCH 27 31
ENDBRANCH 24 27
ENDBRANCH 23 24
ENDBRANCH 13 23
ENDBRANCH 10 16
ENDBRANCH 1 10
TORSDOF 7
