ROOT
ATOM      1  C1  MCU L   1      -6.217  -2.644   2.131  1.00  0.00    -0.0377  C
ATOM      2  C2  MCU L   1      -5.099  -3.169   1.277  1.00  0.00    -0.0265  A
ATOM      3  C3  MCU L   1      -5.139  -4.500   0.833  1.00  0.00    -0.0569  A
ATOM      4  C4  MCU L   1      -4.117  -5.020   0.037  1.00  0.00    -0.0608  A
ATOM      5  C5  MCU L   1      -3.038  -4.217  -0.330  1.00  0.00    -0.0526  A
ATOM      6  C6  MCU L   1      -2.979  -2.889   0.100  1.00  0.00    -0.0009  A
ATOM      7  C7  MCU L   1      -1.861  -2.026  -0.284  1.00  0.00    -0.0424  A
ATOM      8  C8  MCU L   1      -1.800  -0.736   0.095  1.00  0.00    +0.0421  A
ATOM      9 C31  MCU L   1      -2.860  -0.212   1.019  1.00  0.00    +0.2543  A
ATOM     10 O32  MCU L   1      -2.785   0.913   1.511  1.00  0.00    -0.2675 OA
ATOM     11 N33  MCU L   1      -3.904  -1.039   1.327  1.00  0.00    -0.3216  N
ATOM     12 C34  MCU L   1      -4.006  -2.370   0.901  1.00  0.00    +0.0521  A
ATOM     13 H35  MCU L   1      -6.978  -3.410   2.315  1.00  0.00    +0.0278  H
ATOM     14 H36  MCU L   1      -6.710  -1.801   1.636  1.00  0.00    +0.0278  H
ATOM     15 H37  MCU L   1      -5.833  -2.322   3.104  1.00  0.00    +0.0278  H
ATOM     16 H38  MCU L   1      -5.972  -5.146   1.105  1.00  0.00    +0.0621  H
ATOM     17 H39  MCU L   1      -4.164  -6.053  -0.299  1.00  0.00    +0.0618  H
ATOM     18 H40  MCU L   1      -2.252  -4.635  -0.953  1.00  0.00    +0.0624  H
ATOM     19 H41  MCU L   1      -1.085  -2.472  -0.894  1.00  0.00    +0.0629  H
ATOM     20 H70  MCU L   1      -4.607  -0.642   1.934  1.00  0.00    +0.1689 HD
ENDROOT
BRANCH 8 21
ATOM     21  C9  MCU L   1      -0.707   0.279  -0.236  1.00  0.00    +0.1027  C
ATOM     22 H42  MCU L   1      -0.362   0.568   0.764  1.00  0.00    +0.0596  H
BRANCH 21 23
ATOM     23 C10  MCU L   1      -1.223   1.516  -0.934  1.00  0.00    +0.1733  A
ATOM     24 N11  MCU L   1      -1.877   1.564  -2.083  1.00  0.00    -0.1114 NA
ATOM     25 N12  MCU L   1      -2.122   2.884  -2.342  1.00  0.00    -0.0230 NA
ATOM     26 N13  MCU L   1      -1.659   3.650  -1.369  1.00  0.00    -0.0436 NA
ATOM     27 N14  MCU L   1      -1.142   2.802  -0.457  1.00  0.00    -0.2244  N
BRANCH 27 28
ATOM     28 C15  MCU L   1      -0.583   3.315   0.776  1.00  0.00    +0.0564  C
ATOM     29 C16  MCU L   1      -1.467   4.367   1.472  1.00  0.00    -0.0304  C
ATOM     30 C17  MCU L   1      -0.742   5.690   1.270  1.00  0.00    -0.0511  C
ATOM     31 C18  MCU L   1       0.723   5.295   1.338  1.00  0.00    -0.0511  C
ATOM     32 C19  MCU L   1       0.782   3.991   0.553  1.00  0.00    -0.0304  C
ATOM     33 H43  MCU L   1      -0.467   2.476   1.466  1.00  0.00    +0.0546  H
ATOM     34 H44  MCU L   1      -1.510   4.145   2.546  1.00  0.00    +0.0286  H
ATOM     35 H45  MCU L   1      -2.498   4.401   1.107  1.00  0.00    +0.0286  H
ATOM     36 H46  MCU L   1      -0.978   6.110   0.286  1.00  0.00    +0.0266  H
ATOM     37 H47  MCU L   1      -1.008   6.429   2.031  1.00  0.00    +0.0266  H
ATOM     38 H48  MCU L   1       1.020   5.120   2.379  1.00  0.00    +0.0266  H
ATOM     39 H49  MCU L   1       1.382   6.061   0.920  1.00  0.00    +0.0266  H
ATOM     40 H50  MCU L   1       0.962   4.206  -0.508  1.00  0.00    +0.0286  H
ATOM     41 H51  MCU L   1       1.607   3.359   0.898  1.00  0.00    +0.0286  H
ENDBRANCH 27 28
ENDBRANCH 21 23
BRANCH 21 42
ATOM     42 N20  MCU L   1       0.505  -0.309  -0.881  1.00  0.00    -0.2884 NA
ATOM     43 C21  MCU L   1       0.424  -0.522  -2.339  1.00  0.00    -0.0001  C
ATOM     44 C22  MCU L   1       1.789  -0.849  -2.971  1.00  0.00    -0.0396  C
ATOM     45 C23  MCU L   1       2.741  -1.488  -1.967  1.00  0.00    -0.0450  C
ATOM     46 C24  MCU L   1       2.961  -0.574  -0.724  1.00  0.00    -0.0164  C
ATOM     47 C25  MCU L   1       3.106  -1.461   0.543  1.00  0.00    -0.0462  C
ATOM     48 C26  MCU L   1       4.398  -2.278   0.557  1.00  0.00    -0.0525  C
ATOM     49 C27  MCU L   1       5.621  -1.379   0.427  1.00  0.00    -0.0530  C
ATOM     50 C28  MCU L   1       5.546  -0.500  -0.815  1.00  0.00    -0.0525  C
ATOM     51 C29  MCU L   1       4.239   0.292  -0.879  1.00  0.00    -0.0462  C
ATOM     52 C30  MCU L   1       1.748   0.392  -0.548  1.00  0.00    +0.0055  C
ATOM     53 H52  MCU L   1       0.054   0.357  -2.874  1.00  0.00    +0.0427  H
ATOM     54 H53  MCU L   1      -0.267  -1.340  -2.561  1.00  0.00    +0.0427  H
ATOM     55 H54  MCU L   1       1.645  -1.516  -3.829  1.00  0.00    +0.0278  H
ATOM     56 H55  MCU L   1       2.244   0.071  -3.360  1.00  0.00    +0.0278  H
ATOM     57 H56  MCU L   1       3.684  -1.729  -2.468  1.00  0.00    +0.0271  H
ATOM     58 H57  MCU L   1       2.308  -2.450  -1.662  1.00  0.00    +0.0271  H
ATOM     59 H58  MCU L   1       2.248  -2.138   0.639  1.00  0.00    +0.0271  H
ATOM     60 H59  MCU L   1       3.095  -0.826   1.439  1.00  0.00    +0.0271  H
ATOM     61 H60  MCU L   1       4.460  -2.843   1.494  1.00  0.00    +0.0265  H
ATOM     62 H61  MCU L   1       4.389  -3.014  -0.255  1.00  0.00    +0.0265  H
ATOM     63 H62  MCU L   1       5.703  -0.744   1.318  1.00  0.00    +0.0265  H
ATOM     64 H63  MCU L   1       6.529  -1.992   0.391  1.00  0.00    +0.0265  H
ATOM     65 H64  MCU L   1       5.657  -1.122  -1.710  1.00  0.00    +0.0265  H
ATOM     66 H65  MCU L   1       6.392   0.197  -0.819  1.00  0.00    +0.0265  H
ATOM     67 H66  MCU L   1       4.260   1.046  -0.080  1.00  0.00    +0.0271  H
ATOM     68 H67  MCU L   1       4.204   0.847  -1.825  1.00  0.00    +0.0271  H
ATOM     69 H68  MCU L   1       1.857   1.290  -1.171  1.00  0.00    +0.0432  H
ATOM     70 H69  MCU L   1       1.740   0.747   0.490  1.00  0.00    +0.0432  H
ENDBRANCH 21 42
ENDBRANCH 8 21
TORSDOF 4
