ROOT
ATOM      1  C3  MCU L   1      -4.869  -2.084   0.505  1.00  0.00    -0.0047  A
ATOM      2  C4  MCU L   1      -5.683  -3.150   0.442  1.00  0.00    -0.0537  A
ATOM      3  C5  MCU L   1      -5.275  -4.362  -0.213  1.00  0.00    -0.0447  A
ATOM      4  C6  MCU L   1      -4.058  -4.445  -0.759  1.00  0.00    +0.0146  A
ATOM      5  N7  MCU L   1      -3.162  -3.384  -0.717  1.00  0.00    -0.2674  N
ATOM      6  C8  MCU L   1      -1.909  -3.537  -1.286  1.00  0.00    +0.2676  A
ATOM      7  O9  MCU L   1      -1.516  -4.570  -1.833  1.00  0.00    -0.2665 OA
ATOM      8 C10  MCU L   1      -1.003  -2.359  -1.205  1.00  0.00    +0.0837  A
ATOM      9 C11  MCU L   1       0.345  -2.451  -1.736  1.00  0.00    -0.0249  A
ATOM     10 C12  MCU L   1       1.224  -1.434  -1.703  1.00  0.00    +0.0951  A
ATOM     11 C15  MCU L   1       0.726  -0.127  -1.096  1.00  0.00    +0.1566  A
ATOM     12 N16  MCU L   1       1.396   0.998  -1.035  1.00  0.00    -0.1898 NA
ATOM     13 C17  MCU L   1       2.558   1.180  -1.734  1.00  0.00    +0.2794  C
ATOM     14 O18  MCU L   1       2.619   1.086  -2.953  1.00  0.00    -0.2652 OA
ATOM     15 N28  MCU L   1      -0.576  -0.118  -0.534  1.00  0.00    -0.3067  N
ATOM     16 C33  MCU L   1      -1.438  -1.238  -0.594  1.00  0.00    +0.1499  A
ATOM     17 N34  MCU L   1      -2.691  -1.173  -0.037  1.00  0.00    -0.2110 NA
ATOM     18 C35  MCU L   1      -3.495  -2.186  -0.106  1.00  0.00    +0.1457  A
ATOM     19 H41  MCU L   1      -6.677  -3.127   0.879  1.00  0.00    +0.0622  H
ATOM     20 H42  MCU L   1      -5.967  -5.197  -0.251  1.00  0.00    +0.0632  H
ATOM     21 H43  MCU L   1      -3.728  -5.354  -1.257  1.00  0.00    +0.0814  H
ATOM     22 H44  MCU L   1       0.650  -3.424  -2.120  1.00  0.00    +0.0640  H
ENDROOT
BRANCH 1 24
ATOM     23  C1  MCU L   1      -5.665   0.285   0.213  1.00  0.00    -0.0612  C
ATOM     24  C2  MCU L   1      -5.256  -0.803   1.196  1.00  0.00    -0.0271  C
ATOM     25 H36  MCU L   1      -4.846   0.551  -0.463  1.00  0.00    +0.0233  H
ATOM     26 H37  MCU L   1      -6.518  -0.034  -0.396  1.00  0.00    +0.0233  H
ATOM     27 H38  MCU L   1      -5.958   1.190   0.755  1.00  0.00    +0.0233  H
ATOM     28 H39  MCU L   1      -6.093  -0.985   1.881  1.00  0.00    +0.0312  H
ATOM     29 H40  MCU L   1      -4.431  -0.448   1.824  1.00  0.00    +0.0312  H
ENDBRANCH 1 24
BRANCH 10 30
ATOM     30 C13  MCU L   1       2.572  -1.679  -2.080  1.00  0.00    +0.1028  C
ATOM     31 N14  MCU L   1       3.675  -1.937  -2.336  1.00  0.00    -0.1908 NA
ENDBRANCH 10 30
BRANCH 13 32
ATOM     32 C19  MCU L   1       3.763   1.569  -0.943  1.00  0.00    +0.0450  A
ATOM     33 C20  MCU L   1       3.680   1.798   0.450  1.00  0.00    -0.0457  A
ATOM     34 C21  MCU L   1       4.816   2.158   1.182  1.00  0.00    -0.0154  A
ATOM     35 C22  MCU L   1       6.006   2.279   0.499  1.00  0.00    +0.1663  A
ATOM     36 C23  MCU L   1       6.091   2.057  -0.856  1.00  0.00    +0.1670  A
ATOM     37 C24  MCU L   1       4.992   1.701  -1.607  1.00  0.00    -0.0038  A
ATOM     38 O25  MCU L   1       7.354   2.230  -1.330  1.00  0.00    -0.4526 OA
ATOM     39 C26  MCU L   1       8.057   2.575  -0.119  1.00  0.00    +0.2332  C
ATOM     40 O27  MCU L   1       7.204   2.618   1.045  1.00  0.00    -0.4526 OA
ATOM     41 H45  MCU L   1       2.730   1.700   0.970  1.00  0.00    +0.0626  H
ATOM     42 H46  MCU L   1       4.766   2.336   2.251  1.00  0.00    +0.0655  H
ATOM     43 H47  MCU L   1       5.083   1.523  -2.674  1.00  0.00    +0.0663  H
ATOM     44 H48  MCU L   1       8.520   3.560  -0.250  1.00  0.00    +0.1166  H
ATOM     45 H49  MCU L   1       8.847   1.834   0.053  1.00  0.00    +0.1166  H
ENDBRANCH 13 32
BRANCH 15 46
ATOM     46 C29  MCU L   1      -1.081   1.132   0.077  1.00  0.00    +0.0500  C
ATOM     47 H50  MCU L   1      -2.171   1.223  -0.021  1.00  0.00    +0.0515  H
ATOM     48 H51  MCU L   1      -0.711   2.009  -0.468  1.00  0.00    +0.0515  H
BRANCH 46 49
ATOM     49 C30  MCU L   1      -0.698   1.206   1.558  1.00  0.00    +0.0653  C
ATOM     50 H52  MCU L   1      -1.200   0.395   2.098  1.00  0.00    +0.0577  H
ATOM     51 H53  MCU L   1       0.378   1.061   1.709  1.00  0.00    +0.0577  H
BRANCH 49 52
ATOM     52 O31  MCU L   1      -1.120   2.429   2.169  1.00  0.00    -0.3812 OA
ATOM     53 C32  MCU L   1      -0.232   3.511   1.916  1.00  0.00    +0.0365  C
ATOM     54 H54  MCU L   1      -0.607   4.391   2.445  1.00  0.00    +0.0523  H
ATOM     55 H55  MCU L   1       0.770   3.281   2.292  1.00  0.00    +0.0523  H
ATOM     56 H56  MCU L   1      -0.188   3.744   0.849  1.00  0.00    +0.0523  H
ENDBRANCH 49 52
ENDBRANCH 46 49
ENDBRANCH 15 46
TORSDOF 6
