ROOT
ATOM      1  C1  EUB L   1       3.652   4.660  -0.867  1.00  0.00    -0.0397  C
ATOM      2  C2  EUB L   1       2.718   3.494  -0.733  1.00  0.00    -0.0498  A
ATOM      3  C3  EUB L   1       1.349   3.657  -0.952  1.00  0.00    -0.0569  A
ATOM      4  C4  EUB L   1       0.462   2.579  -0.865  1.00  0.00    -0.0373  A
ATOM      5  C5  EUB L   1       0.984   1.311  -0.561  1.00  0.00    +0.0496  A
ATOM      6  C6  EUB L   1       2.354   1.111  -0.351  1.00  0.00    +0.0048  A
ATOM      7  C7  EUB L   1       3.226   2.216  -0.445  1.00  0.00    -0.0494  A
ATOM      8  C8  EUB L   1       2.541  -0.272  -0.071  1.00  0.00    -0.0049  A
ATOM      9  C9  EUB L   1       1.297  -0.867  -0.101  1.00  0.00    +0.0254  A
ATOM     10 N10  EUB L   1       0.362   0.082  -0.412  1.00  0.00    -0.3431  N
ATOM     11 C20  EUB L   1       1.076  -2.322   0.130  1.00  0.00    +0.0008  C
ATOM     12 C21  EUB L   1       2.359  -2.944   0.738  1.00  0.00    +0.0043  C
ATOM     13 N22  EUB L   1       3.591  -2.477   0.058  1.00  0.00    -0.3007 NA
ATOM     14 C23  EUB L   1       4.758  -3.213   0.539  1.00  0.00    -0.0124  C
ATOM     15 C24  EUB L   1       3.799  -1.019   0.249  1.00  0.00    +0.0260  C
ATOM     16 H25  EUB L   1       4.000   4.744  -1.902  1.00  0.00    +0.0278  H
ATOM     17 H26  EUB L   1       3.155   5.594  -0.584  1.00  0.00    +0.0278  H
ATOM     18 H27  EUB L   1       4.520   4.544  -0.210  1.00  0.00    +0.0278  H
ATOM     19 H28  EUB L   1       0.952   4.641  -1.197  1.00  0.00    +0.0621  H
ATOM     20 H29  EUB L   1      -0.599   2.731  -1.036  1.00  0.00    +0.0638  H
ATOM     21 H30  EUB L   1       4.292   2.072  -0.294  1.00  0.00    +0.0627  H
ATOM     22 H41  EUB L   1       0.231  -2.493   0.806  1.00  0.00    +0.0340  H
ATOM     23 H42  EUB L   1       0.852  -2.807  -0.828  1.00  0.00    +0.0340  H
ATOM     24 H43  EUB L   1       2.272  -4.035   0.654  1.00  0.00    +0.0430  H
ATOM     25 H44  EUB L   1       2.410  -2.707   1.810  1.00  0.00    +0.0430  H
ATOM     26 H45  EUB L   1       4.645  -4.284   0.342  1.00  0.00    +0.0391  H
ATOM     27 H46  EUB L   1       4.920  -3.077   1.615  1.00  0.00    +0.0391  H
ATOM     28 H47  EUB L   1       5.661  -2.890   0.010  1.00  0.00    +0.0391  H
ATOM     29 H48  EUB L   1       4.087  -0.796   1.284  1.00  0.00    +0.0476  H
ATOM     30 H49  EUB L   1       4.604  -0.679  -0.413  1.00  0.00    +0.0476  H
ENDROOT
BRANCH 10 31
ATOM     31 C11  EUB L   1      -1.064  -0.156  -0.564  1.00  0.00    +0.0276  C
ATOM     32 H31  EUB L   1      -1.198  -1.188  -0.909  1.00  0.00    +0.0495  H
ATOM     33 H32  EUB L   1      -1.428   0.490  -1.372  1.00  0.00    +0.0495  H
BRANCH 31 34
ATOM     34 C12  EUB L   1      -1.821   0.095   0.739  1.00  0.00    -0.0082  C
ATOM     35 H33  EUB L   1      -1.668   1.128   1.079  1.00  0.00    +0.0331  H
ATOM     36 H34  EUB L   1      -1.422  -0.538   1.542  1.00  0.00    +0.0331  H
BRANCH 34 37
ATOM     37 C13  EUB L   1      -3.293  -0.165   0.580  1.00  0.00    -0.0276  A
ATOM     38 C14  EUB L   1      -4.173   0.844   0.189  1.00  0.00    -0.0554  A
ATOM     39 C15  EUB L   1      -5.526   0.554   0.029  1.00  0.00    -0.0404  A
ATOM     40 C16  EUB L   1      -5.967  -0.745   0.259  1.00  0.00    +0.0382  A
ATOM     41 C17  EUB L   1      -7.417  -1.088   0.094  1.00  0.00    -0.0224  C
ATOM     42 N18  EUB L   1      -5.132  -1.741   0.634  1.00  0.00    -0.2599 NA
ATOM     43 C19  EUB L   1      -3.825  -1.433   0.786  1.00  0.00    +0.0311  A
ATOM     44 H35  EUB L   1      -3.816   1.855   0.009  1.00  0.00    +0.0621  H
ATOM     45 H36  EUB L   1      -6.221   1.332  -0.272  1.00  0.00    +0.0635  H
ATOM     46 H37  EUB L   1      -7.737  -0.895  -0.934  1.00  0.00    +0.0292  H
ATOM     47 H38  EUB L   1      -8.027  -0.490   0.779  1.00  0.00    +0.0292  H
ATOM     48 H39  EUB L   1      -7.595  -2.145   0.314  1.00  0.00    +0.0292  H
ATOM     49 H40  EUB L   1      -3.198  -2.268   1.086  1.00  0.00    +0.0832  H
ENDBRANCH 34 37
ENDBRANCH 31 34
ENDBRANCH 10 31
TORSDOF 3
