ROOT
ATOM      1  C6  MCU L   1       1.324  -0.415   1.488  1.00  0.00    +0.1707  C
ATOM      2  O7  MCU L   1       1.026  -1.752   1.911  1.00  0.00    -0.4758 OA
ATOM      3  C8  MCU L   1       0.175  -2.595   1.187  1.00  0.00    +0.1457  A
ATOM      4  C9  MCU L   1       0.259  -3.981   1.348  1.00  0.00    -0.0178  A
ATOM      5 C10  MCU L   1      -0.542  -4.822   0.571  1.00  0.00    -0.0582  A
ATOM      6 C11  MCU L   1      -1.417  -4.277  -0.374  1.00  0.00    -0.0596  A
ATOM      7 C12  MCU L   1      -1.518  -2.889  -0.523  1.00  0.00    -0.0342  A
ATOM      8 C13  MCU L   1      -0.754  -2.034   0.295  1.00  0.00    +0.0890  A
ATOM      9 N14  MCU L   1      -0.834  -0.593   0.240  1.00  0.00    -0.3033  N
ATOM     10 C15  MCU L   1      -1.801   0.220  -0.263  1.00  0.00    +0.0687  A
ATOM     11 C23  MCU L   1      -1.432   1.539  -0.048  1.00  0.00    +0.0893  A
ATOM     12 C24  MCU L   1      -2.091   2.734  -0.312  1.00  0.00    +0.2661  A
ATOM     13 O25  MCU L   1      -3.209   2.730  -0.896  1.00  0.00    -0.2668 OA
ATOM     14 N26  MCU L   1      -1.503   3.910   0.080  1.00  0.00    -0.2634  N
ATOM     15 C27  MCU L   1      -2.163   5.194  -0.216  1.00  0.00    +0.0196  C
ATOM     16 C28  MCU L   1      -0.263   3.902   0.691  1.00  0.00    +0.3320  A
ATOM     17 O29  MCU L   1       0.275   5.000   1.008  1.00  0.00    -0.2463 OA
ATOM     18 N30  MCU L   1       0.391   2.714   0.960  1.00  0.00    -0.2944  N
ATOM     19 C31  MCU L   1       1.699   2.728   1.636  1.00  0.00    +0.0167  C
ATOM     20 C32  MCU L   1      -0.227   1.543   0.601  1.00  0.00    +0.0839  A
ATOM     21 C33  MCU L   1       0.118   0.199   0.796  1.00  0.00    +0.0939  A
ATOM     22 H42  MCU L   1       1.518   0.176   2.400  1.00  0.00    +0.0853  H
ATOM     23 H43  MCU L   1       0.961  -4.405   2.055  1.00  0.00    +0.0655  H
ATOM     24 H44  MCU L   1      -0.469  -5.896   0.685  1.00  0.00    +0.0619  H
ATOM     25 H45  MCU L   1      -2.014  -4.931  -0.998  1.00  0.00    +0.0618  H
ATOM     26 H46  MCU L   1      -2.168  -2.509  -1.294  1.00  0.00    +0.0639  H
ATOM     27 H51  MCU L   1      -1.791   5.589  -1.184  1.00  0.00    +0.0458  H
ATOM     28 H52  MCU L   1      -3.267   5.083  -0.270  1.00  0.00    +0.0458  H
ATOM     29 H53  MCU L   1      -1.965   5.938   0.584  1.00  0.00    +0.0458  H
ATOM     30 H54  MCU L   1       2.151   3.741   1.666  1.00  0.00    +0.0457  H
ATOM     31 H55  MCU L   1       1.585   2.389   2.686  1.00  0.00    +0.0457  H
ATOM     32 H56  MCU L   1       2.424   2.103   1.084  1.00  0.00    +0.0457  H
ENDROOT
BRANCH 1 37
ATOM     33  C1  MCU L   1       6.098  -0.568  -1.892  1.00  0.00    -0.0396  C
ATOM     34  C2  MCU L   1       4.875  -0.513  -1.024  1.00  0.00    -0.0470  A
ATOM     35  C3  MCU L   1       3.602  -0.492  -1.602  1.00  0.00    -0.0582  A
ATOM     36  C4  MCU L   1       2.462  -0.467  -0.798  1.00  0.00    -0.0509  A
ATOM     37  C5  MCU L   1       2.569  -0.456   0.610  1.00  0.00    +0.0400  A
ATOM     38 C34  MCU L   1       3.860  -0.555   1.190  1.00  0.00    +0.1242  A
ATOM     39 O35  MCU L   1       4.058  -0.659   2.569  1.00  0.00    -0.5064 OA
ATOM     40 C36  MCU L   1       4.995  -0.566   0.370  1.00  0.00    -0.0169  A
ATOM     41 H37  MCU L   1       5.931  -0.010  -2.838  1.00  0.00    +0.0278  H
ATOM     42 H38  MCU L   1       6.968  -0.112  -1.374  1.00  0.00    +0.0278  H
ATOM     43 H39  MCU L   1       6.333  -1.627  -2.132  1.00  0.00    +0.0278  H
ATOM     44 H40  MCU L   1       3.491  -0.493  -2.680  1.00  0.00    +0.0620  H
ATOM     45 H41  MCU L   1       1.498  -0.455  -1.288  1.00  0.00    +0.0623  H
ATOM     46 H57  MCU L   1       3.307  -0.760   3.239  1.00  0.00    +0.2921 HD
ATOM     47 H58  MCU L   1       5.975  -0.632   0.826  1.00  0.00    +0.0657  H
ENDBRANCH 1 37
BRANCH 10 48
ATOM     48 C16  MCU L   1      -3.117  -0.219  -0.762  1.00  0.00    -0.0002  A
ATOM     49 C17  MCU L   1      -4.018  -0.863   0.101  1.00  0.00    -0.0499  A
ATOM     50 C18  MCU L   1      -5.262  -1.291  -0.375  1.00  0.00    -0.0258  A
ATOM     51 C19  MCU L   1      -5.612  -1.075  -1.712  1.00  0.00    +0.1234  A
ATOM     52 F20  MCU L   1      -6.818  -1.489  -2.173  1.00  0.00    -0.2055  F
ATOM     53 C21  MCU L   1      -4.719  -0.430  -2.574  1.00  0.00    -0.0258  A
ATOM     54 C22  MCU L   1      -3.474  -0.003  -2.101  1.00  0.00    -0.0499  A
ATOM     55 H47  MCU L   1      -3.756  -1.033   1.137  1.00  0.00    +0.0625  H
ATOM     56 H48  MCU L   1      -5.952  -1.789   0.292  1.00  0.00    +0.0646  H
ATOM     57 H49  MCU L   1      -4.989  -0.264  -3.610  1.00  0.00    +0.0646  H
ATOM     58 H50  MCU L   1      -2.786   0.488  -2.778  1.00  0.00    +0.0625  H
ENDBRANCH 10 48
TORSDOF 2
