ROOT
ATOM      1 N13  CHE L   1       0.191  -0.180  -0.598  1.00  0.00    -0.3357  N
ATOM      2 C14  CHE L   1      -0.700   0.172   0.407  1.00  0.00    +0.0295  A
ATOM      3 C15  CHE L   1      -0.704   1.512   1.072  1.00  0.00    -0.0235  C
ATOM      4 C16  CHE L   1      -1.539  -0.913   0.640  1.00  0.00    +0.0671  A
ATOM      5 C31  CHE L   1      -1.187  -1.926  -0.310  1.00  0.00    +0.0125  A
ATOM      6 C32  CHE L   1      -1.667  -3.232  -0.567  1.00  0.00    -0.0518  A
ATOM      7 C33  CHE L   1      -1.136  -3.986  -1.615  1.00  0.00    -0.0611  A
ATOM      8 C34  CHE L   1      -0.130  -3.461  -2.412  1.00  0.00    -0.0598  A
ATOM      9 C35  CHE L   1       0.381  -2.183  -2.170  1.00  0.00    -0.0376  A
ATOM     10 C36  CHE L   1      -0.143  -1.429  -1.101  1.00  0.00    +0.0504  A
ATOM     11 H57  CHE L   1       0.176   1.625   1.712  1.00  0.00    +0.0292  H
ATOM     12 H58  CHE L   1      -0.699   2.316   0.325  1.00  0.00    +0.0292  H
ATOM     13 H59  CHE L   1      -1.588   1.661   1.693  1.00  0.00    +0.0292  H
ATOM     14 H71  CHE L   1      -2.451  -3.663   0.051  1.00  0.00    +0.0624  H
ATOM     15 H72  CHE L   1      -1.514  -4.986  -1.806  1.00  0.00    +0.0618  H
ATOM     16 H73  CHE L   1       0.273  -4.053  -3.231  1.00  0.00    +0.0618  H
ATOM     17 H74  CHE L   1       1.169  -1.804  -2.812  1.00  0.00    +0.0638  H
ENDROOT
BRANCH 1 18
ATOM     18 C11  CHE L   1       1.283   0.682  -1.072  1.00  0.00    +0.0828  C
ATOM     19 C12  CHE L   1       0.958   1.283  -2.446  1.00  0.00    -0.0395  C
ATOM     20 H53  CHE L   1       1.311   1.531  -0.383  1.00  0.00    +0.0575  H
ATOM     21 H54  CHE L   1       1.700   2.036  -2.730  1.00  0.00    +0.0251  H
ATOM     22 H55  CHE L   1       0.939   0.520  -3.228  1.00  0.00    +0.0251  H
ATOM     23 H56  CHE L   1      -0.023   1.771  -2.436  1.00  0.00    +0.0251  H
BRANCH 18 27
ATOM     24  C7  CHE L   1       4.339   1.279   0.989  1.00  0.00    +0.0572  C
ATOM     25  C8  CHE L   1       4.053   1.909  -0.391  1.00  0.00    +0.0684  C
ATOM     26  O9  CHE L   1       3.731   0.957  -1.405  1.00  0.00    -0.3476 OA
ATOM     27 C10  CHE L   1       2.700   0.034  -1.032  1.00  0.00    +0.1795  C
ATOM     28 O37  CHE L   1       3.026  -0.645   0.179  1.00  0.00    -0.3476 OA
ATOM     29 C38  CHE L   1       3.254   0.225   1.279  1.00  0.00    +0.0684  C
ATOM     30 H49  CHE L   1       4.202   2.092   1.716  1.00  0.00    +0.0508  H
ATOM     31 H50  CHE L   1       4.914   2.491  -0.739  1.00  0.00    +0.0577  H
ATOM     32 H51  CHE L   1       3.226   2.624  -0.308  1.00  0.00    +0.0577  H
ATOM     33 H52  CHE L   1       2.744  -0.738  -1.804  1.00  0.00    +0.0931  H
ATOM     34 H75  CHE L   1       2.319   0.733   1.531  1.00  0.00    +0.0577  H
ATOM     35 H76  CHE L   1       3.500  -0.386   2.152  1.00  0.00    +0.0577  H
BRANCH 24 36
ATOM     36  N5  CHE L   1       5.756   0.850   1.151  1.00  0.00    -0.2960 NA
ATOM     37  C6  CHE L   1       6.070   0.533   2.544  1.00  0.00    -0.0122  C
ATOM     38 H46  CHE L   1       7.152   0.469   2.698  1.00  0.00    +0.0391  H
ATOM     39 H47  CHE L   1       5.728   1.331   3.212  1.00  0.00    +0.0391  H
ATOM     40 H48  CHE L   1       5.618  -0.408   2.875  1.00  0.00    +0.0391  H
BRANCH 36 41
ATOM     41  C4  CHE L   1       6.172  -0.229   0.227  1.00  0.00    +0.0225  C
ATOM     42 H44  CHE L   1       5.878   0.032  -0.793  1.00  0.00    +0.0449  H
ATOM     43 H45  CHE L   1       5.673  -1.170   0.489  1.00  0.00    +0.0449  H
BRANCH 41 44
ATOM     44  C3  CHE L   1       7.696  -0.475   0.163  1.00  0.00    +0.0600  C
ATOM     45 H42  CHE L   1       8.100  -0.752   1.142  1.00  0.00    +0.0572  H
ATOM     46 H43  CHE L   1       7.887  -1.309  -0.526  1.00  0.00    +0.0572  H
BRANCH 44 48
ATOM     47  C1  CHE L   1       9.776   0.506  -0.373  1.00  0.00    +0.0365  C
ATOM     48  O2  CHE L   1       8.368   0.688  -0.339  1.00  0.00    -0.3817 OA
ATOM     49 H39  CHE L   1      10.171   0.389   0.641  1.00  0.00    +0.0523  H
ATOM     50 H40  CHE L   1      10.034  -0.365  -0.982  1.00  0.00    +0.0523  H
ATOM     51 H41  CHE L   1      10.229   1.395  -0.824  1.00  0.00    +0.0523  H
ENDBRANCH 44 48
ENDBRANCH 41 44
ENDBRANCH 36 41
ENDBRANCH 24 36
ENDBRANCH 18 27
ENDBRANCH 1 18
BRANCH 4 52
ATOM     52 C17  CHE L   1      -2.587  -0.945   1.661  1.00  0.00    +0.2546  C
ATOM     53 O18  CHE L   1      -2.448  -0.435   2.766  1.00  0.00    -0.2675 OA
ATOM     54 N19  CHE L   1      -3.754  -1.542   1.243  1.00  0.00    -0.3477  N
ATOM     55 H60  CHE L   1      -3.837  -1.740   0.254  1.00  0.00    +0.1630 HD
BRANCH 54 56
ATOM     56 C20  CHE L   1      -4.992  -1.405   1.984  1.00  0.00    +0.0499  C
ATOM     57 H61  CHE L   1      -5.540  -2.348   1.879  1.00  0.00    +0.0538  H
ATOM     58 H62  CHE L   1      -4.768  -1.280   3.046  1.00  0.00    +0.0538  H
BRANCH 56 59
ATOM     59 C21  CHE L   1      -5.800  -0.271   1.411  1.00  0.00    +0.0493  A
ATOM     60 C22  CHE L   1      -6.264  -0.159   0.144  1.00  0.00    +0.0192  A
ATOM     61 C25  CHE L   1      -6.952   1.043  -0.297  1.00  0.00    -0.0288  A
ATOM     62 C26  CHE L   1      -7.199   2.047   0.556  1.00  0.00    +0.0170  A
ATOM     63 C27  CHE L   1      -7.884   3.321   0.170  1.00  0.00    -0.0243  C
ATOM     64 N28  CHE L   1      -6.806   1.916   1.861  1.00  0.00    -0.3262  N
ATOM     65 C29  CHE L   1      -6.149   0.826   2.374  1.00  0.00    +0.2548  A
ATOM     66 O30  CHE L   1      -5.890   0.762   3.572  1.00  0.00    -0.2675 OA
ATOM     67 H66  CHE L   1      -7.242   1.124  -1.340  1.00  0.00    +0.0646  H
ATOM     68 H67  CHE L   1      -8.070   3.369  -0.909  1.00  0.00    +0.0292  H
ATOM     69 H68  CHE L   1      -8.848   3.407   0.683  1.00  0.00    +0.0292  H
ATOM     70 H69  CHE L   1      -7.267   4.188   0.438  1.00  0.00    +0.0292  H
ATOM     71 H70  CHE L   1      -7.002   2.653   2.532  1.00  0.00    +0.1686 HD
BRANCH 60 72
ATOM     72 S23  CHE L   1      -6.019  -1.402  -1.060  1.00  0.00    -0.1280 SA
ATOM     73 C24  CHE L   1      -7.711  -2.020  -1.220  1.00  0.00    -0.0134  C
ATOM     74 H63  CHE L   1      -8.106  -2.322  -0.246  1.00  0.00    +0.0344  H
ATOM     75 H64  CHE L   1      -8.362  -1.255  -1.653  1.00  0.00    +0.0344  H
ATOM     76 H65  CHE L   1      -7.717  -2.891  -1.882  1.00  0.00    +0.0344  H
ENDBRANCH 60 72
ENDBRANCH 56 59
ENDBRANCH 54 56
ENDBRANCH 4 52
TORSDOF 10
