ROOT
ATOM      1  C1  828 L   1      -3.902  -1.615   0.748  1.00  0.00    -0.0355  C
ATOM      2  C2  828 L   1      -4.442  -0.312   0.225  1.00  0.00    +0.0032  A
ATOM      3  C3  828 L   1      -5.756   0.084   0.508  1.00  0.00    +0.1205  A
ATOM      4  O4  828 L   1      -6.541  -0.728   1.280  1.00  0.00    -0.5065 OA
ATOM      5  C5  828 L   1      -6.280   1.285   0.022  1.00  0.00    -0.0199  A
ATOM      6  C6  828 L   1      -5.494   2.113  -0.776  1.00  0.00    -0.0576  A
ATOM      7  C7  828 L   1      -4.190   1.737  -1.088  1.00  0.00    -0.0489  A
ATOM      8  C8  828 L   1      -3.664   0.531  -0.593  1.00  0.00    +0.0453  A
ATOM      9 H22  828 L   1      -4.464  -1.974   1.616  1.00  0.00    +0.0279  H
ATOM     10 H23  828 L   1      -3.950  -2.381  -0.032  1.00  0.00    +0.0279  H
ATOM     11 H24  828 L   1      -2.866  -1.503   1.086  1.00  0.00    +0.0279  H
ATOM     12 H25  828 L   1      -7.433  -0.349   1.338  1.00  0.00    +0.2921 HD
ATOM     13 H26  828 L   1      -7.299   1.585   0.250  1.00  0.00    +0.0654  H
ATOM     14 H27  828 L   1      -5.902   3.042  -1.166  1.00  0.00    +0.0619  H
ATOM     15 H28  828 L   1      -3.594   2.371  -1.740  1.00  0.00    +0.0625  H
ENDROOT
BRANCH 8 16
ATOM     16  C9  828 L   1      -2.275   0.165  -0.977  1.00  0.00    +0.2525  C
ATOM     17 O10  828 L   1      -2.014  -0.945  -1.420  1.00  0.00    -0.2676 OA
ATOM     18 N11  828 L   1      -1.336   1.155  -0.774  1.00  0.00    -0.3508  N
ATOM     19 H29  828 L   1      -1.598   1.980  -0.250  1.00  0.00    +0.1627 HD
BRANCH 18 20
ATOM     20 C12  828 L   1       0.076   0.913  -1.013  1.00  0.00    +0.0311  C
ATOM     21 H30  828 L   1       0.558   1.895  -1.072  1.00  0.00    +0.0499  H
ATOM     22 H31  828 L   1       0.172   0.423  -1.988  1.00  0.00    +0.0499  H
BRANCH 20 23
ATOM     23 C13  828 L   1       0.722   0.061   0.097  1.00  0.00    +0.0164  C
ATOM     24 H32  828 L   1       0.447   0.523   1.055  1.00  0.00    +0.0444  H
ATOM     25 H33  828 L   1       0.284  -0.946   0.105  1.00  0.00    +0.0444  H
BRANCH 23 26
ATOM     26 N14  828 L   1       2.198  -0.010   0.015  1.00  0.00    -0.3003 NA
ATOM     27 C15  828 L   1       2.629  -0.777  -1.170  1.00  0.00    -0.0010  C
ATOM     28 C16  828 L   1       4.154  -0.855  -1.270  1.00  0.00    -0.0398  C
ATOM     29 C17  828 L   1       4.777  -1.413   0.006  1.00  0.00    -0.0458  C
ATOM     30 C18  828 L   1       4.265  -0.678   1.253  1.00  0.00    -0.0050  C
ATOM     31 C21  828 L   1       2.729  -0.637   1.241  1.00  0.00    +0.0039  C
ATOM     32 H34  828 L   1       2.211  -1.792  -1.148  1.00  0.00    +0.0426  H
ATOM     33 H35  828 L   1       2.269  -0.297  -2.086  1.00  0.00    +0.0426  H
ATOM     34 H36  828 L   1       4.432  -1.489  -2.120  1.00  0.00    +0.0278  H
ATOM     35 H37  828 L   1       4.561   0.142  -1.479  1.00  0.00    +0.0278  H
ATOM     36 H38  828 L   1       4.513  -2.475   0.089  1.00  0.00    +0.0269  H
ATOM     37 H39  828 L   1       5.870  -1.369  -0.061  1.00  0.00    +0.0269  H
ATOM     38 H40  828 L   1       4.592  -1.258   2.127  1.00  0.00    +0.0335  H
ATOM     39 H44  828 L   1       2.338  -1.658   1.347  1.00  0.00    +0.0430  H
ATOM     40 H45  828 L   1       2.390  -0.076   2.121  1.00  0.00    +0.0430  H
BRANCH 30 41
ATOM     41 C19  828 L   1       4.854   0.732   1.388  1.00  0.00    +0.0482  C
ATOM     42 O20  828 L   1       6.267   0.649   1.551  1.00  0.00    -0.3947 OA
ATOM     43 H41  828 L   1       4.644   1.355   0.513  1.00  0.00    +0.0560  H
ATOM     44 H42  828 L   1       4.446   1.233   2.272  1.00  0.00    +0.0560  H
ATOM     45 H43  828 L   1       6.599   1.562   1.595  1.00  0.00    +0.2094 HD
ENDBRANCH 30 41
ENDBRANCH 23 26
ENDBRANCH 20 23
ENDBRANCH 18 20
ENDBRANCH 8 16
TORSDOF 5
