ROOT
ATOM      1  C1  CHE L   1      -1.512  -4.203   1.117  1.00  0.00    -0.0608  C
ATOM      2  C2  CHE L   1      -1.589  -2.816   0.484  1.00  0.00    -0.0261  C
ATOM      3  C3  CHE L   1      -2.897  -2.652  -0.315  1.00  0.00    -0.0467  C
ATOM      4  C4  CHE L   1      -3.083  -1.220  -0.841  1.00  0.00    -0.0279  C
ATOM      5  C5  CHE L   1      -2.915  -0.210   0.308  1.00  0.00    +0.0582  C
ATOM      6 N13  CHE L   1      -1.598  -0.402   0.933  1.00  0.00    -0.3272  N
ATOM      7 C14  CHE L   1      -0.471   0.174   0.324  1.00  0.00    +0.3126  C
ATOM      8 O15  CHE L   1      -0.456   0.725  -0.774  1.00  0.00    -0.2621 OA
ATOM      9 C28  CHE L   1      -1.454  -1.717   1.558  1.00  0.00    +0.0248  C
ATOM     10 H29  CHE L   1      -0.562  -4.335   1.646  1.00  0.00    +0.0233  H
ATOM     11 H30  CHE L   1      -1.581  -4.983   0.352  1.00  0.00    +0.0233  H
ATOM     12 H31  CHE L   1      -2.324  -4.359   1.835  1.00  0.00    +0.0233  H
ATOM     13 H32  CHE L   1      -0.752  -2.717  -0.220  1.00  0.00    +0.0315  H
ATOM     14 H33  CHE L   1      -2.912  -3.354  -1.157  1.00  0.00    +0.0269  H
ATOM     15 H34  CHE L   1      -3.753  -2.907   0.325  1.00  0.00    +0.0269  H
ATOM     16 H35  CHE L   1      -4.079  -1.133  -1.291  1.00  0.00    +0.0288  H
ATOM     17 H36  CHE L   1      -2.351  -1.034  -1.636  1.00  0.00    +0.0288  H
ATOM     18 H37  CHE L   1      -3.652  -0.501   1.073  1.00  0.00    +0.0575  H
ATOM     19 H49  CHE L   1      -2.234  -1.816   2.322  1.00  0.00    +0.0491  H
ATOM     20 H50  CHE L   1      -0.493  -1.826   2.062  1.00  0.00    +0.0491  H
ENDROOT
BRANCH 5 21
ATOM     21  C6  CHE L   1      -3.253   1.248   0.028  1.00  0.00    -0.0247  A
ATOM     22  C7  CHE L   1      -3.469   1.747  -1.265  1.00  0.00    -0.0532  A
ATOM     23  C8  CHE L   1      -3.789   3.092  -1.467  1.00  0.00    -0.0199  A
ATOM     24  C9  CHE L   1      -3.893   3.949  -0.379  1.00  0.00    +0.1169  A
ATOM     25 O10  CHE L   1      -4.206   5.253  -0.624  1.00  0.00    -0.5068 OA
ATOM     26 C11  CHE L   1      -3.678   3.485   0.912  1.00  0.00    -0.0199  A
ATOM     27 C12  CHE L   1      -3.359   2.140   1.113  1.00  0.00    -0.0532  A
ATOM     28 H38  CHE L   1      -3.374   1.106  -2.138  1.00  0.00    +0.0622  H
ATOM     29 H39  CHE L   1      -3.949   3.470  -2.473  1.00  0.00    +0.0654  H
ATOM     30 H40  CHE L   1      -4.206   5.733   0.221  1.00  0.00    +0.2921 HD
ATOM     31 H41  CHE L   1      -3.751   4.147   1.769  1.00  0.00    +0.0654  H
ATOM     32 H42  CHE L   1      -3.186   1.784   2.127  1.00  0.00    +0.0622  H
ENDBRANCH 5 21
BRANCH 7 33
ATOM     33 C16  CHE L   1       0.881   0.093   1.073  1.00  0.00    +0.3137  C
ATOM     34 O17  CHE L   1       0.928   0.001   2.289  1.00  0.00    -0.2620 OA
ATOM     35 N18  CHE L   1       1.944   0.159   0.192  1.00  0.00    -0.3169  N
ATOM     36 H43  CHE L   1       1.677   0.330  -0.776  1.00  0.00    +0.1691 HD
BRANCH 35 37
ATOM     37 C19  CHE L   1       3.313   0.098   0.504  1.00  0.00    +0.0611  A
ATOM     38 C20  CHE L   1       3.832  -0.098   1.782  1.00  0.00    +0.0510  A
ATOM     39 N21  CHE L   1       5.161  -0.170   2.060  1.00  0.00    -0.2605 NA
ATOM     40 C22  CHE L   1       6.012  -0.036   1.016  1.00  0.00    +0.0400  A
ATOM     41 C23  CHE L   1       5.599   0.184  -0.289  1.00  0.00    +0.0587  A
ATOM     42 C27  CHE L   1       4.224   0.237  -0.545  1.00  0.00    -0.0230  A
ATOM     43 H44  CHE L   1       3.200  -0.214   2.656  1.00  0.00    +0.0850  H
ATOM     44 H45  CHE L   1       7.059  -0.134   1.282  1.00  0.00    +0.0837  H
ATOM     45 H48  CHE L   1       3.880   0.391  -1.565  1.00  0.00    +0.0647  H
BRANCH 41 46
ATOM     46 C24  CHE L   1       6.551   0.328  -1.411  1.00  0.00    +0.2510  C
ATOM     47 N25  CHE L   1       7.826   0.729  -1.124  1.00  0.00    -0.3658  N
ATOM     48 O26  CHE L   1       6.202   0.127  -2.567  1.00  0.00    -0.2678 OA
ATOM     49 H46  CHE L   1       8.081   1.175  -0.254  1.00  0.00    +0.1589 HD
ATOM     50 H47  CHE L   1       8.411   0.932  -1.927  1.00  0.00    +0.1589 HD
ENDBRANCH 41 46
ENDBRANCH 35 37
ENDBRANCH 7 33
TORSDOF 4
