ROOT
ATOM      1 C10  CHE L   1      -2.478  -0.578   0.817  1.00  0.00    -0.0330  A
ATOM      2 C11  CHE L   1      -2.262   0.383   1.814  1.00  0.00    -0.0573  A
ATOM      3 C12  CHE L   1      -2.686   1.700   1.638  1.00  0.00    -0.0609  A
ATOM      4 C13  CHE L   1      -3.336   2.072   0.463  1.00  0.00    -0.0501  A
ATOM      5 C14  CHE L   1      -3.573   1.129  -0.548  1.00  0.00    +0.0551  A
ATOM      6 C19  CHE L   1      -3.134  -0.193  -0.362  1.00  0.00    -0.0457  A
ATOM      7 H35  CHE L   1      -1.738   0.106   2.728  1.00  0.00    +0.0621  H
ATOM      8 H36  CHE L   1      -2.498   2.436   2.416  1.00  0.00    +0.0618  H
ATOM      9 H37  CHE L   1      -3.655   3.106   0.336  1.00  0.00    +0.0623  H
ATOM     10 H38  CHE L   1      -3.303  -0.927  -1.150  1.00  0.00    +0.0626  H
ENDROOT
BRANCH 1 11
ATOM     11  C9  CHE L   1      -2.010  -2.002   1.013  1.00  0.00    +0.0216  C
ATOM     12 H33  CHE L   1      -2.471  -2.374   1.936  1.00  0.00    +0.0474  H
ATOM     13 H34  CHE L   1      -2.385  -2.652   0.212  1.00  0.00    +0.0474  H
BRANCH 11 14
ATOM     14  N8  CHE L   1      -0.558  -2.133   1.135  1.00  0.00    -0.3069 NA
ATOM     15 H32  CHE L   1      -0.337  -3.064   1.480  1.00  0.00    +0.1226 HD
BRANCH 14 18
ATOM     16  N5  CHE L   1       2.104  -1.312   0.430  1.00  0.00    -0.2981 NA
ATOM     17  C6  CHE L   1       1.496  -2.496  -0.221  1.00  0.00    +0.0156  C
ATOM     18  C7  CHE L   1       0.111  -1.803  -0.145  1.00  0.00    +0.0334  C
ATOM     19 C20  CHE L   1       0.933  -0.498   0.006  1.00  0.00    +0.0156  C
ATOM     20 H29  CHE L   1       1.819  -2.683  -1.254  1.00  0.00    +0.0442  H
ATOM     21 H30  CHE L   1       1.612  -3.431   0.336  1.00  0.00    +0.0442  H
ATOM     22 H31  CHE L   1      -0.492  -1.910  -1.051  1.00  0.00    +0.0486  H
ATOM     23 H39  CHE L   1       0.590   0.222   0.755  1.00  0.00    +0.0442  H
ATOM     24 H40  CHE L   1       1.041   0.033  -0.949  1.00  0.00    +0.0442  H
BRANCH 16 25
ATOM     25  C4  CHE L   1       3.323  -0.896  -0.277  1.00  0.00    +0.0115  C
ATOM     26 H27  CHE L   1       3.174  -0.789  -1.359  1.00  0.00    +0.0439  H
ATOM     27 H28  CHE L   1       4.060  -1.700  -0.154  1.00  0.00    +0.0439  H
BRANCH 25 28
ATOM     28  C3  CHE L   1       3.958   0.383   0.322  1.00  0.00    +0.0084  C
ATOM     29 H25  CHE L   1       5.017   0.425   0.038  1.00  0.00    +0.0436  H
ATOM     30 H26  CHE L   1       3.948   0.296   1.416  1.00  0.00    +0.0436  H
BRANCH 28 32
ATOM     31  C1  CHE L   1       3.577   2.050  -1.411  1.00  0.00    -0.0157  C
ATOM     32  N2  CHE L   1       3.304   1.651  -0.038  1.00  0.00    -0.3178 NA
ATOM     33 H21  CHE L   1       3.104   3.018  -1.606  1.00  0.00    +0.0388  H
ATOM     34 H22  CHE L   1       3.164   1.339  -2.132  1.00  0.00    +0.0388  H
ATOM     35 H23  CHE L   1       4.651   2.162  -1.591  1.00  0.00    +0.0388  H
ATOM     36 H24  CHE L   1       3.640   2.378   0.592  1.00  0.00    +0.1217 HD
ENDBRANCH 28 32
ENDBRANCH 25 28
ENDBRANCH 16 25
ENDBRANCH 14 18
ENDBRANCH 11 14
ENDBRANCH 1 11
BRANCH 5 37
ATOM     37 C15  CHE L   1      -4.251   1.533  -1.833  1.00  0.00    +0.4174  C
ATOM     38 F16  CHE L   1      -5.028   0.543  -2.359  1.00  0.00    -0.1659  F
ATOM     39 F17  CHE L   1      -5.073   2.612  -1.695  1.00  0.00    -0.1659  F
ATOM     40 F18  CHE L   1      -3.361   1.864  -2.809  1.00  0.00    -0.1659  F
ENDBRANCH 5 37
TORSDOF 7
