ROOT
ATOM      1 C15  CHE L   1      -5.460   0.178  -0.750  1.00  0.00    -0.0158  C
ATOM      2 C16  CHE L   1      -5.751  -1.329  -0.865  1.00  0.00    -0.0462  C
ATOM      3 C17  CHE L   1      -7.246  -1.599  -1.022  1.00  0.00    -0.0525  C
ATOM      4 C18  CHE L   1      -8.054  -0.963   0.106  1.00  0.00    -0.0530  C
ATOM      5 C19  CHE L   1      -7.772   0.532   0.226  1.00  0.00    -0.0525  C
ATOM      6 C20  CHE L   1      -6.280   0.813   0.388  1.00  0.00    -0.0462  C
ATOM      7 H42  CHE L   1      -5.798   0.643  -1.688  1.00  0.00    +0.0349  H
ATOM      8 H43  CHE L   1      -5.214  -1.750  -1.724  1.00  0.00    +0.0271  H
ATOM      9 H44  CHE L   1      -5.387  -1.861   0.022  1.00  0.00    +0.0271  H
ATOM     10 H45  CHE L   1      -7.424  -2.680  -1.038  1.00  0.00    +0.0265  H
ATOM     11 H46  CHE L   1      -7.590  -1.204  -1.985  1.00  0.00    +0.0265  H
ATOM     12 H47  CHE L   1      -7.809  -1.457   1.054  1.00  0.00    +0.0265  H
ATOM     13 H48  CHE L   1      -9.123  -1.124  -0.071  1.00  0.00    +0.0265  H
ATOM     14 H49  CHE L   1      -8.319   0.941   1.083  1.00  0.00    +0.0265  H
ATOM     15 H50  CHE L   1      -8.146   1.047  -0.668  1.00  0.00    +0.0265  H
ATOM     16 H51  CHE L   1      -5.951   0.430   1.362  1.00  0.00    +0.0271  H
ATOM     17 H52  CHE L   1      -6.115   1.898   0.408  1.00  0.00    +0.0271  H
ENDROOT
BRANCH 1 21
ATOM     18 C11  CHE L   1      -1.206   1.000  -0.353  1.00  0.00    -0.0219  A
ATOM     19 C12  CHE L   1      -1.936   1.480  -1.448  1.00  0.00    -0.0561  A
ATOM     20 C13  CHE L   1      -3.302   1.208  -1.571  1.00  0.00    -0.0580  A
ATOM     21 C14  CHE L   1      -3.975   0.458  -0.597  1.00  0.00    -0.0443  A
ATOM     22 C21  CHE L   1      -3.246  -0.011   0.503  1.00  0.00    -0.0580  A
ATOM     23 C22  CHE L   1      -1.881   0.261   0.626  1.00  0.00    -0.0561  A
ATOM     24 H40  CHE L   1      -1.447   2.072  -2.218  1.00  0.00    +0.0621  H
ATOM     25 H41  CHE L   1      -3.837   1.592  -2.436  1.00  0.00    +0.0620  H
ATOM     26 H53  CHE L   1      -3.732  -0.595   1.281  1.00  0.00    +0.0620  H
ATOM     27 H54  CHE L   1      -1.342  -0.114   1.494  1.00  0.00    +0.0621  H
BRANCH 18 28
ATOM     28 C10  CHE L   1       0.256   1.348  -0.212  1.00  0.00    +0.0730  C
ATOM     29 H38  CHE L   1       0.703   1.461  -1.205  1.00  0.00    +0.0610  H
ATOM     30 H39  CHE L   1       0.333   2.296   0.333  1.00  0.00    +0.0610  H
BRANCH 28 31
ATOM     31  O9  CHE L   1       0.952   0.316   0.486  1.00  0.00    -0.3719 OA
BRANCH 31 35
ATOM     32  N5  CHE L   1       5.119  -0.005   1.227  1.00  0.00    -0.3010 NA
ATOM     33  C6  CHE L   1       4.173  -0.122   2.348  1.00  0.00    +0.0013  C
ATOM     34  C7  CHE L   1       2.732  -0.374   1.912  1.00  0.00    -0.0137  C
ATOM     35  C8  CHE L   1       2.256   0.698   0.932  1.00  0.00    +0.0614  C
ATOM     36 C23  CHE L   1       3.241   0.822  -0.232  1.00  0.00    -0.0137  C
ATOM     37 C24  CHE L   1       4.669   1.019   0.275  1.00  0.00    +0.0013  C
ATOM     38 H33  CHE L   1       4.496  -0.908   3.040  1.00  0.00    +0.0427  H
ATOM     39 H34  CHE L   1       4.211   0.809   2.930  1.00  0.00    +0.0427  H
ATOM     40 H35  CHE L   1       2.074  -0.384   2.790  1.00  0.00    +0.0302  H
ATOM     41 H36  CHE L   1       2.630  -1.370   1.462  1.00  0.00    +0.0302  H
ATOM     42 H37  CHE L   1       2.188   1.653   1.469  1.00  0.00    +0.0597  H
ATOM     43 H55  CHE L   1       3.172  -0.061  -0.879  1.00  0.00    +0.0302  H
ATOM     44 H56  CHE L   1       2.968   1.673  -0.866  1.00  0.00    +0.0302  H
ATOM     45 H57  CHE L   1       5.355   1.096  -0.575  1.00  0.00    +0.0427  H
ATOM     46 H58  CHE L   1       4.731   1.995   0.774  1.00  0.00    +0.0427  H
BRANCH 32 47
ATOM     47  C4  CHE L   1       5.385  -1.322   0.602  1.00  0.00    +0.0114  C
ATOM     48 H31  CHE L   1       5.571  -2.058   1.396  1.00  0.00    +0.0439  H
ATOM     49 H32  CHE L   1       4.522  -1.689   0.037  1.00  0.00    +0.0439  H
BRANCH 47 50
ATOM     50  C3  CHE L   1       6.635  -1.331  -0.312  1.00  0.00    +0.0084  C
ATOM     51 H29  CHE L   1       6.840  -2.360  -0.629  1.00  0.00    +0.0436  H
ATOM     52 H30  CHE L   1       6.425  -0.744  -1.213  1.00  0.00    +0.0436  H
BRANCH 50 54
ATOM     53  C1  CHE L   1       8.881  -0.458  -0.502  1.00  0.00    -0.0157  C
ATOM     54  N2  CHE L   1       7.799  -0.798   0.405  1.00  0.00    -0.3178 NA
ATOM     55 H25  CHE L   1       9.219  -1.336  -1.063  1.00  0.00    +0.0388  H
ATOM     56 H26  CHE L   1       8.589   0.326  -1.206  1.00  0.00    +0.0388  H
ATOM     57 H27  CHE L   1       9.735  -0.087   0.075  1.00  0.00    +0.0388  H
ATOM     58 H28  CHE L   1       7.485   0.031   0.921  1.00  0.00    +0.1217 HD
ENDBRANCH 50 54
ENDBRANCH 47 50
ENDBRANCH 32 47
ENDBRANCH 31 35
ENDBRANCH 28 31
ENDBRANCH 18 28
ENDBRANCH 1 21
TORSDOF 7
