ROOT
ATOM      1  C1  CHE L   1      -0.885  -1.859   1.449  1.00  0.00    -0.0391  C
ATOM      2  C2  CHE L   1      -1.548  -0.816   0.590  1.00  0.00    -0.0407  A
ATOM      3  C3  CHE L   1      -2.543  -0.010   1.171  1.00  0.00    -0.0538  A
ATOM      4  C4  CHE L   1      -3.214   0.970   0.430  1.00  0.00    -0.0333  A
ATOM      5  C7  CHE L   1      -2.873   1.151  -0.916  1.00  0.00    -0.0538  A
ATOM      6  C8  CHE L   1      -1.867   0.378  -1.521  1.00  0.00    -0.0407  A
ATOM      7  C9  CHE L   1      -1.559   0.600  -2.979  1.00  0.00    -0.0391  C
ATOM      8 C10  CHE L   1      -1.188  -0.601  -0.758  1.00  0.00    +0.0083  A
ATOM      9 H25  CHE L   1      -1.531  -2.143   2.288  1.00  0.00    +0.0278  H
ATOM     10 H26  CHE L   1       0.052  -1.473   1.859  1.00  0.00    +0.0278  H
ATOM     11 H27  CHE L   1      -0.690  -2.777   0.886  1.00  0.00    +0.0278  H
ATOM     12 H28  CHE L   1      -2.806  -0.147   2.219  1.00  0.00    +0.0624  H
ATOM     13 H33  CHE L   1      -3.398   1.901  -1.504  1.00  0.00    +0.0624  H
ATOM     14 H34  CHE L   1      -0.492   0.794  -3.126  1.00  0.00    +0.0278  H
ATOM     15 H35  CHE L   1      -2.099   1.466  -3.374  1.00  0.00    +0.0278  H
ATOM     16 H36  CHE L   1      -1.859  -0.273  -3.567  1.00  0.00    +0.0278  H
ENDROOT
BRANCH 4 17
ATOM     17  C5  CHE L   1      -4.290   1.807   1.073  1.00  0.00    +0.0186  C
ATOM     18  N6  CHE L   1      -3.734   2.701   2.082  1.00  0.00    -0.3261 NA
ATOM     19 H29  CHE L   1      -5.035   1.148   1.532  1.00  0.00    +0.0471  H
ATOM     20 H30  CHE L   1      -4.816   2.401   0.317  1.00  0.00    +0.0471  H
ATOM     21 H31  CHE L   1      -3.022   3.285   1.646  1.00  0.00    +0.1185 HD
ATOM     22 H32  CHE L   1      -4.465   3.330   2.409  1.00  0.00    +0.1185 HD
ENDBRANCH 4 17
BRANCH 8 23
ATOM     23 C11  CHE L   1      -0.127  -1.381  -1.377  1.00  0.00    +0.0972  A
ATOM     24 N12  CHE L   1      -0.379  -2.372  -2.296  1.00  0.00    -0.2351 NA
ATOM     25 C13  CHE L   1       0.801  -2.826  -2.642  1.00  0.00    +0.0968  A
ATOM     26 N14  CHE L   1       1.806  -2.162  -1.997  1.00  0.00    -0.3327  N
ATOM     27 C15  CHE L   1       3.213  -2.390  -2.223  1.00  0.00    +0.0133  C
ATOM     28 C16  CHE L   1       1.238  -1.225  -1.158  1.00  0.00    +0.0762  A
ATOM     29 H37  CHE L   1       0.981  -3.619  -3.357  1.00  0.00    +0.1029  H
ATOM     30 H38  CHE L   1       3.614  -2.944  -1.371  1.00  0.00    +0.0456  H
ATOM     31 H39  CHE L   1       3.718  -1.428  -2.335  1.00  0.00    +0.0456  H
ATOM     32 H40  CHE L   1       3.344  -2.974  -3.138  1.00  0.00    +0.0456  H
BRANCH 28 33
ATOM     33 C17  CHE L   1       1.983  -0.300  -0.307  1.00  0.00    +0.0007  A
ATOM     34 C18  CHE L   1       2.827  -0.781   0.702  1.00  0.00    -0.0513  A
ATOM     35 C19  CHE L   1       3.531   0.107   1.522  1.00  0.00    -0.0437  A
ATOM     36 C20  CHE L   1       3.393   1.487   1.343  1.00  0.00    +0.0518  A
ATOM     37 C23  CHE L   1       2.547   1.973   0.342  1.00  0.00    -0.0437  A
ATOM     38 C24  CHE L   1       1.846   1.083  -0.477  1.00  0.00    -0.0513  A
ATOM     39 H41  CHE L   1       2.926  -1.851   0.873  1.00  0.00    +0.0624  H
ATOM     40 H42  CHE L   1       4.176  -0.287   2.305  1.00  0.00    +0.0631  H
ATOM     41 H43  CHE L   1       2.422   3.044   0.194  1.00  0.00    +0.0631  H
ATOM     42 H44  CHE L   1       1.186   1.479  -1.246  1.00  0.00    +0.0624  H
BRANCH 36 43
ATOM     43 C21  CHE L   1       4.113   2.398   2.184  1.00  0.00    +0.0992  C
ATOM     44 N22  CHE L   1       4.704   3.133   2.860  1.00  0.00    -0.1909 NA
ENDBRANCH 36 43
ENDBRANCH 28 33
ENDBRANCH 8 23
TORSDOF 4
