ROOT
ATOM      1  C1  SEL L   1      -1.845   2.734  -0.569  1.00  0.00    -0.0124  C
ATOM      2  N2  SEL L   1      -2.052   1.285  -0.640  1.00  0.00    -0.2997 NA
ATOM      3  C3  SEL L   1      -3.430   0.937  -0.267  1.00  0.00    -0.0010  C
ATOM      4  C4  SEL L   1      -3.569   0.523   1.192  1.00  0.00    -0.0391  C
ATOM      5  C5  SEL L   1      -2.729  -0.714   1.523  1.00  0.00    -0.0345  C
ATOM      6  C6  SEL L   1      -1.469  -0.864   0.628  1.00  0.00    +0.0863  C
ATOM      7 C10  SEL L   1      -0.319  -1.493   1.457  1.00  0.00    -0.0180  C
ATOM      8 C11  SEL L   1       0.987  -1.564   0.664  1.00  0.00    +0.0197  C
ATOM      9 N12  SEL L   1       1.358  -0.215   0.226  1.00  0.00    -0.3690  N
ATOM     10 C20  SEL L   1       0.343   0.448  -0.630  1.00  0.00    +0.0352  C
ATOM     11 C21  SEL L   1      -1.015   0.542   0.128  1.00  0.00    +0.0434  C
ATOM     12 H22  SEL L   1      -0.852   3.019  -0.930  1.00  0.00    +0.0391  H
ATOM     13 H23  SEL L   1      -2.560   3.256  -1.215  1.00  0.00    +0.0391  H
ATOM     14 H24  SEL L   1      -1.963   3.116   0.452  1.00  0.00    +0.0391  H
ATOM     15 H25  SEL L   1      -3.762   0.110  -0.906  1.00  0.00    +0.0426  H
ATOM     16 H26  SEL L   1      -4.123   1.758  -0.485  1.00  0.00    +0.0426  H
ATOM     17 H27  SEL L   1      -3.264   1.354   1.840  1.00  0.00    +0.0278  H
ATOM     18 H28  SEL L   1      -4.620   0.322   1.427  1.00  0.00    +0.0278  H
ATOM     19 H29  SEL L   1      -2.448  -0.649   2.582  1.00  0.00    +0.0277  H
ATOM     20 H30  SEL L   1      -3.373  -1.598   1.446  1.00  0.00    +0.0277  H
ATOM     21 H32  SEL L   1      -0.585  -2.499   1.802  1.00  0.00    +0.0293  H
ATOM     22 H33  SEL L   1      -0.148  -0.890   2.359  1.00  0.00    +0.0293  H
ATOM     23 H34  SEL L   1       1.758  -1.976   1.327  1.00  0.00    +0.0488  H
ATOM     24 H35  SEL L   1       0.880  -2.242  -0.191  1.00  0.00    +0.0488  H
ATOM     25 H40  SEL L   1       0.669   1.462  -0.885  1.00  0.00    +0.0503  H
ATOM     26 H41  SEL L   1       0.242  -0.092  -1.578  1.00  0.00    +0.0503  H
ATOM     27 H42  SEL L   1      -0.812   1.122   1.043  1.00  0.00    +0.0491  H
ENDROOT
BRANCH 6 28
ATOM     28  C7  SEL L   1      -1.772  -1.825  -0.528  1.00  0.00    +0.3126  C
ATOM     29  O8  SEL L   1      -1.676  -1.626  -1.726  1.00  0.00    -0.2503 OA
ATOM     30  O9  SEL L   1      -2.161  -3.050  -0.108  1.00  0.00    -0.4802 OA
ATOM     31 H31  SEL L   1      -2.321  -3.537  -0.945  1.00  0.00    +0.2951 HD
ENDBRANCH 6 28
BRANCH 9 32
ATOM     32 C13  SEL L   1       2.672  -0.029  -0.242  1.00  0.00    +0.0381  A
ATOM     33 C14  SEL L   1       3.480  -1.072  -0.723  1.00  0.00    -0.0358  A
ATOM     34 C15  SEL L   1       4.784  -0.832  -1.172  1.00  0.00    -0.0245  A
ATOM     35 C16  SEL L   1       5.296   0.456  -1.137  1.00  0.00    +0.1235  A
ATOM     36 F17  SEL L   1       6.544   0.685  -1.564  1.00  0.00    -0.2055  F
ATOM     37 C18  SEL L   1       4.530   1.509  -0.661  1.00  0.00    -0.0245  A
ATOM     38 C19  SEL L   1       3.229   1.263  -0.216  1.00  0.00    -0.0358  A
ATOM     39 H36  SEL L   1       3.107  -2.090  -0.779  1.00  0.00    +0.0639  H
ATOM     40 H37  SEL L   1       5.397  -1.644  -1.548  1.00  0.00    +0.0647  H
ATOM     41 H38  SEL L   1       4.946   2.510  -0.631  1.00  0.00    +0.0647  H
ATOM     42 H39  SEL L   1       2.646   2.092   0.179  1.00  0.00    +0.0639  H
ENDBRANCH 9 32
TORSDOF 2
