ROOT
ATOM      1 C17  EUB L   1      -3.770  -0.024  -0.981  1.00  0.00    +0.0404  C
ATOM      2 C18  EUB L   1      -4.960   0.944  -1.001  1.00  0.00    -0.0291  C
ATOM      3 C19  EUB L   1      -6.088   0.485  -0.077  1.00  0.00    -0.0034  C
ATOM      4 N20  EUB L   1      -6.518  -0.898  -0.288  1.00  0.00    -0.3159 NA
ATOM      5 C21  EUB L   1      -5.717  -1.645  -1.247  1.00  0.00    -0.0034  C
ATOM      6 C22  EUB L   1      -4.228  -1.494  -0.952  1.00  0.00    -0.0291  C
ATOM      7 H37  EUB L   1      -3.197   0.155  -1.902  1.00  0.00    +0.0397  H
ATOM      8 H38  EUB L   1      -5.346   1.010  -2.027  1.00  0.00    +0.0285  H
ATOM      9 H39  EUB L   1      -4.651   1.961  -0.729  1.00  0.00    +0.0285  H
ATOM     10 H40  EUB L   1      -5.781   0.594   0.969  1.00  0.00    +0.0424  H
ATOM     11 H41  EUB L   1      -6.947   1.150  -0.216  1.00  0.00    +0.0424  H
ATOM     12 H42  EUB L   1      -7.504  -0.930  -0.547  1.00  0.00    +0.1219 HD
ATOM     13 H43  EUB L   1      -5.939  -1.316  -2.270  1.00  0.00    +0.0424  H
ATOM     14 H44  EUB L   1      -5.992  -2.705  -1.191  1.00  0.00    +0.0424  H
ATOM     15 H45  EUB L   1      -3.653  -2.066  -1.691  1.00  0.00    +0.0285  H
ATOM     16 H46  EUB L   1      -4.013  -1.953   0.023  1.00  0.00    +0.0285  H
ENDROOT
BRANCH 1 18
ATOM     17 N14  EUB L   1      -1.660  -0.485   0.090  1.00  0.00    -0.3050  N
ATOM     18 C15  EUB L   1      -2.810   0.272   0.178  1.00  0.00    +0.2299  C
ATOM     19 O16  EUB L   1      -3.068   1.111   1.034  1.00  0.00    -0.2725 OA
ATOM     20 H36  EUB L   1      -1.546  -1.135  -0.676  1.00  0.00    +0.1705 HD
BRANCH 17 24
ATOM     21 C10  EUB L   1       1.098  -0.046   2.610  1.00  0.00    +0.0670  A
ATOM     22 C11  EUB L   1       1.409  -1.018   1.683  1.00  0.00    +0.0505  A
ATOM     23 N12  EUB L   1       0.452  -1.244   0.709  1.00  0.00    -0.2299 NA
ATOM     24 C13  EUB L   1      -0.577  -0.460   0.929  1.00  0.00    +0.1740  A
ATOM     25 S23  EUB L   1      -0.461   0.570   2.280  1.00  0.00    -0.0434  S
ATOM     26 H35  EUB L   1       2.332  -1.585   1.659  1.00  0.00    +0.0847  H
BRANCH 21 27
ATOM     27  S9  EUB L   1       2.091   0.511   3.939  1.00  0.00    -0.1071 SA
BRANCH 27 28
ATOM     28  C8  EUB L   1       2.902   1.951   3.163  1.00  0.00    +0.0753  C
ATOM     29 H33  EUB L   1       2.152   2.601   2.701  1.00  0.00    +0.0476  H
ATOM     30 H34  EUB L   1       3.382   2.529   3.959  1.00  0.00    +0.0476  H
BRANCH 28 34
ATOM     31  C4  EUB L   1       4.622   0.945   0.212  1.00  0.00    +0.1278  A
ATOM     32  C5  EUB L   1       5.665   0.940   1.110  1.00  0.00    +0.0694  A
ATOM     33  N6  EUB L   1       5.221   1.329   2.348  1.00  0.00    -0.2208 NA
ATOM     34  C7  EUB L   1       3.931   1.542   2.171  1.00  0.00    +0.2059  A
ATOM     35 O24  EUB L   1       3.502   1.349   0.885  1.00  0.00    -0.4435 OA
ATOM     36 H32  EUB L   1       6.699   0.673   0.937  1.00  0.00    +0.0865  H
BRANCH 31 38
ATOM     37  C1  EUB L   1       4.596  -0.903  -1.445  1.00  0.00    -0.0557  C
ATOM     38  C2  EUB L   1       4.459   0.605  -1.228  1.00  0.00    +0.0131  C
ATOM     39  C3  EUB L   1       5.455   1.370  -2.097  1.00  0.00    -0.0557  C
ATOM     40 H25  EUB L   1       4.413  -1.162  -2.494  1.00  0.00    +0.0236  H
ATOM     41 H26  EUB L   1       3.874  -1.457  -0.832  1.00  0.00    +0.0236  H
ATOM     42 H27  EUB L   1       5.598  -1.257  -1.181  1.00  0.00    +0.0236  H
ATOM     43 H28  EUB L   1       3.448   0.897  -1.544  1.00  0.00    +0.0374  H
ATOM     44 H29  EUB L   1       5.303   1.137  -3.157  1.00  0.00    +0.0236  H
ATOM     45 H30  EUB L   1       6.492   1.120  -1.842  1.00  0.00    +0.0236  H
ATOM     46 H31  EUB L   1       5.333   2.453  -1.971  1.00  0.00    +0.0236  H
ENDBRANCH 31 38
ENDBRANCH 28 34
ENDBRANCH 27 28
ENDBRANCH 21 27
ENDBRANCH 17 24
ENDBRANCH 1 18
TORSDOF 6
