ROOT
ATOM      1 C32  WH0 L   1      -0.487  -1.703   0.451  1.00  0.00    -0.0133  A
ATOM      2 C33  WH0 L   1      -0.318  -2.257   1.740  1.00  0.00    -0.0519  A
ATOM      3 C34  WH0 L   1       0.222  -3.535   1.908  1.00  0.00    -0.0374  A
ATOM      4 C35  WH0 L   1       0.589  -4.219   0.770  1.00  0.00    +0.0454  A
ATOM      5 C36  WH0 L   1       0.446  -3.684  -0.509  1.00  0.00    -0.0145  A
ATOM      6 C37  WH0 L   1      -0.098  -2.424  -0.690  1.00  0.00    -0.0483  A
ATOM      7 C38  WH0 L   1       0.936  -4.675  -1.521  1.00  0.00    +0.0535  C
ATOM      8 C39  WH0 L   1       1.365  -5.853  -0.633  1.00  0.00    +0.2296  C
ATOM      9 O40  WH0 L   1       1.830  -6.915  -1.006  1.00  0.00    -0.2725 OA
ATOM     10 N41  WH0 L   1       1.134  -5.490   0.687  1.00  0.00    -0.3256  N
ATOM     11 H62  WH0 L   1      -0.629  -1.696   2.620  1.00  0.00    +0.0624  H
ATOM     12 H63  WH0 L   1       0.335  -3.964   2.898  1.00  0.00    +0.0638  H
ATOM     13 H64  WH0 L   1      -0.224  -2.011  -1.687  1.00  0.00    +0.0627  H
ATOM     14 H65  WH0 L   1       1.805  -4.292  -2.066  1.00  0.00    +0.0410  H
ATOM     15 H66  WH0 L   1       0.134  -4.991  -2.192  1.00  0.00    +0.0410  H
ATOM     16 H67  WH0 L   1       1.318  -6.110   1.466  1.00  0.00    +0.1686 HD
ENDROOT
BRANCH 1 25
ATOM     17 C17  WH0 L   1      -0.570   0.888   0.741  1.00  0.00    +0.1018  A
ATOM     18 N18  WH0 L   1      -1.433   1.872   0.459  1.00  0.00    -0.1627 NA
ATOM     19 N19  WH0 L   1      -2.490   1.242  -0.113  1.00  0.00    -0.1987  N
ATOM     20 C20  WH0 L   1      -3.689   1.911  -0.508  1.00  0.00    +0.2283  A
ATOM     21 N27  WH0 L   1      -4.680   1.191  -0.982  1.00  0.00    -0.2207 NA
ATOM     22 C28  WH0 L   1      -4.497  -0.171  -1.096  1.00  0.00    +0.0334  A
ATOM     23 C29  WH0 L   1      -3.389  -0.846  -0.753  1.00  0.00    -0.0173  A
ATOM     24 C30  WH0 L   1      -2.307  -0.119  -0.211  1.00  0.00    +0.0803  A
ATOM     25 C31  WH0 L   1      -1.061  -0.382   0.315  1.00  0.00    +0.0353  A
ATOM     26 H60  WH0 L   1      -5.348  -0.716  -1.501  1.00  0.00    +0.0831  H
ATOM     27 H61  WH0 L   1      -3.332  -1.924  -0.869  1.00  0.00    +0.0654  H
BRANCH 17 34
ATOM     28 C10  WH0 L   1       1.923   1.262   0.757  1.00  0.00    -0.0338  A
ATOM     29 C11  WH0 L   1       3.066   1.581   1.515  1.00  0.00    -0.0226  A
ATOM     30 C12  WH0 L   1       2.980   1.776   2.892  1.00  0.00    +0.1237  A
ATOM     31 F13  WH0 L   1       4.086   2.069   3.588  1.00  0.00    -0.2055  F
ATOM     32 C14  WH0 L   1       1.767   1.682   3.554  1.00  0.00    -0.0258  A
ATOM     33 C15  WH0 L   1       0.617   1.394   2.824  1.00  0.00    -0.0495  A
ATOM     34 C16  WH0 L   1       0.683   1.181   1.433  1.00  0.00    +0.0061  A
ATOM     35 H49  WH0 L   1       4.044   1.692   1.054  1.00  0.00    +0.0649  H
ATOM     36 H50  WH0 L   1       1.725   1.850   4.626  1.00  0.00    +0.0646  H
ATOM     37 H51  WH0 L   1      -0.342   1.345   3.337  1.00  0.00    +0.0625  H
BRANCH 28 38
ATOM     38  C9  WH0 L   1       2.020   1.108  -0.752  1.00  0.00    -0.0095  C
ATOM     39 H47  WH0 L   1       1.189   0.496  -1.122  1.00  0.00    +0.0330  H
ATOM     40 H48  WH0 L   1       1.903   2.102  -1.201  1.00  0.00    +0.0330  H
BRANCH 38 41
ATOM     41  C8  WH0 L   1       3.304   0.461  -1.285  1.00  0.00    +0.0224  C
ATOM     42 H45  WH0 L   1       4.175   1.098  -1.093  1.00  0.00    +0.0489  H
ATOM     43 H46  WH0 L   1       3.228   0.346  -2.372  1.00  0.00    +0.0489  H
BRANCH 41 46
ATOM     44  C5  WH0 L   1       4.801  -1.406  -0.719  1.00  0.00    +0.2618  C
ATOM     45  O6  WH0 L   1       5.797  -0.797  -1.085  1.00  0.00    -0.2669 OA
ATOM     46  N7  WH0 L   1       3.533  -0.867  -0.738  1.00  0.00    -0.3511  N
ATOM     47 H44  WH0 L   1       2.736  -1.481  -0.623  1.00  0.00    +0.1627 HD
BRANCH 44 49
ATOM     48  C1  WH0 L   1       4.115  -3.282   0.739  1.00  0.00    -0.0760  C
ATOM     49  C2  WH0 L   1       4.889  -2.820  -0.260  1.00  0.00    +0.1085  C
ATOM     50 H42  WH0 L   1       4.220  -4.305   1.101  1.00  0.00    +0.0549  H
ATOM     51 H43  WH0 L   1       3.396  -2.651   1.250  1.00  0.00    +0.0549  H
BRANCH 49 52
ATOM     52  C3  WH0 L   1       5.896  -3.644  -0.845  1.00  0.00    +0.1040  C
ATOM     53  N4  WH0 L   1       6.685  -4.361  -1.304  1.00  0.00    -0.1907 NA
ENDBRANCH 49 52
ENDBRANCH 44 49
ENDBRANCH 41 46
ENDBRANCH 38 41
ENDBRANCH 28 38
ENDBRANCH 17 34
BRANCH 20 54
ATOM     54 N21  WH0 L   1      -3.789   3.298  -0.367  1.00  0.00    -0.3359  N
ATOM     55 C22  WH0 L   1      -5.120   3.918  -0.216  1.00  0.00    +0.0449  C
ATOM     56 C23  WH0 L   1      -5.429   4.837  -1.401  1.00  0.00    +0.0653  C
ATOM     57 O24  WH0 L   1      -4.499   5.923  -1.532  1.00  0.00    -0.3763 OA
ATOM     58 C25  WH0 L   1      -3.200   5.630  -0.999  1.00  0.00    +0.0653  C
ATOM     59 C26  WH0 L   1      -2.818   4.146  -1.095  1.00  0.00    +0.0449  C
ATOM     60 H52  WH0 L   1      -5.106   4.508   0.710  1.00  0.00    +0.0511  H
ATOM     61 H53  WH0 L   1      -5.912   3.171  -0.103  1.00  0.00    +0.0511  H
ATOM     62 H54  WH0 L   1      -5.427   4.272  -2.345  1.00  0.00    +0.0577  H
ATOM     63 H55  WH0 L   1      -6.426   5.276  -1.289  1.00  0.00    +0.0577  H
ATOM     64 H56  WH0 L   1      -3.170   5.968   0.047  1.00  0.00    +0.0577  H
ATOM     65 H57  WH0 L   1      -2.476   6.237  -1.553  1.00  0.00    +0.0577  H
ATOM     66 H58  WH0 L   1      -1.805   4.022  -0.700  1.00  0.00    +0.0511  H
ATOM     67 H59  WH0 L   1      -2.818   3.841  -2.151  1.00  0.00    +0.0511  H
ENDBRANCH 20 54
ENDBRANCH 1 25
TORSDOF 8
