ROOT
ATOM      1  O1  SEL L   1      -7.604   3.564  -0.195  1.00  0.00    -0.2725 OA
ATOM      2  C2  SEL L   1      -6.595   2.898  -0.038  1.00  0.00    +0.2296  C
ATOM      3  C3  SEL L   1      -5.154   3.336  -0.325  1.00  0.00    +0.0535  C
ATOM      4  C4  SEL L   1      -4.372   2.113   0.053  1.00  0.00    -0.0145  A
ATOM      5  C5  SEL L   1      -3.008   1.884   0.011  1.00  0.00    -0.0483  A
ATOM      6  C6  SEL L   1      -2.536   0.629   0.427  1.00  0.00    -0.0133  A
ATOM      7 C30  SEL L   1      -3.440  -0.363   0.870  1.00  0.00    -0.0519  A
ATOM      8 C31  SEL L   1      -4.817  -0.119   0.904  1.00  0.00    -0.0374  A
ATOM      9 C32  SEL L   1      -5.248   1.122   0.492  1.00  0.00    +0.0454  A
ATOM     10 N33  SEL L   1      -6.549   1.592   0.435  1.00  0.00    -0.3256  N
ATOM     11 H34  SEL L   1      -4.894   4.186   0.311  1.00  0.00    +0.0410  H
ATOM     12 H35  SEL L   1      -5.044   3.567  -1.387  1.00  0.00    +0.0410  H
ATOM     13 H36  SEL L   1      -2.331   2.655  -0.345  1.00  0.00    +0.0627  H
ATOM     14 H52  SEL L   1      -3.071  -1.336   1.192  1.00  0.00    +0.0624  H
ATOM     15 H53  SEL L   1      -5.509  -0.882   1.243  1.00  0.00    +0.0638  H
ATOM     16 H54  SEL L   1      -7.377   1.077   0.695  1.00  0.00    +0.1686 HD
ENDROOT
BRANCH 6 17
ATOM     17  C7  SEL L   1      -1.116   0.339   0.391  1.00  0.00    +0.0368  A
ATOM     18  C8  SEL L   1      -0.376  -0.678  -0.292  1.00  0.00    +0.1016  A
ATOM     19 N16  SEL L   1       0.930  -0.615   0.022  1.00  0.00    -0.1626 NA
ATOM     20 N17  SEL L   1       1.031   0.441   0.865  1.00  0.00    -0.1960  N
ATOM     21 C18  SEL L   1       2.233   0.900   1.460  1.00  0.00    +0.2478  A
ATOM     22 N26  SEL L   1       2.140   1.889   2.321  1.00  0.00    -0.1107 NA
ATOM     23 N27  SEL L   1       0.895   2.491   2.640  1.00  0.00    -0.1521 NA
ATOM     24 C28  SEL L   1      -0.195   2.069   2.078  1.00  0.00    +0.0762  A
ATOM     25 C29  SEL L   1      -0.174   1.008   1.138  1.00  0.00    +0.0987  A
ATOM     26 H51  SEL L   1      -1.150   2.548   2.345  1.00  0.00    +0.0870  H
BRANCH 18 27
ATOM     27  C9  SEL L   1      -0.862  -1.705  -1.216  1.00  0.00    +0.0029  A
ATOM     28 C10  SEL L   1      -1.844  -1.413  -2.176  1.00  0.00    -0.0498  A
ATOM     29 C11  SEL L   1      -2.303  -2.407  -3.043  1.00  0.00    -0.0258  A
ATOM     30 C12  SEL L   1      -1.777  -3.691  -2.957  1.00  0.00    +0.1234  A
ATOM     31 F13  SEL L   1      -2.220  -4.643  -3.788  1.00  0.00    -0.2055  F
ATOM     32 C14  SEL L   1      -0.797  -4.000  -2.022  1.00  0.00    -0.0258  A
ATOM     33 C15  SEL L   1      -0.337  -3.007  -1.155  1.00  0.00    -0.0498  A
ATOM     34 H37  SEL L   1      -2.254  -0.410  -2.268  1.00  0.00    +0.0625  H
ATOM     35 H38  SEL L   1      -3.063  -2.187  -3.787  1.00  0.00    +0.0646  H
ATOM     36 H39  SEL L   1      -0.396  -5.008  -1.974  1.00  0.00    +0.0646  H
ATOM     37 H40  SEL L   1       0.434  -3.251  -0.426  1.00  0.00    +0.0625  H
ENDBRANCH 18 27
BRANCH 21 38
ATOM     38 N19  SEL L   1       3.477   0.322   1.163  1.00  0.00    -0.3389  N
ATOM     39 C20  SEL L   1       3.752  -0.369  -0.102  1.00  0.00    +0.0237  C
ATOM     40 C21  SEL L   1       5.224  -0.277  -0.482  1.00  0.00    -0.0090  C
ATOM     41 C22  SEL L   1       6.116  -0.852   0.613  1.00  0.00    +0.0585  C
ATOM     42 O23  SEL L   1       7.441  -0.346   0.450  1.00  0.00    -0.3917 OA
ATOM     43 C24  SEL L   1       5.623  -0.513   2.018  1.00  0.00    -0.0090  C
ATOM     44 C25  SEL L   1       4.636   0.649   2.005  1.00  0.00    +0.0237  C
ATOM     45 H41  SEL L   1       3.461  -1.422  -0.013  1.00  0.00    +0.0489  H
ATOM     46 H42  SEL L   1       3.180   0.085  -0.919  1.00  0.00    +0.0489  H
ATOM     47 H43  SEL L   1       5.496   0.769  -0.679  1.00  0.00    +0.0307  H
ATOM     48 H44  SEL L   1       5.408  -0.809  -1.423  1.00  0.00    +0.0307  H
ATOM     49 H45  SEL L   1       6.178  -1.942   0.517  1.00  0.00    +0.0594  H
ATOM     50 H46  SEL L   1       7.752  -0.610  -0.434  1.00  0.00    +0.2098 HD
ATOM     51 H47  SEL L   1       5.112  -1.392   2.432  1.00  0.00    +0.0307  H
ATOM     52 H48  SEL L   1       6.461  -0.282   2.686  1.00  0.00    +0.0307  H
ATOM     53 H49  SEL L   1       4.321   0.828   3.040  1.00  0.00    +0.0489  H
ATOM     54 H50  SEL L   1       5.113   1.567   1.642  1.00  0.00    +0.0489  H
ENDBRANCH 21 38
ENDBRANCH 6 17
TORSDOF 3
