ROOT
ATOM      1 C19  CHE L   1      -5.195   1.181  -0.847  1.00  0.00    +0.1351  A
ATOM      2 C20  CHE L   1      -5.751   2.290  -0.354  1.00  0.00    +0.0341  A
ATOM      3 C21  CHE L   1      -6.754   2.152   0.709  1.00  0.00    +0.2590  A
ATOM      4 O22  CHE L   1      -7.270   3.168   1.171  1.00  0.00    -0.2672 OA
ATOM      5 N23  CHE L   1      -7.034   0.853   1.110  1.00  0.00    -0.2682  N
ATOM      6 C24  CHE L   1      -7.974   0.642   2.114  1.00  0.00    +0.0146  A
ATOM      7 C25  CHE L   1      -8.284  -0.588   2.542  1.00  0.00    -0.0450  A
ATOM      8 C26  CHE L   1      -7.638  -1.734   1.961  1.00  0.00    -0.0569  A
ATOM      9 C27  CHE L   1      -6.727  -1.581   0.993  1.00  0.00    -0.0187  A
ATOM     10 C28  CHE L   1      -6.377  -0.215   0.510  1.00  0.00    +0.1410  A
ATOM     11 N29  CHE L   1      -5.490  -0.097  -0.430  1.00  0.00    -0.2242 NA
ATOM     12 H49  CHE L   1      -5.509   3.290  -0.689  1.00  0.00    +0.0695  H
ATOM     13 H50  CHE L   1      -8.449   1.523   2.538  1.00  0.00    +0.0814  H
ATOM     14 H51  CHE L   1      -9.020  -0.741   3.325  1.00  0.00    +0.0632  H
ATOM     15 H52  CHE L   1      -7.907  -2.720   2.325  1.00  0.00    +0.0619  H
ATOM     16 H53  CHE L   1      -6.219  -2.419   0.531  1.00  0.00    +0.0654  H
ENDROOT
BRANCH 1 18
ATOM     17 N16  CHE L   1      -3.661   0.182  -2.394  1.00  0.00    -0.3452  N
ATOM     18 C17  CHE L   1      -4.164   1.372  -1.934  1.00  0.00    +0.2709  C
ATOM     19 O18  CHE L   1      -3.815   2.475  -2.339  1.00  0.00    -0.2659 OA
ATOM     20 H48  CHE L   1      -3.912  -0.648  -1.865  1.00  0.00    +0.1631 HD
BRANCH 17 21
ATOM     21 C15  CHE L   1      -2.498   0.113  -3.242  1.00  0.00    +0.0623  C
ATOM     22 H46  CHE L   1      -2.406   1.022  -3.845  1.00  0.00    +0.0552  H
ATOM     23 H47  CHE L   1      -2.625  -0.742  -3.912  1.00  0.00    +0.0552  H
BRANCH 21 29
ATOM     24  C9  CHE L   1       2.360  -0.211   0.266  1.00  0.00    -0.0170  A
ATOM     25 C10  CHE L   1       1.943  -1.617   0.310  1.00  0.00    -0.0525  A
ATOM     26 C11  CHE L   1       0.860  -2.060  -0.359  1.00  0.00    -0.0185  A
ATOM     27 C12  CHE L   1       0.086  -1.151  -1.132  1.00  0.00    +0.1379  A
ATOM     28 N13  CHE L   1      -1.000  -1.328  -1.856  1.00  0.00    -0.2310 NA
ATOM     29 C14  CHE L   1      -1.301  -0.084  -2.377  1.00  0.00    +0.0791  A
ATOM     30 C30  CHE L   1      -0.383   0.854  -1.947  1.00  0.00    +0.0342  A
ATOM     31 N31  CHE L   1       0.502   0.175  -1.152  1.00  0.00    -0.3060  N
ATOM     32 C32  CHE L   1       1.615   0.646  -0.462  1.00  0.00    +0.0156  A
ATOM     33 H44  CHE L   1       2.531  -2.310   0.904  1.00  0.00    +0.0622  H
ATOM     34 H45  CHE L   1       0.554  -3.099  -0.326  1.00  0.00    +0.0654  H
ATOM     35 H54  CHE L   1      -0.300   1.916  -2.128  1.00  0.00    +0.0832  H
ATOM     36 H55  CHE L   1       1.840   1.701  -0.554  1.00  0.00    +0.0816  H
BRANCH 24 37
ATOM     37  C8  CHE L   1       3.566   0.214   1.061  1.00  0.00    +0.0227  C
ATOM     38 H42  CHE L   1       3.516  -0.228   2.065  1.00  0.00    +0.0474  H
ATOM     39 H43  CHE L   1       3.554   1.303   1.192  1.00  0.00    +0.0474  H
BRANCH 37 40
ATOM     40  N7  CHE L   1       4.800  -0.182   0.381  1.00  0.00    -0.3105 NA
ATOM     41 H41  CHE L   1       4.783  -1.188   0.220  1.00  0.00    +0.1223 HD
BRANCH 40 42
ATOM     42  C6  CHE L   1       5.987   0.194   1.159  1.00  0.00    +0.0141  C
ATOM     43 H39  CHE L   1       5.913   1.254   1.438  1.00  0.00    +0.0439  H
ATOM     44 H40  CHE L   1       5.987  -0.383   2.093  1.00  0.00    +0.0439  H
BRANCH 42 46
ATOM     45  C1  CHE L   1       8.484   0.285   1.401  1.00  0.00    -0.0457  C
ATOM     46  C2  CHE L   1       7.336  -0.031   0.422  1.00  0.00    +0.0642  C
ATOM     47  C3  CHE L   1       7.488  -1.483  -0.060  1.00  0.00    -0.0457  C
ATOM     48 H33  CHE L   1       8.457  -0.381   2.271  1.00  0.00    +0.0245  H
ATOM     49 H34  CHE L   1       8.424   1.317   1.767  1.00  0.00    +0.0245  H
ATOM     50 H35  CHE L   1       9.463   0.168   0.921  1.00  0.00    +0.0245  H
ATOM     51 H36  CHE L   1       6.754  -1.736  -0.834  1.00  0.00    +0.0245  H
ATOM     52 H37  CHE L   1       7.364  -2.189   0.768  1.00  0.00    +0.0245  H
ATOM     53 H38  CHE L   1       8.479  -1.653  -0.498  1.00  0.00    +0.0245  H
BRANCH 46 54
ATOM     54  C4  CHE L   1       7.444   0.889  -0.734  1.00  0.00    +0.0700  C
ATOM     55  N5  CHE L   1       7.571   1.617  -1.630  1.00  0.00    -0.1960 NA
ENDBRANCH 46 54
ENDBRANCH 42 46
ENDBRANCH 40 42
ENDBRANCH 37 40
ENDBRANCH 24 37
ENDBRANCH 21 29
ENDBRANCH 17 21
ENDBRANCH 1 18
TORSDOF 8
