ROOT
ATOM      1  N9  170 L   1       1.049  -0.045   0.184  1.00  0.00    -0.2965 NA
ATOM      2 C10  170 L   1       0.641   0.944  -0.826  1.00  0.00    -0.0001  C
ATOM      3 C11  170 L   1      -0.701   0.573  -1.461  1.00  0.00    -0.0310  C
ATOM      4 C12  170 L   1      -1.830   0.416  -0.415  1.00  0.00    +0.0118  C
ATOM      5 C15  170 L   1      -3.088  -0.142  -1.126  1.00  0.00    -0.0426  C
ATOM      6 C16  170 L   1      -4.179  -0.521  -0.128  1.00  0.00    -0.0396  C
ATOM      7 C17  170 L   1      -3.638  -1.417   0.987  1.00  0.00    -0.0010  C
ATOM      8 N18  170 L   1      -2.448  -0.842   1.646  1.00  0.00    -0.3006 NA
ATOM      9 C19  170 L   1      -2.041  -1.722   2.745  1.00  0.00    -0.0124  C
ATOM     10 C20  170 L   1      -1.365  -0.628   0.647  1.00  0.00    +0.0306  C
ATOM     11 C21  170 L   1       0.020  -0.215   1.231  1.00  0.00    +0.0154  C
ATOM     12 H30  170 L   1       1.379   0.982  -1.636  1.00  0.00    +0.0427  H
ATOM     13 H31  170 L   1       0.597   1.952  -0.396  1.00  0.00    +0.0427  H
ATOM     14 H32  170 L   1      -0.968   1.328  -2.211  1.00  0.00    +0.0284  H
ATOM     15 H33  170 L   1      -0.575  -0.369  -2.013  1.00  0.00    +0.0284  H
ATOM     16 H37  170 L   1      -2.819  -1.042  -1.696  1.00  0.00    +0.0272  H
ATOM     17 H38  170 L   1      -3.484   0.571  -1.858  1.00  0.00    +0.0272  H
ATOM     18 H39  170 L   1      -4.989  -1.041  -0.653  1.00  0.00    +0.0278  H
ATOM     19 H40  170 L   1      -4.624   0.383   0.305  1.00  0.00    +0.0278  H
ATOM     20 H41  170 L   1      -4.440  -1.553   1.723  1.00  0.00    +0.0426  H
ATOM     21 H42  170 L   1      -3.409  -2.409   0.575  1.00  0.00    +0.0426  H
ATOM     22 H43  170 L   1      -1.661  -2.685   2.385  1.00  0.00    +0.0391  H
ATOM     23 H44  170 L   1      -2.885  -1.917   3.417  1.00  0.00    +0.0391  H
ATOM     24 H45  170 L   1      -1.275  -1.247   3.366  1.00  0.00    +0.0391  H
ATOM     25 H46  170 L   1      -1.194  -1.588   0.132  1.00  0.00    +0.0481  H
ATOM     26 H47  170 L   1      -0.071   0.689   1.844  1.00  0.00    +0.0442  H
ATOM     27 H48  170 L   1       0.366  -1.016   1.895  1.00  0.00    +0.0442  H
ENDROOT
BRANCH 1 28
ATOM     28  C8  170 L   1       2.339   0.310   0.801  1.00  0.00    +0.0291  C
ATOM     29 H28  170 L   1       2.322   1.336   1.189  1.00  0.00    +0.0477  H
ATOM     30 H29  170 L   1       2.538  -0.346   1.660  1.00  0.00    +0.0477  H
BRANCH 28 37
ATOM     31  C1  170 L   1       4.450   2.520  -0.348  1.00  0.00    -0.0188  C
ATOM     32  C2  170 L   1       4.379   1.073  -0.657  1.00  0.00    +0.0852  A
ATOM     33  N3  170 L   1       5.260   0.524  -1.500  1.00  0.00    -0.0830 NA
ATOM     34  O4  170 L   1       4.922  -0.813  -1.580  1.00  0.00    -0.3594 OA
ATOM     35  C5  170 L   1       3.851  -1.059  -0.782  1.00  0.00    +0.1388  A
ATOM     36  C6  170 L   1       3.354  -2.447  -0.761  1.00  0.00    -0.0034  C
ATOM     37  C7  170 L   1       3.455   0.109  -0.164  1.00  0.00    +0.0310  A
ATOM     38 H22  170 L   1       5.248   3.015  -0.911  1.00  0.00    +0.0294  H
ATOM     39 H23  170 L   1       4.643   2.673   0.718  1.00  0.00    +0.0294  H
ATOM     40 H24  170 L   1       3.505   3.011  -0.603  1.00  0.00    +0.0294  H
ATOM     41 H25  170 L   1       2.563  -2.577  -1.506  1.00  0.00    +0.0309  H
ATOM     42 H26  170 L   1       4.157  -3.156  -0.985  1.00  0.00    +0.0309  H
ATOM     43 H27  170 L   1       2.947  -2.702   0.222  1.00  0.00    +0.0309  H
ENDBRANCH 28 37
ENDBRANCH 1 28
BRANCH 4 44
ATOM     44 C13  170 L   1      -2.144   1.791   0.243  1.00  0.00    +0.0513  C
ATOM     45 O14  170 L   1      -2.501   2.770  -0.731  1.00  0.00    -0.3944 OA
ATOM     46 H34  170 L   1      -1.281   2.193   0.780  1.00  0.00    +0.0563  H
ATOM     47 H35  170 L   1      -2.955   1.735   0.975  1.00  0.00    +0.0563  H
ATOM     48 H36  170 L   1      -3.421   2.597  -0.990  1.00  0.00    +0.2094 HD
ENDBRANCH 4 44
TORSDOF 3
