ROOT
ATOM      1 C11  WH0 L   1       2.742   0.670   0.878  1.00  0.00    -0.0231  A
ATOM      2 C12  WH0 L   1       1.422   0.673   0.382  1.00  0.00    -0.0488  A
ATOM      3 C13  WH0 L   1       0.453  -0.219   0.895  1.00  0.00    -0.0131  A
ATOM      4 C37  WH0 L   1       0.808  -1.132   1.908  1.00  0.00    -0.0483  A
ATOM      5 C38  WH0 L   1       2.120  -1.136   2.376  1.00  0.00    -0.0142  A
ATOM      6 C39  WH0 L   1       3.062  -0.262   1.876  1.00  0.00    +0.0486  A
ATOM      7 N40  WH0 L   1       4.328  -0.456   2.485  1.00  0.00    -0.3254  N
ATOM      8 C41  WH0 L   1       4.126  -1.517   3.411  1.00  0.00    +0.2296  C
ATOM      9 O42  WH0 L   1       5.045  -1.973   4.141  1.00  0.00    -0.2725 OA
ATOM     10 C43  WH0 L   1       2.717  -2.027   3.418  1.00  0.00    +0.0535  C
ATOM     11 H53  WH0 L   1       1.152   1.357  -0.414  1.00  0.00    +0.0627  H
ATOM     12 H71  WH0 L   1       0.082  -1.822   2.320  1.00  0.00    +0.0627  H
ATOM     13 H72  WH0 L   1       5.224   0.043   2.287  1.00  0.00    +0.1686 HD
ATOM     14 H73  WH0 L   1       2.676  -3.091   3.105  1.00  0.00    +0.0410  H
ATOM     15 H74  WH0 L   1       2.239  -1.861   4.406  1.00  0.00    +0.0410  H
ENDROOT
BRANCH 1 16
ATOM     16 C10  WH0 L   1       3.777   1.600   0.303  1.00  0.00    -0.0241  C
ATOM     17 H51  WH0 L   1       3.282   2.488  -0.146  1.00  0.00    +0.0314  H
ATOM     18 H52  WH0 L   1       4.432   1.973   1.119  1.00  0.00    +0.0314  H
BRANCH 16 19
ATOM     19  C9  WH0 L   1       4.610   0.884  -0.767  1.00  0.00    -0.0314  C
ATOM     20 H49  WH0 L   1       3.936   0.531  -1.578  1.00  0.00    +0.0285  H
ATOM     21 H50  WH0 L   1       5.105  -0.009  -0.328  1.00  0.00    +0.0285  H
BRANCH 19 22
ATOM     22  C8  WH0 L   1       5.668   1.810  -1.383  1.00  0.00    +0.0187  C
ATOM     23 H47  WH0 L   1       6.206   1.277  -2.197  1.00  0.00    +0.0486  H
ATOM     24 H48  WH0 L   1       5.163   2.690  -1.839  1.00  0.00    +0.0486  H
BRANCH 22 27
ATOM     25  C5  WH0 L   1       7.650   1.409   0.159  1.00  0.00    +0.2618  C
ATOM     26  O6  WH0 L   1       7.726   0.212  -0.231  1.00  0.00    -0.2669 OA
ATOM     27  N7  WH0 L   1       6.625   2.266  -0.375  1.00  0.00    -0.3514  N
ATOM     28 H46  WH0 L   1       6.516   3.240  -0.017  1.00  0.00    +0.1626 HD
BRANCH 25 30
ATOM     29  C1  WH0 L   1       8.921   3.183   1.314  1.00  0.00    -0.0760  C
ATOM     30  C2  WH0 L   1       8.610   1.891   1.180  1.00  0.00    +0.1085  C
ATOM     31 H44  WH0 L   1       8.511   3.943   0.663  1.00  0.00    +0.0549  H
ATOM     32 H45  WH0 L   1       9.633   3.505   2.065  1.00  0.00    +0.0549  H
BRANCH 30 33
ATOM     33  C3  WH0 L   1       9.262   0.929   2.035  1.00  0.00    +0.1040  C
ATOM     34  N4  WH0 L   1       9.785   0.157   2.722  1.00  0.00    -0.1907 NA
ENDBRANCH 30 33
ENDBRANCH 25 30
ENDBRANCH 22 27
ENDBRANCH 19 22
ENDBRANCH 16 19
ENDBRANCH 1 16
BRANCH 3 35
ATOM     35 C14  WH0 L   1      -0.926  -0.199   0.366  1.00  0.00    +0.0353  A
ATOM     36 C15  WH0 L   1      -1.737  -1.281   0.000  1.00  0.00    +0.1015  A
ATOM     37 N23  WH0 L   1      -2.979  -0.837  -0.304  1.00  0.00    -0.1627 NA
ATOM     38 N24  WH0 L   1      -2.972   0.477  -0.157  1.00  0.00    -0.1987  N
ATOM     39 C25  WH0 L   1      -4.024   1.328  -0.309  1.00  0.00    +0.2282  A
ATOM     40 N33  WH0 L   1      -3.838   2.644   0.001  1.00  0.00    -0.2207 NA
ATOM     41 C34  WH0 L   1      -2.629   3.107   0.437  1.00  0.00    +0.0334  A
ATOM     42 C35  WH0 L   1      -1.544   2.231   0.581  1.00  0.00    -0.0173  A
ATOM     43 C36  WH0 L   1      -1.766   0.894   0.256  1.00  0.00    +0.0803  A
ATOM     44 H69  WH0 L   1      -2.512   4.154   0.682  1.00  0.00    +0.0831  H
ATOM     45 H70  WH0 L   1      -0.590   2.583   0.950  1.00  0.00    +0.0654  H
BRANCH 36 46
ATOM     46 C16  WH0 L   1      -1.357  -2.707  -0.079  1.00  0.00    +0.0029  A
ATOM     47 C17  WH0 L   1      -2.301  -3.698   0.240  1.00  0.00    -0.0498  A
ATOM     48 C18  WH0 L   1      -1.959  -5.051   0.163  1.00  0.00    -0.0258  A
ATOM     49 C19  WH0 L   1      -0.677  -5.428  -0.244  1.00  0.00    +0.1234  A
ATOM     50 F20  WH0 L   1      -0.347  -6.741  -0.317  1.00  0.00    -0.2055  F
ATOM     51 C21  WH0 L   1       0.263  -4.451  -0.583  1.00  0.00    -0.0258  A
ATOM     52 C22  WH0 L   1      -0.075  -3.096  -0.507  1.00  0.00    -0.0498  A
ATOM     53 H54  WH0 L   1      -3.299  -3.424   0.562  1.00  0.00    +0.0625  H
ATOM     54 H55  WH0 L   1      -2.690  -5.807   0.420  1.00  0.00    +0.0646  H
ATOM     55 H56  WH0 L   1       1.253  -4.742  -0.911  1.00  0.00    +0.0646  H
ATOM     56 H57  WH0 L   1       0.660  -2.357  -0.801  1.00  0.00    +0.0625  H
ENDBRANCH 36 46
BRANCH 39 57
ATOM     57 N26  WH0 L   1      -5.313   0.869  -0.757  1.00  0.00    -0.3402  N
ATOM     58 C27  WH0 L   1      -5.426  -0.131  -1.827  1.00  0.00    +0.0228  C
ATOM     59 C28  WH0 L   1      -6.533   0.243  -2.830  1.00  0.00    -0.0199  C
ATOM     60 C29  WH0 L   1      -7.782   0.907  -2.188  1.00  0.00    +0.0080  C
ATOM     61 N30  WH0 L   1      -9.006   0.336  -2.753  1.00  0.00    -0.3271 NA
ATOM     62 C31  WH0 L   1      -7.791   0.757  -0.658  1.00  0.00    -0.0199  C
ATOM     63 C32  WH0 L   1      -6.513   1.360  -0.065  1.00  0.00    +0.0228  C
ATOM     64 H58  WH0 L   1      -4.470  -0.220  -2.387  1.00  0.00    +0.0489  H
ATOM     65 H59  WH0 L   1      -5.653  -1.120  -1.374  1.00  0.00    +0.0489  H
ATOM     66 H60  WH0 L   1      -6.109   0.945  -3.581  1.00  0.00    +0.0297  H
ATOM     67 H61  WH0 L   1      -6.820  -0.680  -3.381  1.00  0.00    +0.0297  H
ATOM     68 H62  WH0 L   1      -7.758   1.997  -2.423  1.00  0.00    +0.0459  H
ATOM     69 H63  WH0 L   1      -9.826   0.855  -2.361  1.00  0.00    +0.1185 HD
ATOM     70 H64  WH0 L   1      -9.012   0.527  -3.782  1.00  0.00    +0.1185 HD
ATOM     71 H65  WH0 L   1      -7.864  -0.318  -0.382  1.00  0.00    +0.0297  H
ATOM     72 H66  WH0 L   1      -8.672   1.282  -0.228  1.00  0.00    +0.0297  H
ATOM     73 H67  WH0 L   1      -6.562   2.467  -0.155  1.00  0.00    +0.0489  H
ATOM     74 H68  WH0 L   1      -6.453   1.098   1.014  1.00  0.00    +0.0489  H
ENDBRANCH 39 57
ENDBRANCH 3 35
TORSDOF 9
