ROOT
ATOM      1 C33  WH0 L   1       0.006   3.098   0.546  1.00  0.00    -0.0133  A
ATOM      2 C34  WH0 L   1       0.613   3.613   1.715  1.00  0.00    -0.0519  A
ATOM      3 C35  WH0 L   1       0.910   4.975   1.833  1.00  0.00    -0.0374  A
ATOM      4 C36  WH0 L   1       0.588   5.784   0.768  1.00  0.00    +0.0454  A
ATOM      5 C37  WH0 L   1      -0.008   5.295  -0.392  1.00  0.00    -0.0145  A
ATOM      6 C38  WH0 L   1      -0.306   3.950  -0.522  1.00  0.00    -0.0483  A
ATOM      7 C39  WH0 L   1      -0.229   6.425  -1.352  1.00  0.00    +0.0535  C
ATOM      8 C40  WH0 L   1       0.331   7.622  -0.574  1.00  0.00    +0.2296  C
ATOM      9 O41  WH0 L   1       0.371   8.781  -0.950  1.00  0.00    -0.2725 OA
ATOM     10 N42  WH0 L   1       0.785   7.150   0.653  1.00  0.00    -0.3256  N
ATOM     11 H66  WH0 L   1       0.868   2.946   2.536  1.00  0.00    +0.0624  H
ATOM     12 H67  WH0 L   1       1.377   5.368   2.729  1.00  0.00    +0.0638  H
ATOM     13 H68  WH0 L   1      -0.771   3.574  -1.427  1.00  0.00    +0.0627  H
ATOM     14 H69  WH0 L   1      -1.294   6.580  -1.542  1.00  0.00    +0.0410  H
ATOM     15 H70  WH0 L   1       0.340   6.285  -2.274  1.00  0.00    +0.0410  H
ATOM     16 H71  WH0 L   1       1.199   7.751   1.349  1.00  0.00    +0.1686 HD
ENDROOT
BRANCH 1 25
ATOM     17 C17  WH0 L   1       0.210   0.707  -0.485  1.00  0.00    +0.1018  A
ATOM     18 N18  WH0 L   1      -0.274  -0.516  -0.225  1.00  0.00    -0.1627 NA
ATOM     19 N19  WH0 L   1      -1.130  -0.329   0.817  1.00  0.00    -0.1987  N
ATOM     20 C20  WH0 L   1      -1.925  -1.366   1.410  1.00  0.00    +0.2282  A
ATOM     21 N28  WH0 L   1      -2.648  -1.053   2.466  1.00  0.00    -0.2207 NA
ATOM     22 C29  WH0 L   1      -2.638   0.246   2.920  1.00  0.00    +0.0334  A
ATOM     23 C30  WH0 L   1      -1.935   1.255   2.387  1.00  0.00    -0.0173  A
ATOM     24 C31  WH0 L   1      -1.118   0.976   1.272  1.00  0.00    +0.0803  A
ATOM     25 C32  WH0 L   1      -0.272   1.678   0.441  1.00  0.00    +0.0353  A
ATOM     26 H64  WH0 L   1      -3.278   0.436   3.780  1.00  0.00    +0.0831  H
ATOM     27 H65  WH0 L   1      -1.995   2.257   2.799  1.00  0.00    +0.0654  H
BRANCH 17 34
ATOM     28 C10  WH0 L   1       2.509   1.113  -1.419  1.00  0.00    -0.0338  A
ATOM     29 C11  WH0 L   1       3.308   1.349  -2.552  1.00  0.00    -0.0226  A
ATOM     30 C12  WH0 L   1       2.743   1.379  -3.822  1.00  0.00    +0.1237  A
ATOM     31 F13  WH0 L   1       3.524   1.609  -4.885  1.00  0.00    -0.2055  F
ATOM     32 C14  WH0 L   1       1.385   1.166  -4.007  1.00  0.00    -0.0258  A
ATOM     33 C15  WH0 L   1       0.574   0.934  -2.897  1.00  0.00    -0.0495  A
ATOM     34 C16  WH0 L   1       1.123   0.919  -1.603  1.00  0.00    +0.0061  A
ATOM     35 H50  WH0 L   1       4.380   1.506  -2.459  1.00  0.00    +0.0649  H
ATOM     36 H51  WH0 L   1       0.965   1.181  -5.007  1.00  0.00    +0.0646  H
ATOM     37 H52  WH0 L   1      -0.490   0.763  -3.041  1.00  0.00    +0.0625  H
BRANCH 28 38
ATOM     38  C9  WH0 L   1       3.182   1.031  -0.064  1.00  0.00    -0.0095  C
ATOM     39 H48  WH0 L   1       3.932   1.832  -0.002  1.00  0.00    +0.0330  H
ATOM     40 H49  WH0 L   1       2.477   1.233   0.747  1.00  0.00    +0.0330  H
BRANCH 38 41
ATOM     41  C8  WH0 L   1       3.866  -0.314   0.186  1.00  0.00    +0.0224  C
ATOM     42 H46  WH0 L   1       4.430  -0.260   1.124  1.00  0.00    +0.0489  H
ATOM     43 H47  WH0 L   1       4.582  -0.549  -0.610  1.00  0.00    +0.0489  H
BRANCH 41 46
ATOM     44  C5  WH0 L   1       3.254  -2.572   0.951  1.00  0.00    +0.2618  C
ATOM     45  O6  WH0 L   1       4.208  -2.648   1.723  1.00  0.00    -0.2669 OA
ATOM     46  N7  WH0 L   1       2.937  -1.429   0.256  1.00  0.00    -0.3511  N
ATOM     47 H45  WH0 L   1       2.134  -1.419  -0.369  1.00  0.00    +0.1627 HD
BRANCH 44 49
ATOM     48  C1  WH0 L   1       2.204  -4.636   1.704  1.00  0.00    -0.0760  C
ATOM     49  C2  WH0 L   1       2.365  -3.745   0.708  1.00  0.00    +0.1085  C
ATOM     50 H43  WH0 L   1       2.674  -4.486   2.673  1.00  0.00    +0.0549  H
ATOM     51 H44  WH0 L   1       1.607  -5.534   1.577  1.00  0.00    +0.0549  H
BRANCH 49 52
ATOM     52  C3  WH0 L   1       1.803  -3.967  -0.577  1.00  0.00    +0.1040  C
ATOM     53  N4  WH0 L   1       1.357  -4.173  -1.629  1.00  0.00    -0.1907 NA
ENDBRANCH 49 52
ENDBRANCH 44 49
ENDBRANCH 41 46
ENDBRANCH 38 41
ENDBRANCH 28 38
ENDBRANCH 17 34
BRANCH 20 54
ATOM     54 N21  WH0 L   1      -1.941  -2.682   0.902  1.00  0.00    -0.3402  N
ATOM     55 C22  WH0 L   1      -1.871  -2.910  -0.559  1.00  0.00    +0.0228  C
ATOM     56 C23  WH0 L   1      -2.144  -4.367  -0.922  1.00  0.00    -0.0199  C
ATOM     57 C24  WH0 L   1      -3.520  -4.832  -0.438  1.00  0.00    +0.0080  C
ATOM     58 N25  WH0 L   1      -4.546  -4.617  -1.459  1.00  0.00    -0.3271 NA
ATOM     59 C26  WH0 L   1      -3.924  -4.140   0.868  1.00  0.00    -0.0199  C
ATOM     60 C27  WH0 L   1      -2.686  -3.713   1.650  1.00  0.00    +0.0228  C
ATOM     61 H53  WH0 L   1      -0.874  -2.672  -0.935  1.00  0.00    +0.0489  H
ATOM     62 H54  WH0 L   1      -2.592  -2.258  -1.069  1.00  0.00    +0.0489  H
ATOM     63 H55  WH0 L   1      -1.379  -4.996  -0.450  1.00  0.00    +0.0297  H
ATOM     64 H56  WH0 L   1      -2.026  -4.520  -2.000  1.00  0.00    +0.0297  H
ATOM     65 H57  WH0 L   1      -3.463  -5.914  -0.260  1.00  0.00    +0.0459  H
ATOM     66 H58  WH0 L   1      -4.309  -5.144  -2.299  1.00  0.00    +0.1185 HD
ATOM     67 H59  WH0 L   1      -5.442  -4.981  -1.137  1.00  0.00    +0.1185 HD
ATOM     68 H60  WH0 L   1      -4.533  -4.826   1.471  1.00  0.00    +0.0297  H
ATOM     69 H61  WH0 L   1      -4.545  -3.254   0.672  1.00  0.00    +0.0297  H
ATOM     70 H62  WH0 L   1      -2.989  -3.375   2.645  1.00  0.00    +0.0489  H
ATOM     71 H63  WH0 L   1      -2.026  -4.571   1.826  1.00  0.00    +0.0489  H
ENDBRANCH 20 54
ENDBRANCH 1 25
TORSDOF 8
