ROOT
ATOM      1  C9  CHE L   1      -1.432  -0.023  -0.472  1.00  0.00    +0.0933  A
ATOM      2 C10  CHE L   1      -0.692  -0.143  -1.630  1.00  0.00    +0.0372  A
ATOM      3 N11  CHE L   1       0.603   0.110  -1.258  1.00  0.00    -0.3059  N
ATOM      4 C12  CHE L   1       1.760   0.109  -2.021  1.00  0.00    +0.0131  A
ATOM      5 C13  CHE L   1       2.932   0.396  -1.430  1.00  0.00    -0.0218  A
ATOM      6 C14  CHE L   1       2.998   0.720   0.008  1.00  0.00    +0.0425  A
ATOM      7 C20  CHE L   1       1.838   0.685   0.715  1.00  0.00    +0.0044  A
ATOM      8 C21  CHE L   1       0.590   0.385   0.099  1.00  0.00    +0.1402  A
ATOM      9 N22  CHE L   1      -0.630   0.318   0.592  1.00  0.00    -0.2276 NA
ATOM     10 H33  CHE L   1      -0.961  -0.391  -2.646  1.00  0.00    +0.0835  H
ATOM     11 H34  CHE L   1       1.670  -0.139  -3.070  1.00  0.00    +0.0814  H
ATOM     12 H35  CHE L   1       3.841   0.362  -2.016  1.00  0.00    +0.0653  H
ATOM     13 H45  CHE L   1       1.804   0.903   1.774  1.00  0.00    +0.0675  H
ENDROOT
BRANCH 1 17
ATOM     14  C3  CHE L   1      -5.676  -0.529  -0.240  1.00  0.00    +0.1418  A
ATOM     15  C4  CHE L   1      -4.837  -1.242   0.620  1.00  0.00    +0.0239  A
ATOM     16  C5  CHE L   1      -3.447  -1.064   0.562  1.00  0.00    +0.1328  A
ATOM     17  C8  CHE L   1      -2.867  -0.201  -0.378  1.00  0.00    +0.0451  A
ATOM     18 C23  CHE L   1      -3.709   0.513  -1.240  1.00  0.00    -0.0271  A
ATOM     19 C24  CHE L   1      -5.097   0.352  -1.167  1.00  0.00    +0.0834  A
ATOM     20 CL25 CHE L   1      -6.071   1.271  -2.265  1.00  0.00    -0.0797 Cl
ATOM     21 H29  CHE L   1      -5.226  -1.953   1.341  1.00  0.00    +0.0691  H
ATOM     22 H46  CHE L   1      -3.287   1.205  -1.965  1.00  0.00    +0.0641  H
BRANCH 14 24
ATOM     23  C1  CHE L   1      -7.647  -1.524   0.674  1.00  0.00    +0.0789  C
ATOM     24  O2  CHE L   1      -7.043  -0.630  -0.252  1.00  0.00    -0.4935 OA
ATOM     25 H26  CHE L   1      -7.438  -1.225   1.706  1.00  0.00    +0.0660  H
ATOM     26 H27  CHE L   1      -8.730  -1.475   0.527  1.00  0.00    +0.0660  H
ATOM     27 H28  CHE L   1      -7.333  -2.556   0.488  1.00  0.00    +0.0660  H
ENDBRANCH 14 24
BRANCH 16 28
ATOM     28  O6  CHE L   1      -2.669  -1.839   1.385  1.00  0.00    -0.4943 OA
ATOM     29  C7  CHE L   1      -2.565  -1.238   2.677  1.00  0.00    +0.0788  C
ATOM     30 H30  CHE L   1      -2.357  -0.164   2.625  1.00  0.00    +0.0660  H
ATOM     31 H31  CHE L   1      -1.737  -1.720   3.205  1.00  0.00    +0.0660  H
ATOM     32 H32  CHE L   1      -3.482  -1.414   3.250  1.00  0.00    +0.0660  H
ENDBRANCH 16 28
ENDBRANCH 1 17
BRANCH 6 33
ATOM     33 N15  CHE L   1       4.252   1.012   0.581  1.00  0.00    -0.3723  N
ATOM     34 C16  CHE L   1       4.419   1.101   2.041  1.00  0.00    +0.0072  C
ATOM     35 H36  CHE L   1       3.946   2.011   2.424  1.00  0.00    +0.0452  H
ATOM     36 H37  CHE L   1       3.977   0.229   2.537  1.00  0.00    +0.0452  H
ATOM     37 H38  CHE L   1       5.475   1.125   2.329  1.00  0.00    +0.0452  H
BRANCH 33 38
ATOM     38 C17  CHE L   1       5.358   1.660  -0.170  1.00  0.00    +0.0306  C
ATOM     39 H39  CHE L   1       5.051   1.933  -1.185  1.00  0.00    +0.0500  H
ATOM     40 H40  CHE L   1       5.625   2.606   0.318  1.00  0.00    +0.0500  H
BRANCH 38 41
ATOM     41 C18  CHE L   1       6.608   0.753  -0.238  1.00  0.00    +0.0107  C
ATOM     42 N19  CHE L   1       6.307  -0.635  -0.607  1.00  0.00    -0.3283 NA
ATOM     43 H41  CHE L   1       7.329   1.173  -0.948  1.00  0.00    +0.0439  H
ATOM     44 H42  CHE L   1       7.102   0.738   0.740  1.00  0.00    +0.0439  H
ATOM     45 H43  CHE L   1       5.955  -0.656  -1.562  1.00  0.00    +0.1183 HD
ATOM     46 H44  CHE L   1       5.496  -0.908  -0.039  1.00  0.00    +0.1183 HD
ENDBRANCH 38 41
ENDBRANCH 33 38
ENDBRANCH 6 33
TORSDOF 6
