ROOT
ATOM      1  C1  CHE L   1      -3.422  -1.937  -0.002  1.00  0.00    -0.0470  C
ATOM      2  C2  CHE L   1      -4.045  -0.850  -0.900  1.00  0.00    +0.0159  C
ATOM      3  C3  CHE L   1      -4.880  -1.578  -1.976  1.00  0.00    -0.0470  C
ATOM      4  C4  CHE L   1      -2.969  -0.007  -1.609  1.00  0.00    -0.0147  C
ATOM      5  C5  CHE L   1      -2.188   0.934  -0.681  1.00  0.00    +0.0332  C
ATOM      6 C24  CHE L   1      -2.909   1.215   0.639  1.00  0.00    -0.0147  C
ATOM      7 C25  CHE L   1      -4.440   1.214   0.494  1.00  0.00    +0.0159  C
ATOM      8 C26  CHE L   1      -4.909   2.433  -0.326  1.00  0.00    -0.0470  C
ATOM      9 C27  CHE L   1      -5.067   1.315   1.896  1.00  0.00    -0.0470  C
ATOM     10 N28  CHE L   1      -4.973  -0.024  -0.106  1.00  0.00    -0.3060 NA
ATOM     11 H29  CHE L   1      -2.838  -1.532   0.826  1.00  0.00    +0.0247  H
ATOM     12 H30  CHE L   1      -4.195  -2.580   0.436  1.00  0.00    +0.0247  H
ATOM     13 H31  CHE L   1      -2.751  -2.580  -0.583  1.00  0.00    +0.0247  H
ATOM     14 H32  CHE L   1      -5.697  -2.160  -1.528  1.00  0.00    +0.0247  H
ATOM     15 H33  CHE L   1      -5.328  -0.868  -2.686  1.00  0.00    +0.0247  H
ATOM     16 H34  CHE L   1      -4.257  -2.273  -2.554  1.00  0.00    +0.0247  H
ATOM     17 H35  CHE L   1      -2.291  -0.652  -2.181  1.00  0.00    +0.0303  H
ATOM     18 H36  CHE L   1      -3.469   0.620  -2.361  1.00  0.00    +0.0303  H
ATOM     19 H37  CHE L   1      -2.075   1.889  -1.213  1.00  0.00    +0.0524  H
ATOM     20 H47  CHE L   1      -2.563   2.181   1.033  1.00  0.00    +0.0303  H
ATOM     21 H48  CHE L   1      -2.608   0.487   1.403  1.00  0.00    +0.0303  H
ATOM     22 H49  CHE L   1      -4.559   3.368   0.129  1.00  0.00    +0.0247  H
ATOM     23 H50  CHE L   1      -4.540   2.410  -1.356  1.00  0.00    +0.0247  H
ATOM     24 H51  CHE L   1      -6.004   2.484  -0.375  1.00  0.00    +0.0247  H
ATOM     25 H52  CHE L   1      -4.700   2.201   2.431  1.00  0.00    +0.0247  H
ATOM     26 H53  CHE L   1      -4.822   0.436   2.506  1.00  0.00    +0.0247  H
ATOM     27 H54  CHE L   1      -6.161   1.388   1.843  1.00  0.00    +0.0247  H
ATOM     28 H55  CHE L   1      -5.795   0.212  -0.665  1.00  0.00    +0.1229 HD
ENDROOT
BRANCH 5 29
ATOM     29  N6  CHE L   1      -0.833   0.452  -0.424  1.00  0.00    -0.3492  N
ATOM     30  C7  CHE L   1       0.169   0.614  -1.363  1.00  0.00    +0.2523  C
ATOM     31  O8  CHE L   1       0.002   1.184  -2.437  1.00  0.00    -0.2676 OA
ATOM     32 H38  CHE L   1      -0.709  -0.250   0.294  1.00  0.00    +0.1629 HD
BRANCH 30 33
ATOM     33  C9  CHE L   1       1.496   0.030  -1.021  1.00  0.00    +0.0392  A
ATOM     34 C10  CHE L   1       1.923  -0.120   0.307  1.00  0.00    -0.0460  A
ATOM     35 C11  CHE L   1       3.190  -0.645   0.584  1.00  0.00    -0.0186  A
ATOM     36 C12  CHE L   1       4.042  -1.000  -0.466  1.00  0.00    +0.1285  A
ATOM     37 C22  CHE L   1       3.616  -0.863  -1.789  1.00  0.00    -0.0186  A
ATOM     38 C23  CHE L   1       2.349  -0.341  -2.067  1.00  0.00    -0.0460  A
ATOM     39 H39  CHE L   1       1.300   0.207   1.133  1.00  0.00    +0.0626  H
ATOM     40 H40  CHE L   1       3.498  -0.762   1.620  1.00  0.00    +0.0654  H
ATOM     41 H45  CHE L   1       4.276  -1.138  -2.608  1.00  0.00    +0.0654  H
ATOM     42 H46  CHE L   1       2.035  -0.216  -3.100  1.00  0.00    +0.0626  H
BRANCH 36 43
ATOM     43 O13  CHE L   1       5.307  -1.519  -0.287  1.00  0.00    -0.4547 OA
BRANCH 43 44
ATOM     44 C14  CHE L   1       6.049  -1.009   0.755  1.00  0.00    +0.1457  A
ATOM     45 C15  CHE L   1       6.325  -1.876   1.818  1.00  0.00    -0.0180  A
ATOM     46 C16  CHE L   1       7.092  -1.434   2.897  1.00  0.00    -0.0582  A
ATOM     47 C17  CHE L   1       7.598  -0.134   2.907  1.00  0.00    -0.0603  A
ATOM     48 C18  CHE L   1       7.349   0.722   1.830  1.00  0.00    -0.0408  A
ATOM     49 C19  CHE L   1       6.580   0.288   0.741  1.00  0.00    +0.0939  A
ATOM     50 H41  CHE L   1       5.938  -2.893   1.807  1.00  0.00    +0.0655  H
ATOM     51 H42  CHE L   1       7.299  -2.105   3.729  1.00  0.00    +0.0619  H
ATOM     52 H43  CHE L   1       8.198   0.210   3.747  1.00  0.00    +0.0618  H
ATOM     53 H44  CHE L   1       7.764   1.729   1.844  1.00  0.00    +0.0632  H
BRANCH 49 54
ATOM     54 C20  CHE L   1       6.375   1.183  -0.362  1.00  0.00    +0.1028  C
ATOM     55 N21  CHE L   1       6.220   1.937  -1.233  1.00  0.00    -0.1907 NA
ENDBRANCH 49 54
ENDBRANCH 43 44
ENDBRANCH 36 43
ENDBRANCH 30 33
ENDBRANCH 5 29
TORSDOF 5
