ROOT
ATOM      1  N6  CHE L   1      -2.892  -0.631   0.660  1.00  0.00    -0.3383  N
ATOM      2  C7  CHE L   1      -1.834  -0.735   1.551  1.00  0.00    +0.0294  A
ATOM      3  C8  CHE L   1      -1.996  -1.157   2.977  1.00  0.00    -0.0235  C
ATOM      4  C9  CHE L   1      -0.663  -0.395   0.876  1.00  0.00    +0.0671  A
ATOM      5 C24  CHE L   1      -1.040  -0.029  -0.456  1.00  0.00    +0.0125  A
ATOM      6 C25  CHE L   1      -0.315   0.369  -1.604  1.00  0.00    -0.0518  A
ATOM      7 C26  CHE L   1      -0.986   0.718  -2.777  1.00  0.00    -0.0611  A
ATOM      8 C27  CHE L   1      -2.371   0.660  -2.833  1.00  0.00    -0.0598  A
ATOM      9 C28  CHE L   1      -3.111   0.231  -1.729  1.00  0.00    -0.0376  A
ATOM     10 C29  CHE L   1      -2.434  -0.127  -0.548  1.00  0.00    +0.0503  A
ATOM     11 H39  CHE L   1      -2.156  -2.238   3.036  1.00  0.00    +0.0292  H
ATOM     12 H40  CHE L   1      -1.117  -0.908   3.578  1.00  0.00    +0.0292  H
ATOM     13 H41  CHE L   1      -2.844  -0.647   3.446  1.00  0.00    +0.0292  H
ATOM     14 H53  CHE L   1       0.770   0.399  -1.590  1.00  0.00    +0.0624  H
ATOM     15 H54  CHE L   1      -0.420   1.033  -3.649  1.00  0.00    +0.0618  H
ATOM     16 H55  CHE L   1      -2.889   0.934  -3.749  1.00  0.00    +0.0618  H
ATOM     17 H56  CHE L   1      -4.192   0.181  -1.805  1.00  0.00    +0.0638  H
ENDROOT
BRANCH 1 18
ATOM     18  C4  CHE L   1      -4.278  -1.025   0.968  1.00  0.00    +0.0553  C
ATOM     19  C5  CHE L   1      -4.830  -2.097   0.024  1.00  0.00    -0.0421  C
ATOM     20 H35  CHE L   1      -4.223  -1.518   1.946  1.00  0.00    +0.0548  H
ATOM     21 H36  CHE L   1      -5.792  -2.469   0.397  1.00  0.00    +0.0250  H
ATOM     22 H37  CHE L   1      -4.144  -2.948  -0.039  1.00  0.00    +0.0250  H
ATOM     23 H38  CHE L   1      -4.994  -1.732  -0.992  1.00  0.00    +0.0250  H
BRANCH 18 24
ATOM     24  C3  CHE L   1      -5.207   0.187   1.172  1.00  0.00    +0.0678  C
ATOM     25 H33  CHE L   1      -4.651   1.036   1.590  1.00  0.00    +0.0580  H
ATOM     26 H34  CHE L   1      -5.989  -0.092   1.889  1.00  0.00    +0.0580  H
BRANCH 24 28
ATOM     27  C1  CHE L   1      -6.679   1.725   0.154  1.00  0.00    +0.0365  C
ATOM     28  O2  CHE L   1      -5.852   0.584  -0.040  1.00  0.00    -0.3809 OA
ATOM     29 H30  CHE L   1      -7.106   2.013  -0.813  1.00  0.00    +0.0523  H
ATOM     30 H31  CHE L   1      -7.499   1.487   0.839  1.00  0.00    +0.0523  H
ATOM     31 H32  CHE L   1      -6.095   2.565   0.544  1.00  0.00    +0.0523  H
ENDBRANCH 24 28
ENDBRANCH 18 24
ENDBRANCH 1 18
BRANCH 4 32
ATOM     32 C10  CHE L   1       0.673  -0.427   1.475  1.00  0.00    +0.2546  C
ATOM     33 O11  CHE L   1       1.016  -1.293   2.271  1.00  0.00    -0.2675 OA
ATOM     34 N12  CHE L   1       1.487   0.620   1.114  1.00  0.00    -0.3477  N
ATOM     35 H42  CHE L   1       1.128   1.318   0.478  1.00  0.00    +0.1630 HD
BRANCH 34 36
ATOM     36 C13  CHE L   1       2.836   0.773   1.617  1.00  0.00    +0.0499  C
ATOM     37 H43  CHE L   1       2.906   0.317   2.609  1.00  0.00    +0.0538  H
ATOM     38 H44  CHE L   1       3.014   1.844   1.757  1.00  0.00    +0.0538  H
BRANCH 36 39
ATOM     39 C14  CHE L   1       3.820   0.203   0.635  1.00  0.00    +0.0493  A
ATOM     40 C15  CHE L   1       4.108   0.676  -0.599  1.00  0.00    +0.0192  A
ATOM     41 C18  CHE L   1       5.039  -0.023  -1.471  1.00  0.00    -0.0288  A
ATOM     42 C19  CHE L   1       5.675  -1.128  -1.055  1.00  0.00    +0.0170  A
ATOM     43 C20  CHE L   1       6.637  -1.910  -1.894  1.00  0.00    -0.0243  C
ATOM     44 N21  CHE L   1       5.449  -1.578   0.221  1.00  0.00    -0.3262  N
ATOM     45 C22  CHE L   1       4.604  -0.980   1.124  1.00  0.00    +0.2548  A
ATOM     46 O23  CHE L   1       4.540  -1.393   2.278  1.00  0.00    -0.2675 OA
ATOM     47 H48  CHE L   1       5.193   0.353  -2.479  1.00  0.00    +0.0646  H
ATOM     48 H49  CHE L   1       6.800  -1.443  -2.870  1.00  0.00    +0.0292  H
ATOM     49 H50  CHE L   1       7.608  -1.984  -1.392  1.00  0.00    +0.0292  H
ATOM     50 H51  CHE L   1       6.257  -2.923  -2.065  1.00  0.00    +0.0292  H
ATOM     51 H52  CHE L   1       5.942  -2.392   0.573  1.00  0.00    +0.1686 HD
BRANCH 40 52
ATOM     52 S16  CHE L   1       3.361   2.112  -1.252  1.00  0.00    -0.1280 SA
ATOM     53 C17  CHE L   1       4.725   3.283  -1.053  1.00  0.00    -0.0134  C
ATOM     54 H45  CHE L   1       5.591   2.969  -1.641  1.00  0.00    +0.0344  H
ATOM     55 H46  CHE L   1       4.407   4.269  -1.407  1.00  0.00    +0.0344  H
ATOM     56 H47  CHE L   1       5.011   3.365  -0.001  1.00  0.00    +0.0344  H
ENDBRANCH 40 52
ENDBRANCH 36 39
ENDBRANCH 34 36
ENDBRANCH 4 32
TORSDOF 7
