ROOT
ATOM      1 N12  EUB L   1      -1.887  -0.815  -0.245  1.00  0.00    -0.3262  N
ATOM      2 C13  EUB L   1      -1.942  -0.084   0.914  1.00  0.00    +0.3195  C
ATOM      3 O14  EUB L   1      -1.171  -0.292   1.848  1.00  0.00    -0.2473 OA
ATOM      4 N15  EUB L   1      -2.877   0.929   0.905  1.00  0.00    -0.3202  N
ATOM      5 C16  EUB L   1      -4.155   0.838   0.186  1.00  0.00    +0.0463  C
ATOM      6 C17  EUB L   1      -4.764   2.222  -0.061  1.00  0.00    +0.0654  C
ATOM      7 O18  EUB L   1      -4.855   2.978   1.152  1.00  0.00    -0.3763 OA
ATOM      8 C19  EUB L   1      -3.549   3.161   1.722  1.00  0.00    +0.0654  C
ATOM      9 C20  EUB L   1      -2.916   1.813   2.070  1.00  0.00    +0.0463  C
ATOM     10 H36  EUB L   1      -2.064  -0.245  -1.061  1.00  0.00    +0.1649 HD
ATOM     11 H37  EUB L   1      -4.046   0.301  -0.761  1.00  0.00    +0.0512  H
ATOM     12 H38  EUB L   1      -4.824   0.248   0.825  1.00  0.00    +0.0512  H
ATOM     13 H39  EUB L   1      -4.172   2.787  -0.790  1.00  0.00    +0.0577  H
ATOM     14 H40  EUB L   1      -5.774   2.116  -0.465  1.00  0.00    +0.0577  H
ATOM     15 H41  EUB L   1      -3.661   3.767   2.626  1.00  0.00    +0.0577  H
ATOM     16 H42  EUB L   1      -2.926   3.721   1.016  1.00  0.00    +0.0577  H
ATOM     17 H43  EUB L   1      -1.909   1.965   2.474  1.00  0.00    +0.0512  H
ATOM     18 H44  EUB L   1      -3.513   1.302   2.837  1.00  0.00    +0.0512  H
ENDROOT
BRANCH 1 19
ATOM     19 C11  EUB L   1      -0.842  -1.831  -0.430  1.00  0.00    +0.1144  C
ATOM     20 H35  EUB L   1      -0.679  -2.333   0.536  1.00  0.00    +0.0627  H
BRANCH 19 22
ATOM     21  N8  EUB L   1       1.122  -0.606   0.369  1.00  0.00    -0.3363  N
ATOM     22  C9  EUB L   1       0.453  -1.038  -0.764  1.00  0.00    +0.2451  C
ATOM     23 O10  EUB L   1       0.778  -0.723  -1.903  1.00  0.00    -0.2709 OA
ATOM     24 H34  EUB L   1       0.533  -0.629   1.208  1.00  0.00    +0.1639 HD
BRANCH 21 29
ATOM     25  C1  EUB L   1       5.870   2.385   1.036  1.00  0.00    -0.0128  C
ATOM     26  N2  EUB L   1       4.533   1.824   0.848  1.00  0.00    -0.3051 NA
ATOM     27  C3  EUB L   1       4.232   0.804   1.841  1.00  0.00    +0.0017  C
ATOM     28  C4  EUB L   1       2.734   0.502   1.814  1.00  0.00    -0.0035  C
ATOM     29  C5  EUB L   1       2.123   0.486   0.383  1.00  0.00    +0.1299  C
ATOM     30 C25  EUB L   1       3.244   0.280  -0.653  1.00  0.00    -0.0035  C
ATOM     31 C26  EUB L   1       4.365   1.318  -0.520  1.00  0.00    +0.0017  C
ATOM     32 H27  EUB L   1       5.954   2.860   2.023  1.00  0.00    +0.0391  H
ATOM     33 H28  EUB L   1       6.070   3.165   0.293  1.00  0.00    +0.0391  H
ATOM     34 H29  EUB L   1       6.652   1.620   0.957  1.00  0.00    +0.0391  H
ATOM     35 H30  EUB L   1       4.811  -0.112   1.655  1.00  0.00    +0.0427  H
ATOM     36 H31  EUB L   1       4.495   1.141   2.853  1.00  0.00    +0.0427  H
ATOM     37 H32  EUB L   1       2.600  -0.474   2.303  1.00  0.00    +0.0310  H
ATOM     38 H33  EUB L   1       2.201   1.226   2.447  1.00  0.00    +0.0310  H
ATOM     39 H54  EUB L   1       2.870   0.331  -1.681  1.00  0.00    +0.0310  H
ATOM     40 H55  EUB L   1       3.666  -0.727  -0.526  1.00  0.00    +0.0310  H
ATOM     41 H56  EUB L   1       4.149   2.173  -1.175  1.00  0.00    +0.0427  H
ATOM     42 H57  EUB L   1       5.289   0.858  -0.898  1.00  0.00    +0.0427  H
BRANCH 29 43
ATOM     43  C6  EUB L   1       1.423   1.782   0.122  1.00  0.00    +0.0907  C
ATOM     44  N7  EUB L   1       0.837   2.768  -0.071  1.00  0.00    -0.1941 NA
ENDBRANCH 29 43
ENDBRANCH 21 29
ENDBRANCH 19 22
BRANCH 19 45
ATOM     45 C21  EUB L   1      -1.252  -2.916  -1.472  1.00  0.00    -0.0086  C
ATOM     46 C22  EUB L   1      -0.082  -3.896  -1.701  1.00  0.00    -0.0577  C
ATOM     47 C23  EUB L   1      -1.697  -2.340  -2.832  1.00  0.00    -0.0577  C
ATOM     48 C24  EUB L   1      -2.436  -3.728  -0.895  1.00  0.00    -0.0577  C
ATOM     49 H45  EUB L   1       0.277  -4.308  -0.749  1.00  0.00    +0.0236  H
ATOM     50 H46  EUB L   1       0.765  -3.412  -2.197  1.00  0.00    +0.0236  H
ATOM     51 H47  EUB L   1      -0.385  -4.739  -2.333  1.00  0.00    +0.0236  H
ATOM     52 H48  EUB L   1      -0.904  -1.768  -3.318  1.00  0.00    +0.0236  H
ATOM     53 H49  EUB L   1      -2.573  -1.688  -2.731  1.00  0.00    +0.0236  H
ATOM     54 H50  EUB L   1      -1.974  -3.149  -3.520  1.00  0.00    +0.0236  H
ATOM     55 H51  EUB L   1      -3.320  -3.098  -0.745  1.00  0.00    +0.0236  H
ATOM     56 H52  EUB L   1      -2.176  -4.173   0.074  1.00  0.00    +0.0236  H
ATOM     57 H53  EUB L   1      -2.721  -4.546  -1.565  1.00  0.00    +0.0236  H
ENDBRANCH 19 45
ENDBRANCH 1 19
TORSDOF 5
