ROOT
ATOM      1  N7  670 L   1       0.455   0.319   0.608  1.00  0.00    -0.3379  N
ATOM      2  C8  670 L   1       0.046  -1.042   0.263  1.00  0.00    +0.0219  C
ATOM      3  C9  670 L   1      -1.400  -1.309   0.690  1.00  0.00    -0.0295  C
ATOM      4 C10  670 L   1      -2.425  -0.242   0.203  1.00  0.00    -0.0240  C
ATOM      5 C11  670 L   1      -3.779  -0.546   0.921  1.00  0.00    -0.0297  C
ATOM      6 C12  670 L   1      -5.050  -0.309   0.111  1.00  0.00    +0.0186  C
ATOM      7 N13  670 L   1      -5.146   1.032  -0.393  1.00  0.00    -0.3559  N
ATOM      8 C14  670 L   1      -4.404   1.591  -1.380  1.00  0.00    +0.2210  C
ATOM      9 O15  670 L   1      -4.657   2.744  -1.729  1.00  0.00    -0.2733 OA
ATOM     10 C16  670 L   1      -3.308   0.798  -2.064  1.00  0.00    +0.0266  C
ATOM     11 C17  670 L   1      -2.591  -0.344  -1.336  1.00  0.00    -0.0387  C
ATOM     12 C18  670 L   1      -1.866   1.128   0.664  1.00  0.00    -0.0295  C
ATOM     13 C19  670 L   1      -0.442   1.393   0.175  1.00  0.00    +0.0219  C
ATOM     14 H29  670 L   1       0.670  -1.784   0.776  1.00  0.00    +0.0489  H
ATOM     15 H30  670 L   1       0.173  -1.209  -0.813  1.00  0.00    +0.0489  H
ATOM     16 H31  670 L   1      -1.425  -1.349   1.788  1.00  0.00    +0.0288  H
ATOM     17 H32  670 L   1      -1.696  -2.305   0.337  1.00  0.00    +0.0288  H
ATOM     18 H33  670 L   1      -3.804  -1.601   1.228  1.00  0.00    +0.0288  H
ATOM     19 H34  670 L   1      -3.839   0.030   1.854  1.00  0.00    +0.0288  H
ATOM     20 H35  670 L   1      -5.130  -1.007  -0.729  1.00  0.00    +0.0486  H
ATOM     21 H36  670 L   1      -5.925  -0.476   0.749  1.00  0.00    +0.0486  H
ATOM     22 H37  670 L   1      -5.855   1.651  -0.016  1.00  0.00    +0.1623 HD
ATOM     23 H38  670 L   1      -2.543   1.536  -2.342  1.00  0.00    +0.0361  H
ATOM     24 H39  670 L   1      -3.722   0.416  -3.005  1.00  0.00    +0.0361  H
ATOM     25 H40  670 L   1      -3.096  -1.289  -1.576  1.00  0.00    +0.0275  H
ATOM     26 H41  670 L   1      -1.612  -0.444  -1.819  1.00  0.00    +0.0275  H
ATOM     27 H42  670 L   1      -2.509   1.956   0.352  1.00  0.00    +0.0288  H
ATOM     28 H43  670 L   1      -1.856   1.159   1.763  1.00  0.00    +0.0288  H
ATOM     29 H44  670 L   1      -0.131   2.359   0.592  1.00  0.00    +0.0489  H
ATOM     30 H45  670 L   1      -0.415   1.488  -0.917  1.00  0.00    +0.0489  H
ENDROOT
BRANCH 1 33
ATOM     31  C4  670 L   1       3.846   0.178   0.705  1.00  0.00    +0.2288  A
ATOM     32  N5  670 L   1       2.691  -0.442   0.683  1.00  0.00    -0.1763 NA
ATOM     33  C6  670 L   1       1.790   0.594   0.630  1.00  0.00    +0.2663  A
ATOM     34 N20  670 L   1       2.369   1.805   0.612  1.00  0.00    -0.0375 NA
ATOM     35 O21  670 L   1       3.731   1.532   0.662  1.00  0.00    -0.3362 OA
BRANCH 31 36
ATOM     36  C3  670 L   1       5.216  -0.379   0.762  1.00  0.00    +0.0263  C
ATOM     37 H27  670 L   1       5.864   0.294   1.337  1.00  0.00    +0.0360  H
ATOM     38 H28  670 L   1       5.192  -1.334   1.301  1.00  0.00    +0.0360  H
BRANCH 36 40
ATOM     39  C1  670 L   1       7.192  -1.166  -0.587  1.00  0.00    -0.0648  C
ATOM     40  C2  670 L   1       5.787  -0.587  -0.639  1.00  0.00    -0.0474  C
ATOM     41 H22  670 L   1       7.197  -2.138  -0.083  1.00  0.00    +0.0230  H
ATOM     42 H23  670 L   1       7.873  -0.497  -0.052  1.00  0.00    +0.0230  H
ATOM     43 H24  670 L   1       7.581  -1.307  -1.600  1.00  0.00    +0.0230  H
ATOM     44 H25  670 L   1       5.811   0.366  -1.182  1.00  0.00    +0.0267  H
ATOM     45 H26  670 L   1       5.140  -1.262  -1.213  1.00  0.00    +0.0267  H
ENDBRANCH 36 40
ENDBRANCH 31 36
ENDBRANCH 1 33
TORSDOF 3
