ROOT
ATOM      1  C8  187 L   1       0.587  -1.011  -0.696  1.00  0.00    +0.2257  C
ATOM      2  O9  187 L   1       0.876  -1.702  -1.674  1.00  0.00    -0.2730 OA
ATOM      3 N10  187 L   1      -0.666  -1.082  -0.090  1.00  0.00    -0.3349  N
ATOM      4 C11  187 L   1      -1.113  -0.196   0.988  1.00  0.00    +0.0469  C
ATOM      5 C12  187 L   1      -2.406   0.477   0.603  1.00  0.00    -0.0221  A
ATOM      6 C13  187 L   1      -2.646   1.830   0.851  1.00  0.00    -0.0213  A
ATOM      7 C14  187 L   1      -3.870   2.384   0.491  1.00  0.00    +0.1237  A
ATOM      8 F15  187 L   1      -4.098   3.683   0.726  1.00  0.00    -0.2055  F
ATOM      9 C16  187 L   1      -4.865   1.612  -0.102  1.00  0.00    -0.0262  A
ATOM     10 C17  187 L   1      -4.637   0.257  -0.343  1.00  0.00    -0.0555  A
ATOM     11 C18  187 L   1      -3.405  -0.310   0.001  1.00  0.00    -0.0404  A
ATOM     12 C19  187 L   1      -3.115  -1.776  -0.188  1.00  0.00    -0.0070  C
ATOM     13 C20  187 L   1      -1.656  -2.038  -0.638  1.00  0.00    +0.0340  C
ATOM     14 C21  187 L   1      -1.278  -3.482  -0.290  1.00  0.00    -0.0442  C
ATOM     15 H30  187 L   1      -1.270  -0.811   1.882  1.00  0.00    +0.0538  H
ATOM     16 H31  187 L   1      -0.363   0.558   1.236  1.00  0.00    +0.0538  H
ATOM     17 H32  187 L   1      -1.897   2.463   1.319  1.00  0.00    +0.0649  H
ATOM     18 H33  187 L   1      -5.812   2.070  -0.366  1.00  0.00    +0.0646  H
ATOM     19 H34  187 L   1      -5.419  -0.347  -0.795  1.00  0.00    +0.0621  H
ATOM     20 H35  187 L   1      -3.801  -2.218  -0.921  1.00  0.00    +0.0333  H
ATOM     21 H36  187 L   1      -3.315  -2.270   0.773  1.00  0.00    +0.0333  H
ATOM     22 H37  187 L   1      -1.620  -1.928  -1.730  1.00  0.00    +0.0525  H
ATOM     23 H38  187 L   1      -0.295  -3.753  -0.687  1.00  0.00    +0.0250  H
ATOM     24 H39  187 L   1      -2.008  -4.186  -0.705  1.00  0.00    +0.0250  H
ATOM     25 H40  187 L   1      -1.242  -3.627   0.796  1.00  0.00    +0.0250  H
ENDROOT
BRANCH 1 26
ATOM     26  C7  187 L   1       1.589  -0.032  -0.114  1.00  0.00    +0.0437  C
ATOM     27 H28  187 L   1       1.675  -0.210   0.962  1.00  0.00    +0.0378  H
ATOM     28 H29  187 L   1       1.219   0.987  -0.278  1.00  0.00    +0.0378  H
BRANCH 26 29
ATOM     29  C6  187 L   1       2.957  -0.183  -0.771  1.00  0.00    +0.0268  C
ATOM     30 H26  187 L   1       3.376  -1.176  -0.567  1.00  0.00    +0.0491  H
ATOM     31 H27  187 L   1       2.881  -0.070  -1.859  1.00  0.00    +0.0491  H
BRANCH 29 34
ATOM     32  C3  187 L   1       4.442   0.782   0.947  1.00  0.00    +0.2443  C
ATOM     33  O4  187 L   1       4.117  -0.018   1.816  1.00  0.00    -0.2683 OA
ATOM     34  N5  187 L   1       3.909   0.816  -0.316  1.00  0.00    -0.3520  N
ATOM     35 H25  187 L   1       4.373   1.373  -1.020  1.00  0.00    +0.1626 HD
BRANCH 32 37
ATOM     36  C1  187 L   1       5.653   2.955   0.608  1.00  0.00    -0.0936  C
ATOM     37  C2  187 L   1       5.521   1.767   1.212  1.00  0.00    -0.0047  C
ATOM     38 H22  187 L   1       6.459   3.624   0.895  1.00  0.00    +0.0536  H
ATOM     39 H23  187 L   1       4.964   3.311  -0.149  1.00  0.00    +0.0536  H
ATOM     40 H24  187 L   1       6.197   1.477   2.012  1.00  0.00    +0.0666  H
ENDBRANCH 32 37
ENDBRANCH 29 34
ENDBRANCH 26 29
ENDBRANCH 1 26
TORSDOF 4
