ROOT
ATOM      1  C9  CHE L   1      -0.019   1.377  -0.573  1.00  0.00    +0.1386  A
ATOM      2 N10  CHE L   1      -0.216   0.103  -0.206  1.00  0.00    -0.2146 NA
ATOM      3 C11  CHE L   1      -1.476  -0.312  -0.003  1.00  0.00    +0.1350  A
ATOM      4 N18  CHE L   1      -2.563   0.460  -0.150  1.00  0.00    -0.2316 NA
ATOM      5 C19  CHE L   1      -2.370   1.732  -0.503  1.00  0.00    +0.0779  A
ATOM      6 C20  CHE L   1      -3.482   2.555  -0.645  1.00  0.00    -0.0174  A
ATOM      7 C21  CHE L   1      -3.359   3.903  -0.995  1.00  0.00    +0.0621  A
ATOM      8 C26  CHE L   1      -2.093   4.436  -1.203  1.00  0.00    +0.1395  A
ATOM      9 F27  CHE L   1      -1.936   5.728  -1.527  1.00  0.00    -0.2042  F
ATOM     10 C28  CHE L   1      -0.966   3.636  -1.073  1.00  0.00    -0.0126  A
ATOM     11 C29  CHE L   1      -1.094   2.269  -0.729  1.00  0.00    +0.0452  A
ATOM     12 H56  CHE L   1      -4.469   2.130  -0.474  1.00  0.00    +0.0652  H
ATOM     13 H61  CHE L   1       0.011   4.087  -1.225  1.00  0.00    +0.0654  H
ENDROOT
BRANCH 1 14
ATOM     14  N8  CHE L   1       1.291   1.836  -0.794  1.00  0.00    -0.3663  N
ATOM     15 H44  CHE L   1       1.346   2.229  -1.730  1.00  0.00    +0.1613 HD
BRANCH 14 19
ATOM     16  N4  CHE L   1       4.049  -1.270   0.198  1.00  0.00    -0.2998 NA
ATOM     17  C5  CHE L   1       2.873  -1.534  -0.632  1.00  0.00    +0.0010  C
ATOM     18  C6  CHE L   1       2.509  -0.276  -1.420  1.00  0.00    -0.0198  C
ATOM     19  C7  CHE L   1       2.448   0.964  -0.520  1.00  0.00    +0.0308  C
ATOM     20 C30  CHE L   1       2.599   0.647   0.968  1.00  0.00    -0.0198  C
ATOM     21 C31  CHE L   1       3.818  -0.246   1.223  1.00  0.00    +0.0010  C
ATOM     22 H39  CHE L   1       3.081  -2.332  -1.354  1.00  0.00    +0.0427  H
ATOM     23 H40  CHE L   1       2.023  -1.865  -0.025  1.00  0.00    +0.0427  H
ATOM     24 H41  CHE L   1       1.578  -0.449  -1.971  1.00  0.00    +0.0297  H
ATOM     25 H42  CHE L   1       3.271  -0.106  -2.193  1.00  0.00    +0.0297  H
ATOM     26 H43  CHE L   1       3.323   1.575  -0.784  1.00  0.00    +0.0523  H
ATOM     27 H62  CHE L   1       2.695   1.575   1.545  1.00  0.00    +0.0297  H
ATOM     28 H63  CHE L   1       1.712   0.140   1.360  1.00  0.00    +0.0297  H
ATOM     29 H64  CHE L   1       4.710   0.389   1.271  1.00  0.00    +0.0427  H
ATOM     30 H65  CHE L   1       3.691  -0.683   2.220  1.00  0.00    +0.0427  H
BRANCH 16 32
ATOM     31  C1  CHE L   1       3.875  -3.397   1.561  1.00  0.00    -0.0497  C
ATOM     32  C2  CHE L   1       4.730  -2.490   0.665  1.00  0.00    +0.0048  C
ATOM     33  C3  CHE L   1       6.062  -2.167   1.354  1.00  0.00    -0.0497  C
ATOM     34 H32  CHE L   1       3.573  -2.900   2.488  1.00  0.00    +0.0245  H
ATOM     35 H33  CHE L   1       4.438  -4.297   1.837  1.00  0.00    +0.0245  H
ATOM     36 H34  CHE L   1       2.971  -3.734   1.044  1.00  0.00    +0.0245  H
ATOM     37 H35  CHE L   1       4.993  -3.074  -0.228  1.00  0.00    +0.0457  H
ATOM     38 H36  CHE L   1       6.684  -1.523   0.723  1.00  0.00    +0.0245  H
ATOM     39 H37  CHE L   1       6.628  -3.087   1.540  1.00  0.00    +0.0245  H
ATOM     40 H38  CHE L   1       5.919  -1.667   2.318  1.00  0.00    +0.0245  H
ENDBRANCH 16 32
ENDBRANCH 14 19
ENDBRANCH 1 14
BRANCH 3 41
ATOM     41 C12  CHE L   1      -1.695  -1.754   0.396  1.00  0.00    +0.0190  C
ATOM     42 C13  CHE L   1      -1.001  -2.086   1.731  1.00  0.00    -0.0433  C
ATOM     43 C14  CHE L   1      -0.674  -3.572   1.897  1.00  0.00    -0.0524  C
ATOM     44 C15  CHE L   1      -1.635  -4.459   1.119  1.00  0.00    -0.0530  C
ATOM     45 C16  CHE L   1      -1.586  -4.169  -0.382  1.00  0.00    -0.0524  C
ATOM     46 C17  CHE L   1      -1.257  -2.712  -0.718  1.00  0.00    -0.0433  C
ATOM     47 H45  CHE L   1      -2.775  -1.895   0.542  1.00  0.00    +0.0379  H
ATOM     48 H46  CHE L   1      -0.070  -1.520   1.859  1.00  0.00    +0.0272  H
ATOM     49 H47  CHE L   1      -1.655  -1.762   2.551  1.00  0.00    +0.0272  H
ATOM     50 H48  CHE L   1      -0.691  -3.835   2.961  1.00  0.00    +0.0265  H
ATOM     51 H49  CHE L   1       0.349  -3.759   1.547  1.00  0.00    +0.0265  H
ATOM     52 H50  CHE L   1      -2.655  -4.296   1.488  1.00  0.00    +0.0265  H
ATOM     53 H51  CHE L   1      -1.405  -5.516   1.297  1.00  0.00    +0.0265  H
ATOM     54 H52  CHE L   1      -2.552  -4.443  -0.824  1.00  0.00    +0.0265  H
ATOM     55 H53  CHE L   1      -0.839  -4.816  -0.859  1.00  0.00    +0.0265  H
ATOM     56 H54  CHE L   1      -1.730  -2.444  -1.670  1.00  0.00    +0.0272  H
ATOM     57 H55  CHE L   1      -0.176  -2.622  -0.883  1.00  0.00    +0.0272  H
ENDBRANCH 3 41
BRANCH 7 58
ATOM     58 C22  CHE L   1      -4.528   4.716  -1.128  1.00  0.00    -0.0621  C
ATOM     59 C23  CHE L   1      -5.509   5.401  -1.244  1.00  0.00    -0.0818  C
BRANCH 59 60
ATOM     60 C24  CHE L   1      -6.696   6.245  -1.383  1.00  0.00    +0.0563  C
ATOM     61 N25  CHE L   1      -6.582   7.068  -2.577  1.00  0.00    -0.3199 NA
ATOM     62 H57  CHE L   1      -7.596   5.626  -1.455  1.00  0.00    +0.0559  H
ATOM     63 H58  CHE L   1      -6.805   6.888  -0.503  1.00  0.00    +0.0559  H
ATOM     64 H59  CHE L   1      -5.735   7.631  -2.509  1.00  0.00    +0.1191 HD
ATOM     65 H60  CHE L   1      -7.360   7.721  -2.607  1.00  0.00    +0.1191 HD
ENDBRANCH 59 60
ENDBRANCH 7 58
TORSDOF 6
