ROOT
ATOM      1  C5  EUB L   1       0.026   1.811  -0.566  1.00  0.00    +0.1040  A
ATOM      2  C6  EUB L   1       1.134   1.051  -0.481  1.00  0.00    -0.0305  A
ATOM      3  C7  EUB L   1       1.077  -0.389  -0.592  1.00  0.00    +0.0560  A
ATOM      4 C14  EUB L   1      -0.101  -0.981  -0.839  1.00  0.00    +0.0206  A
ATOM      5 N15  EUB L   1      -1.273  -0.246  -0.944  1.00  0.00    -0.3095  N
ATOM      6 C23  EUB L   1      -1.297   1.143  -0.797  1.00  0.00    +0.2640  A
ATOM      7 O24  EUB L   1      -2.329   1.814  -0.857  1.00  0.00    -0.2669 OA
ATOM      8 H29  EUB L   1       2.110   1.513  -0.353  1.00  0.00    +0.0635  H
ATOM      9 H36  EUB L   1      -0.183  -2.060  -0.952  1.00  0.00    +0.0818  H
ENDROOT
BRANCH 1 12
ATOM     10  C1  EUB L   1      -0.931   5.473  -0.432  1.00  0.00    +0.0069  C
ATOM     11  N2  EUB L   1      -0.924   4.047  -0.627  1.00  0.00    -0.3549  N
ATOM     12  C3  EUB L   1       0.201   3.290  -0.428  1.00  0.00    +0.2571  C
ATOM     13  O4  EUB L   1       1.292   3.780  -0.144  1.00  0.00    -0.2674 OA
ATOM     14 H25  EUB L   1       0.000   5.914  -0.796  1.00  0.00    +0.0450  H
ATOM     15 H26  EUB L   1      -1.038   5.677   0.637  1.00  0.00    +0.0450  H
ATOM     16 H27  EUB L   1      -1.781   5.894  -0.974  1.00  0.00    +0.0450  H
ATOM     17 H28  EUB L   1      -1.815   3.567  -0.755  1.00  0.00    +0.1623 HD
ENDBRANCH 1 12
BRANCH 3 18
ATOM     18  C8  EUB L   1       2.281  -1.272  -0.497  1.00  0.00    +0.2537  C
ATOM     19  O9  EUB L   1       2.366  -2.308  -1.149  1.00  0.00    -0.2676 OA
ATOM     20 N10  EUB L   1       3.233  -0.842   0.402  1.00  0.00    -0.3492  N
ATOM     21 H30  EUB L   1       3.039  -0.042   0.992  1.00  0.00    +0.1629 HD
BRANCH 20 22
ATOM     22 C11  EUB L   1       4.437  -1.572   0.640  1.00  0.00    +0.0301  C
ATOM     23 C12  EUB L   1       5.562  -0.958   1.429  1.00  0.00    -0.0307  C
ATOM     24 C13  EUB L   1       5.714  -1.177  -0.048  1.00  0.00    -0.0307  C
ATOM     25 H31  EUB L   1       4.269  -2.638   0.782  1.00  0.00    +0.0522  H
ATOM     26 H32  EUB L   1       5.464   0.062   1.779  1.00  0.00    +0.0286  H
ATOM     27 H33  EUB L   1       6.121  -1.604   2.096  1.00  0.00    +0.0286  H
ATOM     28 H34  EUB L   1       6.368  -1.973  -0.385  1.00  0.00    +0.0286  H
ATOM     29 H35  EUB L   1       5.701  -0.310  -0.698  1.00  0.00    +0.0286  H
ENDBRANCH 20 22
ENDBRANCH 3 18
BRANCH 5 30
ATOM     30 C16  EUB L   1      -2.535  -0.956  -1.162  1.00  0.00    +0.0512  C
ATOM     31 H37  EUB L   1      -3.278  -0.282  -1.606  1.00  0.00    +0.0542  H
ATOM     32 H38  EUB L   1      -2.370  -1.748  -1.904  1.00  0.00    +0.0542  H
BRANCH 30 33
ATOM     33 C17  EUB L   1      -3.096  -1.535   0.118  1.00  0.00    -0.0277  A
ATOM     34 C18  EUB L   1      -3.783  -0.716   1.026  1.00  0.00    -0.0569  A
ATOM     35 C19  EUB L   1      -4.288  -1.244   2.215  1.00  0.00    -0.0614  A
ATOM     36 C20  EUB L   1      -4.108  -2.594   2.511  1.00  0.00    -0.0617  A
ATOM     37 C21  EUB L   1      -3.424  -3.417   1.619  1.00  0.00    -0.0614  A
ATOM     38 C22  EUB L   1      -2.919  -2.892   0.428  1.00  0.00    -0.0569  A
ATOM     39 H39  EUB L   1      -3.930   0.340   0.809  1.00  0.00    +0.0621  H
ATOM     40 H40  EUB L   1      -4.820  -0.601   2.911  1.00  0.00    +0.0618  H
ATOM     41 H41  EUB L   1      -4.501  -3.004   3.438  1.00  0.00    +0.0618  H
ATOM     42 H42  EUB L   1      -3.283  -4.470   1.851  1.00  0.00    +0.0618  H
ATOM     43 H43  EUB L   1      -2.386  -3.550  -0.254  1.00  0.00    +0.0621  H
ENDBRANCH 30 33
ENDBRANCH 5 30
TORSDOF 5
