ROOT
ATOM      1 C19  WH0 L   1      -4.035  -1.596  -0.155  1.00  0.00    -0.0133  A
ATOM      2 C20  WH0 L   1      -4.929  -1.161  -1.163  1.00  0.00    -0.0519  A
ATOM      3 C21  WH0 L   1      -6.228  -1.688  -1.241  1.00  0.00    -0.0374  A
ATOM      4 C22  WH0 L   1      -6.608  -2.650  -0.308  1.00  0.00    +0.0454  A
ATOM      5 C23  WH0 L   1      -5.746  -3.079   0.679  1.00  0.00    -0.0145  A
ATOM      6 C24  WH0 L   1      -4.453  -2.567   0.779  1.00  0.00    -0.0483  A
ATOM      7 C25  WH0 L   1      -6.392  -4.125   1.527  1.00  0.00    +0.0535  C
ATOM      8 C26  WH0 L   1      -7.728  -4.211   0.851  1.00  0.00    +0.2296  C
ATOM      9 O27  WH0 L   1      -8.647  -4.996   1.200  1.00  0.00    -0.2725 OA
ATOM     10 N28  WH0 L   1      -7.856  -3.314  -0.247  1.00  0.00    -0.3256  N
ATOM     11 H58  WH0 L   1      -4.614  -0.428  -1.894  1.00  0.00    +0.0624  H
ATOM     12 H59  WH0 L   1      -6.913  -1.363  -2.015  1.00  0.00    +0.0638  H
ATOM     13 H60  WH0 L   1      -3.792  -2.912   1.564  1.00  0.00    +0.0627  H
ATOM     14 H61  WH0 L   1      -6.498  -3.779   2.577  1.00  0.00    +0.0410  H
ATOM     15 H62  WH0 L   1      -5.846  -5.090   1.456  1.00  0.00    +0.0410  H
ATOM     16 H63  WH0 L   1      -8.676  -3.196  -0.882  1.00  0.00    +0.1686 HD
ENDROOT
BRANCH 1 22
ATOM     17 C13  WH0 L   1       0.842  -1.396  -0.236  1.00  0.00    +0.2282  A
ATOM     18 N14  WH0 L   1       1.068  -2.742  -0.213  1.00  0.00    -0.2207 NA
ATOM     19 C15  WH0 L   1       0.036  -3.633  -0.124  1.00  0.00    +0.0334  A
ATOM     20 C16  WH0 L   1      -1.288  -3.179  -0.060  1.00  0.00    -0.0173  A
ATOM     21 C17  WH0 L   1      -1.484  -1.798  -0.077  1.00  0.00    +0.0803  A
ATOM     22 C18  WH0 L   1      -2.657  -1.065  -0.102  1.00  0.00    +0.0353  A
ATOM     23 C29  WH0 L   1      -2.218   0.261  -0.235  1.00  0.00    +0.1015  A
ATOM     24 N40  WH0 L   1      -0.865   0.291  -0.284  1.00  0.00    -0.1627 NA
ATOM     25 N41  WH0 L   1      -0.444  -0.957  -0.175  1.00  0.00    -0.1987  N
ATOM     26 H56  WH0 L   1       0.243  -4.694  -0.118  1.00  0.00    +0.0831  H
ATOM     27 H57  WH0 L   1      -2.113  -3.878  -0.021  1.00  0.00    +0.0654  H
BRANCH 17 31
ATOM     28  C9  WH0 L   1       4.576  -0.049   0.731  1.00  0.00    +0.0620  C
ATOM     29 C10  WH0 L   1       3.299   0.272   1.544  1.00  0.00    -0.0088  C
ATOM     30 C11  WH0 L   1       2.115   0.602   0.627  1.00  0.00    +0.0237  C
ATOM     31 N12  WH0 L   1       1.943  -0.478  -0.351  1.00  0.00    -0.3401  N
ATOM     32 C42  WH0 L   1       3.100  -0.816  -1.184  1.00  0.00    +0.0237  C
ATOM     33 C43  WH0 L   1       4.292  -1.170  -0.287  1.00  0.00    -0.0088  C
ATOM     34 H51  WH0 L   1       5.360  -0.447   1.417  1.00  0.00    +0.0597  H
ATOM     35 H52  WH0 L   1       3.480   1.122   2.236  1.00  0.00    +0.0307  H
ATOM     36 H53  WH0 L   1       3.035  -0.611   2.166  1.00  0.00    +0.0307  H
ATOM     37 H54  WH0 L   1       2.307   1.558   0.092  1.00  0.00    +0.0489  H
ATOM     38 H55  WH0 L   1       1.203   0.736   1.249  1.00  0.00    +0.0489  H
ATOM     39 H68  WH0 L   1       3.359   0.057  -1.823  1.00  0.00    +0.0489  H
ATOM     40 H69  WH0 L   1       2.872  -1.667  -1.863  1.00  0.00    +0.0489  H
ATOM     41 H70  WH0 L   1       5.191  -1.340  -0.919  1.00  0.00    +0.0307  H
ATOM     42 H71  WH0 L   1       4.073  -2.116   0.254  1.00  0.00    +0.0307  H
BRANCH 28 43
ATOM     43  O8  WH0 L   1       5.041   1.092   0.029  1.00  0.00    -0.3747 OA
BRANCH 43 44
ATOM     44  C7  WH0 L   1       5.696   2.013   0.882  1.00  0.00    +0.0654  C
ATOM     45 H49  WH0 L   1       5.002   2.854   1.094  1.00  0.00    +0.0577  H
ATOM     46 H50  WH0 L   1       6.020   1.591   1.862  1.00  0.00    +0.0577  H
BRANCH 44 47
ATOM     47  C6  WH0 L   1       6.927   2.570   0.168  1.00  0.00    +0.0415  C
ATOM     48 H47  WH0 L   1       6.614   3.024  -0.797  1.00  0.00    +0.0509  H
ATOM     49 H48  WH0 L   1       7.389   3.360   0.798  1.00  0.00    +0.0509  H
BRANCH 47 52
ATOM     50  O1  WH0 L   1       9.343   2.923  -1.274  1.00  0.00    -0.2720 OA
ATOM     51  C2  WH0 L   1       9.109   1.768  -0.824  1.00  0.00    +0.2357  C
ATOM     52  N5  WH0 L   1       7.909   1.515  -0.082  1.00  0.00    -0.3528  N
ATOM     53 H46  WH0 L   1       7.730   0.545   0.267  1.00  0.00    +0.1624 HD
BRANCH 51 54
ATOM     54  C3  WH0 L   1      10.063   0.652  -1.123  1.00  0.00    +0.1010  C
ATOM     55 CL4  WH0 L   1      11.739   1.142  -0.766  1.00  0.00    -0.1154 Cl
ATOM     56 H44  WH0 L   1       9.823  -0.245  -0.513  1.00  0.00    +0.0527  H
ATOM     57 H45  WH0 L   1       9.985   0.381  -2.196  1.00  0.00    +0.0527  H
ENDBRANCH 51 54
ENDBRANCH 47 52
ENDBRANCH 44 47
ENDBRANCH 43 44
ENDBRANCH 28 43
ENDBRANCH 17 31
BRANCH 23 58
ATOM     58 C30  WH0 L   1      -3.046   1.484  -0.317  1.00  0.00    +0.0028  A
ATOM     59 C31  WH0 L   1      -4.252   1.599   0.394  1.00  0.00    -0.0520  A
ATOM     60 C32  WH0 L   1      -5.021   2.762   0.301  1.00  0.00    -0.0495  A
ATOM     61 C33  WH0 L   1      -4.583   3.846  -0.477  1.00  0.00    +0.0548  A
ATOM     62 C38  WH0 L   1      -3.377   3.730  -1.189  1.00  0.00    -0.0495  A
ATOM     63 C39  WH0 L   1      -2.609   2.566  -1.097  1.00  0.00    -0.0520  A
ATOM     64 H64  WH0 L   1      -4.599   0.795   1.029  1.00  0.00    +0.0624  H
ATOM     65 H65  WH0 L   1      -5.959   2.816   0.839  1.00  0.00    +0.0623  H
ATOM     66 H66  WH0 L   1      -3.030   4.538  -1.821  1.00  0.00    +0.0623  H
ATOM     67 H67  WH0 L   1      -1.681   2.502  -1.652  1.00  0.00    +0.0624  H
BRANCH 61 68
ATOM     68 C34  WH0 L   1      -5.443   5.076  -0.619  1.00  0.00    +0.4174  C
ATOM     69 F35  WH0 L   1      -6.132   5.325   0.556  1.00  0.00    -0.1659  F
ATOM     70 F36  WH0 L   1      -6.351   4.880  -1.642  1.00  0.00    -0.1659  F
ATOM     71 F37  WH0 L   1      -4.669   6.188  -0.910  1.00  0.00    -0.1659  F
ENDBRANCH 61 68
ENDBRANCH 23 58
ENDBRANCH 1 22
TORSDOF 9
