ROOT
ATOM      1  N8  WH0 L   1       0.674  -0.596  -1.305  1.00  0.00    -0.3473  N
ATOM      2  C9  WH0 L   1       0.418  -1.800  -0.527  1.00  0.00    +0.1339  A
ATOM      3 C10  WH0 L   1       1.354  -2.871  -0.462  1.00  0.00    -0.0012  A
ATOM      4 C11  WH0 L   1       1.094  -3.962   0.383  1.00  0.00    +0.0349  A
ATOM      5 N12  WH0 L   1      -0.068  -3.966   1.075  1.00  0.00    -0.2209  N
ATOM      6 N13  WH0 L   1      -0.493  -4.880   1.932  1.00  0.00    -0.1726 NA
ATOM      7 C14  WH0 L   1      -1.712  -4.470   2.366  1.00  0.00    +0.0643  A
ATOM      8 C15  WH0 L   1      -2.055  -3.272   1.744  1.00  0.00    +0.1027  A
ATOM      9 C16  WH0 L   1      -0.972  -2.994   0.951  1.00  0.00    +0.1700  A
ATOM     10 N17  WH0 L   1      -0.748  -1.903   0.182  1.00  0.00    -0.2102 NA
ATOM     11 C18  WH0 L   1      -3.315  -2.528   1.822  1.00  0.00    +0.2573  C
ATOM     12 O19  WH0 L   1      -3.968  -2.501   2.900  1.00  0.00    -0.2674 OA
ATOM     13 N20  WH0 L   1      -3.811  -1.863   0.654  1.00  0.00    -0.3483  N
ATOM     14 C21  WH0 L   1      -4.695  -0.705   0.711  1.00  0.00    +0.0551  C
ATOM     15 C22  WH0 L   1      -3.898   0.564   1.048  1.00  0.00    +0.1146  C
ATOM     16 C23  WH0 L   1      -4.768   1.800   0.777  1.00  0.00    -0.0261  C
ATOM     17 O24  WH0 L   1      -2.708   0.598   0.249  1.00  0.00    -0.4870 OA
ATOM     18 C25  WH0 L   1      -1.611   1.464   0.422  1.00  0.00    +0.1263  A
ATOM     19 C26  WH0 L   1      -1.554   2.377   1.496  1.00  0.00    -0.0169  A
ATOM     20 C27  WH0 L   1      -0.508   3.293   1.597  1.00  0.00    -0.0230  A
ATOM     21 C28  WH0 L   1       0.495   3.316   0.632  1.00  0.00    +0.1240  A
ATOM     22 F29  WH0 L   1       1.502   4.220   0.723  1.00  0.00    -0.2055  F
ATOM     23 C30  WH0 L   1       0.480   2.392  -0.412  1.00  0.00    -0.0178  A
ATOM     24 C31  WH0 L   1      -0.542   1.425  -0.511  1.00  0.00    +0.0190  A
ATOM     25 C32  WH0 L   1      -0.460   0.332  -1.574  1.00  0.00    +0.0573  C
ATOM     26 C33  WH0 L   1      -0.447   0.907  -3.002  1.00  0.00    -0.0402  C
ATOM     27 H42  WH0 L   1       2.271  -2.870  -1.032  1.00  0.00    +0.0669  H
ATOM     28 H43  WH0 L   1       1.801  -4.776   0.477  1.00  0.00    +0.0832  H
ATOM     29 H44  WH0 L   1      -2.326  -5.027   3.062  1.00  0.00    +0.0856  H
ATOM     30 H45  WH0 L   1      -3.457  -2.160  -0.284  1.00  0.00    +0.1628 HD
ATOM     31 H46  WH0 L   1      -5.182  -0.588  -0.283  1.00  0.00    +0.0522  H
ATOM     32 H47  WH0 L   1      -5.499  -0.871   1.461  1.00  0.00    +0.0522  H
ATOM     33 H48  WH0 L   1      -3.627   0.521   2.125  1.00  0.00    +0.0748  H
ATOM     34 H49  WH0 L   1      -5.713   1.737   1.358  1.00  0.00    +0.0266  H
ATOM     35 H50  WH0 L   1      -4.249   2.733   1.072  1.00  0.00    +0.0266  H
ATOM     36 H51  WH0 L   1      -5.013   1.869  -0.305  1.00  0.00    +0.0266  H
ATOM     37 H52  WH0 L   1      -2.314   2.392   2.264  1.00  0.00    +0.0655  H
ATOM     38 H53  WH0 L   1      -0.483   3.995   2.420  1.00  0.00    +0.0647  H
ATOM     39 H54  WH0 L   1       1.285   2.426  -1.131  1.00  0.00    +0.0651  H
ATOM     40 H55  WH0 L   1      -1.399  -0.263  -1.560  1.00  0.00    +0.0573  H
ATOM     41 H56  WH0 L   1      -0.248   0.097  -3.735  1.00  0.00    +0.0253  H
ATOM     42 H57  WH0 L   1      -1.441   1.347  -3.234  1.00  0.00    +0.0253  H
ATOM     43 H58  WH0 L   1       0.305   1.710  -3.136  1.00  0.00    +0.0253  H
ENDROOT
BRANCH 1 44
ATOM     44  C7  WH0 L   1       2.055  -0.257  -1.716  1.00  0.00    +0.0380  C
ATOM     45 H40  WH0 L   1       2.073   0.650  -2.348  1.00  0.00    +0.0506  H
ATOM     46 H41  WH0 L   1       2.473  -1.066  -2.351  1.00  0.00    +0.0506  H
BRANCH 44 47
ATOM     47  C6  WH0 L   1       2.965  -0.007  -0.499  1.00  0.00    +0.0360  C
ATOM     48 H38  WH0 L   1       2.462   0.683   0.209  1.00  0.00    +0.0503  H
ATOM     49 H39  WH0 L   1       3.164  -0.955   0.040  1.00  0.00    +0.0503  H
BRANCH 47 52
ATOM     50  C3  WH0 L   1       5.214   0.994   0.063  1.00  0.00    +0.2444  C
ATOM     51  O4  WH0 L   1       5.053   0.685   1.275  1.00  0.00    -0.2683 OA
ATOM     52  N5  WH0 L   1       4.242   0.578  -0.910  1.00  0.00    -0.3508  N
ATOM     53 H37  WH0 L   1       4.457   0.667  -1.927  1.00  0.00    +0.1627 HD
BRANCH 50 55
ATOM     54  C1  WH0 L   1       6.560   2.401  -1.470  1.00  0.00    -0.0936  C
ATOM     55  C2  WH0 L   1       6.419   1.762  -0.309  1.00  0.00    -0.0047  C
ATOM     56 H34  WH0 L   1       5.784   2.411  -2.223  1.00  0.00    +0.0536  H
ATOM     57 H35  WH0 L   1       7.466   2.958  -1.667  1.00  0.00    +0.0536  H
ATOM     58 H36  WH0 L   1       7.216   1.844   0.420  1.00  0.00    +0.0666  H
ENDBRANCH 50 55
ENDBRANCH 47 52
ENDBRANCH 44 47
ENDBRANCH 1 44
TORSDOF 4
