ROOT
ATOM      1  C1  EUB L   1       6.941  -0.056   0.960  1.00  0.00    +0.0145  C
ATOM      2  C2  EUB L   1       6.300  -0.626  -0.279  1.00  0.00    +0.2204  C
ATOM      3  O3  EUB L   1       6.980  -1.237  -1.104  1.00  0.00    -0.2733 OA
ATOM      4  N4  EUB L   1       4.934  -0.427  -0.438  1.00  0.00    -0.3424  N
ATOM      5  C5  EUB L   1       4.282  -1.052  -1.586  1.00  0.00    +0.0217  C
ATOM      6  C6  EUB L   1       2.787  -1.242  -1.362  1.00  0.00    -0.0284  C
ATOM      7  C7  EUB L   1       2.095   0.109  -1.110  1.00  0.00    -0.0121  C
ATOM      8 C26  EUB L   1       2.961   1.065  -0.259  1.00  0.00    -0.0284  C
ATOM      9 C27  EUB L   1       4.102   0.361   0.471  1.00  0.00    +0.0217  C
ATOM     10 H28  EUB L   1       6.377  -0.339   1.853  1.00  0.00    +0.0325  H
ATOM     11 H29  EUB L   1       7.952  -0.462   1.062  1.00  0.00    +0.0325  H
ATOM     12 H30  EUB L   1       7.010   1.032   0.877  1.00  0.00    +0.0325  H
ATOM     13 H31  EUB L   1       4.751  -2.020  -1.793  1.00  0.00    +0.0489  H
ATOM     14 H32  EUB L   1       4.462  -0.407  -2.455  1.00  0.00    +0.0489  H
ATOM     15 H33  EUB L   1       2.338  -1.734  -2.233  1.00  0.00    +0.0288  H
ATOM     16 H34  EUB L   1       2.640  -1.922  -0.513  1.00  0.00    +0.0288  H
ATOM     17 H35  EUB L   1       2.010   0.607  -2.083  1.00  0.00    +0.0350  H
ATOM     18 H45  EUB L   1       3.410   1.804  -0.938  1.00  0.00    +0.0288  H
ATOM     19 H46  EUB L   1       2.357   1.643   0.451  1.00  0.00    +0.0288  H
ATOM     20 H47  EUB L   1       3.716  -0.326   1.231  1.00  0.00    +0.0489  H
ATOM     21 H48  EUB L   1       4.708   1.111   0.988  1.00  0.00    +0.0489  H
ENDROOT
BRANCH 7 22
ATOM     22  C8  EUB L   1       0.688  -0.101  -0.552  1.00  0.00    -0.0325  A
ATOM     23  C9  EUB L   1       0.531  -0.511   0.787  1.00  0.00    -0.0571  A
ATOM     24 C10  EUB L   1      -0.734  -0.723   1.339  1.00  0.00    -0.0491  A
ATOM     25 C11  EUB L   1      -1.878  -0.527   0.567  1.00  0.00    +0.0399  A
ATOM     26 C20  EUB L   1      -1.746  -0.149  -0.774  1.00  0.00    -0.0375  A
ATOM     27 C21  EUB L   1      -0.473   0.067  -1.350  1.00  0.00    +0.0590  A
ATOM     28 H36  EUB L   1       1.398  -0.684   1.422  1.00  0.00    +0.0621  H
ATOM     29 H37  EUB L   1      -0.823  -1.047   2.375  1.00  0.00    +0.0625  H
ATOM     30 H44  EUB L   1      -2.632  -0.056  -1.399  1.00  0.00    +0.0631  H
BRANCH 25 31
ATOM     31 C12  EUB L   1      -3.207  -0.768   1.198  1.00  0.00    +0.2585  C
ATOM     32 O13  EUB L   1      -3.291  -1.661   2.031  1.00  0.00    -0.2672 OA
ATOM     33 N14  EUB L   1      -4.219   0.081   0.767  1.00  0.00    -0.2931  N
ATOM     34 H38  EUB L   1      -3.966   0.841   0.159  1.00  0.00    +0.1718 HD
BRANCH 33 35
ATOM     35 C15  EUB L   1      -5.504   0.136   1.223  1.00  0.00    +0.1999  C
ATOM     36 N16  EUB L   1      -5.999  -0.649   2.131  1.00  0.00    -0.2502 NA
ATOM     37 C17  EUB L   1      -7.402  -0.189   2.298  1.00  0.00    +0.0607  C
ATOM     38 C18  EUB L   1      -7.681   0.753   1.125  1.00  0.00    +0.0378  C
ATOM     39 N19  EUB L   1      -6.338   1.073   0.681  1.00  0.00    -0.3540  N
ATOM     40 H39  EUB L   1      -7.494   0.334   3.256  1.00  0.00    +0.0527  H
ATOM     41 H40  EUB L   1      -8.090  -1.040   2.297  1.00  0.00    +0.0527  H
ATOM     42 H41  EUB L   1      -8.228   0.235   0.330  1.00  0.00    +0.0504  H
ATOM     43 H42  EUB L   1      -8.239   1.644   1.428  1.00  0.00    +0.0504  H
ATOM     44 H43  EUB L   1      -6.240   1.249  -0.310  1.00  0.00    +0.1625 HD
ENDBRANCH 33 35
ENDBRANCH 25 31
BRANCH 27 45
ATOM     45 C22  EUB L   1      -0.403   0.470  -2.810  1.00  0.00    +0.4177  C
ATOM     46 F23  EUB L   1      -1.623   0.499  -3.420  1.00  0.00    -0.1659  F
ATOM     47 F24  EUB L   1       0.362  -0.371  -3.558  1.00  0.00    -0.1659  F
ATOM     48 F25  EUB L   1       0.117   1.717  -2.981  1.00  0.00    -0.1659  F
ENDBRANCH 27 45
ENDBRANCH 7 22
TORSDOF 4
