ROOT
ATOM      1  C3  306 L   1      -1.728   0.535   1.254  1.00  0.00    +0.0953  C
ATOM      2  C4  306 L   1      -0.308  -0.014   1.016  1.00  0.00    +0.0498  C
ATOM      3  N5  306 L   1      -0.210  -1.139   0.079  1.00  0.00    -0.3303  N
ATOM      4  C6  306 L   1       0.964  -1.493  -0.576  1.00  0.00    +0.2507  C
ATOM      5  O7  306 L   1       1.148  -2.573  -1.131  1.00  0.00    -0.2677 OA
ATOM      6 C14  306 L   1      -1.290  -2.110   0.084  1.00  0.00    +0.0634  C
ATOM      7 C15  306 L   1      -2.417  -1.623  -0.758  1.00  0.00    +0.0586  A
ATOM      8 C16  306 L   1      -3.204  -2.321  -1.655  1.00  0.00    -0.0193  A
ATOM      9 C17  306 L   1      -4.125  -1.385  -2.145  1.00  0.00    +0.0497  A
ATOM     10 N18  306 L   1      -3.952  -0.179  -1.607  1.00  0.00    -0.1793 NA
ATOM     11 N19  306 L   1      -2.895  -0.336  -0.782  1.00  0.00    -0.2640  N
ATOM     12 C20  306 L   1      -2.404   0.838  -0.082  1.00  0.00    +0.0697  C
ATOM     13 H24  306 L   1      -2.309  -0.196   1.830  1.00  0.00    +0.0632  H
ATOM     14 H25  306 L   1       0.106  -0.359   1.973  1.00  0.00    +0.0515  H
ATOM     15 H26  306 L   1       0.342   0.809   0.706  1.00  0.00    +0.0515  H
ATOM     16 H36  306 L   1      -0.951  -3.080  -0.297  1.00  0.00    +0.0553  H
ATOM     17 H37  306 L   1      -1.615  -2.284   1.117  1.00  0.00    +0.0553  H
ATOM     18 H38  306 L   1      -3.118  -3.367  -1.916  1.00  0.00    +0.0652  H
ATOM     19 H39  306 L   1      -4.916  -1.531  -2.870  1.00  0.00    +0.0848  H
ATOM     20 H40  306 L   1      -3.264   1.501   0.067  1.00  0.00    +0.0535  H
ATOM     21 H41  306 L   1      -1.724   1.360  -0.767  1.00  0.00    +0.0535  H
ENDROOT
BRANCH 1 23
ATOM     22  C1  306 L   1      -2.747   2.056   2.793  1.00  0.00    +0.0370  C
ATOM     23  O2  306 L   1      -1.583   1.733   2.040  1.00  0.00    -0.3762 OA
ATOM     24 H21  306 L   1      -2.974   1.257   3.504  1.00  0.00    +0.0524  H
ATOM     25 H22  306 L   1      -3.605   2.234   2.140  1.00  0.00    +0.0524  H
ATOM     26 H23  306 L   1      -2.545   2.972   3.355  1.00  0.00    +0.0524  H
ENDBRANCH 1 23
BRANCH 4 27
ATOM     27  C8  306 L   1       2.060  -0.491  -0.598  1.00  0.00    +0.0129  C
ATOM     28  C9  306 L   1       1.949   0.581  -1.403  1.00  0.00    -0.0757  C
ATOM     29 C10  306 L   1       3.032   1.611  -1.530  1.00  0.00    -0.0340  C
ATOM     30 C11  306 L   1       4.367   1.162  -0.929  1.00  0.00    -0.0493  C
ATOM     31 C12  306 L   1       4.170   0.442   0.403  1.00  0.00    -0.0486  C
ATOM     32 C13  306 L   1       3.265  -0.783   0.244  1.00  0.00    -0.0229  C
ATOM     33 H27  306 L   1       1.055   0.724  -2.007  1.00  0.00    +0.0576  H
ATOM     34 H28  306 L   1       3.182   1.855  -2.588  1.00  0.00    +0.0308  H
ATOM     35 H29  306 L   1       2.694   2.529  -1.034  1.00  0.00    +0.0308  H
ATOM     36 H30  306 L   1       4.876   0.489  -1.631  1.00  0.00    +0.0268  H
ATOM     37 H31  306 L   1       5.021   2.031  -0.794  1.00  0.00    +0.0268  H
ATOM     38 H32  306 L   1       3.726   1.136   1.129  1.00  0.00    +0.0269  H
ATOM     39 H33  306 L   1       5.140   0.133   0.810  1.00  0.00    +0.0269  H
ATOM     40 H34  306 L   1       3.832  -1.599  -0.221  1.00  0.00    +0.0315  H
ATOM     41 H35  306 L   1       2.958  -1.127   1.239  1.00  0.00    +0.0315  H
ENDBRANCH 4 27
TORSDOF 2
