ROOT
ATOM      1  C9  CHE L   1       5.950   0.002  -0.348  1.00  0.00    +0.0389  A
ATOM      2 C10  CHE L   1       5.949   1.108   0.433  1.00  0.00    -0.0388  A
ATOM      3 C11  CHE L   1       4.986   2.256   0.296  1.00  0.00    -0.0392  C
ATOM      4 C12  CHE L   1       6.930   1.255   1.499  1.00  0.00    -0.0393  A
ATOM      5 C13  CHE L   1       7.858   0.311   1.719  1.00  0.00    +0.0162  A
ATOM      6 C14  CHE L   1       8.909   0.404   2.783  1.00  0.00    -0.0244  C
ATOM      7 N15  CHE L   1       7.862  -0.815   0.936  1.00  0.00    -0.3262  N
ATOM      8 C16  CHE L   1       6.971  -1.063  -0.078  1.00  0.00    +0.2540  A
ATOM      9 O17  CHE L   1       7.013  -2.111  -0.715  1.00  0.00    -0.2675 OA
ATOM     10 H43  CHE L   1       5.529   3.194   0.133  1.00  0.00    +0.0278  H
ATOM     11 H44  CHE L   1       4.291   2.139  -0.539  1.00  0.00    +0.0278  H
ATOM     12 H45  CHE L   1       4.388   2.356   1.209  1.00  0.00    +0.0278  H
ATOM     13 H46  CHE L   1       6.903   2.156   2.107  1.00  0.00    +0.0637  H
ATOM     14 H47  CHE L   1       8.822  -0.435   3.482  1.00  0.00    +0.0292  H
ATOM     15 H48  CHE L   1       8.826   1.333   3.360  1.00  0.00    +0.0292  H
ATOM     16 H49  CHE L   1       9.909   0.377   2.334  1.00  0.00    +0.0292  H
ATOM     17 H50  CHE L   1       8.549  -1.544   1.092  1.00  0.00    +0.1686 HD
ENDROOT
BRANCH 1 18
ATOM     18  C8  CHE L   1       5.036  -0.256  -1.508  1.00  0.00    +0.0491  C
ATOM     19 H41  CHE L   1       4.903   0.647  -2.114  1.00  0.00    +0.0538  H
ATOM     20 H42  CHE L   1       5.420  -1.022  -2.191  1.00  0.00    +0.0538  H
BRANCH 18 23
ATOM     21  C5  CHE L   1       2.651  -0.702  -1.852  1.00  0.00    +0.2527  C
ATOM     22  O6  CHE L   1       2.640  -0.200  -2.967  1.00  0.00    -0.2676 OA
ATOM     23  N7  CHE L   1       3.751  -0.707  -1.021  1.00  0.00    -0.3478  N
ATOM     24 H40  CHE L   1       3.728  -1.251  -0.169  1.00  0.00    +0.1630 HD
BRANCH 21 26
ATOM     25  C3  CHE L   1       0.186  -0.712  -1.245  1.00  0.00    -0.0121  A
ATOM     26  C4  CHE L   1       1.442  -1.366  -1.296  1.00  0.00    +0.0454  A
ATOM     27 C18  CHE L   1       1.596  -2.681  -0.832  1.00  0.00    -0.0307  A
ATOM     28 C19  CHE L   1       0.507  -3.345  -0.290  1.00  0.00    +0.0437  A
ATOM     29 CL20 CHE L   1       0.691  -4.950   0.298  1.00  0.00    -0.0835 Cl
ATOM     30 C21  CHE L   1      -0.734  -2.721  -0.224  1.00  0.00    -0.0198  A
ATOM     31 C22  CHE L   1      -0.920  -1.415  -0.708  1.00  0.00    +0.0434  A
ATOM     32 H51  CHE L   1       2.555  -3.187  -0.910  1.00  0.00    +0.0640  H
ATOM     33 H52  CHE L   1      -1.583  -3.260   0.191  1.00  0.00    +0.0653  H
BRANCH 25 35
ATOM     34  C1  CHE L   1       0.645   1.718  -0.704  1.00  0.00    -0.0612  C
ATOM     35  C2  CHE L   1       0.041   0.731  -1.696  1.00  0.00    -0.0279  C
ATOM     36 H35  CHE L   1       0.211   1.595   0.294  1.00  0.00    +0.0233  H
ATOM     37 H36  CHE L   1       1.728   1.596  -0.611  1.00  0.00    +0.0233  H
ATOM     38 H37  CHE L   1       0.454   2.744  -1.034  1.00  0.00    +0.0233  H
ATOM     39 H38  CHE L   1      -1.011   0.999  -1.837  1.00  0.00    +0.0311  H
ATOM     40 H39  CHE L   1       0.485   0.864  -2.688  1.00  0.00    +0.0311  H
ENDBRANCH 25 35
BRANCH 31 41
ATOM     41 N23  CHE L   1      -2.195  -0.856  -0.643  1.00  0.00    -0.3676  N
BRANCH 41 42
ATOM     42 C24  CHE L   1      -3.046  -0.931  -1.835  1.00  0.00    +0.0161  C
ATOM     43 C25  CHE L   1      -3.544  -2.342  -2.115  1.00  0.00    -0.0475  C
ATOM     44 H53  CHE L   1      -3.911  -0.270  -1.730  1.00  0.00    +0.0485  H
ATOM     45 H54  CHE L   1      -2.499  -0.570  -2.714  1.00  0.00    +0.0485  H
ATOM     46 H55  CHE L   1      -4.251  -2.327  -2.951  1.00  0.00    +0.0247  H
ATOM     47 H56  CHE L   1      -4.056  -2.774  -1.250  1.00  0.00    +0.0247  H
ATOM     48 H57  CHE L   1      -2.723  -3.011  -2.392  1.00  0.00    +0.0247  H
ENDBRANCH 41 42
BRANCH 41 49
ATOM     49 C26  CHE L   1      -2.666  -0.345   0.654  1.00  0.00    +0.0300  C
ATOM     50 C27  CHE L   1      -3.049   1.143   0.555  1.00  0.00    -0.0311  C
ATOM     51 C28  CHE L   1      -4.136   1.493   1.561  1.00  0.00    -0.0355  C
ATOM     52 C29  CHE L   1      -5.462   0.755   1.256  1.00  0.00    +0.0100  C
ATOM     53 C33  CHE L   1      -5.186  -0.741   0.937  1.00  0.00    -0.0355  C
ATOM     54 C34  CHE L   1      -3.774  -1.214   1.278  1.00  0.00    -0.0311  C
ATOM     55 H58  CHE L   1      -1.825  -0.395   1.363  1.00  0.00    +0.0524  H
ATOM     56 H59  CHE L   1      -2.161   1.754   0.754  1.00  0.00    +0.0285  H
ATOM     57 H60  CHE L   1      -3.378   1.423  -0.451  1.00  0.00    +0.0285  H
ATOM     58 H61  CHE L   1      -3.797   1.211   2.567  1.00  0.00    +0.0281  H
ATOM     59 H62  CHE L   1      -4.270   2.577   1.616  1.00  0.00    +0.0281  H
ATOM     60 H63  CHE L   1      -6.052   0.810   2.182  1.00  0.00    +0.0462  H
ATOM     61 H70  CHE L   1      -5.913  -1.361   1.477  1.00  0.00    +0.0281  H
ATOM     62 H71  CHE L   1      -5.363  -0.949  -0.125  1.00  0.00    +0.0281  H
ATOM     63 H72  CHE L   1      -3.656  -2.267   1.003  1.00  0.00    +0.0285  H
ATOM     64 H73  CHE L   1      -3.666  -1.181   2.371  1.00  0.00    +0.0285  H
BRANCH 52 65
ATOM     65 N30  CHE L   1      -6.278   1.327   0.150  1.00  0.00    -0.3054 NA
ATOM     66 C31  CHE L   1      -6.366   2.788   0.169  1.00  0.00    -0.0128  C
ATOM     67 C32  CHE L   1      -7.641   0.775   0.158  1.00  0.00    -0.0128  C
ATOM     68 H64  CHE L   1      -6.724   3.169   1.132  1.00  0.00    +0.0391  H
ATOM     69 H65  CHE L   1      -5.399   3.245  -0.063  1.00  0.00    +0.0391  H
ATOM     70 H66  CHE L   1      -7.045   3.147  -0.613  1.00  0.00    +0.0391  H
ATOM     71 H67  CHE L   1      -8.216   1.158  -0.694  1.00  0.00    +0.0391  H
ATOM     72 H68  CHE L   1      -8.180   1.029   1.079  1.00  0.00    +0.0391  H
ATOM     73 H69  CHE L   1      -7.638  -0.315   0.054  1.00  0.00    +0.0391  H
ENDBRANCH 52 65
ENDBRANCH 41 49
ENDBRANCH 31 41
ENDBRANCH 21 26
ENDBRANCH 18 23
ENDBRANCH 1 18
TORSDOF 8
