ROOT
ATOM      1 C31  WH0 L   1      -0.313   2.886   0.522  1.00  0.00    -0.0133  A
ATOM      2 C32  WH0 L   1      -0.361   3.112   1.918  1.00  0.00    -0.0519  A
ATOM      3 C33  WH0 L   1      -1.041   4.213   2.448  1.00  0.00    -0.0374  A
ATOM      4 C34  WH0 L   1      -1.661   5.060   1.556  1.00  0.00    +0.0454  A
ATOM      5 C35  WH0 L   1      -1.625   4.855   0.180  1.00  0.00    -0.0145  A
ATOM      6 C36  WH0 L   1      -0.954   3.772  -0.358  1.00  0.00    -0.0483  A
ATOM      7 C37  WH0 L   1      -2.393   5.945  -0.506  1.00  0.00    +0.0535  C
ATOM      8 C38  WH0 L   1      -2.871   6.796   0.676  1.00  0.00    +0.2296  C
ATOM      9 O39  WH0 L   1      -3.544   7.812   0.619  1.00  0.00    -0.2725 OA
ATOM     10 N40  WH0 L   1      -2.395   6.199   1.839  1.00  0.00    -0.3256  N
ATOM     11 H65  WH0 L   1       0.122   2.416   2.602  1.00  0.00    +0.0624  H
ATOM     12 H66  WH0 L   1      -1.080   4.380   3.517  1.00  0.00    +0.0638  H
ATOM     13 H67  WH0 L   1      -0.928   3.619  -1.432  1.00  0.00    +0.0627  H
ATOM     14 H68  WH0 L   1      -1.744   6.543  -1.151  1.00  0.00    +0.0410  H
ATOM     15 H69  WH0 L   1      -3.254   5.547  -1.047  1.00  0.00    +0.0410  H
ATOM     16 H70  WH0 L   1      -2.579   6.573   2.757  1.00  0.00    +0.1686 HD
ENDROOT
BRANCH 1 25
ATOM     17 C15  WH0 L   1      -0.116   0.664  -0.848  1.00  0.00    +0.1018  A
ATOM     18 N16  WH0 L   1       0.851  -0.221  -1.135  1.00  0.00    -0.1627 NA
ATOM     19 N17  WH0 L   1       1.944   0.248  -0.480  1.00  0.00    -0.1987  N
ATOM     20 C18  WH0 L   1       3.233  -0.368  -0.543  1.00  0.00    +0.2282  A
ATOM     21 N26  WH0 L   1       4.237   0.219   0.069  1.00  0.00    -0.2207 NA
ATOM     22 C27  WH0 L   1       3.988   1.381   0.764  1.00  0.00    +0.0334  A
ATOM     23 C28  WH0 L   1       2.799   1.995   0.864  1.00  0.00    -0.0173  A
ATOM     24 C29  WH0 L   1       1.694   1.418   0.202  1.00  0.00    +0.0803  A
ATOM     25 C30  WH0 L   1       0.363   1.713  -0.001  1.00  0.00    +0.0353  A
ATOM     26 H63  WH0 L   1       4.853   1.813   1.262  1.00  0.00    +0.0831  H
ATOM     27 H64  WH0 L   1       2.693   2.918   1.424  1.00  0.00    +0.0654  H
BRANCH 17 34
ATOM     28  C8  WH0 L   1      -2.621   0.363  -0.640  1.00  0.00    -0.0338  A
ATOM     29  C9  WH0 L   1      -3.864   0.323  -1.302  1.00  0.00    -0.0226  A
ATOM     30 C10  WH0 L   1      -3.935   0.365  -2.693  1.00  0.00    +0.1237  A
ATOM     31 F11  WH0 L   1      -5.132   0.310  -3.293  1.00  0.00    -0.2055  F
ATOM     32 C12  WH0 L   1      -2.788   0.455  -3.464  1.00  0.00    -0.0258  A
ATOM     33 C13  WH0 L   1      -1.550   0.529  -2.830  1.00  0.00    -0.0495  A
ATOM     34 C14  WH0 L   1      -1.453   0.506  -1.424  1.00  0.00    +0.0061  A
ATOM     35 H49  WH0 L   1      -4.798   0.254  -0.750  1.00  0.00    +0.0649  H
ATOM     36 H50  WH0 L   1      -2.861   0.477  -4.547  1.00  0.00    +0.0646  H
ATOM     37 H51  WH0 L   1      -0.648   0.615  -3.437  1.00  0.00    +0.0625  H
BRANCH 28 38
ATOM     38  C7  WH0 L   1      -2.590   0.267   0.876  1.00  0.00    -0.0095  C
ATOM     39 H47  WH0 L   1      -2.960   1.215   1.284  1.00  0.00    +0.0330  H
ATOM     40 H48  WH0 L   1      -1.563   0.143   1.233  1.00  0.00    +0.0330  H
BRANCH 38 41
ATOM     41  C6  WH0 L   1      -3.406  -0.889   1.468  1.00  0.00    +0.0224  C
ATOM     42 H45  WH0 L   1      -4.474  -0.801   1.232  1.00  0.00    +0.0489  H
ATOM     43 H46  WH0 L   1      -3.323  -0.867   2.563  1.00  0.00    +0.0489  H
BRANCH 41 46
ATOM     44  C3  WH0 L   1      -3.533  -3.336   1.510  1.00  0.00    +0.2443  C
ATOM     45  O4  WH0 L   1      -4.344  -3.356   2.425  1.00  0.00    -0.2683 OA
ATOM     46  N5  WH0 L   1      -2.952  -2.191   1.013  1.00  0.00    -0.3522  N
ATOM     47 H44  WH0 L   1      -2.437  -2.240   0.143  1.00  0.00    +0.1626 HD
BRANCH 44 49
ATOM     48  C1  WH0 L   1      -3.654  -5.746   1.078  1.00  0.00    -0.0936  C
ATOM     49  C2  WH0 L   1      -3.089  -4.563   0.800  1.00  0.00    -0.0047  C
ATOM     50 H41  WH0 L   1      -4.443  -5.837   1.819  1.00  0.00    +0.0536  H
ATOM     51 H42  WH0 L   1      -3.334  -6.649   0.570  1.00  0.00    +0.0536  H
ATOM     52 H43  WH0 L   1      -2.301  -4.485   0.063  1.00  0.00    +0.0666  H
ENDBRANCH 44 49
ENDBRANCH 41 46
ENDBRANCH 38 41
ENDBRANCH 28 38
ENDBRANCH 17 34
BRANCH 20 53
ATOM     53 N19  WH0 L   1       3.416  -1.558  -1.260  1.00  0.00    -0.3402  N
ATOM     54 C20  WH0 L   1       4.756  -1.885  -1.775  1.00  0.00    +0.0228  C
ATOM     55 C21  WH0 L   1       5.353  -3.132  -1.112  1.00  0.00    -0.0199  C
ATOM     56 C22  WH0 L   1       4.812  -3.323   0.304  1.00  0.00    +0.0080  C
ATOM     57 N23  WH0 L   1       5.410  -4.491   0.956  1.00  0.00    -0.3271 NA
ATOM     58 C24  WH0 L   1       3.280  -3.449   0.303  1.00  0.00    -0.0199  C
ATOM     59 C25  WH0 L   1       2.633  -2.741  -0.893  1.00  0.00    +0.0228  C
ATOM     60 H52  WH0 L   1       5.448  -1.044  -1.663  1.00  0.00    +0.0489  H
ATOM     61 H53  WH0 L   1       4.679  -2.058  -2.856  1.00  0.00    +0.0489  H
ATOM     62 H54  WH0 L   1       5.114  -4.014  -1.723  1.00  0.00    +0.0297  H
ATOM     63 H55  WH0 L   1       6.447  -3.050  -1.109  1.00  0.00    +0.0297  H
ATOM     64 H56  WH0 L   1       5.089  -2.446   0.902  1.00  0.00    +0.0459  H
ATOM     65 H57  WH0 L   1       6.425  -4.385   0.980  1.00  0.00    +0.1185 HD
ATOM     66 H58  WH0 L   1       5.227  -5.333   0.410  1.00  0.00    +0.1185 HD
ATOM     67 H59  WH0 L   1       2.960  -4.499   0.293  1.00  0.00    +0.0297  H
ATOM     68 H60  WH0 L   1       2.890  -3.024   1.238  1.00  0.00    +0.0297  H
ATOM     69 H61  WH0 L   1       1.590  -2.514  -0.658  1.00  0.00    +0.0489  H
ATOM     70 H62  WH0 L   1       2.604  -3.424  -1.753  1.00  0.00    +0.0489  H
ENDBRANCH 20 53
ENDBRANCH 1 25
TORSDOF 7
