ROOT
ATOM      1  C1  EUB L   1       1.234  -2.307   1.478  1.00  0.00    -0.0391  C
ATOM      2  C2  EUB L   1       1.521  -1.016   0.754  1.00  0.00    -0.0407  A
ATOM      3  C3  EUB L   1       2.706  -0.327   1.065  1.00  0.00    -0.0538  A
ATOM      4  C4  EUB L   1       3.057   0.855   0.403  1.00  0.00    -0.0333  A
ATOM      5  C7  EUB L   1       2.212   1.336  -0.603  1.00  0.00    -0.0538  A
ATOM      6  C8  EUB L   1       1.031   0.657  -0.959  1.00  0.00    -0.0407  A
ATOM      7  C9  EUB L   1       0.209   1.231  -2.083  1.00  0.00    -0.0391  C
ATOM      8 C10  EUB L   1       0.661  -0.509  -0.250  1.00  0.00    +0.0083  A
ATOM      9 H23  EUB L   1       1.881  -2.423   2.355  1.00  0.00    +0.0278  H
ATOM     10 H24  EUB L   1       1.412  -3.158   0.815  1.00  0.00    +0.0278  H
ATOM     11 H25  EUB L   1       0.203  -2.336   1.844  1.00  0.00    +0.0278  H
ATOM     12 H26  EUB L   1       3.378  -0.720   1.827  1.00  0.00    +0.0624  H
ATOM     13 H31  EUB L   1       2.480   2.247  -1.136  1.00  0.00    +0.0624  H
ATOM     14 H32  EUB L   1       0.853   1.737  -2.811  1.00  0.00    +0.0278  H
ATOM     15 H33  EUB L   1      -0.505   1.962  -1.694  1.00  0.00    +0.0278  H
ATOM     16 H34  EUB L   1      -0.326   0.454  -2.638  1.00  0.00    +0.0278  H
ENDROOT
BRANCH 4 17
ATOM     17  C5  EUB L   1       4.320   1.594   0.766  1.00  0.00    +0.0186  C
ATOM     18  N6  EUB L   1       5.503   0.759   0.591  1.00  0.00    -0.3261 NA
ATOM     19 H27  EUB L   1       4.427   2.493   0.149  1.00  0.00    +0.0471  H
ATOM     20 H28  EUB L   1       4.253   1.926   1.808  1.00  0.00    +0.0471  H
ATOM     21 H29  EUB L   1       6.336   1.332   0.704  1.00  0.00    +0.1185 HD
ATOM     22 H30  EUB L   1       5.518   0.413  -0.368  1.00  0.00    +0.1185 HD
ENDBRANCH 4 17
BRANCH 8 23
ATOM     23 C11  EUB L   1      -0.583  -1.209  -0.545  1.00  0.00    +0.0986  A
ATOM     24 N12  EUB L   1      -0.594  -2.493  -1.043  1.00  0.00    -0.2351 NA
ATOM     25 C13  EUB L   1      -1.861  -2.799  -1.185  1.00  0.00    +0.0969  A
ATOM     26 N14  EUB L   1      -2.673  -1.776  -0.786  1.00  0.00    -0.3315  N
ATOM     27 C15  EUB L   1      -4.115  -1.829  -0.784  1.00  0.00    +0.0133  C
ATOM     28 C16  EUB L   1      -1.877  -0.736  -0.357  1.00  0.00    +0.0943  A
ATOM     29 H35  EUB L   1      -2.239  -3.740  -1.564  1.00  0.00    +0.1029  H
ATOM     30 H36  EUB L   1      -4.486  -1.191  -1.590  1.00  0.00    +0.0456  H
ATOM     31 H37  EUB L   1      -4.442  -2.859  -0.950  1.00  0.00    +0.0456  H
ATOM     32 H38  EUB L   1      -4.483  -1.488   0.187  1.00  0.00    +0.0456  H
BRANCH 28 33
ATOM     33 C17  EUB L   1      -2.384   0.510   0.133  1.00  0.00    +0.0869  A
ATOM     34 C18  EUB L   1      -3.245   1.405  -0.474  1.00  0.00    +0.0548  A
ATOM     35 N19  EUB L   1      -3.493   2.487   0.328  1.00  0.00    -0.2434 NA
ATOM     36 C20  EUB L   1      -2.785   2.274   1.412  1.00  0.00    +0.0961  A
ATOM     37 N21  EUB L   1      -2.101   1.090   1.347  1.00  0.00    -0.3320  N
ATOM     38 C22  EUB L   1      -1.290   0.566   2.417  1.00  0.00    +0.0133  C
ATOM     39 H39  EUB L   1      -3.692   1.328  -1.456  1.00  0.00    +0.0852  H
ATOM     40 H40  EUB L   1      -2.735   2.933   2.269  1.00  0.00    +0.1029  H
ATOM     41 H41  EUB L   1      -1.349  -0.524   2.424  1.00  0.00    +0.0456  H
ATOM     42 H42  EUB L   1      -0.264   0.908   2.271  1.00  0.00    +0.0456  H
ATOM     43 H43  EUB L   1      -1.671   0.944   3.371  1.00  0.00    +0.0456  H
ENDBRANCH 28 33
ENDBRANCH 8 23
TORSDOF 3
