ROOT
ATOM      1 C10  WH0 L   1       2.970   0.284   0.972  1.00  0.00    -0.0215  A
ATOM      2 C11  WH0 L   1       1.630   0.123   0.565  1.00  0.00    -0.0487  A
ATOM      3 C12  WH0 L   1       0.613  -0.119   1.514  1.00  0.00    -0.0131  A
ATOM      4 C37  WH0 L   1       0.924  -0.192   2.883  1.00  0.00    -0.0483  A
ATOM      5 C38  WH0 L   1       2.249  -0.013   3.275  1.00  0.00    -0.0142  A
ATOM      6 C39  WH0 L   1       3.249   0.204   2.345  1.00  0.00    +0.0487  A
ATOM      7 N40  WH0 L   1       4.521   0.302   2.966  1.00  0.00    -0.3254  N
ATOM      8 C41  WH0 L   1       4.259   0.159   4.358  1.00  0.00    +0.2296  C
ATOM      9 O42  WH0 L   1       5.163   0.206   5.234  1.00  0.00    -0.2725 OA
ATOM     10 C43  WH0 L   1       2.807  -0.048   4.663  1.00  0.00    +0.0535  C
ATOM     11 H51  WH0 L   1       1.379   0.151  -0.488  1.00  0.00    +0.0627  H
ATOM     12 H71  WH0 L   1       0.154  -0.376   3.621  1.00  0.00    +0.0627  H
ATOM     13 H72  WH0 L   1       5.451   0.439   2.513  1.00  0.00    +0.1686 HD
ATOM     14 H73  WH0 L   1       2.404   0.789   5.274  1.00  0.00    +0.0410  H
ATOM     15 H74  WH0 L   1       2.638  -1.037   5.141  1.00  0.00    +0.0410  H
ENDROOT
BRANCH 1 16
ATOM     16  C9  WH0 L   1       4.060   0.437  -0.054  1.00  0.00    -0.0082  C
ATOM     17 H49  WH0 L   1       3.648   0.907  -0.974  1.00  0.00    +0.0331  H
ATOM     18 H50  WH0 L   1       4.849   1.118   0.327  1.00  0.00    +0.0331  H
BRANCH 16 19
ATOM     19  C8  WH0 L   1       4.658  -0.928  -0.409  1.00  0.00    +0.0224  C
ATOM     20 H47  WH0 L   1       5.156  -1.381   0.477  1.00  0.00    +0.0489  H
ATOM     21 H48  WH0 L   1       3.842  -1.616  -0.730  1.00  0.00    +0.0489  H
BRANCH 19 24
ATOM     22  C5  WH0 L   1       6.958  -0.317  -1.301  1.00  0.00    +0.2618  C
ATOM     23  O6  WH0 L   1       7.306   0.094  -0.160  1.00  0.00    -0.2669 OA
ATOM     24  N7  WH0 L   1       5.615  -0.795  -1.505  1.00  0.00    -0.3511  N
ATOM     25 H46  WH0 L   1       5.279  -1.032  -2.464  1.00  0.00    +0.1627 HD
BRANCH 22 27
ATOM     26  C1  WH0 L   1       7.824  -1.039  -3.498  1.00  0.00    -0.0760  C
ATOM     27  C2  WH0 L   1       7.945  -0.278  -2.407  1.00  0.00    +0.1085  C
ATOM     28 H44  WH0 L   1       8.567  -0.998  -4.287  1.00  0.00    +0.0549  H
ATOM     29 H45  WH0 L   1       7.015  -1.747  -3.620  1.00  0.00    +0.0549  H
BRANCH 27 30
ATOM     30  C3  WH0 L   1       9.101   0.577  -2.287  1.00  0.00    +0.1040  C
ATOM     31  N4  WH0 L   1      10.029   1.260  -2.191  1.00  0.00    -0.1907 NA
ENDBRANCH 27 30
ENDBRANCH 22 27
ENDBRANCH 19 24
ENDBRANCH 16 19
ENDBRANCH 1 16
BRANCH 3 32
ATOM     32 C13  WH0 L   1      -0.767  -0.343   1.059  1.00  0.00    +0.0353  A
ATOM     33 C14  WH0 L   1      -1.649   0.554   0.441  1.00  0.00    +0.1015  A
ATOM     34 N23  WH0 L   1      -2.717  -0.130  -0.038  1.00  0.00    -0.1627 NA
ATOM     35 N24  WH0 L   1      -2.536  -1.406   0.261  1.00  0.00    -0.1987  N
ATOM     36 C25  WH0 L   1      -3.319  -2.460  -0.103  1.00  0.00    +0.2282  A
ATOM     37 N33  WH0 L   1      -2.885  -3.718   0.199  1.00  0.00    -0.2207 NA
ATOM     38 C34  WH0 L   1      -1.710  -3.926   0.863  1.00  0.00    +0.0334  A
ATOM     39 C35  WH0 L   1      -0.908  -2.841   1.237  1.00  0.00    -0.0173  A
ATOM     40 C36  WH0 L   1      -1.374  -1.571   0.907  1.00  0.00    +0.0803  A
ATOM     41 H69  WH0 L   1      -1.391  -4.934   1.086  1.00  0.00    +0.0831  H
ATOM     42 H70  WH0 L   1       0.038  -2.989   1.743  1.00  0.00    +0.0654  H
BRANCH 33 43
ATOM     43 C15  WH0 L   1      -1.508   2.025   0.288  1.00  0.00    +0.0030  A
ATOM     44 C16  WH0 L   1      -0.659   2.783   1.115  1.00  0.00    -0.0490  A
ATOM     45 C17  WH0 L   1      -0.571   4.170   0.963  1.00  0.00    -0.0193  A
ATOM     46 C18  WH0 L   1      -1.349   4.831  -0.004  1.00  0.00    +0.1201  A
ATOM     47 C21  WH0 L   1      -2.202   4.082  -0.817  1.00  0.00    -0.0193  A
ATOM     48 C22  WH0 L   1      -2.285   2.694  -0.674  1.00  0.00    -0.0490  A
ATOM     49 H52  WH0 L   1      -0.084   2.322   1.902  1.00  0.00    +0.0625  H
ATOM     50 H53  WH0 L   1       0.087   4.719   1.620  1.00  0.00    +0.0654  H
ATOM     51 H57  WH0 L   1      -2.810   4.578  -1.565  1.00  0.00    +0.0654  H
ATOM     52 H58  WH0 L   1      -2.958   2.143  -1.319  1.00  0.00    +0.0625  H
BRANCH 46 53
ATOM     53 O19  WH0 L   1      -1.311   6.223  -0.180  1.00  0.00    -0.4951 OA
ATOM     54 C20  WH0 L   1      -0.480   7.104   0.569  1.00  0.00    +0.0788  C
ATOM     55 H54  WH0 L   1       0.588   6.851   0.407  1.00  0.00    +0.0660  H
ATOM     56 H55  WH0 L   1      -0.651   8.144   0.227  1.00  0.00    +0.0660  H
ATOM     57 H56  WH0 L   1      -0.730   7.040   1.649  1.00  0.00    +0.0660  H
ENDBRANCH 46 53
ENDBRANCH 33 43
BRANCH 36 58
ATOM     58 N26  WH0 L   1      -4.541  -2.279  -0.842  1.00  0.00    -0.3401  N
ATOM     59 C27  WH0 L   1      -4.871  -3.237  -1.908  1.00  0.00    +0.0237  C
ATOM     60 C28  WH0 L   1      -6.135  -2.813  -2.665  1.00  0.00    -0.0090  C
ATOM     61 C29  WH0 L   1      -7.313  -2.553  -1.697  1.00  0.00    +0.0585  C
ATOM     62 O30  WH0 L   1      -7.859  -3.776  -1.269  1.00  0.00    -0.3917 OA
ATOM     63 C31  WH0 L   1      -6.908  -1.719  -0.454  1.00  0.00    -0.0090  C
ATOM     64 C32  WH0 L   1      -5.471  -1.187  -0.515  1.00  0.00    +0.0237  C
ATOM     65 H59  WH0 L   1      -5.023  -4.248  -1.468  1.00  0.00    +0.0489  H
ATOM     66 H60  WH0 L   1      -4.026  -3.291  -2.629  1.00  0.00    +0.0489  H
ATOM     67 H61  WH0 L   1      -6.406  -3.592  -3.410  1.00  0.00    +0.0307  H
ATOM     68 H62  WH0 L   1      -5.922  -1.882  -3.232  1.00  0.00    +0.0307  H
ATOM     69 H63  WH0 L   1      -8.094  -1.985  -2.256  1.00  0.00    +0.0594  H
ATOM     70 H64  WH0 L   1      -8.319  -4.182  -2.048  1.00  0.00    +0.2098 HD
ATOM     71 H65  WH0 L   1      -7.608  -0.863  -0.334  1.00  0.00    +0.0307  H
ATOM     72 H66  WH0 L   1      -7.002  -2.342   0.463  1.00  0.00    +0.0307  H
ATOM     73 H67  WH0 L   1      -5.223  -0.735   0.469  1.00  0.00    +0.0489  H
ATOM     74 H68  WH0 L   1      -5.397  -0.395  -1.292  1.00  0.00    +0.0489  H
ENDBRANCH 36 58
ENDBRANCH 3 32
TORSDOF 9
