ROOT
ATOM      1  C7  221 L   1       0.031  -1.160  -0.157  1.00  0.00    +0.0429  C
ATOM      2  C8  221 L   1      -1.128  -0.592   0.198  1.00  0.00    +0.0693  C
ATOM      3  C9  221 L   1      -1.786   0.706   0.190  1.00  0.00    +0.0195  A
ATOM      4 C10  221 L   1      -1.272   1.987   0.076  1.00  0.00    -0.0513  A
ATOM      5 C11  221 L   1      -2.152   3.078   0.130  1.00  0.00    -0.0611  A
ATOM      6 C12  221 L   1      -3.533   2.888   0.306  1.00  0.00    -0.0605  A
ATOM      7 C13  221 L   1      -4.059   1.603   0.428  1.00  0.00    -0.0411  A
ATOM      8 C14  221 L   1      -3.166   0.548   0.358  1.00  0.00    +0.0961  A
ATOM      9 S15  221 L   1      -3.581  -1.152   0.514  1.00  0.00    +0.2660  S
ATOM     10 O16  221 L   1      -4.258  -1.353   1.774  1.00  0.00    -0.1998 OA
ATOM     11 O17  221 L   1      -4.108  -1.604  -0.754  1.00  0.00    -0.1998 OA
ATOM     12 N18  221 L   1      -1.974  -1.649   0.666  1.00  0.00    -0.2648  N
ATOM     13 C19  221 L   1      -1.494  -2.944   0.196  1.00  0.00    +0.0390  C
ATOM     14 C20  221 L   1       0.000  -2.659  -0.002  1.00  0.00    -0.0018  C
ATOM     15 H29  221 L   1      -0.208   2.162  -0.052  1.00  0.00    +0.0624  H
ATOM     16 H30  221 L   1      -1.757   4.088   0.036  1.00  0.00    +0.0618  H
ATOM     17 H31  221 L   1      -4.194   3.751   0.348  1.00  0.00    +0.0618  H
ATOM     18 H32  221 L   1      -5.121   1.436   0.573  1.00  0.00    +0.0631  H
ATOM     19 H33  221 L   1      -1.959  -3.225  -0.754  1.00  0.00    +0.0503  H
ATOM     20 H34  221 L   1      -1.663  -3.732   0.935  1.00  0.00    +0.0503  H
ATOM     21 H35  221 L   1       0.575  -2.962   0.880  1.00  0.00    +0.0333  H
ATOM     22 H36  221 L   1       0.385  -3.187  -0.880  1.00  0.00    +0.0333  H
ENDROOT
BRANCH 1 24
ATOM     23  N4  221 L   1       2.386  -1.034  -0.528  1.00  0.00    -0.3522  N
ATOM     24  C5  221 L   1       1.167  -0.453  -0.775  1.00  0.00    +0.2501  C
ATOM     25  O6  221 L   1       1.016   0.553  -1.455  1.00  0.00    -0.2679 OA
ATOM     26 H28  221 L   1       2.455  -1.813   0.112  1.00  0.00    +0.1626 HD
BRANCH 23 27
ATOM     27  C3  221 L   1       3.625  -0.459  -1.015  1.00  0.00    +0.0181  C
ATOM     28 H26  221 L   1       4.260  -1.301  -1.312  1.00  0.00    +0.0486  H
ATOM     29 H27  221 L   1       3.434   0.146  -1.908  1.00  0.00    +0.0486  H
BRANCH 27 31
ATOM     30  C1  221 L   1       3.611   1.646   0.420  1.00  0.00    -0.0637  C
ATOM     31  C2  221 L   1       4.345   0.365   0.051  1.00  0.00    -0.0383  C
ATOM     32 H21  221 L   1       2.652   1.433   0.901  1.00  0.00    +0.0230  H
ATOM     33 H22  221 L   1       3.426   2.263  -0.465  1.00  0.00    +0.0230  H
ATOM     34 H23  221 L   1       4.211   2.233   1.123  1.00  0.00    +0.0230  H
ATOM     35 H24  221 L   1       4.493  -0.238   0.954  1.00  0.00    +0.0280  H
ATOM     36 H25  221 L   1       5.340   0.631  -0.326  1.00  0.00    +0.0280  H
ENDBRANCH 27 31
ENDBRANCH 23 27
ENDBRANCH 1 24
TORSDOF 3
