ROOT
ATOM      1 C11  MCU L   1       1.554   1.230   1.250  1.00  0.00    +0.1414  C
ATOM      2 N12  MCU L   1       2.566   1.240   0.414  1.00  0.00    -0.2075 NA
ATOM      3 C13  MCU L   1       3.792   1.601   0.884  1.00  0.00    +0.1972  A
ATOM      4 C14  MCU L   1       5.037   1.797   0.316  1.00  0.00    +0.2270  A
ATOM      5 N24  MCU L   1       5.958   2.110   1.288  1.00  0.00    -0.1151 NA
ATOM      6 N25  MCU L   1       5.323   2.155   2.453  1.00  0.00    -0.0575 NA
ATOM      7 N26  MCU L   1       4.026   1.881   2.214  1.00  0.00    -0.1927  N
ATOM      8 C27  MCU L   1       3.010   1.905   3.170  1.00  0.00    +0.0800  A
ATOM      9 C28  MCU L   1       3.251   2.245   4.503  1.00  0.00    -0.0354  A
ATOM     10 C29  MCU L   1       2.170   2.328   5.380  1.00  0.00    -0.0597  A
ATOM     11 C30  MCU L   1       0.872   2.093   4.919  1.00  0.00    -0.0610  A
ATOM     12 C31  MCU L   1       0.645   1.747   3.583  1.00  0.00    -0.0491  A
ATOM     13 C32  MCU L   1       1.722   1.620   2.703  1.00  0.00    +0.0427  A
ATOM     14 H55  MCU L   1       4.256   2.460   4.861  1.00  0.00    +0.0639  H
ATOM     15 H56  MCU L   1       2.336   2.597   6.421  1.00  0.00    +0.0618  H
ATOM     16 H57  MCU L   1       0.032   2.188   5.604  1.00  0.00    +0.0618  H
ATOM     17 H58  MCU L   1      -0.374   1.602   3.243  1.00  0.00    +0.0625  H
ENDROOT
BRANCH 1 21
ATOM     18  N7  MCU L   1      -2.079  -0.277  -0.511  1.00  0.00    -0.3670  N
ATOM     19  C8  MCU L   1      -1.119  -1.166   0.184  1.00  0.00    +0.0363  C
ATOM     20  C9  MCU L   1      -0.269  -0.437   1.247  1.00  0.00    +0.0376  C
ATOM     21 N10  MCU L   1       0.298   0.857   0.781  1.00  0.00    -0.3519  N
ATOM     22 C33  MCU L   1      -0.013   1.158  -0.637  1.00  0.00    +0.0376  C
ATOM     23 C34  MCU L   1      -1.527   1.050  -0.894  1.00  0.00    +0.0363  C
ATOM     24 H46  MCU L   1      -0.448  -1.584  -0.577  1.00  0.00    +0.0505  H
ATOM     25 H47  MCU L   1      -1.622  -2.028   0.641  1.00  0.00    +0.0505  H
ATOM     26 H48  MCU L   1       0.544  -1.111   1.554  1.00  0.00    +0.0506  H
ATOM     27 H49  MCU L   1      -0.889  -0.255   2.133  1.00  0.00    +0.0506  H
ATOM     28 H59  MCU L   1       0.306   2.179  -0.878  1.00  0.00    +0.0506  H
ATOM     29 H60  MCU L   1       0.537   0.475  -1.297  1.00  0.00    +0.0506  H
ATOM     30 H61  MCU L   1      -2.023   1.877  -0.374  1.00  0.00    +0.0505  H
ATOM     31 H62  MCU L   1      -1.714   1.203  -1.963  1.00  0.00    +0.0505  H
BRANCH 18 37
ATOM     32  C1  MCU L   1      -6.745  -2.088  -0.114  1.00  0.00    -0.0394  C
ATOM     33  C2  MCU L   1      -5.625  -1.167   0.301  1.00  0.00    -0.0453  A
ATOM     34  C3  MCU L   1      -5.869  -0.272   1.354  1.00  0.00    -0.0585  A
ATOM     35  C4  MCU L   1      -4.877   0.595   1.797  1.00  0.00    -0.0596  A
ATOM     36  C5  MCU L   1      -3.630   0.588   1.182  1.00  0.00    -0.0382  A
ATOM     37  C6  MCU L   1      -3.349  -0.270   0.104  1.00  0.00    +0.0414  A
ATOM     38 C35  MCU L   1      -4.356  -1.172  -0.336  1.00  0.00    -0.0213  A
ATOM     39 H40  MCU L   1      -7.097  -1.836  -1.119  1.00  0.00    +0.0278  H
ATOM     40 H41  MCU L   1      -6.422  -3.133  -0.083  1.00  0.00    +0.0278  H
ATOM     41 H42  MCU L   1      -7.603  -2.000   0.562  1.00  0.00    +0.0278  H
ATOM     42 H43  MCU L   1      -6.839  -0.249   1.844  1.00  0.00    +0.0620  H
ATOM     43 H44  MCU L   1      -5.074   1.274   2.622  1.00  0.00    +0.0618  H
ATOM     44 H45  MCU L   1      -2.869   1.264   1.562  1.00  0.00    +0.0638  H
BRANCH 38 45
ATOM     45 C36  MCU L   1      -4.080  -2.121  -1.492  1.00  0.00    -0.0248  C
ATOM     46 H63  MCU L   1      -3.011  -2.348  -1.568  1.00  0.00    +0.0314  H
ATOM     47 H64  MCU L   1      -4.536  -3.092  -1.265  1.00  0.00    +0.0314  H
BRANCH 45 48
ATOM     48 C37  MCU L   1      -4.595  -1.639  -2.854  1.00  0.00    -0.0402  C
ATOM     49 H65  MCU L   1      -4.476  -2.469  -3.562  1.00  0.00    +0.0276  H
ATOM     50 H66  MCU L   1      -5.667  -1.421  -2.801  1.00  0.00    +0.0276  H
BRANCH 48 51
ATOM     51 C38  MCU L   1      -3.844  -0.418  -3.374  1.00  0.00    -0.0090  C
ATOM     52 S39  MCU L   1      -4.423   0.029  -5.041  1.00  0.00    -0.1782 SA
ATOM     53 H67  MCU L   1      -4.006   0.448  -2.726  1.00  0.00    +0.0374  H
ATOM     54 H68  MCU L   1      -2.770  -0.618  -3.429  1.00  0.00    +0.0374  H
ATOM     55 H69  MCU L   1      -5.708   0.228  -4.710  1.00  0.00    +0.1016 HD
ENDBRANCH 48 51
ENDBRANCH 45 48
ENDBRANCH 38 45
ENDBRANCH 18 37
ENDBRANCH 1 21
BRANCH 4 56
ATOM     56 S15  MCU L   1       5.468   1.621  -1.336  1.00  0.00    +0.2297  S
ATOM     57 O16  MCU L   1       4.324   2.056  -2.115  1.00  0.00    -0.2153 OA
ATOM     58 O17  MCU L   1       6.763   2.264  -1.473  1.00  0.00    -0.2153 OA
BRANCH 56 59
ATOM     59 C18  MCU L   1       5.683  -0.124  -1.557  1.00  0.00    +0.0730  A
ATOM     60 C19  MCU L   1       4.582  -0.918  -1.893  1.00  0.00    -0.0432  A
ATOM     61 C20  MCU L   1       4.761  -2.287  -2.093  1.00  0.00    -0.0606  A
ATOM     62 C21  MCU L   1       6.032  -2.854  -1.962  1.00  0.00    -0.0617  A
ATOM     63 C22  MCU L   1       7.129  -2.055  -1.636  1.00  0.00    -0.0606  A
ATOM     64 C23  MCU L   1       6.959  -0.685  -1.436  1.00  0.00    -0.0432  A
ATOM     65 H50  MCU L   1       3.592  -0.477  -2.003  1.00  0.00    +0.0630  H
ATOM     66 H51  MCU L   1       3.912  -2.913  -2.358  1.00  0.00    +0.0618  H
ATOM     67 H52  MCU L   1       6.168  -3.920  -2.124  1.00  0.00    +0.0618  H
ATOM     68 H53  MCU L   1       8.118  -2.496  -1.543  1.00  0.00    +0.0618  H
ATOM     69 H54  MCU L   1       7.820  -0.064  -1.192  1.00  0.00    +0.0630  H
ENDBRANCH 56 59
ENDBRANCH 4 56
TORSDOF 7
