ROOT
ATOM      1 C15  WH0 L   1      -1.470  -0.247   0.667  1.00  0.00    +0.0880  C
ATOM      2 C16  WH0 L   1      -2.100   0.033  -0.741  1.00  0.00    +0.0835  C
ATOM      3 C27  WH0 L   1      -1.649  -0.977  -1.839  1.00  0.00    +0.0873  C
ATOM      4 C28  WH0 L   1      -0.182  -0.724  -2.264  1.00  0.00    -0.0340  C
ATOM      5 O29  WH0 L   1      -2.463  -0.776  -2.975  1.00  0.00    -0.3867 OA
ATOM      6 C30  WH0 L   1      -1.833  -2.422  -1.331  1.00  0.00    -0.0039  C
ATOM      7 C31  WH0 L   1      -1.182  -2.659   0.037  1.00  0.00    +0.0325  C
ATOM      8 N32  WH0 L   1      -1.584  -1.674   1.064  1.00  0.00    -0.2915 NA
ATOM      9 H50  WH0 L   1      -2.028   0.370   1.401  1.00  0.00    +0.0602  H
ATOM     10 H51  WH0 L   1      -1.795   1.035  -1.104  1.00  0.00    +0.0575  H
ATOM     11 H57  WH0 L   1       0.536  -0.900  -1.442  1.00  0.00    +0.0258  H
ATOM     12 H58  WH0 L   1      -0.058   0.321  -2.620  1.00  0.00    +0.0258  H
ATOM     13 H59  WH0 L   1       0.100  -1.403  -3.096  1.00  0.00    +0.0258  H
ATOM     14 H60  WH0 L   1      -2.228  -1.463  -3.653  1.00  0.00    +0.2102 HD
ATOM     15 H61  WH0 L   1      -1.391  -3.136  -2.060  1.00  0.00    +0.0311  H
ATOM     16 H62  WH0 L   1      -2.912  -2.669  -1.281  1.00  0.00    +0.0311  H
ATOM     17 H63  WH0 L   1      -1.427  -3.688   0.377  1.00  0.00    +0.0496  H
ATOM     18 H64  WH0 L   1      -0.081  -2.645  -0.080  1.00  0.00    +0.0496  H
ENDROOT
BRANCH 1 22
ATOM     19 C11  WH0 L   1       2.568   1.319   1.197  1.00  0.00    -0.0473  A
ATOM     20 C12  WH0 L   1       2.273   0.001   1.568  1.00  0.00    -0.0582  A
ATOM     21 C13  WH0 L   1       0.983  -0.509   1.407  1.00  0.00    -0.0563  A
ATOM     22 C14  WH0 L   1      -0.039   0.276   0.827  1.00  0.00    -0.0223  A
ATOM     23 C37  WH0 L   1       0.259   1.618   0.509  1.00  0.00    -0.0563  A
ATOM     24 C38  WH0 L   1       1.551   2.124   0.668  1.00  0.00    -0.0582  A
ATOM     25 H48  WH0 L   1       3.044  -0.632   1.992  1.00  0.00    +0.0620  H
ATOM     26 H49  WH0 L   1       0.796  -1.516   1.751  1.00  0.00    +0.0621  H
ATOM     27 H68  WH0 L   1      -0.509   2.290   0.153  1.00  0.00    +0.0621  H
ATOM     28 H69  WH0 L   1       1.756   3.150   0.390  1.00  0.00    +0.0620  H
BRANCH 19 29
ATOM     29 C10  WH0 L   1       3.968   1.852   1.341  1.00  0.00    -0.0261  C
ATOM     30 H46  WH0 L   1       4.428   1.446   2.269  1.00  0.00    +0.0314  H
ATOM     31 H47  WH0 L   1       3.946   2.960   1.441  1.00  0.00    +0.0314  H
BRANCH 29 32
ATOM     32  C9  WH0 L   1       4.820   1.461   0.129  1.00  0.00    -0.0315  C
ATOM     33 H44  WH0 L   1       4.356   1.864  -0.798  1.00  0.00    +0.0285  H
ATOM     34 H45  WH0 L   1       4.857   0.353   0.048  1.00  0.00    +0.0285  H
BRANCH 32 35
ATOM     35  C8  WH0 L   1       6.243   2.012   0.256  1.00  0.00    +0.0187  C
ATOM     36 H42  WH0 L   1       6.721   1.653   1.193  1.00  0.00    +0.0486  H
ATOM     37 H43  WH0 L   1       6.201   3.123   0.299  1.00  0.00    +0.0486  H
BRANCH 35 40
ATOM     38  C5  WH0 L   1       7.643   0.307  -1.001  1.00  0.00    +0.2618  C
ATOM     39  O6  WH0 L   1       7.362  -0.575  -0.143  1.00  0.00    -0.2669 OA
ATOM     40  N7  WH0 L   1       7.050   1.613  -0.896  1.00  0.00    -0.3514  N
ATOM     41 H41  WH0 L   1       7.164   2.307  -1.667  1.00  0.00    +0.1626 HD
BRANCH 38 43
ATOM     42  C1  WH0 L   1       9.236   0.884  -2.799  1.00  0.00    -0.0760  C
ATOM     43  C2  WH0 L   1       8.566  -0.042  -2.107  1.00  0.00    +0.1085  C
ATOM     44 H39  WH0 L   1       9.912   0.598  -3.596  1.00  0.00    +0.0549  H
ATOM     45 H40  WH0 L   1       9.159   1.938  -2.571  1.00  0.00    +0.0549  H
BRANCH 43 46
ATOM     46  C3  WH0 L   1       8.786  -1.433  -2.421  1.00  0.00    +0.1040  C
ATOM     47  N4  WH0 L   1       8.962  -2.549  -2.673  1.00  0.00    -0.1907 NA
ENDBRANCH 43 46
ENDBRANCH 38 43
ENDBRANCH 35 40
ENDBRANCH 32 35
ENDBRANCH 29 32
ENDBRANCH 19 29
ENDBRANCH 1 22
BRANCH 2 48
ATOM     48 N17  WH0 L   1      -3.569   0.066  -0.624  1.00  0.00    -0.3442  N
ATOM     49 C18  WH0 L   1      -4.259   1.180  -0.025  1.00  0.00    +0.2524  C
ATOM     50 O19  WH0 L   1      -3.605   2.207   0.305  1.00  0.00    -0.2676 OA
ATOM     51 H52  WH0 L   1      -4.134  -0.676  -1.090  1.00  0.00    +0.1631 HD
BRANCH 49 52
ATOM     52 C20  WH0 L   1      -5.728   1.156   0.201  1.00  0.00    +0.0391  A
ATOM     53 C21  WH0 L   1      -6.451  -0.053   0.233  1.00  0.00    -0.0467  A
ATOM     54 C22  WH0 L   1      -7.830  -0.050   0.461  1.00  0.00    -0.0257  A
ATOM     55 C23  WH0 L   1      -8.505   1.155   0.665  1.00  0.00    +0.1234  A
ATOM     56 F24  WH0 L   1      -9.843   1.154   0.887  1.00  0.00    -0.2055  F
ATOM     57 C25  WH0 L   1      -7.801   2.360   0.645  1.00  0.00    -0.0257  A
ATOM     58 C26  WH0 L   1      -6.422   2.363   0.417  1.00  0.00    -0.0467  A
ATOM     59 H53  WH0 L   1      -5.961  -1.006   0.106  1.00  0.00    +0.0626  H
ATOM     60 H54  WH0 L   1      -8.375  -0.985   0.486  1.00  0.00    +0.0646  H
ATOM     61 H55  WH0 L   1      -8.322   3.295   0.806  1.00  0.00    +0.0646  H
ATOM     62 H56  WH0 L   1      -5.900   3.311   0.404  1.00  0.00    +0.0626  H
ENDBRANCH 49 52
ENDBRANCH 2 48
BRANCH 8 63
ATOM     63 S33  WH0 L   1      -3.088  -2.100   1.860  1.00  0.00    +0.2299  S
ATOM     64 C34  WH0 L   1      -2.741  -3.324   3.103  1.00  0.00    +0.0573  C
ATOM     65 O35  WH0 L   1      -3.705  -0.908   2.538  1.00  0.00    -0.2056 OA
ATOM     66 O36  WH0 L   1      -4.075  -2.676   0.885  1.00  0.00    -0.2056 OA
ATOM     67 H65  WH0 L   1      -3.671  -3.567   3.657  1.00  0.00    +0.0407  H
ATOM     68 H66  WH0 L   1      -2.348  -4.245   2.625  1.00  0.00    +0.0407  H
ATOM     69 H67  WH0 L   1      -1.984  -2.927   3.811  1.00  0.00    +0.0407  H
ENDBRANCH 8 63
TORSDOF 10
