ROOT
ATOM      1  C3  CHE L   1       1.682  -1.415   1.049  1.00  0.00    +0.1623  A
ATOM      2  C4  CHE L   1       0.333  -1.175   1.312  1.00  0.00    -0.0036  A
ATOM      3  C5  CHE L   1      -0.361  -0.140   0.640  1.00  0.00    +0.0462  A
ATOM      4  C6  CHE L   1      -1.716   0.169   0.789  1.00  0.00    +0.1404  A
ATOM      5 N17  CHE L   1      -2.288   1.228   0.198  1.00  0.00    -0.1948 NA
ATOM      6 C18  CHE L   1      -1.544   1.982  -0.621  1.00  0.00    +0.2290  A
ATOM      7 N27  CHE L   1      -0.254   1.716  -0.869  1.00  0.00    -0.2121 NA
ATOM      8 C28  CHE L   1       0.328   0.690  -0.240  1.00  0.00    +0.0820  A
ATOM      9 C29  CHE L   1       1.677   0.451  -0.477  1.00  0.00    +0.0099  A
ATOM     10 C30  CHE L   1       2.366  -0.592   0.148  1.00  0.00    +0.1639  A
ATOM     11 H43  CHE L   1      -0.188  -1.754   2.068  1.00  0.00    +0.0663  H
ATOM     12 H74  CHE L   1       2.176   1.113  -1.177  1.00  0.00    +0.0677  H
ENDROOT
BRANCH 1 14
ATOM     13  C1  CHE L   1       1.687  -3.615   1.892  1.00  0.00    +0.0790  C
ATOM     14  O2  CHE L   1       2.400  -2.404   1.669  1.00  0.00    -0.4914 OA
ATOM     15 H40  CHE L   1       2.419  -4.416   2.043  1.00  0.00    +0.0660  H
ATOM     16 H41  CHE L   1       1.067  -3.885   1.027  1.00  0.00    +0.0660  H
ATOM     17 H42  CHE L   1       1.075  -3.541   2.800  1.00  0.00    +0.0660  H
ENDBRANCH 1 14
BRANCH 4 18
ATOM     18  N7  CHE L   1      -2.614  -0.603   1.546  1.00  0.00    -0.3662  N
ATOM     19 H44  CHE L   1      -3.464  -0.035   1.520  1.00  0.00    +0.1613 HD
BRANCH 18 20
ATOM     20  C8  CHE L   1      -2.911  -1.943   1.002  1.00  0.00    +0.0308  C
ATOM     21  C9  CHE L   1      -3.893  -2.637   1.957  1.00  0.00    -0.0198  C
ATOM     22 C10  CHE L   1      -4.329  -3.989   1.393  1.00  0.00    +0.0010  C
ATOM     23 N11  CHE L   1      -4.925  -3.903   0.049  1.00  0.00    -0.2998 NA
ATOM     24 C15  CHE L   1      -3.951  -3.278  -0.865  1.00  0.00    +0.0010  C
ATOM     25 C16  CHE L   1      -3.491  -1.889  -0.418  1.00  0.00    -0.0198  C
ATOM     26 H45  CHE L   1      -1.997  -2.552   0.982  1.00  0.00    +0.0523  H
ATOM     27 H46  CHE L   1      -3.415  -2.789   2.931  1.00  0.00    +0.0297  H
ATOM     28 H47  CHE L   1      -4.773  -2.003   2.139  1.00  0.00    +0.0297  H
ATOM     29 H48  CHE L   1      -4.995  -4.498   2.095  1.00  0.00    +0.0427  H
ATOM     30 H49  CHE L   1      -3.452  -4.651   1.341  1.00  0.00    +0.0427  H
ATOM     31 H57  CHE L   1      -4.326  -3.236  -1.891  1.00  0.00    +0.0427  H
ATOM     32 H58  CHE L   1      -3.070  -3.934  -0.926  1.00  0.00    +0.0427  H
ATOM     33 H59  CHE L   1      -4.322  -1.175  -0.478  1.00  0.00    +0.0297  H
ATOM     34 H60  CHE L   1      -2.731  -1.531  -1.125  1.00  0.00    +0.0297  H
BRANCH 23 35
ATOM     35 C12  CHE L   1      -6.274  -3.277   0.004  1.00  0.00    +0.0048  C
ATOM     36 C13  CHE L   1      -7.260  -3.923   0.996  1.00  0.00    -0.0497  C
ATOM     37 C14  CHE L   1      -6.893  -3.395  -1.401  1.00  0.00    -0.0497  C
ATOM     38 H50  CHE L   1      -6.215  -2.208   0.254  1.00  0.00    +0.0457  H
ATOM     39 H51  CHE L   1      -8.274  -3.529   0.851  1.00  0.00    +0.0245  H
ATOM     40 H52  CHE L   1      -6.994  -3.703   2.037  1.00  0.00    +0.0245  H
ATOM     41 H53  CHE L   1      -7.300  -5.011   0.871  1.00  0.00    +0.0245  H
ATOM     42 H54  CHE L   1      -6.874  -4.431  -1.758  1.00  0.00    +0.0245  H
ATOM     43 H55  CHE L   1      -7.937  -3.058  -1.394  1.00  0.00    +0.0245  H
ATOM     44 H56  CHE L   1      -6.375  -2.764  -2.132  1.00  0.00    +0.0245  H
ENDBRANCH 23 35
ENDBRANCH 18 20
ENDBRANCH 4 18
BRANCH 6 45
ATOM     45 N19  CHE L   1      -2.146   3.060  -1.253  1.00  0.00    -0.3390  N
ATOM     46 C20  CHE L   1      -1.360   3.873  -2.166  1.00  0.00    +0.0226  C
ATOM     47 C21  CHE L   1      -0.617   5.006  -1.468  1.00  0.00    -0.0224  C
ATOM     48 C22  CHE L   1      -1.386   5.688  -0.333  1.00  0.00    +0.0003  C
ATOM     49 N23  CHE L   1      -2.758   6.121  -0.607  1.00  0.00    -0.3036 NA
ATOM     50 C24  CHE L   1      -2.820   7.271  -1.503  1.00  0.00    -0.0127  C
ATOM     51 C25  CHE L   1      -3.691   5.056  -1.028  1.00  0.00    +0.0163  C
ATOM     52 C26  CHE L   1      -3.349   3.604  -0.607  1.00  0.00    +0.0341  C
ATOM     53 H61  CHE L   1      -0.649   3.269  -2.745  1.00  0.00    +0.0489  H
ATOM     54 H62  CHE L   1      -2.021   4.292  -2.934  1.00  0.00    +0.0489  H
ATOM     55 H63  CHE L   1       0.319   4.614  -1.046  1.00  0.00    +0.0295  H
ATOM     56 H64  CHE L   1      -0.323   5.748  -2.220  1.00  0.00    +0.0295  H
ATOM     57 H65  CHE L   1      -1.396   5.028   0.543  1.00  0.00    +0.0427  H
ATOM     58 H66  CHE L   1      -0.801   6.551   0.007  1.00  0.00    +0.0427  H
ATOM     59 H67  CHE L   1      -2.487   7.023  -2.518  1.00  0.00    +0.0391  H
ATOM     60 H68  CHE L   1      -2.200   8.092  -1.127  1.00  0.00    +0.0391  H
ATOM     61 H69  CHE L   1      -3.844   7.658  -1.564  1.00  0.00    +0.0391  H
ATOM     62 H70  CHE L   1      -4.670   5.304  -0.595  1.00  0.00    +0.0444  H
ATOM     63 H71  CHE L   1      -3.844   5.073  -2.114  1.00  0.00    +0.0444  H
ATOM     64 H72  CHE L   1      -4.200   2.962  -0.871  1.00  0.00    +0.0501  H
ATOM     65 H73  CHE L   1      -3.261   3.582   0.490  1.00  0.00    +0.0501  H
ENDBRANCH 6 45
BRANCH 10 66
ATOM     66 O31  CHE L   1       3.683  -0.901  -0.068  1.00  0.00    -0.4882 OA
BRANCH 66 67
ATOM     67 C32  CHE L   1       4.445  -0.050  -0.920  1.00  0.00    +0.0909  C
ATOM     68 H75  CHE L   1       3.998  -0.021  -1.919  1.00  0.00    +0.0697  H
ATOM     69 H76  CHE L   1       4.487   0.961  -0.500  1.00  0.00    +0.0697  H
BRANCH 67 70
ATOM     70 C33  CHE L   1       5.863  -0.607  -1.046  1.00  0.00    -0.0058  C
ATOM     71 H77  CHE L   1       5.818  -1.578  -1.556  1.00  0.00    +0.0310  H
ATOM     72 H78  CHE L   1       6.449   0.068  -1.680  1.00  0.00    +0.0310  H
BRANCH 70 73
ATOM     73 C34  CHE L   1       6.536  -0.804   0.318  1.00  0.00    +0.0020  C
ATOM     74 H79  CHE L   1       5.945  -1.539   0.879  1.00  0.00    +0.0428  H
ATOM     75 H80  CHE L   1       6.517   0.129   0.897  1.00  0.00    +0.0428  H
BRANCH 73 76
ATOM     76 N35  CHE L   1       7.905  -1.327   0.145  1.00  0.00    -0.3022 NA
ATOM     77 C36  CHE L   1       8.879  -0.266  -0.162  1.00  0.00    -0.0011  C
ATOM     78 C37  CHE L   1       9.339   0.300   1.177  1.00  0.00    -0.0390  C
ATOM     79 C38  CHE L   1       8.977  -0.761   2.207  1.00  0.00    -0.0390  C
ATOM     80 C39  CHE L   1       8.419  -1.920   1.392  1.00  0.00    -0.0011  C
ATOM     81 H81  CHE L   1       9.734  -0.725  -0.675  1.00  0.00    +0.0426  H
ATOM     82 H82  CHE L   1       8.499   0.514  -0.827  1.00  0.00    +0.0426  H
ATOM     83 H83  CHE L   1       8.821   1.237   1.407  1.00  0.00    +0.0278  H
ATOM     84 H84  CHE L   1      10.417   0.500   1.171  1.00  0.00    +0.0278  H
ATOM     85 H85  CHE L   1       9.846  -1.069   2.802  1.00  0.00    +0.0278  H
ATOM     86 H86  CHE L   1       8.216  -0.371   2.896  1.00  0.00    +0.0278  H
ATOM     87 H87  CHE L   1       9.236  -2.611   1.138  1.00  0.00    +0.0426  H
ATOM     88 H88  CHE L   1       7.672  -2.501   1.945  1.00  0.00    +0.0426  H
ENDBRANCH 73 76
ENDBRANCH 70 73
ENDBRANCH 67 70
ENDBRANCH 66 67
ENDBRANCH 10 66
TORSDOF 10
