ROOT
ATOM      1  C3  CHE L   1       4.224  -1.361  -0.306  1.00  0.00    +0.1635  A
ATOM      2  C4  CHE L   1       4.130   0.001   0.001  1.00  0.00    +0.0097  A
ATOM      3  C5  CHE L   1       2.921   0.603   0.320  1.00  0.00    +0.0769  A
ATOM      4  N6  CHE L   1       2.934   1.914   0.616  1.00  0.00    -0.2511 NA
ATOM      5  C7  CHE L   1       1.753   2.470   0.917  1.00  0.00    +0.0471  A
ATOM      6  C8  CHE L   1       0.538   1.802   0.933  1.00  0.00    -0.0025  A
ATOM      7  C9  CHE L   1       0.509   0.447   0.645  1.00  0.00    +0.0497  A
ATOM      8 C17  CHE L   1       1.741  -0.184   0.323  1.00  0.00    +0.0273  A
ATOM      9 C18  CHE L   1       1.842  -1.563   0.032  1.00  0.00    -0.0052  A
ATOM     10 C19  CHE L   1       3.067  -2.155  -0.282  1.00  0.00    +0.1622  A
ATOM     11 C22  CHE L   1      -0.568   2.729   1.324  1.00  0.00    -0.0237  C
ATOM     12 C23  CHE L   1       0.084   4.099   1.090  1.00  0.00    -0.0435  C
ATOM     13 C24  CHE L   1       1.587   3.909   1.315  1.00  0.00    -0.0098  C
ATOM     14 H28  CHE L   1       5.007   0.639   0.004  1.00  0.00    +0.0677  H
ATOM     15 H42  CHE L   1       0.935  -2.157   0.074  1.00  0.00    +0.0662  H
ATOM     16 H46  CHE L   1      -0.824   2.587   2.379  1.00  0.00    +0.0314  H
ATOM     17 H47  CHE L   1      -1.460   2.612   0.703  1.00  0.00    +0.0314  H
ATOM     18 H48  CHE L   1      -0.088   4.406   0.049  1.00  0.00    +0.0272  H
ATOM     19 H49  CHE L   1      -0.341   4.879   1.730  1.00  0.00    +0.0272  H
ATOM     20 H50  CHE L   1       1.851   4.035   2.370  1.00  0.00    +0.0328  H
ATOM     21 H51  CHE L   1       2.183   4.583   0.695  1.00  0.00    +0.0328  H
ENDROOT
BRANCH 1 23
ATOM     22  C1  CHE L   1       6.586  -1.234  -0.648  1.00  0.00    +0.0790  C
ATOM     23  O2  CHE L   1       5.393  -2.005  -0.631  1.00  0.00    -0.4914 OA
ATOM     24 H25  CHE L   1       7.410  -1.901  -0.921  1.00  0.00    +0.0660  H
ATOM     25 H26  CHE L   1       6.536  -0.443  -1.403  1.00  0.00    +0.0660  H
ATOM     26 H27  CHE L   1       6.806  -0.824   0.344  1.00  0.00    +0.0660  H
ENDBRANCH 1 23
BRANCH 7 27
ATOM     27 N10  CHE L   1      -0.723  -0.246   0.579  1.00  0.00    -0.3824  N
ATOM     28 H29  CHE L   1      -1.432   0.218   1.155  1.00  0.00    +0.1597 HD
BRANCH 27 29
ATOM     29 C11  CHE L   1      -1.255  -0.310  -0.796  1.00  0.00    +0.0281  C
ATOM     30 H30  CHE L   1      -0.736  -1.085  -1.369  1.00  0.00    +0.0498  H
ATOM     31 H31  CHE L   1      -1.121   0.647  -1.317  1.00  0.00    +0.0498  H
BRANCH 29 32
ATOM     32 C12  CHE L   1      -2.764  -0.643  -0.741  1.00  0.00    +0.0135  C
ATOM     33 H32  CHE L   1      -2.875  -1.635  -0.292  1.00  0.00    +0.0441  H
ATOM     34 H33  CHE L   1      -3.148  -0.681  -1.766  1.00  0.00    +0.0441  H
BRANCH 32 35
ATOM     35 N13  CHE L   1      -3.487   0.368   0.054  1.00  0.00    -0.3121 NA
ATOM     36 H34  CHE L   1      -3.382   1.275  -0.402  1.00  0.00    +0.1222 HD
BRANCH 35 37
ATOM     37 C14  CHE L   1      -4.920   0.100   0.247  1.00  0.00    +0.0020  C
ATOM     38 C15  CHE L   1      -5.711   0.101  -1.062  1.00  0.00    -0.0499  C
ATOM     39 C16  CHE L   1      -5.182  -1.174   1.051  1.00  0.00    -0.0499  C
ATOM     40 H35  CHE L   1      -5.299   0.935   0.851  1.00  0.00    +0.0455  H
ATOM     41 H36  CHE L   1      -6.787   0.059  -0.857  1.00  0.00    +0.0245  H
ATOM     42 H37  CHE L   1      -5.522   1.015  -1.635  1.00  0.00    +0.0245  H
ATOM     43 H38  CHE L   1      -5.462  -0.758  -1.693  1.00  0.00    +0.0245  H
ATOM     44 H39  CHE L   1      -4.595  -1.182   1.976  1.00  0.00    +0.0245  H
ATOM     45 H40  CHE L   1      -4.942  -2.078   0.483  1.00  0.00    +0.0245  H
ATOM     46 H41  CHE L   1      -6.239  -1.235   1.332  1.00  0.00    +0.0245  H
ENDBRANCH 35 37
ENDBRANCH 32 35
ENDBRANCH 29 32
ENDBRANCH 27 29
ENDBRANCH 7 27
BRANCH 10 47
ATOM     47 O20  CHE L   1       3.235  -3.484  -0.583  1.00  0.00    -0.4914 OA
ATOM     48 C21  CHE L   1       2.108  -4.337  -0.441  1.00  0.00    +0.0790  C
ATOM     49 H43  CHE L   1       2.432  -5.358  -0.662  1.00  0.00    +0.0660  H
ATOM     50 H44  CHE L   1       1.726  -4.324   0.586  1.00  0.00    +0.0660  H
ATOM     51 H45  CHE L   1       1.324  -4.075  -1.159  1.00  0.00    +0.0660  H
ENDBRANCH 10 47
TORSDOF 7
