ROOT
ATOM      1 C11  T71 L   1       2.445  -0.924  -1.789  1.00  0.00    +0.2548  C
ATOM      2 O12  T71 L   1       2.621  -1.823  -2.609  1.00  0.00    -0.2674 OA
ATOM      3 N13  T71 L   1       3.355   0.106  -1.587  1.00  0.00    -0.3339  N
ATOM      4 C14  T71 L   1       4.532   0.176  -2.452  1.00  0.00    +0.0450  C
ATOM      5 C15  T71 L   1       5.151   1.575  -2.420  1.00  0.00    +0.0653  C
ATOM      6 O16  T71 L   1       5.539   2.010  -1.108  1.00  0.00    -0.3763 OA
ATOM      7 C17  T71 L   1       4.820   1.370  -0.044  1.00  0.00    +0.0653  C
ATOM      8 C18  T71 L   1       3.381   0.997  -0.419  1.00  0.00    +0.0450  C
ATOM      9 H34  T71 L   1       4.256  -0.100  -3.475  1.00  0.00    +0.0511  H
ATOM     10 H35  T71 L   1       5.247  -0.566  -2.078  1.00  0.00    +0.0511  H
ATOM     11 H36  T71 L   1       4.439   2.312  -2.809  1.00  0.00    +0.0577  H
ATOM     12 H37  T71 L   1       6.041   1.613  -3.056  1.00  0.00    +0.0577  H
ATOM     13 H38  T71 L   1       5.383   0.475   0.247  1.00  0.00    +0.0577  H
ATOM     14 H39  T71 L   1       4.823   2.051   0.812  1.00  0.00    +0.0577  H
ATOM     15 H40  T71 L   1       2.829   1.900  -0.701  1.00  0.00    +0.0511  H
ATOM     16 H41  T71 L   1       2.884   0.525   0.433  1.00  0.00    +0.0511  H
ENDROOT
BRANCH 1 20
ATOM     17  C7  T71 L   1      -1.159  -1.074   0.534  1.00  0.00    +0.0841  A
ATOM     18  C8  T71 L   1      -0.806   0.094  -0.153  1.00  0.00    -0.0340  A
ATOM     19  C9  T71 L   1       0.363   0.155  -0.914  1.00  0.00    -0.0473  A
ATOM     20 C10  T71 L   1       1.204  -0.957  -0.982  1.00  0.00    +0.0427  A
ATOM     21 C19  T71 L   1       0.860  -2.145  -0.333  1.00  0.00    -0.0056  A
ATOM     22 C20  T71 L   1      -0.313  -2.207   0.424  1.00  0.00    +0.1441  A
ATOM     23 H32  T71 L   1      -1.436   0.976  -0.109  1.00  0.00    +0.0639  H
ATOM     24 H33  T71 L   1       0.601   1.064  -1.459  1.00  0.00    +0.0626  H
ATOM     25 H42  T71 L   1       1.524  -2.997  -0.437  1.00  0.00    +0.0662  H
BRANCH 17 26
ATOM     26  N6  T71 L   1      -2.320  -1.188   1.315  1.00  0.00    -0.3212  N
ATOM     27 H31  T71 L   1      -2.424  -2.086   1.771  1.00  0.00    +0.1689 HD
BRANCH 26 30
ATOM     28  C3  T71 L   1      -4.542   1.653   1.461  1.00  0.00    +0.1506  A
ATOM     29  N4  T71 L   1      -3.479   0.891   1.124  1.00  0.00    -0.1939 NA
ATOM     30  C5  T71 L   1      -3.378  -0.349   1.632  1.00  0.00    +0.2303  A
ATOM     31 N23  T71 L   1      -4.286  -0.875   2.470  1.00  0.00    -0.2191 NA
ATOM     32 C24  T71 L   1      -5.331  -0.095   2.808  1.00  0.00    +0.0532  A
ATOM     33 C25  T71 L   1      -5.511   1.183   2.338  1.00  0.00    +0.1010  A
ATOM     34 CL26 T71 L   1      -6.887   2.099   2.809  1.00  0.00    -0.0782 Cl
ATOM     35 H46  T71 L   1      -6.041  -0.551   3.492  1.00  0.00    +0.0847  H
BRANCH 28 37
ATOM     36  C1  T71 L   1      -3.674   3.306  -0.076  1.00  0.00    +0.0055  C
ATOM     37  N2  T71 L   1      -4.628   2.974   0.968  1.00  0.00    -0.3714  N
ATOM     38 H27  T71 L   1      -2.643   3.250   0.290  1.00  0.00    +0.0450  H
ATOM     39 H28  T71 L   1      -3.791   2.657  -0.950  1.00  0.00    +0.0450  H
ATOM     40 H29  T71 L   1      -3.847   4.337  -0.401  1.00  0.00    +0.0450  H
ATOM     41 H30  T71 L   1      -5.588   3.169   0.695  1.00  0.00    +0.1608 HD
ENDBRANCH 28 37
ENDBRANCH 26 30
ENDBRANCH 17 26
BRANCH 22 42
ATOM     42 O21  T71 L   1      -0.740  -3.319   1.116  1.00  0.00    -0.4930 OA
ATOM     43 C22  T71 L   1       0.000  -4.520   0.929  1.00  0.00    +0.0789  C
ATOM     44 H43  T71 L   1       1.012  -4.424   1.336  1.00  0.00    +0.0660  H
ATOM     45 H44  T71 L   1       0.021  -4.814  -0.126  1.00  0.00    +0.0660  H
ATOM     46 H45  T71 L   1      -0.507  -5.314   1.485  1.00  0.00    +0.0660  H
ENDBRANCH 22 42
ENDBRANCH 1 20
TORSDOF 5
