ROOT
ATOM      1  O1  187 L   1      -0.755   1.235  -1.932  1.00  0.00    -0.2730 OA
ATOM      2  C2  187 L   1      -0.851   0.552  -0.913  1.00  0.00    +0.2239  C
ATOM      3 N10  187 L   1       0.257   0.078  -0.247  1.00  0.00    -0.3416  N
ATOM      4 C11  187 L   1       0.277  -0.737   0.958  1.00  0.00    +0.0218  C
ATOM      5 C12  187 L   1       1.738  -0.760   1.387  1.00  0.00    -0.0253  C
ATOM      6 C13  187 L   1       2.487  -0.629   0.056  1.00  0.00    +0.0223  C
ATOM      7 C19  187 L   1       1.608   0.354  -0.717  1.00  0.00    +0.0295  C
ATOM      8 H26  187 L   1      -0.379  -0.320   1.728  1.00  0.00    +0.0489  H
ATOM      9 H27  187 L   1      -0.075  -1.740   0.693  1.00  0.00    +0.0489  H
ATOM     10 H28  187 L   1       1.941   0.095   2.045  1.00  0.00    +0.0289  H
ATOM     11 H29  187 L   1       1.998  -1.671   1.935  1.00  0.00    +0.0289  H
ATOM     12 H30  187 L   1       2.443  -1.604  -0.451  1.00  0.00    +0.0382  H
ATOM     13 H34  187 L   1       1.676   0.218  -1.801  1.00  0.00    +0.0495  H
ATOM     14 H35  187 L   1       1.831   1.403  -0.485  1.00  0.00    +0.0495  H
ENDROOT
BRANCH 2 15
ATOM     15  C3  187 L   1      -2.193   0.191  -0.307  1.00  0.00    +0.0317  C
ATOM     16 H20  187 L   1      -2.265   0.663   0.680  1.00  0.00    +0.0364  H
ATOM     17 H21  187 L   1      -2.242  -0.896  -0.176  1.00  0.00    +0.0364  H
BRANCH 15 18
ATOM     18  C4  187 L   1      -3.347   0.659  -1.189  1.00  0.00    -0.0014  C
ATOM     19 H22  187 L   1      -3.265   1.738  -1.374  1.00  0.00    +0.0333  H
ATOM     20 H23  187 L   1      -3.292   0.171  -2.169  1.00  0.00    +0.0333  H
BRANCH 18 21
ATOM     21  C5  187 L   1      -4.677   0.357  -0.576  1.00  0.00    +0.0489  A
ATOM     22  C6  187 L   1      -5.646   1.277  -0.216  1.00  0.00    -0.0016  A
ATOM     23  S7  187 L   1      -7.009   0.474   0.444  1.00  0.00    -0.0836  S
ATOM     24  C8  187 L   1      -6.215  -1.025   0.201  1.00  0.00    +0.0650  A
ATOM     25  N9  187 L   1      -5.013  -0.966  -0.328  1.00  0.00    -0.2523 NA
ATOM     26 H24  187 L   1      -5.619   2.353  -0.311  1.00  0.00    +0.0712  H
ATOM     27 H25  187 L   1      -6.681  -1.963   0.471  1.00  0.00    +0.0907  H
ENDBRANCH 18 21
ENDBRANCH 15 18
ENDBRANCH 2 15
BRANCH 6 28
ATOM     28 C14  187 L   1       3.912  -0.210   0.175  1.00  0.00    +0.0676  A
ATOM     29 C15  187 L   1       5.044  -0.841  -0.396  1.00  0.00    -0.0209  A
ATOM     30 C16  187 L   1       6.115  -0.076  -0.005  1.00  0.00    +0.0226  A
ATOM     31 N17  187 L   1       5.598   0.936   0.748  1.00  0.00    -0.2845  N
ATOM     32 N18  187 L   1       4.263   0.877   0.876  1.00  0.00    -0.1786 NA
ATOM     33 H31  187 L   1       5.070  -1.731  -1.009  1.00  0.00    +0.0651  H
ATOM     34 H32  187 L   1       7.175  -0.157  -0.193  1.00  0.00    +0.0824  H
ATOM     35 H33  187 L   1       6.092   1.697   1.203  1.00  0.00    +0.1882 HD
ENDBRANCH 6 28
TORSDOF 4
