ROOT
ATOM      1  O1  SEL L   1      -8.009   1.201  -2.289  1.00  0.00    -0.2725 OA
ATOM      2  C2  SEL L   1      -6.913   1.090  -1.766  1.00  0.00    +0.2296  C
ATOM      3  C3  SEL L   1      -5.585   0.793  -2.474  1.00  0.00    +0.0535  C
ATOM      4  C4  SEL L   1      -4.616   0.777  -1.330  1.00  0.00    -0.0145  A
ATOM      5  C5  SEL L   1      -3.250   0.560  -1.328  1.00  0.00    -0.0483  A
ATOM      6  C6  SEL L   1      -2.576   0.600  -0.097  1.00  0.00    -0.0133  A
ATOM      7 C29  SEL L   1      -3.287   0.853   1.098  1.00  0.00    -0.0519  A
ATOM      8 C30  SEL L   1      -4.668   1.072   1.082  1.00  0.00    -0.0374  A
ATOM      9 C31  SEL L   1      -5.299   1.028  -0.142  1.00  0.00    +0.0454  A
ATOM     10 N32  SEL L   1      -6.645   1.211  -0.407  1.00  0.00    -0.3256  N
ATOM     11 H33  SEL L   1      -5.640  -0.182  -2.963  1.00  0.00    +0.0410  H
ATOM     12 H34  SEL L   1      -5.356   1.596  -3.179  1.00  0.00    +0.0410  H
ATOM     13 H35  SEL L   1      -2.719   0.358  -2.254  1.00  0.00    +0.0627  H
ATOM     14 H53  SEL L   1      -2.760   0.882   2.050  1.00  0.00    +0.0624  H
ATOM     15 H54  SEL L   1      -5.211   1.266   2.000  1.00  0.00    +0.0638  H
ATOM     16 H55  SEL L   1      -7.362   1.405   0.276  1.00  0.00    +0.1686 HD
ENDROOT
BRANCH 6 17
ATOM     17  C7  SEL L   1      -1.144   0.369  -0.044  1.00  0.00    +0.0353  A
ATOM     18  C8  SEL L   1      -0.372  -0.607   0.663  1.00  0.00    +0.1015  A
ATOM     19 N15  SEL L   1       0.945  -0.392   0.499  1.00  0.00    -0.1627 NA
ATOM     20 N16  SEL L   1       1.026   0.666  -0.344  1.00  0.00    -0.1987  N
ATOM     21 C17  SEL L   1       2.259   1.247  -0.791  1.00  0.00    +0.2282  A
ATOM     22 N25  SEL L   1       2.198   2.354  -1.502  1.00  0.00    -0.2207 NA
ATOM     23 C26  SEL L   1       0.962   2.877  -1.805  1.00  0.00    +0.0334  A
ATOM     24 C27  SEL L   1      -0.219   2.360  -1.433  1.00  0.00    -0.0173  A
ATOM     25 C28  SEL L   1      -0.213   1.186  -0.649  1.00  0.00    +0.0803  A
ATOM     26 H51  SEL L   1       0.983   3.786  -2.402  1.00  0.00    +0.0831  H
ATOM     27 H52  SEL L   1      -1.151   2.840  -1.710  1.00  0.00    +0.0654  H
BRANCH 18 28
ATOM     28  C9  SEL L   1      -0.837  -1.720   1.497  1.00  0.00    +0.0027  A
ATOM     29 C10  SEL L   1      -0.139  -2.058   2.666  1.00  0.00    -0.0525  A
ATOM     30 C11  SEL L   1      -0.571  -3.111   3.475  1.00  0.00    -0.0611  A
ATOM     31 C12  SEL L   1      -1.704  -3.841   3.122  1.00  0.00    -0.0617  A
ATOM     32 C13  SEL L   1      -2.401  -3.522   1.958  1.00  0.00    -0.0611  A
ATOM     33 C14  SEL L   1      -1.968  -2.469   1.147  1.00  0.00    -0.0525  A
ATOM     34 H36  SEL L   1       0.749  -1.497   2.953  1.00  0.00    +0.0624  H
ATOM     35 H37  SEL L   1      -0.022  -3.362   4.379  1.00  0.00    +0.0618  H
ATOM     36 H38  SEL L   1      -2.041  -4.662   3.750  1.00  0.00    +0.0618  H
ATOM     37 H39  SEL L   1      -3.280  -4.096   1.677  1.00  0.00    +0.0618  H
ATOM     38 H40  SEL L   1      -2.518  -2.255   0.235  1.00  0.00    +0.0624  H
ENDBRANCH 18 28
BRANCH 21 39
ATOM     39 N18  SEL L   1       3.516   0.694  -0.488  1.00  0.00    -0.3401  N
ATOM     40 C19  SEL L   1       4.592   1.623  -0.119  1.00  0.00    +0.0237  C
ATOM     41 C20  SEL L   1       5.956   1.084  -0.525  1.00  0.00    -0.0090  C
ATOM     42 C21  SEL L   1       6.172  -0.307   0.053  1.00  0.00    +0.0585  C
ATOM     43 O22  SEL L   1       7.419  -0.834  -0.392  1.00  0.00    -0.3917 OA
ATOM     44 C23  SEL L   1       5.057  -1.234  -0.401  1.00  0.00    -0.0090  C
ATOM     45 C24  SEL L   1       3.688  -0.684  -0.014  1.00  0.00    +0.0237  C
ATOM     46 H41  SEL L   1       4.464   2.602  -0.594  1.00  0.00    +0.0489  H
ATOM     47 H42  SEL L   1       4.560   1.792   0.965  1.00  0.00    +0.0489  H
ATOM     48 H43  SEL L   1       6.748   1.761  -0.184  1.00  0.00    +0.0307  H
ATOM     49 H44  SEL L   1       6.039   1.048  -1.619  1.00  0.00    +0.0307  H
ATOM     50 H45  SEL L   1       6.201  -0.265   1.149  1.00  0.00    +0.0594  H
ATOM     51 H46  SEL L   1       8.118  -0.213  -0.124  1.00  0.00    +0.2098 HD
ATOM     52 H47  SEL L   1       5.111  -1.368  -1.490  1.00  0.00    +0.0307  H
ATOM     53 H48  SEL L   1       5.198  -2.233   0.029  1.00  0.00    +0.0307  H
ATOM     54 H49  SEL L   1       2.952  -1.350  -0.477  1.00  0.00    +0.0489  H
ATOM     55 H50  SEL L   1       3.564  -0.721   1.075  1.00  0.00    +0.0489  H
ENDBRANCH 21 39
ENDBRANCH 6 17
TORSDOF 3
