ROOT
ATOM      1  C7  863 L   1       0.528  -0.525  -1.235  1.00  0.00    -0.0024  C
ATOM      2  C8  863 L   1       0.570  -2.068  -1.242  1.00  0.00    -0.0457  C
ATOM      3  C9  863 L   1      -0.725  -2.708  -0.754  1.00  0.00    -0.0398  C
ATOM      4 C10  863 L   1      -1.911  -1.774  -0.939  1.00  0.00    -0.0002  C
ATOM      5 N11  863 L   1      -1.783  -0.542  -0.158  1.00  0.00    -0.2907 NA
ATOM      6 C15  863 L   1      -0.409   0.017  -0.118  1.00  0.00    +0.0570  C
ATOM      7 H28  863 L   1       0.113  -0.217  -2.205  1.00  0.00    +0.0337  H
ATOM      8 H29  863 L   1       1.394  -2.463  -0.638  1.00  0.00    +0.0269  H
ATOM      9 H30  863 L   1       0.774  -2.400  -2.269  1.00  0.00    +0.0269  H
ATOM     10 H31  863 L   1      -0.623  -2.975   0.305  1.00  0.00    +0.0278  H
ATOM     11 H32  863 L   1      -0.895  -3.646  -1.294  1.00  0.00    +0.0278  H
ATOM     12 H33  863 L   1      -2.842  -2.309  -0.728  1.00  0.00    +0.0427  H
ATOM     13 H34  863 L   1      -1.988  -1.501  -2.000  1.00  0.00    +0.0427  H
ATOM     14 H40  863 L   1       0.041  -0.295   0.837  1.00  0.00    +0.0531  H
ENDROOT
BRANCH 1 15
ATOM     15  C6  863 L   1       1.959   0.051  -1.192  1.00  0.00    +0.0230  C
ATOM     16 H26  863 L   1       2.565  -0.406  -1.983  1.00  0.00    +0.0489  H
ATOM     17 H27  863 L   1       1.947   1.127  -1.399  1.00  0.00    +0.0489  H
BRANCH 15 20
ATOM     18  C3  863 L   1       3.679   0.634   0.468  1.00  0.00    +0.2443  C
ATOM     19  O4  863 L   1       4.000   1.673  -0.090  1.00  0.00    -0.2683 OA
ATOM     20  N5  863 L   1       2.660  -0.193   0.058  1.00  0.00    -0.3522  N
ATOM     21 H25  863 L   1       2.600  -1.112   0.472  1.00  0.00    +0.1626 HD
BRANCH 18 23
ATOM     22  C1  863 L   1       5.428   0.784   2.182  1.00  0.00    -0.0936  C
ATOM     23  C2  863 L   1       4.376   0.126   1.679  1.00  0.00    -0.0047  C
ATOM     24 H22  863 L   1       5.940   0.425   3.068  1.00  0.00    +0.0536  H
ATOM     25 H23  863 L   1       5.799   1.696   1.721  1.00  0.00    +0.0536  H
ATOM     26 H24  863 L   1       4.014  -0.778   2.151  1.00  0.00    +0.0666  H
ENDBRANCH 18 23
ENDBRANCH 15 20
ENDBRANCH 1 15
BRANCH 5 27
ATOM     27 C12  863 L   1      -2.461  -0.478   1.159  1.00  0.00    +0.0112  C
ATOM     28 C13  863 L   1      -3.921  -0.819   1.290  1.00  0.00    -0.0359  C
ATOM     29 C14  863 L   1      -2.884  -1.685   1.949  1.00  0.00    -0.0359  C
ATOM     30 H35  863 L   1      -2.168   0.389   1.755  1.00  0.00    +0.0463  H
ATOM     31 H36  863 L   1      -4.452  -1.208   0.431  1.00  0.00    +0.0281  H
ATOM     32 H37  863 L   1      -4.529  -0.182   1.922  1.00  0.00    +0.0281  H
ATOM     33 H38  863 L   1      -2.731  -2.680   1.555  1.00  0.00    +0.0281  H
ATOM     34 H39  863 L   1      -2.795  -1.633   3.029  1.00  0.00    +0.0281  H
ENDBRANCH 5 27
BRANCH 6 35
ATOM     35 C16  863 L   1      -0.470   1.525  -0.122  1.00  0.00    +0.0563  A
ATOM     36 C17  863 L   1       0.230   2.427   0.661  1.00  0.00    -0.0195  A
ATOM     37 C18  863 L   1      -0.190   3.695   0.237  1.00  0.00    +0.0497  A
ATOM     38 N19  863 L   1      -1.102   3.626  -0.731  1.00  0.00    -0.1796 NA
ATOM     39 N20  863 L   1      -1.261   2.302  -0.938  1.00  0.00    -0.2698  N
ATOM     40 C21  863 L   1      -2.216   1.880  -1.937  1.00  0.00    +0.0305  C
ATOM     41 H41  863 L   1       0.963   2.196   1.421  1.00  0.00    +0.0652  H
ATOM     42 H42  863 L   1       0.131   4.667   0.590  1.00  0.00    +0.0848  H
ATOM     43 H43  863 L   1      -1.798   1.056  -2.516  1.00  0.00    +0.0473  H
ATOM     44 H44  863 L   1      -3.137   1.583  -1.430  1.00  0.00    +0.0473  H
ATOM     45 H45  863 L   1      -2.421   2.716  -2.612  1.00  0.00    +0.0473  H
ENDBRANCH 6 35
TORSDOF 5
