ROOT
ATOM      1  O1  192 L   1       3.585  -0.724   2.160  1.00  0.00    -0.2469 OA
ATOM      2  C2  192 L   1       3.471  -0.484   0.960  1.00  0.00    +0.3236  C
ATOM      3  N3  192 L   1       4.530  -0.331   0.100  1.00  0.00    -0.2999  N
ATOM      4  N9  192 L   1       2.231  -0.349   0.372  1.00  0.00    -0.3240  N
ATOM      5 C10  192 L   1       1.913   0.019  -0.996  1.00  0.00    +0.0232  C
ATOM      6 C11  192 L   1       0.422   0.329  -0.976  1.00  0.00    -0.0296  C
ATOM      7 C12  192 L   1      -0.114  -0.595   0.122  1.00  0.00    -0.0089  C
ATOM      8 C20  192 L   1       1.021  -0.543   1.152  1.00  0.00    +0.0269  C
ATOM      9 H21  192 L   1       4.363  -0.221  -0.886  1.00  0.00    +0.1710 HD
ATOM     10 H23  192 L   1       2.511   0.875  -1.324  1.00  0.00    +0.0489  H
ATOM     11 H24  192 L   1       2.135  -0.842  -1.636  1.00  0.00    +0.0489  H
ATOM     12 H25  192 L   1       0.263   1.380  -0.704  1.00  0.00    +0.0286  H
ATOM     13 H26  192 L   1      -0.024   0.156  -1.957  1.00  0.00    +0.0286  H
ATOM     14 H27  192 L   1      -0.181  -1.618  -0.273  1.00  0.00    +0.0331  H
ATOM     15 H40  192 L   1       0.925   0.311   1.834  1.00  0.00    +0.0492  H
ATOM     16 H41  192 L   1       1.088  -1.461   1.746  1.00  0.00    +0.0492  H
ENDROOT
BRANCH 3 17
ATOM     17  C4  192 L   1       5.837  -0.408   0.517  1.00  0.00    +0.1215  A
ATOM     18  C5  192 L   1       6.472  -0.586   1.727  1.00  0.00    +0.0822  A
ATOM     19  N6  192 L   1       7.860  -0.593   1.660  1.00  0.00    -0.1475 NA
ATOM     20  N7  192 L   1       8.290  -0.424   0.419  1.00  0.00    -0.1085 NA
ATOM     21  S8  192 L   1       7.040  -0.255  -0.683  1.00  0.00    +0.0541  S
ATOM     22 H22  192 L   1       5.995  -0.715   2.689  1.00  0.00    +0.0875  H
ENDBRANCH 3 17
BRANCH 7 23
ATOM     23 C13  192 L   1      -1.453  -0.194   0.762  1.00  0.00    +0.0034  C
ATOM     24 H28  192 L   1      -1.516  -0.757   1.703  1.00  0.00    +0.0430  H
ATOM     25 H29  192 L   1      -1.442   0.868   1.040  1.00  0.00    +0.0430  H
BRANCH 23 26
ATOM     26 N14  192 L   1      -2.652  -0.506  -0.035  1.00  0.00    -0.3020 NA
ATOM     27 C15  192 L   1      -3.875  -0.443   0.787  1.00  0.00    -0.0011  C
ATOM     28 C16  192 L   1      -4.610   0.892   0.685  1.00  0.00    -0.0402  C
ATOM     29 C17  192 L   1      -5.053   1.173  -0.750  1.00  0.00    -0.0507  C
ATOM     30 C18  192 L   1      -4.188   0.443  -1.774  1.00  0.00    -0.0402  C
ATOM     31 C19  192 L   1      -2.752   0.283  -1.273  1.00  0.00    -0.0011  C
ATOM     32 H30  192 L   1      -3.669  -0.670   1.840  1.00  0.00    +0.0426  H
ATOM     33 H31  192 L   1      -4.547  -1.243   0.450  1.00  0.00    +0.0426  H
ATOM     34 H32  192 L   1      -5.483   0.896   1.347  1.00  0.00    +0.0278  H
ATOM     35 H33  192 L   1      -3.953   1.700   1.032  1.00  0.00    +0.0278  H
ATOM     36 H34  192 L   1      -5.018   2.255  -0.928  1.00  0.00    +0.0266  H
ATOM     37 H35  192 L   1      -6.099   0.873  -0.887  1.00  0.00    +0.0266  H
ATOM     38 H36  192 L   1      -4.200   0.990  -2.724  1.00  0.00    +0.0278  H
ATOM     39 H37  192 L   1      -4.616  -0.546  -1.980  1.00  0.00    +0.0278  H
ATOM     40 H38  192 L   1      -2.330   1.286  -1.135  1.00  0.00    +0.0426  H
ATOM     41 H39  192 L   1      -2.178  -0.220  -2.057  1.00  0.00    +0.0426  H
ENDBRANCH 23 26
ENDBRANCH 7 23
TORSDOF 3
