ROOT
ATOM      1  C7  EUB L   1       0.510   0.043  -0.168  1.00  0.00    -0.0334  A
ATOM      2  C8  EUB L   1       0.439   1.039   0.823  1.00  0.00    -0.0556  A
ATOM      3  C9  EUB L   1       1.577   1.728   1.259  1.00  0.00    -0.0360  A
ATOM      4 C10  EUB L   1       2.793   1.384   0.666  1.00  0.00    +0.0660  A
ATOM      5 N11  EUB L   1       4.065   1.853   0.859  1.00  0.00    -0.2767  N
ATOM      6 N12  EUB L   1       4.994   1.266   0.088  1.00  0.00    -0.1780 NA
ATOM      7 C13  EUB L   1       4.296   0.380  -0.634  1.00  0.00    +0.0674  A
ATOM      8 C14  EUB L   1       4.980  -0.486  -1.625  1.00  0.00    -0.0200  C
ATOM      9 C15  EUB L   1       2.911   0.408  -0.315  1.00  0.00    +0.0227  A
ATOM     10 C16  EUB L   1       1.758  -0.276  -0.742  1.00  0.00    -0.0467  A
ATOM     11 H27  EUB L   1      -0.520   1.294   1.275  1.00  0.00    +0.0621  H
ATOM     12 H28  EUB L   1       1.509   2.494   2.024  1.00  0.00    +0.0639  H
ATOM     13 H29  EUB L   1       4.364   2.575   1.504  1.00  0.00    +0.1889 HD
ATOM     14 H30  EUB L   1       6.056  -0.289  -1.659  1.00  0.00    +0.0293  H
ATOM     15 H31  EUB L   1       4.837  -1.541  -1.373  1.00  0.00    +0.0293  H
ATOM     16 H32  EUB L   1       4.573  -0.312  -2.627  1.00  0.00    +0.0293  H
ATOM     17 H33  EUB L   1       1.844  -1.041  -1.510  1.00  0.00    +0.0628  H
ENDROOT
BRANCH 1 21
ATOM     18  C1  EUB L   1      -4.010   1.384  -1.343  1.00  0.00    -0.0235  C
ATOM     19  C2  EUB L   1      -2.967   0.455  -0.769  1.00  0.00    +0.0274  C
ATOM     20  C3  EUB L   1      -1.738   0.257  -1.301  1.00  0.00    +0.0605  C
ATOM     21  C6  EUB L   1      -0.749  -0.700  -0.630  1.00  0.00    +0.0570  C
ATOM     22 C17  EUB L   1      -1.357  -1.519   0.511  1.00  0.00    +0.0605  C
ATOM     23 C20  EUB L   1      -2.603  -1.243   0.963  1.00  0.00    +0.0274  C
ATOM     24 C21  EUB L   1      -3.288  -1.980   2.089  1.00  0.00    -0.0235  C
ATOM     25 N22  EUB L   1      -3.345  -0.232   0.374  1.00  0.00    -0.3606  N
ATOM     26 H23  EUB L   1      -4.901   0.816  -1.630  1.00  0.00    +0.0292  H
ATOM     27 H24  EUB L   1      -4.303   2.126  -0.592  1.00  0.00    +0.0292  H
ATOM     28 H25  EUB L   1      -3.670   1.933  -2.226  1.00  0.00    +0.0292  H
ATOM     29 H26  EUB L   1      -0.459  -1.428  -1.405  1.00  0.00    +0.0461  H
ATOM     30 H34  EUB L   1      -4.197  -2.467   1.720  1.00  0.00    +0.0292  H
ATOM     31 H35  EUB L   1      -3.573  -1.275   2.878  1.00  0.00    +0.0292  H
ATOM     32 H36  EUB L   1      -2.665  -2.750   2.552  1.00  0.00    +0.0292  H
ATOM     33 H37  EUB L   1      -4.304  -0.111   0.695  1.00  0.00    +0.1653 HD
BRANCH 20 34
ATOM     34  C4  EUB L   1      -1.326   0.892  -2.511  1.00  0.00    +0.0975  C
ATOM     35  N5  EUB L   1      -0.999   1.390  -3.506  1.00  0.00    -0.1911 NA
ENDBRANCH 20 34
BRANCH 22 36
ATOM     36 C18  EUB L   1      -0.579  -2.591   1.042  1.00  0.00    +0.0975  C
ATOM     37 N19  EUB L   1       0.045  -3.475   1.458  1.00  0.00    -0.1911 NA
ENDBRANCH 22 36
ENDBRANCH 1 21
TORSDOF 3
