ROOT
ATOM      1  C7  EUB L   1      -3.583  -0.139  -0.020  1.00  0.00    +0.0238  A
ATOM      2  C8  EUB L   1      -4.586  -0.986  -0.490  1.00  0.00    +0.0393  A
ATOM      3  N9  EUB L   1      -5.920  -0.764  -0.344  1.00  0.00    -0.2345 NA
ATOM      4 C10  EUB L   1      -6.284   0.348   0.313  1.00  0.00    +0.1671  A
ATOM      5 N11  EUB L   1      -7.654   0.548   0.480  1.00  0.00    -0.3807  N
ATOM      6 C12  EUB L   1      -5.356   1.274   0.793  1.00  0.00    +0.1722  A
ATOM      7 C18  EUB L   1      -3.993   1.019   0.644  1.00  0.00    -0.0053  A
ATOM      8 H38  EUB L   1      -4.339  -1.906  -1.016  1.00  0.00    +0.0837  H
ATOM      9 H39  EUB L   1      -8.120  -0.276   0.105  1.00  0.00    +0.1574 HD
ATOM     10 H40  EUB L   1      -7.883   0.702   1.458  1.00  0.00    +0.1574 HD
ATOM     11 H41  EUB L   1      -3.269   1.712   1.062  1.00  0.00    +0.0662  H
ENDROOT
BRANCH 1 14
ATOM     12  N4  EUB L   1      -0.434  -1.681  -0.459  1.00  0.00    -0.2649  N
ATOM     13  N5  EUB L   1      -1.781  -1.739  -0.414  1.00  0.00    -0.1707 NA
ATOM     14  C6  EUB L   1      -2.173  -0.471  -0.193  1.00  0.00    +0.0946  A
ATOM     15 C19  EUB L   1      -1.049   0.403  -0.155  1.00  0.00    -0.0127  A
ATOM     16 C20  EUB L   1       0.047  -0.408  -0.327  1.00  0.00    +0.0438  A
ATOM     17 H42  EUB L   1      -1.048   1.477  -0.023  1.00  0.00    +0.0657  H
BRANCH 12 19
ATOM     18  C1  EUB L   1       0.323  -3.315  -2.135  1.00  0.00    -0.0429  C
ATOM     19  C2  EUB L   1       0.341  -2.901  -0.663  1.00  0.00    +0.0474  C
ATOM     20  C3  EUB L   1      -0.126  -4.041   0.246  1.00  0.00    -0.0429  C
ATOM     21 H31  EUB L   1       0.748  -2.520  -2.767  1.00  0.00    +0.0250  H
ATOM     22 H32  EUB L   1      -0.697  -3.508  -2.494  1.00  0.00    +0.0250  H
ATOM     23 H33  EUB L   1       0.913  -4.223  -2.291  1.00  0.00    +0.0250  H
ATOM     24 H34  EUB L   1       1.377  -2.668  -0.383  1.00  0.00    +0.0539  H
ATOM     25 H35  EUB L   1       0.535  -4.910   0.145  1.00  0.00    +0.0250  H
ATOM     26 H36  EUB L   1      -0.115  -3.730   1.297  1.00  0.00    +0.0250  H
ATOM     27 H37  EUB L   1      -1.145  -4.365   0.003  1.00  0.00    +0.0250  H
ENDBRANCH 12 19
BRANCH 16 28
ATOM     28 C21  EUB L   1       1.533   0.030  -0.391  1.00  0.00    +0.0097  C
ATOM     29 C22  EUB L   1       1.997   1.302   0.281  1.00  0.00    -0.0151  C
ATOM     30 C23  EUB L   1       3.285   1.962  -0.104  1.00  0.00    +0.0031  C
ATOM     31 N24  EUB L   1       4.252   0.856  -0.081  1.00  0.00    -0.2945 NA
ATOM     32 C29  EUB L   1       3.821  -0.138   0.917  1.00  0.00    +0.0031  C
ATOM     33 C30  EUB L   1       2.327  -0.005   0.898  1.00  0.00    -0.0151  C
ATOM     34 H43  EUB L   1       2.039  -0.259  -1.307  1.00  0.00    +0.0370  H
ATOM     35 H44  EUB L   1       1.292   1.960   0.764  1.00  0.00    +0.0323  H
ATOM     36 H45  EUB L   1       3.222   2.406  -1.096  1.00  0.00    +0.0430  H
ATOM     37 H46  EUB L   1       3.528   2.738   0.624  1.00  0.00    +0.0430  H
ATOM     38 H52  EUB L   1       4.118  -1.153   0.631  1.00  0.00    +0.0430  H
ATOM     39 H53  EUB L   1       4.173   0.072   1.932  1.00  0.00    +0.0430  H
ATOM     40 H54  EUB L   1       1.846  -0.307   1.820  1.00  0.00    +0.0323  H
BRANCH 31 41
ATOM     41 C25  EUB L   1       5.640   1.349  -0.014  1.00  0.00    +0.0571  C
ATOM     42 C26  EUB L   1       6.657   0.215   0.169  1.00  0.00    +0.0654  C
ATOM     43 O27  EUB L   1       6.801   0.526   1.582  1.00  0.00    -0.3765 OA
ATOM     44 C28  EUB L   1       6.099   1.780   1.384  1.00  0.00    +0.0654  C
ATOM     45 H47  EUB L   1       5.903   2.049  -0.814  1.00  0.00    +0.0508  H
ATOM     46 H48  EUB L   1       6.324  -0.814   0.002  1.00  0.00    +0.0576  H
ATOM     47 H49  EUB L   1       7.606   0.367  -0.357  1.00  0.00    +0.0576  H
ATOM     48 H50  EUB L   1       6.804   2.619   1.397  1.00  0.00    +0.0576  H
ATOM     49 H51  EUB L   1       5.339   1.955   2.147  1.00  0.00    +0.0576  H
ENDBRANCH 31 41
ENDBRANCH 16 28
ENDBRANCH 1 14
BRANCH 6 50
ATOM     50 O13  EUB L   1      -5.772   2.379   1.488  1.00  0.00    -0.4020 OA
BRANCH 50 51
ATOM     51 C14  EUB L   1      -5.869   3.501   0.619  1.00  0.00    +0.5754  C
ATOM     52 F15  EUB L   1      -6.398   4.531   1.317  1.00  0.00    -0.1328  F
ATOM     53 F16  EUB L   1      -6.654   3.267  -0.451  1.00  0.00    -0.1328  F
ATOM     54 F17  EUB L   1      -4.643   3.878   0.193  1.00  0.00    -0.1328  F
ENDBRANCH 50 51
ENDBRANCH 6 50
TORSDOF 6
