ROOT
ATOM      1  C3  MCU L   1      -3.614  -2.362  -0.274  1.00  0.00    +0.1618  A
ATOM      2  C4  MCU L   1      -2.585  -3.219  -0.672  1.00  0.00    -0.0114  A
ATOM      3  C5  MCU L   1      -2.052  -3.151  -1.970  1.00  0.00    -0.0246  A
ATOM      4  C6  MCU L   1      -2.566  -2.210  -2.871  1.00  0.00    -0.0532  A
ATOM      5  C7  MCU L   1      -3.594  -1.350  -2.487  1.00  0.00    -0.0160  A
ATOM      6  C8  MCU L   1      -4.101  -1.418  -1.189  1.00  0.00    +0.1625  A
ATOM      7  O9  MCU L   1      -5.118  -0.579  -0.807  1.00  0.00    -0.4813 OA
ATOM      8 C10  MCU L   1      -4.675   0.763  -0.581  1.00  0.00    +0.1395  C
ATOM      9 C11  MCU L   1      -5.881   1.623  -0.180  1.00  0.00    +0.0605  C
ATOM     10 N12  MCU L   1      -5.322   2.702   0.616  1.00  0.00    -0.3326  N
ATOM     11 C13  MCU L   1      -5.933   3.876   0.993  1.00  0.00    +0.2548  C
ATOM     12 O14  MCU L   1      -5.381   4.771   1.625  1.00  0.00    -0.2674 OA
ATOM     13 C21  MCU L   1      -3.963   2.402   1.033  1.00  0.00    +0.0454  C
ATOM     14 C22  MCU L   1      -3.736   0.941   0.635  1.00  0.00    +0.0860  C
ATOM     15 N23  MCU L   1      -2.336   0.682   0.317  1.00  0.00    -0.3440  N
ATOM     16 C24  MCU L   1      -1.456   0.240   1.276  1.00  0.00    +0.2525  C
ATOM     17 O25  MCU L   1      -1.719   0.116   2.464  1.00  0.00    -0.2676 OA
ATOM     18 C26  MCU L   1      -0.122  -0.130   0.756  1.00  0.00    +0.0427  A
ATOM     19 C27  MCU L   1       0.599   0.768  -0.037  1.00  0.00    -0.0457  A
ATOM     20 C28  MCU L   1       1.869   0.421  -0.512  1.00  0.00    -0.0156  A
ATOM     21 C29  MCU L   1       2.413  -0.832  -0.224  1.00  0.00    +0.1621  A
ATOM     22 C42  MCU L   1       1.655  -1.736   0.547  1.00  0.00    +0.1633  A
ATOM     23 C43  MCU L   1       0.410  -1.378   1.066  1.00  0.00    -0.0040  A
ATOM     24 O44  MCU L   1       2.124  -2.979   0.899  1.00  0.00    -0.4789 OA
ATOM     25 C45  MCU L   1       2.164  -3.877  -0.206  1.00  0.00    +0.1674  C
ATOM     26 C46  MCU L   1       0.791  -4.381  -0.664  1.00  0.00    +0.2588  C
ATOM     27 O47  MCU L   1       0.173  -5.253  -0.060  1.00  0.00    -0.2695 OA
ATOM     28 N48  MCU L   1       0.314  -3.764  -1.807  1.00  0.00    -0.3492  N
ATOM     29 C49  MCU L   1      -0.964  -4.110  -2.385  1.00  0.00    +0.0436  C
ATOM     30 H53  MCU L   1      -2.187  -3.968   0.006  1.00  0.00    +0.0659  H
ATOM     31 H54  MCU L   1      -2.188  -2.158  -3.889  1.00  0.00    +0.0622  H
ATOM     32 H55  MCU L   1      -4.012  -0.650  -3.202  1.00  0.00    +0.0655  H
ATOM     33 H56  MCU L   1      -4.225   1.186  -1.492  1.00  0.00    +0.0772  H
ATOM     34 H57  MCU L   1      -6.593   1.067   0.437  1.00  0.00    +0.0526  H
ATOM     35 H58  MCU L   1      -6.410   2.010  -1.054  1.00  0.00    +0.0526  H
ATOM     36 H63  MCU L   1      -3.841   2.568   2.109  1.00  0.00    +0.0510  H
ATOM     37 H64  MCU L   1      -3.290   3.087   0.501  1.00  0.00    +0.0510  H
ATOM     38 H65  MCU L   1      -4.048   0.280   1.453  1.00  0.00    +0.0577  H
ATOM     39 H66  MCU L   1      -2.074   0.572  -0.656  1.00  0.00    +0.1631 HD
ATOM     40 H67  MCU L   1       0.201   1.761  -0.248  1.00  0.00    +0.0626  H
ATOM     41 H68  MCU L   1       2.411   1.184  -1.057  1.00  0.00    +0.0655  H
ATOM     42 H84  MCU L   1      -0.139  -2.073   1.695  1.00  0.00    +0.0663  H
ATOM     43 H85  MCU L   1       2.717  -3.466  -1.060  1.00  0.00    +0.0797  H
ATOM     44 H86  MCU L   1       2.734  -4.759   0.114  1.00  0.00    +0.0797  H
ATOM     45 H87  MCU L   1       0.755  -2.907  -2.112  1.00  0.00    +0.1627 HD
ATOM     46 H88  MCU L   1      -0.833  -4.085  -3.472  1.00  0.00    +0.0536  H
ATOM     47 H89  MCU L   1      -1.243  -5.137  -2.119  1.00  0.00    +0.0536  H
ENDROOT
BRANCH 1 49
ATOM     48  C1  MCU L   1      -3.571  -3.140   1.978  1.00  0.00    +0.0790  C
ATOM     49  O2  MCU L   1      -4.193  -2.354   0.967  1.00  0.00    -0.4914 OA
ATOM     50 H50  MCU L   1      -3.678  -4.210   1.763  1.00  0.00    +0.0660  H
ATOM     51 H51  MCU L   1      -4.082  -2.943   2.926  1.00  0.00    +0.0660  H
ATOM     52 H52  MCU L   1      -2.518  -2.869   2.101  1.00  0.00    +0.0660  H
ENDBRANCH 1 49
BRANCH 11 53
ATOM     53 C15  MCU L   1      -7.339   4.062   0.602  1.00  0.00    +0.0420  A
ATOM     54 C16  MCU L   1      -8.347   3.519   1.393  1.00  0.00    -0.0313  A
ATOM     55 C17  MCU L   1      -9.650   3.741   0.991  1.00  0.00    +0.0283  A
ATOM     56 N18  MCU L   1      -9.984   4.444  -0.115  1.00  0.00    -0.2632 NA
ATOM     57 C19  MCU L   1      -8.973   4.974  -0.843  1.00  0.00    +0.0283  A
ATOM     58 C20  MCU L   1      -7.638   4.814  -0.528  1.00  0.00    -0.0313  A
ATOM     59 H59  MCU L   1      -8.126   2.954   2.291  1.00  0.00    +0.0640  H
ATOM     60 H60  MCU L   1     -10.488   3.355   1.566  1.00  0.00    +0.0830  H
ATOM     61 H61  MCU L   1      -9.283   5.546  -1.712  1.00  0.00    +0.0830  H
ATOM     62 H62  MCU L   1      -6.860   5.262  -1.134  1.00  0.00    +0.0640  H
ENDBRANCH 11 53
BRANCH 21 63
ATOM     63 O30  MCU L   1       3.665  -1.253  -0.566  1.00  0.00    -0.4857 OA
BRANCH 63 64
ATOM     64 C31  MCU L   1       4.473  -0.520  -1.485  1.00  0.00    +0.1180  C
ATOM     65 H69  MCU L   1       4.085   0.453  -1.794  1.00  0.00    +0.0723  H
ATOM     66 H70  MCU L   1       4.523  -1.119  -2.402  1.00  0.00    +0.0723  H
BRANCH 64 67
ATOM     67 C32  MCU L   1       5.896  -0.351  -0.918  1.00  0.00    +0.1151  C
ATOM     68 O33  MCU L   1       6.789  -0.081  -2.008  1.00  0.00    -0.3858 OA
ATOM     69 H71  MCU L   1       6.191  -1.305  -0.467  1.00  0.00    +0.0653  H
ATOM     70 H72  MCU L   1       6.571   0.797  -2.368  1.00  0.00    +0.2100 HD
BRANCH 67 71
ATOM     71 C34  MCU L   1       6.005   0.765   0.158  1.00  0.00    +0.0878  C
ATOM     72 O35  MCU L   1       4.873   0.745   1.033  1.00  0.00    -0.3888 OA
ATOM     73 H73  MCU L   1       5.971   1.728  -0.366  1.00  0.00    +0.0623  H
ATOM     74 H74  MCU L   1       4.710  -0.179   1.309  1.00  0.00    +0.2099 HD
BRANCH 71 75
ATOM     75 C36  MCU L   1       7.285   0.725   1.045  1.00  0.00    -0.0029  C
ATOM     76 H75  MCU L   1       7.204  -0.183   1.660  1.00  0.00    +0.0335  H
BRANCH 75 77
ATOM     77 C37  MCU L   1       7.284   1.893   2.068  1.00  0.00    -0.0040  C
ATOM     78 S38  MCU L   1       7.450   3.553   1.328  1.00  0.00    -0.1779 SA
ATOM     79 H76  MCU L   1       8.119   1.765   2.769  1.00  0.00    +0.0377  H
ATOM     80 H77  MCU L   1       6.372   1.879   2.672  1.00  0.00    +0.0377  H
ATOM     81 H78  MCU L   1       7.411   4.239   2.479  1.00  0.00    +0.1016 HD
ENDBRANCH 75 77
BRANCH 75 82
ATOM     82 C39  MCU L   1       8.627   0.698   0.272  1.00  0.00    -0.0382  C
ATOM     83 H79  MCU L   1       9.396   1.238   0.839  1.00  0.00    +0.0277  H
ATOM     84 H80  MCU L   1       8.518   1.256  -0.664  1.00  0.00    +0.0277  H
BRANCH 82 85
ATOM     85 C40  MCU L   1       9.191  -0.690  -0.043  1.00  0.00    -0.0090  C
ATOM     86 S41  MCU L   1       9.695  -1.592   1.451  1.00  0.00    -0.1782 SA
ATOM     87 H81  MCU L   1       8.480  -1.311  -0.586  1.00  0.00    +0.0374  H
ATOM     88 H82  MCU L   1      10.079  -0.585  -0.677  1.00  0.00    +0.0374  H
ATOM     89 H83  MCU L   1      10.737  -0.809   1.757  1.00  0.00    +0.1016 HD
ENDBRANCH 82 85
ENDBRANCH 75 82
ENDBRANCH 71 75
ENDBRANCH 67 71
ENDBRANCH 64 67
ENDBRANCH 63 64
ENDBRANCH 21 63
TORSDOF 10
