ROOT
ATOM      1  C5  MCU L   1      -4.724  -1.358  -0.296  1.00  0.00    +0.0210  A
ATOM      2  C6  MCU L   1      -5.771  -1.739  -1.048  1.00  0.00    -0.0515  A
ATOM      3  C7  MCU L   1      -5.714  -1.690  -2.483  1.00  0.00    -0.0446  A
ATOM      4  C8  MCU L   1      -4.598  -1.275  -3.089  1.00  0.00    +0.0146  A
ATOM      5  N9  MCU L   1      -3.477  -0.879  -2.368  1.00  0.00    -0.2673  N
ATOM      6 C10  MCU L   1      -2.351  -0.458  -3.053  1.00  0.00    +0.2676  A
ATOM      7 O11  MCU L   1      -2.265  -0.404  -4.281  1.00  0.00    -0.2665 OA
ATOM      8 C12  MCU L   1      -1.185  -0.058  -2.217  1.00  0.00    +0.0837  A
ATOM      9 C13  MCU L   1       0.058   0.325  -2.861  1.00  0.00    -0.0249  A
ATOM     10 C14  MCU L   1       1.144   0.731  -2.182  1.00  0.00    +0.0951  A
ATOM     11 C17  MCU L   1       1.011   0.795  -0.665  1.00  0.00    +0.1566  A
ATOM     12 N18  MCU L   1       1.899   1.295   0.161  1.00  0.00    -0.1898 NA
ATOM     13 C19  MCU L   1       2.948   2.047  -0.295  1.00  0.00    +0.2794  C
ATOM     14 O20  MCU L   1       2.798   3.052  -0.978  1.00  0.00    -0.2652 OA
ATOM     15 N30  MCU L   1      -0.172   0.266  -0.089  1.00  0.00    -0.3067  N
ATOM     16 C35  MCU L   1      -1.289  -0.115  -0.873  1.00  0.00    +0.1499  A
ATOM     17 N36  MCU L   1      -2.454  -0.523  -0.272  1.00  0.00    -0.2109 NA
ATOM     18 C37  MCU L   1      -3.471  -0.892  -0.982  1.00  0.00    +0.1479  A
ATOM     19 H45  MCU L   1      -6.691  -2.086  -0.587  1.00  0.00    +0.0623  H
ATOM     20 H46  MCU L   1      -6.586  -1.995  -3.053  1.00  0.00    +0.0632  H
ATOM     21 H47  MCU L   1      -4.532  -1.232  -4.173  1.00  0.00    +0.0814  H
ATOM     22 H48  MCU L   1       0.100   0.213  -3.944  1.00  0.00    +0.0640  H
ENDROOT
BRANCH 1 23
ATOM     23  C4  MCU L   1      -4.736  -1.426   1.204  1.00  0.00    +0.0761  C
ATOM     24 H43  MCU L   1      -3.738  -1.459   1.655  1.00  0.00    +0.0611  H
ATOM     25 H44  MCU L   1      -5.226  -2.358   1.509  1.00  0.00    +0.0611  H
BRANCH 23 26
ATOM     26  O3  MCU L   1      -5.514  -0.361   1.756  1.00  0.00    -0.3753 OA
BRANCH 26 28
ATOM     27  C1  MCU L   1      -5.664   1.880   2.557  1.00  0.00    -0.0416  C
ATOM     28  C2  MCU L   1      -4.774   0.851   1.887  1.00  0.00    +0.0453  C
ATOM     29 H38  MCU L   1      -5.988   1.527   3.542  1.00  0.00    +0.0252  H
ATOM     30 H39  MCU L   1      -5.137   2.831   2.679  1.00  0.00    +0.0252  H
ATOM     31 H40  MCU L   1      -6.569   2.051   1.965  1.00  0.00    +0.0252  H
ATOM     32 H41  MCU L   1      -4.472   1.218   0.901  1.00  0.00    +0.0557  H
ATOM     33 H42  MCU L   1      -3.882   0.681   2.499  1.00  0.00    +0.0557  H
ENDBRANCH 26 28
ENDBRANCH 23 26
ENDBRANCH 1 23
BRANCH 10 34
ATOM     34 C15  MCU L   1       2.371   0.907  -2.879  1.00  0.00    +0.1028  C
ATOM     35 N16  MCU L   1       3.368   0.981  -3.468  1.00  0.00    -0.1908 NA
ENDBRANCH 10 34
BRANCH 13 36
ATOM     36 C21  MCU L   1       4.315   1.619   0.125  1.00  0.00    +0.0450  A
ATOM     37 C22  MCU L   1       4.499   0.581   1.066  1.00  0.00    -0.0457  A
ATOM     38 C23  MCU L   1       5.785   0.183   1.447  1.00  0.00    -0.0154  A
ATOM     39 C24  MCU L   1       6.854   0.836   0.872  1.00  0.00    +0.1663  A
ATOM     40 C25  MCU L   1       6.679   1.848  -0.043  1.00  0.00    +0.1670  A
ATOM     41 C26  MCU L   1       5.426   2.266  -0.437  1.00  0.00    -0.0038  A
ATOM     42 O27  MCU L   1       7.861   2.355  -0.484  1.00  0.00    -0.4526 OA
ATOM     43 C28  MCU L   1       8.800   1.536   0.243  1.00  0.00    +0.2332  C
ATOM     44 O29  MCU L   1       8.166   0.580   1.120  1.00  0.00    -0.4526 OA
ATOM     45 H49  MCU L   1       3.642   0.083   1.511  1.00  0.00    +0.0626  H
ATOM     46 H50  MCU L   1       5.940  -0.612   2.168  1.00  0.00    +0.0655  H
ATOM     47 H51  MCU L   1       5.312   3.062  -1.167  1.00  0.00    +0.0663  H
ATOM     48 H52  MCU L   1       9.444   2.188   0.843  1.00  0.00    +0.1166  H
ATOM     49 H53  MCU L   1       9.422   0.991  -0.476  1.00  0.00    +0.1166  H
ENDBRANCH 13 36
BRANCH 15 50
ATOM     50 C31  MCU L   1      -0.260   0.159   1.388  1.00  0.00    +0.0500  C
ATOM     51 H54  MCU L   1      -1.301   0.123   1.727  1.00  0.00    +0.0515  H
ATOM     52 H55  MCU L   1       0.162   1.059   1.852  1.00  0.00    +0.0515  H
BRANCH 50 53
ATOM     53 C32  MCU L   1       0.485  -1.081   1.900  1.00  0.00    +0.0653  C
ATOM     54 H56  MCU L   1       0.579  -1.011   2.990  1.00  0.00    +0.0577  H
ATOM     55 H57  MCU L   1       1.487  -1.146   1.465  1.00  0.00    +0.0577  H
BRANCH 53 56
ATOM     56 O33  MCU L   1      -0.246  -2.271   1.584  1.00  0.00    -0.3812 OA
ATOM     57 C34  MCU L   1       0.434  -3.438   2.025  1.00  0.00    +0.0365  C
ATOM     58 H58  MCU L   1       0.566  -3.417   3.111  1.00  0.00    +0.0523  H
ATOM     59 H59  MCU L   1      -0.172  -4.309   1.763  1.00  0.00    +0.0523  H
ATOM     60 H60  MCU L   1       1.405  -3.526   1.529  1.00  0.00    +0.0523  H
ENDBRANCH 53 56
ENDBRANCH 50 53
ENDBRANCH 15 50
TORSDOF 8
