ROOT
ATOM      1 C23  WH0 L   1      -0.330   0.492  -1.680  1.00  0.00    +0.1689  A
ATOM      2 N24  WH0 L   1      -0.106   0.858  -2.959  1.00  0.00    -0.1289 NA
ATOM      3 N25  WH0 L   1      -0.859   0.079  -3.725  1.00  0.00    -0.1321 NA
ATOM      4 C26  WH0 L   1      -1.532  -0.743  -2.897  1.00  0.00    +0.1540  A
ATOM      5 N27  WH0 L   1      -1.228  -0.512  -1.613  1.00  0.00    -0.2971  N
ATOM      6 C28  WH0 L   1      -1.917  -1.093  -0.461  1.00  0.00    +0.1160  C
ATOM      7 C33  WH0 L   1      -2.493  -2.425  -0.871  1.00  0.00    +0.2469  C
ATOM      8 O34  WH0 L   1      -2.584  -3.349  -0.016  1.00  0.00    -0.2707 OA
ATOM      9 N35  WH0 L   1      -2.952  -2.637  -2.227  1.00  0.00    -0.3335  N
ATOM     10 C38  WH0 L   1      -2.590  -1.714  -3.320  1.00  0.00    +0.0811  C
ATOM     11 H58  WH0 L   1      -1.182  -1.252   0.352  1.00  0.00    +0.0627  H
ATOM     12 H73  WH0 L   1      -3.493  -1.148  -3.634  1.00  0.00    +0.0569  H
ATOM     13 H74  WH0 L   1      -2.208  -2.295  -4.188  1.00  0.00    +0.0569  H
ENDROOT
BRANCH 1 19
ATOM     14 C11  WH0 L   1       1.046   0.538   0.430  1.00  0.00    -0.0294  A
ATOM     15 C12  WH0 L   1       1.451   1.218   1.585  1.00  0.00    -0.0122  A
ATOM     16 C13  WH0 L   1       1.109   2.564   1.801  1.00  0.00    +0.1655  A
ATOM     17 C16  WH0 L   1       0.343   3.250   0.826  1.00  0.00    +0.2042  A
ATOM     18 C19  WH0 L   1      -0.119   2.552  -0.310  1.00  0.00    +0.1761  A
ATOM     19 C22  WH0 L   1       0.228   1.203  -0.510  1.00  0.00    +0.0679  A
ATOM     20 H48  WH0 L   1       2.070   0.693   2.300  1.00  0.00    +0.0658  H
BRANCH 14 21
ATOM     21 C10  WH0 L   1       1.605  -0.849   0.186  1.00  0.00    -0.0252  C
ATOM     22 H46  WH0 L   1       1.004  -1.419  -0.550  1.00  0.00    +0.0314  H
ATOM     23 H47  WH0 L   1       1.578  -1.427   1.136  1.00  0.00    +0.0314  H
BRANCH 21 24
ATOM     24  C9  WH0 L   1       3.049  -0.760  -0.320  1.00  0.00    -0.0315  C
ATOM     25 H44  WH0 L   1       3.073  -0.188  -1.273  1.00  0.00    +0.0285  H
ATOM     26 H45  WH0 L   1       3.667  -0.220   0.429  1.00  0.00    +0.0285  H
BRANCH 24 27
ATOM     27  C8  WH0 L   1       3.638  -2.153  -0.559  1.00  0.00    +0.0187  C
ATOM     28 H42  WH0 L   1       3.070  -2.655  -1.373  1.00  0.00    +0.0486  H
ATOM     29 H43  WH0 L   1       3.551  -2.780   0.356  1.00  0.00    +0.0486  H
BRANCH 27 32
ATOM     30  C5  WH0 L   1       6.082  -1.741  -0.004  1.00  0.00    +0.2618  C
ATOM     31  O6  WH0 L   1       5.799  -1.659   1.224  1.00  0.00    -0.2669 OA
ATOM     32  N7  WH0 L   1       5.043  -2.049  -0.951  1.00  0.00    -0.3514  N
ATOM     33 H41  WH0 L   1       5.289  -2.265  -1.943  1.00  0.00    +0.1626 HD
BRANCH 30 35
ATOM     34  C1  WH0 L   1       8.461  -1.292   0.427  1.00  0.00    -0.0760  C
ATOM     35  C2  WH0 L   1       7.480  -1.519  -0.452  1.00  0.00    +0.1085  C
ATOM     36 H39  WH0 L   1       9.479  -1.124   0.093  1.00  0.00    +0.0549  H
ATOM     37 H40  WH0 L   1       8.271  -1.270   1.493  1.00  0.00    +0.0549  H
BRANCH 35 38
ATOM     38  C3  WH0 L   1       7.801  -1.524  -1.859  1.00  0.00    +0.1040  C
ATOM     39  N4  WH0 L   1       8.058  -1.526  -2.987  1.00  0.00    -0.1907 NA
ENDBRANCH 35 38
ENDBRANCH 30 35
ENDBRANCH 27 32
ENDBRANCH 24 27
ENDBRANCH 21 24
ENDBRANCH 14 21
BRANCH 16 40
ATOM     40 O14  WH0 L   1       1.530   3.233   2.962  1.00  0.00    -0.4913 OA
ATOM     41 C15  WH0 L   1       2.269   2.642   4.026  1.00  0.00    +0.0790  C
ATOM     42 H49  WH0 L   1       1.688   1.808   4.473  1.00  0.00    +0.0660  H
ATOM     43 H50  WH0 L   1       3.249   2.278   3.654  1.00  0.00    +0.0660  H
ATOM     44 H51  WH0 L   1       2.454   3.406   4.808  1.00  0.00    +0.0660  H
ENDBRANCH 16 40
BRANCH 17 45
ATOM     45 O17  WH0 L   1       0.039   4.622   0.910  1.00  0.00    -0.4885 OA
ATOM     46 C18  WH0 L   1       0.470   5.535   1.914  1.00  0.00    +0.0791  C
ATOM     47 H52  WH0 L   1       0.037   5.258   2.898  1.00  0.00    +0.0660  H
ATOM     48 H53  WH0 L   1       0.105   6.550   1.654  1.00  0.00    +0.0660  H
ATOM     49 H54  WH0 L   1       1.579   5.566   1.957  1.00  0.00    +0.0660  H
ENDBRANCH 17 45
BRANCH 18 50
ATOM     50 O20  WH0 L   1      -0.898   3.197  -1.285  1.00  0.00    -0.4906 OA
ATOM     51 C21  WH0 L   1      -2.147   3.827  -1.014  1.00  0.00    +0.0790  C
ATOM     52 H55  WH0 L   1      -2.038   4.663  -0.294  1.00  0.00    +0.0660  H
ATOM     53 H56  WH0 L   1      -2.869   3.086  -0.614  1.00  0.00    +0.0660  H
ATOM     54 H57  WH0 L   1      -2.555   4.241  -1.961  1.00  0.00    +0.0660  H
ENDBRANCH 18 50
ENDBRANCH 1 19
BRANCH 6 55
ATOM     55 C29  WH0 L   1      -3.026  -0.132   0.014  1.00  0.00    -0.0209  C
ATOM     56 H59  WH0 L   1      -2.579   0.871   0.181  1.00  0.00    +0.0292  H
ATOM     57 H60  WH0 L   1      -3.774  -0.025  -0.804  1.00  0.00    +0.0292  H
BRANCH 55 58
ATOM     58 C30  WH0 L   1      -3.745  -0.567   1.312  1.00  0.00    -0.0444  C
ATOM     59 C31  WH0 L   1      -2.792  -0.575   2.518  1.00  0.00    -0.0626  C
ATOM     60 C32  WH0 L   1      -4.925   0.374   1.589  1.00  0.00    -0.0626  C
ATOM     61 H61  WH0 L   1      -4.161  -1.590   1.182  1.00  0.00    +0.0296  H
ATOM     62 H62  WH0 L   1      -2.065  -1.409   2.438  1.00  0.00    +0.0232  H
ATOM     63 H63  WH0 L   1      -3.358  -0.721   3.461  1.00  0.00    +0.0232  H
ATOM     64 H64  WH0 L   1      -2.236   0.384   2.588  1.00  0.00    +0.0232  H
ATOM     65 H65  WH0 L   1      -4.567   1.415   1.747  1.00  0.00    +0.0232  H
ATOM     66 H66  WH0 L   1      -5.635   0.368   0.733  1.00  0.00    +0.0232  H
ATOM     67 H67  WH0 L   1      -5.477   0.042   2.495  1.00  0.00    +0.0232  H
ENDBRANCH 55 58
ENDBRANCH 6 55
BRANCH 9 68
ATOM     68 C36  WH0 L   1      -3.855  -3.756  -2.526  1.00  0.00    +0.0188  C
ATOM     69 C37  WH0 L   1      -5.232  -3.511  -1.916  1.00  0.00    -0.0474  C
ATOM     70 H68  WH0 L   1      -3.428  -4.703  -2.130  1.00  0.00    +0.0486  H
ATOM     71 H69  WH0 L   1      -3.975  -3.879  -3.624  1.00  0.00    +0.0486  H
ATOM     72 H70  WH0 L   1      -5.168  -3.480  -0.809  1.00  0.00    +0.0247  H
ATOM     73 H71  WH0 L   1      -5.923  -4.329  -2.208  1.00  0.00    +0.0247  H
ATOM     74 H72  WH0 L   1      -5.644  -2.548  -2.286  1.00  0.00    +0.0247  H
ENDBRANCH 9 68
TORSDOF 13
