ROOT
ATOM      1  C7  MCU L   1       0.253   0.144   1.037  1.00  0.00    +0.0413  C
ATOM      2  C8  MCU L   1      -1.043  -0.199   0.242  1.00  0.00    +0.1021  C
ATOM      3 N17  MCU L   1      -2.109   0.580   0.923  1.00  0.00    -0.3510  N
ATOM      4 C18  MCU L   1      -3.205   1.085   0.242  1.00  0.00    +0.0464  A
ATOM      5 C19  MCU L   1      -3.698   0.481  -0.928  1.00  0.00    -0.0352  A
ATOM      6 C20  MCU L   1      -4.813   0.991  -1.600  1.00  0.00    -0.0245  A
ATOM      7 C21  MCU L   1      -5.457   2.112  -1.104  1.00  0.00    +0.1241  A
ATOM      8 F22  MCU L   1      -6.527   2.599  -1.747  1.00  0.00    -0.2055  F
ATOM      9 C23  MCU L   1      -5.013   2.732   0.053  1.00  0.00    -0.0174  A
ATOM     10 C24  MCU L   1      -3.897   2.219   0.729  1.00  0.00    +0.0007  A
ATOM     11 C25  MCU L   1      -3.448   2.876   1.956  1.00  0.00    -0.0545  C
ATOM     12 C26  MCU L   1      -2.373   2.403   2.599  1.00  0.00    -0.0592  C
ATOM     13 C27  MCU L   1      -1.568   1.217   2.142  1.00  0.00    +0.0771  C
ATOM     14 C28  MCU L   1      -0.082   1.457   1.801  1.00  0.00    +0.1672  C
ATOM     15 H43  MCU L   1       0.372  -0.651   1.789  1.00  0.00    +0.0394  H
ATOM     16 H44  MCU L   1      -0.980   0.112  -0.802  1.00  0.00    +0.0614  H
ATOM     17 H50  MCU L   1      -3.242  -0.417  -1.330  1.00  0.00    +0.0639  H
ATOM     18 H51  MCU L   1      -5.183   0.511  -2.500  1.00  0.00    +0.0647  H
ATOM     19 H52  MCU L   1      -5.542   3.606   0.418  1.00  0.00    +0.0653  H
ATOM     20 H53  MCU L   1      -4.006   3.724   2.337  1.00  0.00    +0.0622  H
ATOM     21 H54  MCU L   1      -2.076   2.877   3.532  1.00  0.00    +0.0593  H
ATOM     22 H55  MCU L   1      -1.638   0.471   2.948  1.00  0.00    +0.0589  H
ENDROOT
BRANCH 1 26
ATOM     23  C3  MCU L   1       3.978   0.058  -1.212  1.00  0.00    +0.1615  A
ATOM     24  C4  MCU L   1       2.875   0.752  -1.718  1.00  0.00    -0.0160  A
ATOM     25  C5  MCU L   1       1.669   0.787  -1.008  1.00  0.00    -0.0545  A
ATOM     26  C6  MCU L   1       1.540   0.133   0.222  1.00  0.00    -0.0362  A
ATOM     27 C34  MCU L   1       2.658  -0.556   0.729  1.00  0.00    -0.0127  A
ATOM     28 C35  MCU L   1       3.868  -0.604   0.024  1.00  0.00    +0.1618  A
ATOM     29 H41  MCU L   1       2.920   1.283  -2.663  1.00  0.00    +0.0655  H
ATOM     30 H42  MCU L   1       0.845   1.353  -1.443  1.00  0.00    +0.0622  H
ATOM     31 H58  MCU L   1       2.568  -1.053   1.692  1.00  0.00    +0.0658  H
BRANCH 23 33
ATOM     32  C1  MCU L   1       5.373   0.700  -3.044  1.00  0.00    +0.0790  C
ATOM     33  O2  MCU L   1       5.193  -0.037  -1.844  1.00  0.00    -0.4915 OA
ATOM     34 H38  MCU L   1       5.251   1.775  -2.870  1.00  0.00    +0.0660  H
ATOM     35 H39  MCU L   1       6.397   0.533  -3.388  1.00  0.00    +0.0660  H
ATOM     36 H40  MCU L   1       4.697   0.346  -3.829  1.00  0.00    +0.0660  H
ENDBRANCH 23 33
BRANCH 28 37
ATOM     37 O36  MCU L   1       4.993  -1.262   0.457  1.00  0.00    -0.4914 OA
ATOM     38 C37  MCU L   1       4.922  -1.947   1.700  1.00  0.00    +0.0790  C
ATOM     39 H59  MCU L   1       4.736  -1.252   2.526  1.00  0.00    +0.0660  H
ATOM     40 H60  MCU L   1       5.894  -2.418   1.876  1.00  0.00    +0.0660  H
ATOM     41 H61  MCU L   1       4.169  -2.742   1.672  1.00  0.00    +0.0660  H
ENDBRANCH 28 37
ENDBRANCH 1 26
BRANCH 2 42
ATOM     42  C9  MCU L   1      -1.321  -1.705   0.394  1.00  0.00    +0.1860  C
ATOM     43 O10  MCU L   1      -1.655  -2.193   1.478  1.00  0.00    -0.2898 OA
BRANCH 42 44
ATOM     44 C11  MCU L   1      -1.165  -2.621  -0.779  1.00  0.00    +0.0195  A
ATOM     45 C12  MCU L   1      -1.708  -3.911  -0.673  1.00  0.00    -0.0512  A
ATOM     46 C13  MCU L   1      -1.591  -4.825  -1.726  1.00  0.00    -0.0611  A
ATOM     47 C14  MCU L   1      -0.927  -4.457  -2.892  1.00  0.00    -0.0617  A
ATOM     48 C15  MCU L   1      -0.378  -3.179  -3.006  1.00  0.00    -0.0611  A
ATOM     49 C16  MCU L   1      -0.496  -2.262  -1.955  1.00  0.00    -0.0512  A
ATOM     50 H45  MCU L   1      -2.224  -4.218   0.236  1.00  0.00    +0.0625  H
ATOM     51 H46  MCU L   1      -2.016  -5.822  -1.630  1.00  0.00    +0.0618  H
ATOM     52 H47  MCU L   1      -0.828  -5.169  -3.709  1.00  0.00    +0.0618  H
ATOM     53 H48  MCU L   1       0.149  -2.898  -3.915  1.00  0.00    +0.0618  H
ATOM     54 H49  MCU L   1      -0.034  -1.290  -2.089  1.00  0.00    +0.0625  H
ENDBRANCH 42 44
ENDBRANCH 2 42
BRANCH 14 55
ATOM     55 C29  MCU L   1       0.091   2.660   0.973  1.00  0.00    +0.0820  C
ATOM     56 N30  MCU L   1       0.246   3.631   0.354  1.00  0.00    -0.1954 NA
ENDBRANCH 14 55
BRANCH 14 57
ATOM     57 C31  MCU L   1       0.727   1.582   3.089  1.00  0.00    +0.2415  C
ATOM     58 N32  MCU L   1       0.688   2.771   3.768  1.00  0.00    -0.3685  N
ATOM     59 O33  MCU L   1       1.355   0.650   3.590  1.00  0.00    -0.2716 OA
ATOM     60 H56  MCU L   1       0.515   3.655   3.299  1.00  0.00    +0.1586 HD
ATOM     61 H57  MCU L   1       1.301   2.824   4.577  1.00  0.00    +0.1586 HD
ENDBRANCH 14 57
TORSDOF 7
