ROOT
ATOM      1 N12  CHE L   1      -1.005  -1.607   0.498  1.00  0.00    -0.3320  N
ATOM      2 C13  CHE L   1      -0.521  -1.870   1.853  1.00  0.00    +0.0398  C
ATOM      3 C14  CHE L   1       0.481  -3.022   1.869  1.00  0.00    +0.0410  C
ATOM      4 N15  CHE L   1       1.808  -2.595   1.457  1.00  0.00    -0.3443  N
ATOM      5 C16  CHE L   1       2.965  -3.056   2.028  1.00  0.00    +0.0058  A
ATOM      6 C17  CHE L   1       4.000  -2.282   1.561  1.00  0.00    -0.0364  A
ATOM      7 C18  CHE L   1       3.449  -1.329   0.663  1.00  0.00    +0.0013  A
ATOM      8 C19  CHE L   1       4.015  -0.279  -0.082  1.00  0.00    -0.0433  A
ATOM      9 C20  CHE L   1       3.197   0.522  -0.894  1.00  0.00    +0.0069  A
ATOM     10 C28  CHE L   1       1.820   0.252  -1.001  1.00  0.00    +0.0631  A
ATOM     11 CL29 CHE L   1       0.826   1.343  -1.933  1.00  0.00    -0.0821 Cl
ATOM     12 C30  CHE L   1       1.238  -0.834  -0.302  1.00  0.00    +0.0820  A
ATOM     13 C31  CHE L   1       2.076  -1.576   0.564  1.00  0.00    +0.0630  A
ATOM     14 C32  CHE L   1      -0.170  -1.242  -0.559  1.00  0.00    +0.2584  C
ATOM     15 O33  CHE L   1      -0.546  -1.288  -1.729  1.00  0.00    -0.2673 OA
ATOM     16 H44  CHE L   1      -0.097  -0.944   2.260  1.00  0.00    +0.0506  H
ATOM     17 H45  CHE L   1      -1.363  -2.156   2.488  1.00  0.00    +0.0506  H
ATOM     18 H46  CHE L   1       0.570  -3.410   2.892  1.00  0.00    +0.0509  H
ATOM     19 H47  CHE L   1       0.185  -3.844   1.204  1.00  0.00    +0.0509  H
ATOM     20 H48  CHE L   1       2.958  -3.872   2.739  1.00  0.00    +0.0809  H
ATOM     21 H49  CHE L   1       5.040  -2.381   1.847  1.00  0.00    +0.0639  H
ATOM     22 H50  CHE L   1       5.083  -0.082  -0.007  1.00  0.00    +0.0631  H
ENDROOT
BRANCH 1 23
ATOM     23 C11  CHE L   1      -2.422  -1.866   0.214  1.00  0.00    +0.0553  C
ATOM     24 H42  CHE L   1      -2.792  -2.650   0.886  1.00  0.00    +0.0541  H
ATOM     25 H43  CHE L   1      -2.509  -2.288  -0.794  1.00  0.00    +0.0541  H
BRANCH 23 33
ATOM     26  C3  CHE L   1      -3.751   0.086  -0.697  1.00  0.00    +0.1317  A
ATOM     27  C4  CHE L   1      -4.520   1.296  -0.502  1.00  0.00    -0.0005  A
ATOM     28  C5  CHE L   1      -4.833   1.707   0.735  1.00  0.00    +0.0195  A
ATOM     29  C6  CHE L   1      -5.631   2.939   1.028  1.00  0.00    -0.0242  C
ATOM     30  N7  CHE L   1      -4.396   0.968   1.808  1.00  0.00    -0.3260  N
ATOM     31  C8  CHE L   1      -3.634  -0.172   1.713  1.00  0.00    +0.2573  A
ATOM     32  O9  CHE L   1      -3.309  -0.790   2.724  1.00  0.00    -0.2674 OA
ATOM     33 C10  CHE L   1      -3.246  -0.616   0.339  1.00  0.00    +0.0776  A
ATOM     34 H37  CHE L   1      -4.833   1.851  -1.383  1.00  0.00    +0.0671  H
ATOM     35 H38  CHE L   1      -5.886   3.489   0.115  1.00  0.00    +0.0292  H
ATOM     36 H39  CHE L   1      -6.565   2.676   1.533  1.00  0.00    +0.0292  H
ATOM     37 H40  CHE L   1      -5.065   3.617   1.677  1.00  0.00    +0.0292  H
ATOM     38 H41  CHE L   1      -4.631   1.255   2.751  1.00  0.00    +0.1686 HD
BRANCH 26 40
ATOM     39  C1  CHE L   1      -4.568  -0.944  -2.615  1.00  0.00    +0.0788  C
ATOM     40  O2  CHE L   1      -3.490  -0.227  -2.013  1.00  0.00    -0.4945 OA
ATOM     41 H34  CHE L   1      -5.488  -0.351  -2.617  1.00  0.00    +0.0660  H
ATOM     42 H35  CHE L   1      -4.736  -1.901  -2.106  1.00  0.00    +0.0660  H
ATOM     43 H36  CHE L   1      -4.293  -1.150  -3.655  1.00  0.00    +0.0660  H
ENDBRANCH 26 40
ENDBRANCH 23 33
ENDBRANCH 1 23
BRANCH 9 44
ATOM     44 C21  CHE L   1       3.838   1.624  -1.586  1.00  0.00    +0.0480  A
ATOM     45 C22  CHE L   1       4.235   2.905  -1.122  1.00  0.00    +0.0885  A
ATOM     46 C23  CHE L   1       4.054   3.493   0.227  1.00  0.00    -0.0185  C
ATOM     47 N24  CHE L   1       4.836   3.608  -2.091  1.00  0.00    -0.0827 NA
ATOM     48 O25  CHE L   1       4.831   2.789  -3.208  1.00  0.00    -0.3591 OA
ATOM     49 C26  CHE L   1       4.236   1.602  -2.905  1.00  0.00    +0.1422  A
ATOM     50 C27  CHE L   1       4.154   0.612  -3.999  1.00  0.00    -0.0031  C
ATOM     51 H51  CHE L   1       4.438   2.816   0.996  1.00  0.00    +0.0294  H
ATOM     52 H52  CHE L   1       4.581   4.449   0.325  1.00  0.00    +0.0294  H
ATOM     53 H53  CHE L   1       2.991   3.671   0.425  1.00  0.00    +0.0294  H
ATOM     54 H54  CHE L   1       4.552  -0.357  -3.677  1.00  0.00    +0.0309  H
ATOM     55 H55  CHE L   1       3.113   0.473  -4.309  1.00  0.00    +0.0309  H
ATOM     56 H56  CHE L   1       4.729   0.938  -4.874  1.00  0.00    +0.0309  H
ENDBRANCH 9 44
TORSDOF 4
