ROOT
ATOM      1 C11  CHE L   1      -2.031   0.053   1.440  1.00  0.00    +0.0801  C
ATOM      2 C12  CHE L   1      -2.437  -0.632   0.131  1.00  0.00    -0.0334  C
ATOM      3 C13  CHE L   1      -3.573   0.119  -0.564  1.00  0.00    -0.0363  C
ATOM      4 C14  CHE L   1      -4.784   0.307   0.363  1.00  0.00    +0.0077  C
ATOM      5 C23  CHE L   1      -4.359   0.989   1.673  1.00  0.00    -0.0363  C
ATOM      6 C24  CHE L   1      -3.239   0.216   2.367  1.00  0.00    -0.0334  C
ATOM      7 H41  CHE L   1      -1.627   1.051   1.231  1.00  0.00    +0.0479  H
ATOM      8 H42  CHE L   1      -2.755  -1.664   0.329  1.00  0.00    +0.0278  H
ATOM      9 H43  CHE L   1      -1.580  -0.699  -0.549  1.00  0.00    +0.0278  H
ATOM     10 H44  CHE L   1      -3.868  -0.432  -1.467  1.00  0.00    +0.0281  H
ATOM     11 H45  CHE L   1      -3.199   1.097  -0.897  1.00  0.00    +0.0281  H
ATOM     12 H46  CHE L   1      -5.190  -0.679   0.622  1.00  0.00    +0.0460  H
ATOM     13 H54  CHE L   1      -5.218   1.063   2.353  1.00  0.00    +0.0281  H
ATOM     14 H55  CHE L   1      -4.019   2.015   1.475  1.00  0.00    +0.0281  H
ATOM     15 H56  CHE L   1      -2.947   0.748   3.280  1.00  0.00    +0.0278  H
ATOM     16 H57  CHE L   1      -3.612  -0.767   2.682  1.00  0.00    +0.0278  H
ENDROOT
BRANCH 1 17
ATOM     17  S8  CHE L   1      -0.719  -0.852   2.292  1.00  0.00    +0.2351  S
ATOM     18  O9  CHE L   1      -1.138  -2.230   2.437  1.00  0.00    -0.2051 OA
ATOM     19 O10  CHE L   1      -0.291  -0.084   3.442  1.00  0.00    -0.2051 OA
BRANCH 17 23
ATOM     20  C4  CHE L   1       3.421   0.011   1.341  1.00  0.00    +0.0332  C
ATOM     21  C5  CHE L   1       2.467   0.509   0.251  1.00  0.00    -0.0142  C
ATOM     22  C6  CHE L   1       1.045   0.550   0.785  1.00  0.00    +0.0310  C
ATOM     23  N7  CHE L   1       0.565  -0.809   1.165  1.00  0.00    -0.3005 NA
ATOM     24 C25  CHE L   1       1.650  -1.801   1.418  1.00  0.00    +0.0310  C
ATOM     25 C26  CHE L   1       2.830  -1.161   2.137  1.00  0.00    -0.0142  C
ATOM     26 H36  CHE L   1       3.601   0.833   2.046  1.00  0.00    +0.0524  H
ATOM     27 H37  CHE L   1       2.767   1.507  -0.089  1.00  0.00    +0.0302  H
ATOM     28 H38  CHE L   1       2.516  -0.143  -0.630  1.00  0.00    +0.0302  H
ATOM     29 H39  CHE L   1       0.998   1.235   1.637  1.00  0.00    +0.0496  H
ATOM     30 H40  CHE L   1       0.386   0.939   0.002  1.00  0.00    +0.0496  H
ATOM     31 H58  CHE L   1       1.964  -2.220   0.454  1.00  0.00    +0.0496  H
ATOM     32 H59  CHE L   1       1.283  -2.652   2.002  1.00  0.00    +0.0496  H
ATOM     33 H60  CHE L   1       2.484  -0.785   3.109  1.00  0.00    +0.0302  H
ATOM     34 H61  CHE L   1       3.590  -1.920   2.354  1.00  0.00    +0.0302  H
BRANCH 20 37
ATOM     35  O1  CHE L   1       5.477   1.831   0.625  1.00  0.00    -0.2658 OA
ATOM     36  C2  CHE L   1       5.629   0.636   0.394  1.00  0.00    +0.2739  C
ATOM     37  N3  CHE L   1       4.713  -0.331   0.766  1.00  0.00    -0.3478  N
ATOM     38 H35  CHE L   1       4.892  -1.266   0.410  1.00  0.00    +0.1629 HD
BRANCH 36 39
ATOM     39 C27  CHE L   1       6.791   0.118  -0.330  1.00  0.00    +0.1701  A
ATOM     40 C28  CHE L   1       7.890   0.863  -0.827  1.00  0.00    +0.0132  A
ATOM     41 C29  CHE L   1       8.683  -0.066  -1.450  1.00  0.00    +0.1411  A
ATOM     42 O33  CHE L   1       8.119  -1.297  -1.319  1.00  0.00    -0.3586 OA
ATOM     43 N34  CHE L   1       6.929  -1.190  -0.616  1.00  0.00    -0.0732 NA
ATOM     44 H62  CHE L   1       8.053   1.929  -0.754  1.00  0.00    +0.0676  H
BRANCH 41 45
ATOM     45 C30  CHE L   1      10.014   0.218  -2.186  1.00  0.00    +0.0199  C
ATOM     46 C31  CHE L   1      10.038   1.239  -3.294  1.00  0.00    -0.0426  C
ATOM     47 C32  CHE L   1      10.152  -0.222  -3.620  1.00  0.00    -0.0426  C
ATOM     48 H63  CHE L   1      10.897   0.140  -1.558  1.00  0.00    +0.0380  H
ATOM     49 H64  CHE L   1      10.926   1.852  -3.401  1.00  0.00    +0.0272  H
ATOM     50 H65  CHE L   1       9.119   1.742  -3.572  1.00  0.00    +0.0272  H
ATOM     51 H66  CHE L   1       9.307  -0.710  -4.095  1.00  0.00    +0.0272  H
ATOM     52 H67  CHE L   1      11.115  -0.595  -3.947  1.00  0.00    +0.0272  H
ENDBRANCH 41 45
ENDBRANCH 36 39
ENDBRANCH 20 37
ENDBRANCH 17 23
ENDBRANCH 1 17
BRANCH 4 53
ATOM     53 N15  CHE L   1      -5.788   1.137  -0.313  1.00  0.00    -0.3132 NA
ATOM     54 H47  CHE L   1      -6.233   1.767   0.354  1.00  0.00    +0.1222 HD
BRANCH 53 55
ATOM     55 C16  CHE L   1      -6.835   0.348  -0.977  1.00  0.00    -0.0036  C
ATOM     56 H48  CHE L   1      -6.415  -0.521  -1.496  1.00  0.00    +0.0424  H
ATOM     57 H49  CHE L   1      -7.279   0.994  -1.741  1.00  0.00    +0.0424  H
BRANCH 55 58
ATOM     58 C17  CHE L   1      -7.919  -0.073   0.024  1.00  0.00    -0.0323  C
ATOM     59 H50  CHE L   1      -8.377   0.823   0.464  1.00  0.00    +0.0280  H
ATOM     60 H51  CHE L   1      -7.465  -0.626   0.855  1.00  0.00    +0.0280  H
BRANCH 58 61
ATOM     61 C18  CHE L   1      -9.022  -0.955  -0.573  1.00  0.00    +0.0440  C
ATOM     62 H52  CHE L   1      -8.588  -1.884  -0.963  1.00  0.00    +0.0352  H
ATOM     63 H53  CHE L   1      -9.700  -1.240   0.242  1.00  0.00    +0.0352  H
BRANCH 61 64
ATOM     64 C19  CHE L   1      -9.827  -0.288  -1.667  1.00  0.00    +0.3902  C
ATOM     65 F20  CHE L   1      -9.084  -0.072  -2.774  1.00  0.00    -0.1708  F
ATOM     66 F21  CHE L   1     -10.324   0.898  -1.255  1.00  0.00    -0.1708  F
ATOM     67 F22  CHE L   1     -10.868  -1.072  -2.028  1.00  0.00    -0.1708  F
ENDBRANCH 61 64
ENDBRANCH 58 61
ENDBRANCH 55 58
ENDBRANCH 53 55
ENDBRANCH 4 53
TORSDOF 10
