ROOT
ATOM      1  N7  MCU L   1      -1.828   0.711   0.090  1.00  0.00    -0.3359  N
ATOM      2  C8  MCU L   1      -1.407  -0.692   0.179  1.00  0.00    +0.0288  C
ATOM      3  C9  MCU L   1       0.012  -0.901  -0.403  1.00  0.00    +0.0065  C
ATOM      4 C10  MCU L   1       0.325  -2.425  -0.383  1.00  0.00    -0.0425  C
ATOM      5 C11  MCU L   1       1.772  -2.747  -0.788  1.00  0.00    -0.0346  C
ATOM      6 C12  MCU L   1       2.780  -1.956   0.049  1.00  0.00    +0.0216  C
ATOM      7 N13  MCU L   1       2.421  -0.533   0.070  1.00  0.00    -0.3351  N
ATOM      8 C14  MCU L   1       3.409   0.494  -0.139  1.00  0.00    +0.2926  C
ATOM      9 O15  MCU L   1       3.092   1.542  -0.762  1.00  0.00    -0.2639 OA
ATOM     10 C22  MCU L   1       1.059  -0.171   0.478  1.00  0.00    +0.0288  C
ATOM     11 C23  MCU L   1       0.019  -0.369  -1.866  1.00  0.00    -0.0357  C
ATOM     12 C24  MCU L   1      -0.400   1.104  -1.990  1.00  0.00    +0.0269  C
ATOM     13 C25  MCU L   1      -1.570   1.450  -1.117  1.00  0.00    +0.2239  C
ATOM     14 O26  MCU L   1      -2.269   2.459  -1.407  1.00  0.00    -0.2730 OA
ATOM     15 H35  MCU L   1      -2.138  -1.311  -0.388  1.00  0.00    +0.0495  H
ATOM     16 H36  MCU L   1      -1.437  -1.042   1.235  1.00  0.00    +0.0495  H
ATOM     17 H37  MCU L   1      -0.366  -2.969  -1.064  1.00  0.00    +0.0272  H
ATOM     18 H38  MCU L   1       0.156  -2.827   0.641  1.00  0.00    +0.0272  H
ATOM     19 H39  MCU L   1       1.956  -3.833  -0.646  1.00  0.00    +0.0282  H
ATOM     20 H40  MCU L   1       1.926  -2.527  -1.865  1.00  0.00    +0.0282  H
ATOM     21 H41  MCU L   1       2.794  -2.346   1.090  1.00  0.00    +0.0489  H
ATOM     22 H42  MCU L   1       3.788  -2.105  -0.396  1.00  0.00    +0.0489  H
ATOM     23 H47  MCU L   1       0.925  -0.467   1.542  1.00  0.00    +0.0495  H
ATOM     24 H48  MCU L   1       0.911   0.930   0.444  1.00  0.00    +0.0495  H
ATOM     25 H49  MCU L   1       1.028  -0.473  -2.318  1.00  0.00    +0.0276  H
ATOM     26 H50  MCU L   1      -0.678  -0.981  -2.481  1.00  0.00    +0.0276  H
ATOM     27 H51  MCU L   1      -0.655   1.316  -3.051  1.00  0.00    +0.0361  H
ATOM     28 H52  MCU L   1       0.452   1.761  -1.717  1.00  0.00    +0.0361  H
ENDROOT
BRANCH 1 29
ATOM     29  C6  MCU L   1      -2.688   1.276   1.138  1.00  0.00    +0.0648  C
ATOM     30 H33  MCU L   1      -2.409   0.862   2.132  1.00  0.00    +0.0554  H
ATOM     31 H34  MCU L   1      -2.533   2.375   1.206  1.00  0.00    +0.0554  H
BRANCH 29 36
ATOM     32  C1  MCU L   1      -8.196   0.120  -0.050  1.00  0.00    -0.0209  C
ATOM     33  C2  MCU L   1      -6.762   0.416   0.254  1.00  0.00    +0.0563  A
ATOM     34  C3  MCU L   1      -6.198   1.649  -0.096  1.00  0.00    +0.0489  A
ATOM     35  N4  MCU L   1      -4.897   1.898   0.204  1.00  0.00    -0.2548 NA
ATOM     36  C5  MCU L   1      -4.129   0.977   0.847  1.00  0.00    +0.0786  A
ATOM     37 C27  MCU L   1      -4.692  -0.260   1.191  1.00  0.00    +0.0509  A
ATOM     38 N28  MCU L   1      -5.994  -0.508   0.890  1.00  0.00    -0.2568 NA
ATOM     39 H29  MCU L   1      -8.849   0.808   0.527  1.00  0.00    +0.0293  H
ATOM     40 H30  MCU L   1      -8.445  -0.927   0.225  1.00  0.00    +0.0293  H
ATOM     41 H31  MCU L   1      -8.388   0.258  -1.135  1.00  0.00    +0.0293  H
ATOM     42 H32  MCU L   1      -6.786   2.404  -0.603  1.00  0.00    +0.0848  H
ATOM     43 H53  MCU L   1      -4.105  -1.017   1.693  1.00  0.00    +0.0848  H
ENDBRANCH 29 36
ENDBRANCH 1 29
BRANCH 8 44
ATOM     44 C16  MCU L   1       4.780   0.358   0.384  1.00  0.00    +0.2240  A
ATOM     45 C17  MCU L   1       5.835   1.212   0.138  1.00  0.00    +0.0129  A
ATOM     46 C18  MCU L   1       6.873   0.652   0.853  1.00  0.00    +0.0813  A
ATOM     47 C19  MCU L   1       8.247   1.216   0.987  1.00  0.00    -0.0191  C
ATOM     48 N20  MCU L   1       6.443  -0.450   1.497  1.00  0.00    -0.0827 NA
ATOM     49 O21  MCU L   1       5.187  -0.597   1.188  1.00  0.00    -0.3495 OA
ATOM     50 H43  MCU L   1       5.846   2.111  -0.465  1.00  0.00    +0.0676  H
ATOM     51 H44  MCU L   1       8.965   0.409   1.243  1.00  0.00    +0.0294  H
ATOM     52 H45  MCU L   1       8.257   1.982   1.790  1.00  0.00    +0.0294  H
ATOM     53 H46  MCU L   1       8.561   1.684   0.030  1.00  0.00    +0.0294  H
ENDBRANCH 8 44
TORSDOF 3
