ROOT
ATOM      1  C3  CHE L   1       3.170  -0.465  -1.578  1.00  0.00    +0.1362  A
ATOM      2  C4  CHE L   1       2.040   0.329  -1.777  1.00  0.00    -0.0061  A
ATOM      3  C5  CHE L   1       0.790  -0.016  -1.197  1.00  0.00    +0.0460  A
ATOM      4  C6  CHE L   1      -0.389   0.724  -1.309  1.00  0.00    +0.1404  A
ATOM      5 N15  CHE L   1      -1.567   0.290  -0.840  1.00  0.00    -0.1948 NA
ATOM      6 C16  CHE L   1      -1.601  -0.864  -0.158  1.00  0.00    +0.2290  A
ATOM      7 N25  CHE L   1      -0.500  -1.594   0.062  1.00  0.00    -0.2122 NA
ATOM      8 C26  CHE L   1       0.663  -1.189  -0.459  1.00  0.00    +0.0797  A
ATOM      9 C27  CHE L   1       1.795  -1.963  -0.254  1.00  0.00    -0.0165  A
ATOM     10 C28  CHE L   1       3.042  -1.613  -0.788  1.00  0.00    +0.0685  A
ATOM     11 H37  CHE L   1       2.088   1.226  -2.383  1.00  0.00    +0.0662  H
ATOM     12 H64  CHE L   1       1.704  -2.869   0.343  1.00  0.00    +0.0652  H
ENDROOT
BRANCH 1 14
ATOM     13  C1  CHE L   1       4.505   0.838  -3.063  1.00  0.00    +0.0788  C
ATOM     14  O2  CHE L   1       4.411  -0.193  -2.090  1.00  0.00    -0.4939 OA
ATOM     15 H34  CHE L   1       4.336   1.821  -2.609  1.00  0.00    +0.0660  H
ATOM     16 H35  CHE L   1       5.519   0.824  -3.466  1.00  0.00    +0.0660  H
ATOM     17 H36  CHE L   1       3.820   0.670  -3.899  1.00  0.00    +0.0660  H
ENDBRANCH 1 14
BRANCH 4 18
ATOM     18  N7  CHE L   1      -0.445   1.996  -1.908  1.00  0.00    -0.3662  N
ATOM     19 H38  CHE L   1      -1.449   2.184  -1.953  1.00  0.00    +0.1613 HD
BRANCH 18 20
ATOM     20  C8  CHE L   1       0.204   3.060  -1.112  1.00  0.00    +0.0308  C
ATOM     21  C9  CHE L   1      -0.590   3.425   0.155  1.00  0.00    -0.0198  C
ATOM     22 C10  CHE L   1      -1.247   4.799   0.055  1.00  0.00    +0.0005  C
ATOM     23 N11  CHE L   1      -0.313   5.883  -0.264  1.00  0.00    -0.3052 NA
ATOM     24 C12  CHE L   1       0.236   6.520   0.932  1.00  0.00    -0.0128  C
ATOM     25 C13  CHE L   1       0.758   5.499  -1.194  1.00  0.00    +0.0005  C
ATOM     26 C14  CHE L   1       0.402   4.275  -2.030  1.00  0.00    -0.0198  C
ATOM     27 H39  CHE L   1       1.200   2.733  -0.790  1.00  0.00    +0.0523  H
ATOM     28 H40  CHE L   1       0.095   3.425   1.012  1.00  0.00    +0.0297  H
ATOM     29 H41  CHE L   1      -1.360   2.684   0.391  1.00  0.00    +0.0297  H
ATOM     30 H42  CHE L   1      -1.801   5.017   0.976  1.00  0.00    +0.0427  H
ATOM     31 H43  CHE L   1      -2.012   4.763  -0.731  1.00  0.00    +0.0427  H
ATOM     32 H44  CHE L   1       0.829   5.819   1.532  1.00  0.00    +0.0391  H
ATOM     33 H45  CHE L   1      -0.565   6.923   1.561  1.00  0.00    +0.0391  H
ATOM     34 H46  CHE L   1       0.878   7.365   0.662  1.00  0.00    +0.0391  H
ATOM     35 H47  CHE L   1       0.965   6.346  -1.858  1.00  0.00    +0.0427  H
ATOM     36 H48  CHE L   1       1.692   5.280  -0.658  1.00  0.00    +0.0427  H
ATOM     37 H49  CHE L   1       1.198   4.067  -2.756  1.00  0.00    +0.0297  H
ATOM     38 H50  CHE L   1      -0.501   4.475  -2.624  1.00  0.00    +0.0297  H
ENDBRANCH 18 20
ENDBRANCH 4 18
BRANCH 6 39
ATOM     39 N17  CHE L   1      -2.818  -1.285   0.362  1.00  0.00    -0.3390  N
ATOM     40 C18  CHE L   1      -3.995  -0.709  -0.274  1.00  0.00    +0.0226  C
ATOM     41 C19  CHE L   1      -5.332  -1.332   0.112  1.00  0.00    -0.0224  C
ATOM     42 C20  CHE L   1      -5.629  -1.309   1.612  1.00  0.00    +0.0003  C
ATOM     43 N21  CHE L   1      -5.069  -2.402   2.411  1.00  0.00    -0.3036 NA
ATOM     44 C22  CHE L   1      -5.658  -3.700   2.103  1.00  0.00    -0.0127  C
ATOM     45 C23  CHE L   1      -3.598  -2.437   2.409  1.00  0.00    +0.0163  C
ATOM     46 C24  CHE L   1      -2.876  -2.572   1.048  1.00  0.00    +0.0341  C
ATOM     47 H51  CHE L   1      -3.909  -0.804  -1.364  1.00  0.00    +0.0489  H
ATOM     48 H52  CHE L   1      -4.041   0.364  -0.047  1.00  0.00    +0.0489  H
ATOM     49 H53  CHE L   1      -6.116  -0.753  -0.395  1.00  0.00    +0.0295  H
ATOM     50 H54  CHE L   1      -5.417  -2.343  -0.299  1.00  0.00    +0.0295  H
ATOM     51 H55  CHE L   1      -6.721  -1.322   1.744  1.00  0.00    +0.0427  H
ATOM     52 H56  CHE L   1      -5.309  -0.349   2.039  1.00  0.00    +0.0427  H
ATOM     53 H57  CHE L   1      -6.748  -3.658   2.195  1.00  0.00    +0.0391  H
ATOM     54 H58  CHE L   1      -5.319  -4.454   2.823  1.00  0.00    +0.0391  H
ATOM     55 H59  CHE L   1      -5.414  -4.062   1.099  1.00  0.00    +0.0391  H
ATOM     56 H60  CHE L   1      -3.278  -3.271   3.049  1.00  0.00    +0.0444  H
ATOM     57 H61  CHE L   1      -3.232  -1.536   2.921  1.00  0.00    +0.0444  H
ATOM     58 H62  CHE L   1      -3.340  -3.332   0.408  1.00  0.00    +0.0501  H
ATOM     59 H63  CHE L   1      -1.880  -2.964   1.286  1.00  0.00    +0.0501  H
ENDBRANCH 6 39
BRANCH 10 60
ATOM     60 C29  CHE L   1       4.165  -2.459  -0.499  1.00  0.00    -0.0625  C
ATOM     61 C30  CHE L   1       5.091  -3.170  -0.220  1.00  0.00    -0.0956  C
BRANCH 61 62
ATOM     62 C31  CHE L   1       6.224  -4.033   0.144  1.00  0.00    +0.0218  C
ATOM     63 H65  CHE L   1       6.611  -4.515  -0.763  1.00  0.00    +0.0410  H
ATOM     64 H66  CHE L   1       7.041  -3.425   0.551  1.00  0.00    +0.0410  H
BRANCH 62 65
ATOM     65 C32  CHE L   1       5.835  -5.126   1.150  1.00  0.00    +0.0039  C
ATOM     66 N33  CHE L   1       5.474  -4.599   2.467  1.00  0.00    -0.3291 NA
ATOM     67 H67  CHE L   1       4.994  -5.714   0.762  1.00  0.00    +0.0431  H
ATOM     68 H68  CHE L   1       6.684  -5.809   1.273  1.00  0.00    +0.0431  H
ATOM     69 H69  CHE L   1       5.335  -5.374   3.118  1.00  0.00    +0.1182 HD
ATOM     70 H70  CHE L   1       6.242  -4.043   2.840  1.00  0.00    +0.1182 HD
ENDBRANCH 62 65
ENDBRANCH 61 62
ENDBRANCH 10 60
TORSDOF 7
