ROOT
ATOM      1  C1  CHE L   1       1.125  -4.772   2.460  1.00  0.00    +0.0324  C
ATOM      2  N2  CHE L   1       1.575  -3.786   1.510  1.00  0.00    -0.2493  N
ATOM      3  N3  CHE L   1       2.893  -3.701   1.213  1.00  0.00    -0.1773 NA
ATOM      4  C4  CHE L   1       2.936  -2.724   0.299  1.00  0.00    +0.0622  A
ATOM      5  C5  CHE L   1       1.669  -2.167   0.031  1.00  0.00    +0.0809  A
ATOM      6  C6  CHE L   1       1.107  -1.177  -0.777  1.00  0.00    +0.1474  A
ATOM      7 N18  CHE L   1      -0.242  -1.039  -0.760  1.00  0.00    -0.1945 NA
ATOM      8 C19  CHE L   1      -0.993  -1.806   0.054  1.00  0.00    +0.2278  A
ATOM      9 N30  CHE L   1      -0.532  -2.749   0.885  1.00  0.00    -0.1929 NA
ATOM     10 C31  CHE L   1       0.800  -2.893   0.822  1.00  0.00    +0.1653  A
ATOM     11 H32  CHE L   1       0.070  -4.610   2.694  1.00  0.00    +0.0473  H
ATOM     12 H33  CHE L   1       1.722  -4.676   3.370  1.00  0.00    +0.0473  H
ATOM     13 H34  CHE L   1       1.260  -5.761   2.016  1.00  0.00    +0.0473  H
ATOM     14 H35  CHE L   1       3.891  -2.455  -0.135  1.00  0.00    +0.0856  H
ENDROOT
BRANCH 6 15
ATOM     15  N7  CHE L   1       1.816  -0.352  -1.660  1.00  0.00    -0.3393  N
ATOM     16 H36  CHE L   1       1.133   0.186  -2.189  1.00  0.00    +0.1673 HD
BRANCH 15 17
ATOM     17  C8  CHE L   1       2.990   0.391  -1.432  1.00  0.00    +0.0407  A
ATOM     18  C9  CHE L   1       3.508   0.643  -0.157  1.00  0.00    -0.0378  A
ATOM     19 C10  CHE L   1       4.681   1.390   0.007  1.00  0.00    -0.0482  A
ATOM     20 C11  CHE L   1       5.358   1.912  -1.103  1.00  0.00    +0.0549  A
ATOM     21 C16  CHE L   1       4.843   1.660  -2.381  1.00  0.00    -0.0482  A
ATOM     22 C17  CHE L   1       3.671   0.914  -2.539  1.00  0.00    -0.0378  A
ATOM     23 H37  CHE L   1       2.999   0.285   0.734  1.00  0.00    +0.0638  H
ATOM     24 H38  CHE L   1       5.059   1.568   1.013  1.00  0.00    +0.0624  H
ATOM     25 H39  CHE L   1       5.353   2.043  -3.264  1.00  0.00    +0.0624  H
ATOM     26 H40  CHE L   1       3.295   0.727  -3.543  1.00  0.00    +0.0638  H
BRANCH 20 27
ATOM     27 C12  CHE L   1       6.634   2.699  -0.928  1.00  0.00    +0.4174  C
ATOM     28 F13  CHE L   1       7.741   1.908  -0.974  1.00  0.00    -0.1659  F
ATOM     29 F14  CHE L   1       6.812   3.647  -1.890  1.00  0.00    -0.1659  F
ATOM     30 F15  CHE L   1       6.696   3.361   0.261  1.00  0.00    -0.1659  F
ENDBRANCH 20 27
ENDBRANCH 15 17
ENDBRANCH 6 15
BRANCH 8 31
ATOM     31 N20  CHE L   1      -2.375  -1.645   0.064  1.00  0.00    -0.3521  N
ATOM     32 H41  CHE L   1      -2.682  -2.085   0.928  1.00  0.00    +0.1626 HD
BRANCH 31 33
ATOM     33 C21  CHE L   1      -2.805  -0.244  -0.024  1.00  0.00    +0.0390  C
ATOM     34 H42  CHE L   1      -2.435   0.224  -0.945  1.00  0.00    +0.0505  H
ATOM     35 H43  CHE L   1      -2.389   0.313   0.827  1.00  0.00    +0.0505  H
BRANCH 33 36
ATOM     36 C22  CHE L   1      -4.355  -0.151  -0.019  1.00  0.00    +0.0653  C
ATOM     37 N23  CHE L   1      -4.973  -1.052   0.991  1.00  0.00    -0.3210 NA
ATOM     38 H44  CHE L   1      -4.713  -0.503  -0.996  1.00  0.00    +0.0541  H
ATOM     39 H45  CHE L   1      -4.777  -2.006   0.682  1.00  0.00    +0.1189 HD
ATOM     40 H46  CHE L   1      -5.985  -0.951   0.902  1.00  0.00    +0.1189 HD
BRANCH 36 41
ATOM     41 C24  CHE L   1      -4.788   1.299   0.140  1.00  0.00    +0.0596  A
ATOM     42 C25  CHE L   1      -4.801   1.915   1.392  1.00  0.00    -0.0388  A
ATOM     43 C26  CHE L   1      -5.191   3.248   1.488  1.00  0.00    -0.0586  A
ATOM     44 C27  CHE L   1      -5.557   3.933   0.337  1.00  0.00    -0.0436  A
ATOM     45 C28  CHE L   1      -5.516   3.254  -0.868  1.00  0.00    +0.0279  A
ATOM     46 N29  CHE L   1      -5.141   1.961  -0.992  1.00  0.00    -0.2583 NA
ATOM     47 H47  CHE L   1      -4.516   1.364   2.283  1.00  0.00    +0.0636  H
ATOM     48 H48  CHE L   1      -5.210   3.745   2.453  1.00  0.00    +0.0619  H
ATOM     49 H49  CHE L   1      -5.866   4.971   0.377  1.00  0.00    +0.0633  H
ATOM     50 H50  CHE L   1      -5.794   3.744  -1.796  1.00  0.00    +0.0829  H
ENDBRANCH 36 41
ENDBRANCH 33 36
ENDBRANCH 31 33
ENDBRANCH 8 31
TORSDOF 7
