ROOT
ATOM      1  C4  CHE L   1      -2.911   0.052  -0.152  1.00  0.00    +0.0020  A
ATOM      2  C5  CHE L   1      -3.256   0.419   1.162  1.00  0.00    -0.0360  A
ATOM      3  C6  CHE L   1      -2.368   0.249   2.223  1.00  0.00    +0.0453  A
ATOM      4 CL7  CHE L   1      -2.903   0.741   3.790  1.00  0.00    -0.0832 Cl
ATOM      5  C8  CHE L   1      -1.103  -0.309   2.009  1.00  0.00    -0.0137  A
ATOM      6  C9  CHE L   1      -0.759  -0.757   0.709  1.00  0.00    +0.0624  A
ATOM      7 C10  CHE L   1      -1.648  -0.546  -0.373  1.00  0.00    +0.0593  A
ATOM      8 CL11 CHE L   1      -1.204  -0.942  -2.007  1.00  0.00    -0.0824 Cl
ATOM      9 C12  CHE L   1       0.544  -1.488   0.537  1.00  0.00    +0.2566  C
ATOM     10 O13  CHE L   1       0.705  -2.280  -0.384  1.00  0.00    -0.2673 OA
ATOM     11 N14  CHE L   1       1.529  -1.269   1.498  1.00  0.00    -0.3334  N
ATOM     12 C27  CHE L   1       1.305  -0.347   2.598  1.00  0.00    +0.0259  C
ATOM     13 C28  CHE L   1      -0.112  -0.486   3.133  1.00  0.00    -0.0078  C
ATOM     14 H37  CHE L   1      -4.234   0.859   1.359  1.00  0.00    +0.0636  H
ATOM     15 H46  CHE L   1       1.491   0.669   2.231  1.00  0.00    +0.0492  H
ATOM     16 H47  CHE L   1       2.010  -0.567   3.406  1.00  0.00    +0.0492  H
ATOM     17 H48  CHE L   1      -0.263  -1.477   3.578  1.00  0.00    +0.0331  H
ATOM     18 H49  CHE L   1      -0.244   0.265   3.918  1.00  0.00    +0.0331  H
ENDROOT
BRANCH 1 19
ATOM     19  C3  CHE L   1      -3.925   0.270  -1.271  1.00  0.00    +0.0917  C
ATOM     20 H36  CHE L   1      -3.424   0.462  -2.226  1.00  0.00    +0.0651  H
BRANCH 19 22
ATOM     21  C1  CHE L   1      -4.252   2.617  -1.498  1.00  0.00    +0.0372  C
ATOM     22  O2  CHE L   1      -4.767   1.396  -0.980  1.00  0.00    -0.3747 OA
ATOM     23 H33  CHE L   1      -4.226   2.585  -2.592  1.00  0.00    +0.0524  H
ATOM     24 H34  CHE L   1      -4.919   3.427  -1.192  1.00  0.00    +0.0524  H
ATOM     25 H35  CHE L   1      -3.253   2.819  -1.102  1.00  0.00    +0.0524  H
ENDBRANCH 19 22
BRANCH 19 26
ATOM     26 C29  CHE L   1      -4.784  -0.982  -1.411  1.00  0.00    +0.0362  C
ATOM     27 C30  CHE L   1      -5.947  -0.917  -2.411  1.00  0.00    +0.0553  C
ATOM     28 O31  CHE L   1      -6.827  -1.581  -1.464  1.00  0.00    -0.3789 OA
ATOM     29 C32  CHE L   1      -5.896  -1.273  -0.391  1.00  0.00    +0.0553  C
ATOM     30 H50  CHE L   1      -4.168  -1.873  -1.600  1.00  0.00    +0.0374  H
ATOM     31 H51  CHE L   1      -5.809  -1.507  -3.322  1.00  0.00    +0.0564  H
ATOM     32 H52  CHE L   1      -6.329   0.075  -2.669  1.00  0.00    +0.0564  H
ATOM     33 H53  CHE L   1      -6.259  -0.433   0.208  1.00  0.00    +0.0564  H
ATOM     34 H54  CHE L   1      -5.718  -2.137   0.255  1.00  0.00    +0.0564  H
ENDBRANCH 19 26
ENDBRANCH 1 19
BRANCH 11 35
ATOM     35 C15  CHE L   1       2.886  -1.767   1.267  1.00  0.00    +0.0552  C
ATOM     36 H38  CHE L   1       2.839  -2.674   0.652  1.00  0.00    +0.0541  H
ATOM     37 H39  CHE L   1       3.315  -2.079   2.226  1.00  0.00    +0.0541  H
BRANCH 35 38
ATOM     38 C16  CHE L   1       3.727  -0.734   0.592  1.00  0.00    +0.0788  A
ATOM     39 C17  CHE L   1       4.477   0.251   1.427  1.00  0.00    +0.2574  A
ATOM     40 O18  CHE L   1       4.397   0.257   2.652  1.00  0.00    -0.2674 OA
ATOM     41 N19  CHE L   1       5.269   1.169   0.766  1.00  0.00    -0.3255  N
ATOM     42 C20  CHE L   1       5.441   1.237  -0.605  1.00  0.00    +0.0267  A
ATOM     43 C21  CHE L   1       6.352   2.311  -1.115  1.00  0.00    -0.0237  C
ATOM     44 C22  CHE L   1       4.789   0.341  -1.359  1.00  0.00    +0.0396  A
ATOM     45 C23  CHE L   1       4.745   0.121  -2.780  1.00  0.00    -0.0145  A
ATOM     46 C24  CHE L   1       3.931  -0.929  -2.934  1.00  0.00    +0.0932  A
ATOM     47 O25  CHE L   1       3.422  -1.437  -1.735  1.00  0.00    -0.4624 OA
ATOM     48 C26  CHE L   1       3.943  -0.646  -0.725  1.00  0.00    +0.1464  A
ATOM     49 H40  CHE L   1       5.759   1.822   1.366  1.00  0.00    +0.1686 HD
ATOM     50 H41  CHE L   1       6.442   2.304  -2.205  1.00  0.00    +0.0292  H
ATOM     51 H42  CHE L   1       5.977   3.297  -0.820  1.00  0.00    +0.0292  H
ATOM     52 H43  CHE L   1       7.357   2.186  -0.698  1.00  0.00    +0.0292  H
ATOM     53 H44  CHE L   1       5.252   0.676  -3.549  1.00  0.00    +0.0656  H
ATOM     54 H45  CHE L   1       3.606  -1.440  -3.823  1.00  0.00    +0.1030  H
ENDBRANCH 35 38
ENDBRANCH 11 35
TORSDOF 5
