ROOT
ATOM      1  C7  177 L   1       0.803  -0.135  -0.296  1.00  0.00    +0.0436  C
ATOM      2  C8  177 L   1       1.730   1.004  -0.718  1.00  0.00    +0.0392  C
ATOM      3  N9  177 L   1       3.103   0.595  -0.285  1.00  0.00    -0.3000 NA
ATOM      4 C14  177 L   1       2.963  -0.633   0.547  1.00  0.00    +0.0329  C
ATOM      5 C15  177 L   1       1.489  -0.675   0.961  1.00  0.00    -0.0085  C
ATOM      6 H28  177 L   1       0.820  -0.907  -1.079  1.00  0.00    +0.0401  H
ATOM      7 H29  177 L   1       1.659   1.183  -1.795  1.00  0.00    +0.0502  H
ATOM      8 H30  177 L   1       1.499   1.949  -0.213  1.00  0.00    +0.0502  H
ATOM      9 H34  177 L   1       3.231  -1.526  -0.031  1.00  0.00    +0.0498  H
ATOM     10 H35  177 L   1       3.618  -0.575   1.422  1.00  0.00    +0.0498  H
ATOM     11 H36  177 L   1       1.336   0.012   1.806  1.00  0.00    +0.0328  H
ENDROOT
BRANCH 1 14
ATOM     12  C4  177 L   1      -2.702   0.362  -0.322  1.00  0.00    +0.1277  A
ATOM     13  N5  177 L   1      -1.642  -0.268  -0.780  1.00  0.00    -0.2156 NA
ATOM     14  C6  177 L   1      -0.601   0.303  -0.095  1.00  0.00    +0.1561  A
ATOM     15 N19  177 L   1      -0.963   1.275   0.753  1.00  0.00    -0.1571 NA
ATOM     16 N20  177 L   1      -2.297   1.286   0.600  1.00  0.00    -0.2622  N
ATOM     17 H42  177 L   1      -2.856   1.934   1.143  1.00  0.00    +0.1903 HD
BRANCH 12 19
ATOM     18  C1  177 L   1      -4.957  -0.351   0.477  1.00  0.00    -0.0558  C
ATOM     19  C2  177 L   1      -4.128   0.136  -0.711  1.00  0.00    +0.0128  C
ATOM     20  C3  177 L   1      -4.742   1.390  -1.331  1.00  0.00    -0.0558  C
ATOM     21 H21  177 L   1      -5.010   0.403   1.270  1.00  0.00    +0.0236  H
ATOM     22 H22  177 L   1      -4.524  -1.260   0.910  1.00  0.00    +0.0236  H
ATOM     23 H23  177 L   1      -5.981  -0.583   0.165  1.00  0.00    +0.0236  H
ATOM     24 H24  177 L   1      -4.143  -0.654  -1.474  1.00  0.00    +0.0374  H
ATOM     25 H25  177 L   1      -4.789   2.217  -0.613  1.00  0.00    +0.0236  H
ATOM     26 H26  177 L   1      -4.156   1.730  -2.192  1.00  0.00    +0.0236  H
ATOM     27 H27  177 L   1      -5.762   1.191  -1.678  1.00  0.00    +0.0236  H
ENDBRANCH 12 19
ENDBRANCH 1 14
BRANCH 3 28
ATOM     28 S10  177 L   1       4.305   0.517  -1.471  1.00  0.00    +0.2294  S
ATOM     29 C11  177 L   1       4.506   2.234  -1.900  1.00  0.00    +0.0573  C
ATOM     30 O12  177 L   1       5.523   0.071  -0.829  1.00  0.00    -0.2056 OA
ATOM     31 O13  177 L   1       3.755  -0.192  -2.606  1.00  0.00    -0.2056 OA
ATOM     32 H31  177 L   1       4.782   2.791  -1.003  1.00  0.00    +0.0407  H
ATOM     33 H32  177 L   1       3.578   2.613  -2.330  1.00  0.00    +0.0407  H
ATOM     34 H33  177 L   1       5.309   2.302  -2.638  1.00  0.00    +0.0407  H
ENDBRANCH 3 28
BRANCH 5 35
ATOM     35 C16  177 L   1       1.046  -2.066   1.330  1.00  0.00    -0.0359  C
ATOM     36 C17  177 L   1       1.279  -2.588   2.724  1.00  0.00    -0.0496  C
ATOM     37 C18  177 L   1      -0.117  -2.266   2.267  1.00  0.00    -0.0496  C
ATOM     38 H37  177 L   1       1.149  -2.771   0.510  1.00  0.00    +0.0304  H
ATOM     39 H38  177 L   1       1.732  -1.934   3.461  1.00  0.00    +0.0268  H
ATOM     40 H39  177 L   1       1.547  -3.633   2.837  1.00  0.00    +0.0268  H
ATOM     41 H40  177 L   1      -0.602  -1.392   2.690  1.00  0.00    +0.0268  H
ATOM     42 H41  177 L   1      -0.792  -3.089   2.064  1.00  0.00    +0.0268  H
ENDBRANCH 5 35
TORSDOF 4
