ROOT
ATOM      1  C4  CHE L   1       3.375   0.538   0.115  1.00  0.00    +0.1205  A
ATOM      2  C5  CHE L   1       3.020  -0.437   1.047  1.00  0.00    -0.0193  A
ATOM      3  C6  CHE L   1       2.050  -1.395   0.728  1.00  0.00    -0.0491  A
ATOM      4  C7  CHE L   1       1.423  -1.386  -0.524  1.00  0.00    +0.0003  A
ATOM      5 C20  CHE L   1       1.779  -0.406  -1.453  1.00  0.00    -0.0491  A
ATOM      6 C21  CHE L   1       2.750   0.547  -1.134  1.00  0.00    -0.0193  A
ATOM      7 H27  CHE L   1       3.474  -0.481   2.031  1.00  0.00    +0.0654  H
ATOM      8 H28  CHE L   1       1.775  -2.138   1.474  1.00  0.00    +0.0625  H
ATOM      9 H44  CHE L   1       1.311  -0.380  -2.435  1.00  0.00    +0.0625  H
ATOM     10 H45  CHE L   1       3.021   1.304  -1.866  1.00  0.00    +0.0654  H
ENDROOT
BRANCH 1 11
ATOM     11  O3  CHE L   1       4.304   1.525   0.295  1.00  0.00    -0.4922 OA
BRANCH 11 13
ATOM     12  C1  CHE L   1       5.928   2.746   1.538  1.00  0.00    -0.0307  C
ATOM     13  C2  CHE L   1       4.956   1.581   1.563  1.00  0.00    +0.0868  C
ATOM     14 H22  CHE L   1       6.452   2.837   2.494  1.00  0.00    +0.0262  H
ATOM     15 H23  CHE L   1       6.668   2.614   0.741  1.00  0.00    +0.0262  H
ATOM     16 H24  CHE L   1       5.402   3.684   1.332  1.00  0.00    +0.0262  H
ATOM     17 H25  CHE L   1       5.512   0.654   1.746  1.00  0.00    +0.0694  H
ATOM     18 H26  CHE L   1       4.222   1.744   2.361  1.00  0.00    +0.0694  H
ENDBRANCH 11 13
ENDBRANCH 1 11
BRANCH 4 19
ATOM     19  C8  CHE L   1       0.418  -2.385  -0.853  1.00  0.00    +0.0701  A
ATOM     20  N9  CHE L   1       0.696  -3.728  -0.879  1.00  0.00    -0.2767  N
ATOM     21 N10  CHE L   1      -0.348  -4.499  -1.219  1.00  0.00    -0.1814 NA
ATOM     22 C11  CHE L   1      -1.334  -3.619  -1.398  1.00  0.00    +0.0542  A
ATOM     23 C12  CHE L   1      -0.923  -2.279  -1.193  1.00  0.00    +0.0116  A
ATOM     24 H29  CHE L   1       1.585  -4.177  -0.690  1.00  0.00    +0.1889 HD
ATOM     25 H30  CHE L   1      -2.320  -3.977  -1.668  1.00  0.00    +0.0851  H
BRANCH 23 26
ATOM     26 C13  CHE L   1      -1.770  -1.055  -1.320  1.00  0.00    +0.0273  C
ATOM     27 H31  CHE L   1      -1.172  -0.143  -1.212  1.00  0.00    +0.0477  H
ATOM     28 H32  CHE L   1      -2.171  -1.052  -2.342  1.00  0.00    +0.0477  H
BRANCH 26 29
ATOM     29 N14  CHE L   1      -2.871  -1.095  -0.348  1.00  0.00    -0.2999 NA
ATOM     30 C15  CHE L   1      -2.392  -0.848   1.013  1.00  0.00    -0.0124  C
ATOM     31 H33  CHE L   1      -3.228  -0.806   1.719  1.00  0.00    +0.0391  H
ATOM     32 H34  CHE L   1      -1.755  -1.672   1.355  1.00  0.00    +0.0391  H
ATOM     33 H35  CHE L   1      -1.812   0.076   1.103  1.00  0.00    +0.0391  H
BRANCH 29 34
ATOM     34 C16  CHE L   1      -3.971  -0.184  -0.722  1.00  0.00    +0.0115  C
ATOM     35 H36  CHE L   1      -4.417  -0.586  -1.642  1.00  0.00    +0.0439  H
ATOM     36 H37  CHE L   1      -4.774  -0.269   0.021  1.00  0.00    +0.0439  H
BRANCH 34 37
ATOM     37 C17  CHE L   1      -3.665   1.315  -0.992  1.00  0.00    +0.0084  C
ATOM     38 H38  CHE L   1      -4.567   1.786  -1.406  1.00  0.00    +0.0436  H
ATOM     39 H39  CHE L   1      -2.914   1.382  -1.788  1.00  0.00    +0.0436  H
BRANCH 37 40
ATOM     40 N18  CHE L   1      -3.182   2.105   0.146  1.00  0.00    -0.3178 NA
ATOM     41 C19  CHE L   1      -4.221   2.333   1.143  1.00  0.00    -0.0157  C
ATOM     42 H40  CHE L   1      -2.857   3.009  -0.197  1.00  0.00    +0.1217 HD
ATOM     43 H41  CHE L   1      -4.554   1.400   1.606  1.00  0.00    +0.0388  H
ATOM     44 H42  CHE L   1      -3.821   2.964   1.942  1.00  0.00    +0.0388  H
ATOM     45 H43  CHE L   1      -5.085   2.848   0.711  1.00  0.00    +0.0388  H
ENDBRANCH 37 40
ENDBRANCH 34 37
ENDBRANCH 29 34
ENDBRANCH 26 29
ENDBRANCH 23 26
ENDBRANCH 4 19
TORSDOF 8
