ROOT
ATOM      1 C14  CHE L   1       4.922  -0.154  -0.754  1.00  0.00    +0.0389  A
ATOM      2 C15  CHE L   1       5.056  -1.494  -0.647  1.00  0.00    -0.0388  A
ATOM      3 C16  CHE L   1       4.340  -2.501  -1.503  1.00  0.00    -0.0392  C
ATOM      4 C17  CHE L   1       5.937  -2.063   0.363  1.00  0.00    -0.0393  A
ATOM      5 C18  CHE L   1       6.648  -1.277   1.184  1.00  0.00    +0.0162  A
ATOM      6 C19  CHE L   1       7.579  -1.797   2.235  1.00  0.00    -0.0244  C
ATOM      7 N20  CHE L   1       6.525   0.086   1.075  1.00  0.00    -0.3262  N
ATOM      8 C21  CHE L   1       5.705   0.722   0.178  1.00  0.00    +0.2540  A
ATOM      9 O22  CHE L   1       5.618   1.947   0.154  1.00  0.00    -0.2675 OA
ATOM     10 H46  CHE L   1       5.061  -3.076  -2.093  1.00  0.00    +0.0278  H
ATOM     11 H47  CHE L   1       3.772  -3.199  -0.878  1.00  0.00    +0.0278  H
ATOM     12 H48  CHE L   1       3.630  -2.052  -2.202  1.00  0.00    +0.0278  H
ATOM     13 H49  CHE L   1       6.010  -3.145   0.429  1.00  0.00    +0.0637  H
ATOM     14 H50  CHE L   1       7.269  -1.448   3.226  1.00  0.00    +0.0292  H
ATOM     15 H51  CHE L   1       8.600  -1.452   2.047  1.00  0.00    +0.0292  H
ATOM     16 H52  CHE L   1       7.599  -2.892   2.258  1.00  0.00    +0.0292  H
ATOM     17 H53  CHE L   1       7.052   0.695   1.689  1.00  0.00    +0.1686 HD
ENDROOT
BRANCH 1 18
ATOM     18 C13  CHE L   1       4.086   0.566  -1.768  1.00  0.00    +0.0491  C
ATOM     19 H44  CHE L   1       4.451   1.579  -1.971  1.00  0.00    +0.0538  H
ATOM     20 H45  CHE L   1       4.092   0.047  -2.732  1.00  0.00    +0.0538  H
BRANCH 18 23
ATOM     21 C10  CHE L   1       1.637   0.563  -2.072  1.00  0.00    +0.2527  C
ATOM     22 O11  CHE L   1       1.691   0.290  -3.264  1.00  0.00    -0.2676 OA
ATOM     23 N12  CHE L   1       2.736   0.684  -1.257  1.00  0.00    -0.3478  N
ATOM     24 H43  CHE L   1       2.618   0.946  -0.286  1.00  0.00    +0.1630 HD
BRANCH 21 27
ATOM     25  C7  CHE L   1      -1.013   2.257   0.033  1.00  0.00    +0.0472  A
ATOM     26  C8  CHE L   1       0.175   1.970  -0.651  1.00  0.00    -0.0254  A
ATOM     27  C9  CHE L   1       0.332   0.785  -1.395  1.00  0.00    +0.0457  A
ATOM     28 C23  CHE L   1      -0.710  -0.152  -1.501  1.00  0.00    -0.0149  A
ATOM     29 C24  CHE L   1      -0.535  -1.395  -2.335  1.00  0.00    -0.0370  C
ATOM     30 C25  CHE L   1      -1.919   0.126  -0.840  1.00  0.00    +0.0437  A
ATOM     31 C35  CHE L   1      -2.045   1.318  -0.092  1.00  0.00    -0.0146  A
ATOM     32 H42  CHE L   1       1.016   2.656  -0.627  1.00  0.00    +0.0646  H
ATOM     33 H54  CHE L   1       0.414  -1.889  -2.097  1.00  0.00    +0.0278  H
ATOM     34 H55  CHE L   1      -0.555  -1.138  -3.399  1.00  0.00    +0.0278  H
ATOM     35 H56  CHE L   1      -1.317  -2.138  -2.163  1.00  0.00    +0.0278  H
ATOM     36 H71  CHE L   1      -3.013   1.496   0.366  1.00  0.00    +0.0659  H
BRANCH 25 39
ATOM     37  C3  CHE L   1      -2.150   3.640   1.775  1.00  0.00    +0.2509  C
ATOM     38  O4  CHE L   1      -2.983   2.802   2.117  1.00  0.00    -0.2677 OA
ATOM     39  N5  CHE L   1      -1.149   3.481   0.804  1.00  0.00    -0.3117  N
ATOM     40  C6  CHE L   1      -0.183   4.548   0.506  1.00  0.00    +0.0152  C
ATOM     41 H39  CHE L   1       0.797   4.261   0.895  1.00  0.00    +0.0457  H
ATOM     42 H40  CHE L   1      -0.137   4.705  -0.575  1.00  0.00    +0.0457  H
ATOM     43 H41  CHE L   1      -0.444   5.510   0.943  1.00  0.00    +0.0457  H
BRANCH 37 45
ATOM     44  C1  CHE L   1      -3.310   5.647   2.561  1.00  0.00    -0.0936  C
ATOM     45  C2  CHE L   1      -2.172   4.943   2.494  1.00  0.00    -0.0041  C
ATOM     46 H36  CHE L   1      -3.351   6.590   3.092  1.00  0.00    +0.0536  H
ATOM     47 H37  CHE L   1      -4.224   5.285   2.099  1.00  0.00    +0.0536  H
ATOM     48 H38  CHE L   1      -1.262   5.275   2.977  1.00  0.00    +0.0666  H
ENDBRANCH 37 45
ENDBRANCH 25 39
BRANCH 30 49
ATOM     49 N26  CHE L   1      -3.009  -0.743  -0.916  1.00  0.00    -0.3675  N
BRANCH 49 50
ATOM     50 C27  CHE L   1      -3.983  -0.490  -1.974  1.00  0.00    +0.0161  C
ATOM     51 C28  CHE L   1      -5.274   0.112  -1.448  1.00  0.00    -0.0475  C
ATOM     52 H57  CHE L   1      -3.564   0.191  -2.727  1.00  0.00    +0.0485  H
ATOM     53 H58  CHE L   1      -4.202  -1.417  -2.514  1.00  0.00    +0.0485  H
ATOM     54 H59  CHE L   1      -5.088   1.007  -0.846  1.00  0.00    +0.0247  H
ATOM     55 H60  CHE L   1      -5.925   0.392  -2.282  1.00  0.00    +0.0247  H
ATOM     56 H61  CHE L   1      -5.825  -0.604  -0.831  1.00  0.00    +0.0247  H
ENDBRANCH 49 50
BRANCH 49 57
ATOM     57 C29  CHE L   1      -3.113  -1.807   0.095  1.00  0.00    +0.0341  C
ATOM     58 C30  CHE L   1      -3.794  -1.325   1.380  1.00  0.00    -0.0089  C
ATOM     59 C31  CHE L   1      -3.888  -2.470   2.379  1.00  0.00    +0.0495  C
ATOM     60 O32  CHE L   1      -4.564  -3.593   1.814  1.00  0.00    -0.3796 OA
ATOM     61 C33  CHE L   1      -3.892  -4.113   0.668  1.00  0.00    +0.0495  C
ATOM     62 C34  CHE L   1      -3.813  -3.063  -0.432  1.00  0.00    -0.0089  C
ATOM     63 H62  CHE L   1      -2.090  -2.114   0.364  1.00  0.00    +0.0525  H
ATOM     64 H63  CHE L   1      -3.244  -0.494   1.832  1.00  0.00    +0.0307  H
ATOM     65 H64  CHE L   1      -4.804  -0.962   1.159  1.00  0.00    +0.0307  H
ATOM     66 H65  CHE L   1      -2.894  -2.782   2.723  1.00  0.00    +0.0560  H
ATOM     67 H66  CHE L   1      -4.452  -2.148   3.261  1.00  0.00    +0.0560  H
ATOM     68 H67  CHE L   1      -4.463  -4.977   0.314  1.00  0.00    +0.0560  H
ATOM     69 H68  CHE L   1      -2.895  -4.471   0.954  1.00  0.00    +0.0560  H
ATOM     70 H69  CHE L   1      -3.286  -3.469  -1.302  1.00  0.00    +0.0307  H
ATOM     71 H70  CHE L   1      -4.834  -2.819  -0.748  1.00  0.00    +0.0307  H
ENDBRANCH 49 57
ENDBRANCH 30 49
ENDBRANCH 21 27
ENDBRANCH 18 23
ENDBRANCH 1 18
TORSDOF 8
