ROOT
ATOM      1 N12  CHE L   1      -1.970   1.703  -1.331  1.00  0.00    -0.3320  N
ATOM      2 C13  CHE L   1      -2.358   3.072  -0.995  1.00  0.00    +0.0394  C
ATOM      3 C14  CHE L   1      -1.173   3.987  -0.647  1.00  0.00    +0.0360  C
ATOM      4 N15  CHE L   1      -0.239   3.376   0.309  1.00  0.00    -0.3702  N
ATOM      5 C16  CHE L   1      -0.733   3.204   1.679  1.00  0.00    +0.0073  C
ATOM      6 C17  CHE L   1       0.679   2.404  -0.141  1.00  0.00    +0.0701  A
ATOM      7 C18  CHE L   1       1.923   2.248   0.522  1.00  0.00    +0.0652  A
ATOM      8 CL19 CHE L   1       2.440   3.316   1.797  1.00  0.00    -0.0814 Cl
ATOM      9 C20  CHE L   1       2.848   1.260   0.158  1.00  0.00    -0.0365  A
ATOM     10 C21  CHE L   1       2.594   0.362  -0.886  1.00  0.00    -0.0237  A
ATOM     11 C30  CHE L   1       1.376   0.510  -1.588  1.00  0.00    +0.0588  A
ATOM     12 CL31 CHE L   1       0.970  -0.669  -2.812  1.00  0.00    -0.0824 Cl
ATOM     13 C32  CHE L   1       0.452   1.538  -1.247  1.00  0.00    +0.0822  A
ATOM     14 C33  CHE L   1      -0.789   1.644  -2.065  1.00  0.00    +0.2584  C
ATOM     15 O34  CHE L   1      -0.762   1.664  -3.289  1.00  0.00    -0.2673 OA
ATOM     16 H45  CHE L   1      -2.880   3.509  -1.854  1.00  0.00    +0.0506  H
ATOM     17 H46  CHE L   1      -3.060   3.028  -0.158  1.00  0.00    +0.0506  H
ATOM     18 H47  CHE L   1      -0.629   4.275  -1.558  1.00  0.00    +0.0505  H
ATOM     19 H48  CHE L   1      -1.559   4.925  -0.227  1.00  0.00    +0.0505  H
ATOM     20 H49  CHE L   1      -0.438   2.244   2.118  1.00  0.00    +0.0452  H
ATOM     21 H50  CHE L   1      -1.826   3.245   1.722  1.00  0.00    +0.0452  H
ATOM     22 H51  CHE L   1      -0.361   4.014   2.313  1.00  0.00    +0.0452  H
ATOM     23 H52  CHE L   1       3.776   1.197   0.722  1.00  0.00    +0.0636  H
ENDROOT
BRANCH 1 24
ATOM     24 C11  CHE L   1      -3.049   0.863  -1.849  1.00  0.00    +0.0553  C
ATOM     25 H43  CHE L   1      -3.640   1.428  -2.581  1.00  0.00    +0.0541  H
ATOM     26 H44  CHE L   1      -2.613   0.024  -2.408  1.00  0.00    +0.0541  H
BRANCH 24 34
ATOM     27  C3  CHE L   1      -3.547  -0.764   0.004  1.00  0.00    +0.1317  A
ATOM     28  C4  CHE L   1      -4.439  -1.301   1.009  1.00  0.00    -0.0005  A
ATOM     29  C5  CHE L   1      -5.607  -0.695   1.267  1.00  0.00    +0.0195  A
ATOM     30  C6  CHE L   1      -6.592  -1.184   2.281  1.00  0.00    -0.0242  C
ATOM     31  N7  CHE L   1      -5.936   0.441   0.565  1.00  0.00    -0.3260  N
ATOM     32  C8  CHE L   1      -5.157   1.009  -0.414  1.00  0.00    +0.2573  A
ATOM     33  O9  CHE L   1      -5.507   2.036  -0.989  1.00  0.00    -0.2674 OA
ATOM     34 C10  CHE L   1      -3.869   0.324  -0.720  1.00  0.00    +0.0776  A
ATOM     35 H38  CHE L   1      -4.147  -2.209   1.523  1.00  0.00    +0.0671  H
ATOM     36 H39  CHE L   1      -6.761  -0.420   3.049  1.00  0.00    +0.0292  H
ATOM     37 H40  CHE L   1      -6.241  -2.090   2.786  1.00  0.00    +0.0292  H
ATOM     38 H41  CHE L   1      -7.551  -1.413   1.802  1.00  0.00    +0.0292  H
ATOM     39 H42  CHE L   1      -6.813   0.915   0.746  1.00  0.00    +0.1686 HD
BRANCH 27 41
ATOM     40  C1  CHE L   1      -1.420  -1.274   0.778  1.00  0.00    +0.0788  C
ATOM     41  O2  CHE L   1      -2.400  -1.491  -0.238  1.00  0.00    -0.4945 OA
ATOM     42 H35  CHE L   1      -1.697  -1.804   1.696  1.00  0.00    +0.0660  H
ATOM     43 H36  CHE L   1      -0.469  -1.680   0.422  1.00  0.00    +0.0660  H
ATOM     44 H37  CHE L   1      -1.281  -0.207   0.988  1.00  0.00    +0.0660  H
ENDBRANCH 27 41
ENDBRANCH 24 34
ENDBRANCH 1 24
BRANCH 10 45
ATOM     45 C22  CHE L   1       3.608  -0.744  -1.217  1.00  0.00    -0.0143  C
ATOM     46 C23  CHE L   1       5.072  -0.305  -1.057  1.00  0.00    -0.0581  C
ATOM     47 H53  CHE L   1       3.526  -0.919  -2.297  1.00  0.00    +0.0349  H
ATOM     48 H54  CHE L   1       5.759  -1.071  -1.430  1.00  0.00    +0.0236  H
ATOM     49 H55  CHE L   1       5.347  -0.093  -0.021  1.00  0.00    +0.0236  H
ATOM     50 H56  CHE L   1       5.263   0.607  -1.637  1.00  0.00    +0.0236  H
BRANCH 45 51
ATOM     51 C24  CHE L   1       3.247  -2.091  -0.509  1.00  0.00    -0.0303  C
ATOM     52 C25  CHE L   1       3.972  -3.297  -1.152  1.00  0.00    -0.0260  C
ATOM     53 C26  CHE L   1       4.916  -4.013  -0.194  1.00  0.00    +0.0479  C
ATOM     54 O27  CHE L   1       5.644  -3.055   0.561  1.00  0.00    -0.3797 OA
ATOM     55 C28  CHE L   1       4.828  -2.374   1.510  1.00  0.00    +0.0479  C
ATOM     56 C29  CHE L   1       3.405  -2.114   1.019  1.00  0.00    -0.0260  C
ATOM     57 H57  CHE L   1       2.176  -2.255  -0.694  1.00  0.00    +0.0308  H
ATOM     58 H58  CHE L   1       3.237  -4.016  -1.531  1.00  0.00    +0.0290  H
ATOM     59 H59  CHE L   1       4.541  -2.972  -2.031  1.00  0.00    +0.0290  H
ATOM     60 H60  CHE L   1       5.631  -4.618  -0.762  1.00  0.00    +0.0560  H
ATOM     61 H61  CHE L   1       4.377  -4.691   0.478  1.00  0.00    +0.0560  H
ATOM     62 H62  CHE L   1       5.327  -1.431   1.755  1.00  0.00    +0.0560  H
ATOM     63 H63  CHE L   1       4.805  -2.960   2.436  1.00  0.00    +0.0560  H
ATOM     64 H64  CHE L   1       2.782  -2.938   1.392  1.00  0.00    +0.0290  H
ATOM     65 H65  CHE L   1       2.994  -1.221   1.499  1.00  0.00    +0.0290  H
ENDBRANCH 45 51
ENDBRANCH 10 45
TORSDOF 5
