ROOT
ATOM      1 C16  CHE L   1      -0.771  -0.128   1.200  1.00  0.00    +0.0671  A
ATOM      2 C17  CHE L   1       0.093   0.335   0.209  1.00  0.00    +0.0293  A
ATOM      3 C18  CHE L   1       0.395   1.739  -0.209  1.00  0.00    -0.0235  C
ATOM      4 N19  CHE L   1       0.705  -0.773  -0.367  1.00  0.00    -0.3403  N
ATOM      5 C33  CHE L   1       0.299  -1.930   0.283  1.00  0.00    +0.0503  A
ATOM      6 C34  CHE L   1       0.635  -3.284   0.092  1.00  0.00    -0.0376  A
ATOM      7 C35  CHE L   1       0.053  -4.248   0.923  1.00  0.00    -0.0598  A
ATOM      8 C36  CHE L   1      -0.842  -3.884   1.918  1.00  0.00    -0.0611  A
ATOM      9 C37  CHE L   1      -1.178  -2.542   2.100  1.00  0.00    -0.0518  A
ATOM     10 C38  CHE L   1      -0.603  -1.546   1.278  1.00  0.00    +0.0125  A
ATOM     11 H54  CHE L   1      -0.065   1.954  -1.179  1.00  0.00    +0.0292  H
ATOM     12 H55  CHE L   1       1.474   1.909  -0.284  1.00  0.00    +0.0292  H
ATOM     13 H56  CHE L   1       0.023   2.468   0.515  1.00  0.00    +0.0292  H
ATOM     14 H75  CHE L   1       1.328  -3.603  -0.677  1.00  0.00    +0.0638  H
ATOM     15 H76  CHE L   1       0.306  -5.296   0.785  1.00  0.00    +0.0618  H
ATOM     16 H77  CHE L   1      -1.287  -4.641   2.558  1.00  0.00    +0.0618  H
ATOM     17 H78  CHE L   1      -1.884  -2.262   2.879  1.00  0.00    +0.0624  H
ENDROOT
BRANCH 1 19
ATOM     18 N13  CHE L   1      -2.332   1.664   1.346  1.00  0.00    -0.3478  N
ATOM     19 C14  CHE L   1      -1.690   0.655   2.029  1.00  0.00    +0.2546  C
ATOM     20 O15  CHE L   1      -1.917   0.383   3.202  1.00  0.00    -0.2675 OA
ATOM     21 H53  CHE L   1      -2.201   1.687   0.349  1.00  0.00    +0.1630 HD
BRANCH 18 22
ATOM     22 C12  CHE L   1      -3.461   2.377   1.909  1.00  0.00    +0.0491  C
ATOM     23 H51  CHE L   1      -3.486   3.370   1.447  1.00  0.00    +0.0538  H
ATOM     24 H52  CHE L   1      -3.276   2.521   2.978  1.00  0.00    +0.0538  H
BRANCH 22 32
ATOM     25  C4  CHE L   1      -5.231   1.283   0.409  1.00  0.00    -0.0357  A
ATOM     26  C5  CHE L   1      -6.486   0.548   0.311  1.00  0.00    -0.0391  A
ATOM     27  C6  CHE L   1      -7.186   0.217   1.405  1.00  0.00    +0.0163  A
ATOM     28  C7  CHE L   1      -8.470  -0.552   1.373  1.00  0.00    -0.0244  C
ATOM     29  N8  CHE L   1      -6.720   0.607   2.633  1.00  0.00    -0.3262  N
ATOM     30  C9  CHE L   1      -5.574   1.333   2.839  1.00  0.00    +0.2540  A
ATOM     31 O10  CHE L   1      -5.278   1.724   3.964  1.00  0.00    -0.2675 OA
ATOM     32 C11  CHE L   1      -4.746   1.646   1.623  1.00  0.00    +0.0391  A
ATOM     33 H46  CHE L   1      -6.840   0.257  -0.674  1.00  0.00    +0.0637  H
ATOM     34 H47  CHE L   1      -8.373  -1.483   1.940  1.00  0.00    +0.0292  H
ATOM     35 H48  CHE L   1      -8.763  -0.814   0.351  1.00  0.00    +0.0292  H
ATOM     36 H49  CHE L   1      -9.282   0.040   1.811  1.00  0.00    +0.0292  H
ATOM     37 H50  CHE L   1      -7.246   0.392   3.471  1.00  0.00    +0.1686 HD
BRANCH 25 38
ATOM     38  C3  CHE L   1      -4.581   1.610  -0.919  1.00  0.00    -0.0274  C
ATOM     39 H44  CHE L   1      -5.341   2.004  -1.608  1.00  0.00    +0.0313  H
ATOM     40 H45  CHE L   1      -3.861   2.429  -0.806  1.00  0.00    +0.0313  H
BRANCH 38 42
ATOM     41  C1  CHE L   1      -3.119   0.786  -2.802  1.00  0.00    -0.0650  C
ATOM     42  C2  CHE L   1      -3.897   0.394  -1.555  1.00  0.00    -0.0519  C
ATOM     43 H39  CHE L   1      -2.647  -0.095  -3.247  1.00  0.00    +0.0230  H
ATOM     44 H40  CHE L   1      -2.328   1.505  -2.562  1.00  0.00    +0.0230  H
ATOM     45 H41  CHE L   1      -3.779   1.238  -3.550  1.00  0.00    +0.0230  H
ATOM     46 H42  CHE L   1      -4.645  -0.361  -1.824  1.00  0.00    +0.0266  H
ATOM     47 H43  CHE L   1      -3.212  -0.079  -0.843  1.00  0.00    +0.0266  H
ENDBRANCH 38 42
ENDBRANCH 25 38
ENDBRANCH 22 32
ENDBRANCH 18 22
ENDBRANCH 1 19
BRANCH 4 48
ATOM     48 C20  CHE L   1       1.629  -0.716  -1.515  1.00  0.00    +0.0349  C
ATOM     49 C21  CHE L   1       0.997  -1.403  -2.737  1.00  0.00    -0.0440  C
ATOM     50 H57  CHE L   1       1.711   0.341  -1.788  1.00  0.00    +0.0528  H
ATOM     51 H58  CHE L   1       1.509  -1.123  -3.661  1.00  0.00    +0.0250  H
ATOM     52 H59  CHE L   1       1.030  -2.493  -2.660  1.00  0.00    +0.0250  H
ATOM     53 H60  CHE L   1      -0.053  -1.108  -2.852  1.00  0.00    +0.0250  H
BRANCH 48 54
ATOM     54 C22  CHE L   1       3.074  -1.209  -1.193  1.00  0.00    -0.0172  C
ATOM     55 C23  CHE L   1       3.586  -0.673   0.162  1.00  0.00    -0.0299  C
ATOM     56 C24  CHE L   1       5.108  -0.617   0.206  1.00  0.00    +0.0294  C
ATOM     57 N25  CHE L   1       5.603   0.385  -0.777  1.00  0.00    -0.3008 NA
ATOM     58 C31  CHE L   1       4.820   0.442  -2.046  1.00  0.00    +0.0294  C
ATOM     59 C32  CHE L   1       4.082  -0.864  -2.312  1.00  0.00    -0.0299  C
ATOM     60 H61  CHE L   1       3.057  -2.303  -1.129  1.00  0.00    +0.0322  H
ATOM     61 H62  CHE L   1       3.222  -1.314   0.973  1.00  0.00    +0.0286  H
ATOM     62 H63  CHE L   1       3.196   0.334   0.351  1.00  0.00    +0.0286  H
ATOM     63 H64  CHE L   1       5.413  -0.313   1.211  1.00  0.00    +0.0495  H
ATOM     64 H65  CHE L   1       5.530  -1.607   0.003  1.00  0.00    +0.0495  H
ATOM     65 H71  CHE L   1       4.113   1.276  -1.968  1.00  0.00    +0.0495  H
ATOM     66 H72  CHE L   1       5.463   0.663  -2.904  1.00  0.00    +0.0495  H
ATOM     67 H73  CHE L   1       4.819  -1.675  -2.382  1.00  0.00    +0.0286  H
ATOM     68 H74  CHE L   1       3.601  -0.818  -3.293  1.00  0.00    +0.0286  H
BRANCH 57 69
ATOM     69 S26  CHE L   1       7.291   0.465  -0.982  1.00  0.00    +0.2320  S
ATOM     70 O27  CHE L   1       7.573   1.546  -1.903  1.00  0.00    -0.2054 OA
ATOM     71 O28  CHE L   1       7.749  -0.881  -1.258  1.00  0.00    -0.2054 OA
BRANCH 69 72
ATOM     72 C29  CHE L   1       7.886   0.951   0.636  1.00  0.00    +0.0659  C
ATOM     73 C30  CHE L   1       7.270   2.241   1.133  1.00  0.00    -0.0498  C
ATOM     74 H66  CHE L   1       8.970   1.065   0.541  1.00  0.00    +0.0441  H
ATOM     75 H67  CHE L   1       7.698   0.125   1.326  1.00  0.00    +0.0441  H
ATOM     76 H68  CHE L   1       6.184   2.157   1.239  1.00  0.00    +0.0240  H
ATOM     77 H69  CHE L   1       7.686   2.506   2.109  1.00  0.00    +0.0240  H
ATOM     78 H70  CHE L   1       7.471   3.068   0.444  1.00  0.00    +0.0240  H
ENDBRANCH 69 72
ENDBRANCH 57 69
ENDBRANCH 48 54
ENDBRANCH 4 48
TORSDOF 9
