ROOT
ATOM      1 C22  CHE L   1       5.233   1.459   0.809  1.00  0.00    +0.1351  A
ATOM      2 C23  CHE L   1       5.853   1.537   1.990  1.00  0.00    +0.0341  A
ATOM      3 C24  CHE L   1       6.762   0.451   2.371  1.00  0.00    +0.2590  A
ATOM      4 O25  CHE L   1       7.320   0.502   3.467  1.00  0.00    -0.2672 OA
ATOM      5 N26  CHE L   1       6.907  -0.568   1.440  1.00  0.00    -0.2682  N
ATOM      6 C27  CHE L   1       7.759  -1.626   1.726  1.00  0.00    +0.0146  A
ATOM      7 C28  CHE L   1       7.920  -2.648   0.879  1.00  0.00    -0.0450  A
ATOM      8 C29  CHE L   1       7.201  -2.668  -0.367  1.00  0.00    -0.0569  A
ATOM      9 C30  CHE L   1       6.374  -1.670  -0.690  1.00  0.00    -0.0187  A
ATOM     10 C31  CHE L   1       6.188  -0.527   0.248  1.00  0.00    +0.1410  A
ATOM     11 N32  CHE L   1       5.375   0.420  -0.088  1.00  0.00    -0.2242 NA
ATOM     12 H52  CHE L   1       5.715   2.346   2.693  1.00  0.00    +0.0695  H
ATOM     13 H53  CHE L   1       8.290  -1.593   2.676  1.00  0.00    +0.0814  H
ATOM     14 H54  CHE L   1       8.589  -3.467   1.113  1.00  0.00    +0.0632  H
ATOM     15 H55  CHE L   1       7.339  -3.519  -1.029  1.00  0.00    +0.0619  H
ATOM     16 H56  CHE L   1       5.813  -1.657  -1.616  1.00  0.00    +0.0654  H
ENDROOT
BRANCH 1 18
ATOM     17  O1  CHE L   1       4.083   3.529   1.234  1.00  0.00    -0.2659 OA
ATOM     18  C2  CHE L   1       4.282   2.583   0.481  1.00  0.00    +0.2709  C
ATOM     19  N3  CHE L   1       3.662   2.406  -0.727  1.00  0.00    -0.3452  N
ATOM     20 H33  CHE L   1       3.864   1.547  -1.226  1.00  0.00    +0.1631 HD
BRANCH 19 21
ATOM     21  C4  CHE L   1       2.578   3.244  -1.171  1.00  0.00    +0.0623  C
ATOM     22 H34  CHE L   1       2.608   4.211  -0.657  1.00  0.00    +0.0552  H
ATOM     23 H35  CHE L   1       2.714   3.411  -2.243  1.00  0.00    +0.0552  H
BRANCH 21 24
ATOM     24  C5  CHE L   1       1.262   2.583  -0.914  1.00  0.00    +0.0791  A
ATOM     25  C6  CHE L   1       0.930   1.583  -0.014  1.00  0.00    +0.0342  A
ATOM     26  N7  CHE L   1      -0.416   1.385  -0.155  1.00  0.00    -0.3060  N
ATOM     27  C8  CHE L   1      -1.256   0.499   0.512  1.00  0.00    +0.0156  A
ATOM     28  C9  CHE L   1      -2.575   0.486   0.228  1.00  0.00    -0.0170  A
ATOM     29 C18  CHE L   1      -3.070   1.448  -0.759  1.00  0.00    -0.0525  A
ATOM     30 C19  CHE L   1      -2.244   2.292  -1.409  1.00  0.00    -0.0185  A
ATOM     31 C20  CHE L   1      -0.853   2.279  -1.124  1.00  0.00    +0.1379  A
ATOM     32 N21  CHE L   1       0.142   2.991  -1.605  1.00  0.00    -0.2310 NA
ATOM     33 H36  CHE L   1       1.518   1.030   0.705  1.00  0.00    +0.0832  H
ATOM     34 H37  CHE L   1      -0.798  -0.149   1.248  1.00  0.00    +0.0816  H
ATOM     35 H50  CHE L   1      -4.141   1.480  -0.956  1.00  0.00    +0.0622  H
ATOM     36 H51  CHE L   1      -2.616   3.006  -2.138  1.00  0.00    +0.0654  H
BRANCH 28 37
ATOM     37 C10  CHE L   1      -3.558  -0.411   0.938  1.00  0.00    +0.0226  C
ATOM     38 H38  CHE L   1      -3.165  -0.629   1.940  1.00  0.00    +0.0474  H
ATOM     39 H39  CHE L   1      -4.498   0.121   1.123  1.00  0.00    +0.0474  H
BRANCH 37 40
ATOM     40 N11  CHE L   1      -3.771  -1.698   0.279  1.00  0.00    -0.3114 NA
ATOM     41 H40  CHE L   1      -2.864  -2.065  -0.007  1.00  0.00    +0.1223 HD
BRANCH 40 42
ATOM     42 C12  CHE L   1      -4.660  -1.664  -0.875  1.00  0.00    +0.0019  C
ATOM     43 H41  CHE L   1      -4.394  -0.862  -1.571  1.00  0.00    +0.0430  H
ATOM     44 H42  CHE L   1      -4.504  -2.594  -1.431  1.00  0.00    +0.0430  H
BRANCH 42 45
ATOM     45 C13  CHE L   1      -6.095  -1.591  -0.485  1.00  0.00    -0.0160  C
ATOM     46 C14  CHE L   1      -7.311  -1.625  -1.501  1.00  0.00    -0.0433  C
ATOM     47 C15  CHE L   1      -8.026  -1.552  -0.113  1.00  0.00    -0.0394  C
ATOM     48 C16  CHE L   1      -6.965  -2.611   0.355  1.00  0.00    -0.0433  C
ATOM     49 C17  CHE L   1      -6.947  -0.479   0.253  1.00  0.00    -0.0433  C
ATOM     50 H43  CHE L   1      -7.440  -2.545  -2.081  1.00  0.00    +0.0274  H
ATOM     51 H44  CHE L   1      -7.415  -0.762  -2.168  1.00  0.00    +0.0274  H
ATOM     52 H45  CHE L   1      -9.083  -1.528   0.095  1.00  0.00    +0.0301  H
ATOM     53 H46  CHE L   1      -7.074  -3.621  -0.044  1.00  0.00    +0.0274  H
ATOM     54 H47  CHE L   1      -6.760  -2.666   1.433  1.00  0.00    +0.0274  H
ATOM     55 H48  CHE L   1      -7.025   0.494  -0.242  1.00  0.00    +0.0274  H
ATOM     56 H49  CHE L   1      -6.760  -0.329   1.322  1.00  0.00    +0.0274  H
ENDBRANCH 42 45
ENDBRANCH 40 42
ENDBRANCH 37 40
ENDBRANCH 28 37
ENDBRANCH 21 24
ENDBRANCH 19 21
ENDBRANCH 1 18
TORSDOF 7
