ROOT
ATOM      1 C27  WH0 L   1      -1.939   3.149  -0.321  1.00  0.00    -0.0133  A
ATOM      2 C28  WH0 L   1      -2.889   3.633  -1.250  1.00  0.00    -0.0519  A
ATOM      3 C29  WH0 L   1      -2.937   4.988  -1.594  1.00  0.00    -0.0374  A
ATOM      4 C30  WH0 L   1      -2.019   5.822  -0.995  1.00  0.00    +0.0454  A
ATOM      5 C31  WH0 L   1      -1.074   5.365  -0.079  1.00  0.00    -0.0145  A
ATOM      6 C32  WH0 L   1      -1.020   4.029   0.275  1.00  0.00    -0.0483  A
ATOM      7 C33  WH0 L   1      -0.225   6.514   0.377  1.00  0.00    +0.0535  C
ATOM      8 C34  WH0 L   1      -0.822   7.687  -0.411  1.00  0.00    +0.2296  C
ATOM      9 O35  WH0 L   1      -0.458   8.850  -0.376  1.00  0.00    -0.2725 OA
ATOM     10 N36  WH0 L   1      -1.865   7.186  -1.182  1.00  0.00    -0.3256  N
ATOM     11 H65  WH0 L   1      -3.591   2.946  -1.720  1.00  0.00    +0.0624  H
ATOM     12 H66  WH0 L   1      -3.664   5.355  -2.309  1.00  0.00    +0.0638  H
ATOM     13 H67  WH0 L   1      -0.285   3.674   0.992  1.00  0.00    +0.0627  H
ATOM     14 H68  WH0 L   1       0.822   6.373   0.093  1.00  0.00    +0.0410  H
ATOM     15 H69  WH0 L   1      -0.340   6.695   1.448  1.00  0.00    +0.0410  H
ATOM     16 H70  WH0 L   1      -2.417   7.765  -1.796  1.00  0.00    +0.1686 HD
ENDROOT
BRANCH 1 25
ATOM     17 C11  WH0 L   1      -0.815   0.792  -0.097  1.00  0.00    +0.1015  A
ATOM     18 N12  WH0 L   1      -1.187  -0.412   0.362  1.00  0.00    -0.1627 NA
ATOM     19 N13  WH0 L   1      -2.481  -0.274   0.725  1.00  0.00    -0.1987  N
ATOM     20 C14  WH0 L   1      -3.295  -1.333   1.255  1.00  0.00    +0.2282  A
ATOM     21 N22  WH0 L   1      -4.535  -1.033   1.591  1.00  0.00    -0.2207 NA
ATOM     22 C23  WH0 L   1      -4.980   0.257   1.429  1.00  0.00    +0.0334  A
ATOM     23 C24  WH0 L   1      -4.263   1.275   0.934  1.00  0.00    -0.0173  A
ATOM     24 C25  WH0 L   1      -2.934   1.018   0.537  1.00  0.00    +0.0803  A
ATOM     25 C26  WH0 L   1      -1.887   1.733  -0.005  1.00  0.00    +0.0353  A
ATOM     26 H63  WH0 L   1      -6.006   0.432   1.747  1.00  0.00    +0.0831  H
ATOM     27 H64  WH0 L   1      -4.689   2.269   0.849  1.00  0.00    +0.0654  H
BRANCH 17 30
ATOM     28  C8  WH0 L   1       2.950   0.532  -0.403  1.00  0.00    -0.0335  A
ATOM     29  C9  WH0 L   1       1.626   0.376   0.052  1.00  0.00    -0.0487  A
ATOM     30 C10  WH0 L   1       0.547   0.989  -0.600  1.00  0.00    +0.0030  A
ATOM     31 C37  WH0 L   1       0.800   1.763  -1.734  1.00  0.00    -0.0519  A
ATOM     32 C38  WH0 L   1       2.107   1.928  -2.201  1.00  0.00    -0.0492  A
ATOM     33 C39  WH0 L   1       3.196   1.315  -1.552  1.00  0.00    +0.0581  A
ATOM     34 H52  WH0 L   1       1.429  -0.240   0.931  1.00  0.00    +0.0627  H
ATOM     35 H71  WH0 L   1      -0.015   2.233  -2.279  1.00  0.00    +0.0624  H
ATOM     36 H72  WH0 L   1       2.270   2.535  -3.091  1.00  0.00    +0.0623  H
BRANCH 28 37
ATOM     37  C7  WH0 L   1       4.048  -0.182   0.356  1.00  0.00    -0.0096  C
ATOM     38 H50  WH0 L   1       3.850  -0.100   1.433  1.00  0.00    +0.0330  H
ATOM     39 H51  WH0 L   1       5.012   0.320   0.212  1.00  0.00    +0.0330  H
BRANCH 37 40
ATOM     40  C6  WH0 L   1       4.156  -1.657  -0.036  1.00  0.00    +0.0224  C
ATOM     41 H48  WH0 L   1       4.350  -1.764  -1.109  1.00  0.00    +0.0489  H
ATOM     42 H49  WH0 L   1       3.218  -2.183   0.180  1.00  0.00    +0.0489  H
BRANCH 40 45
ATOM     43  C3  WH0 L   1       5.238  -3.677   0.855  1.00  0.00    +0.2443  C
ATOM     44  O4  WH0 L   1       4.293  -4.409   0.591  1.00  0.00    -0.2683 OA
ATOM     45  N5  WH0 L   1       5.247  -2.316   0.661  1.00  0.00    -0.3522  N
ATOM     46 H47  WH0 L   1       6.131  -1.827   0.721  1.00  0.00    +0.1626 HD
BRANCH 43 48
ATOM     47  C1  WH0 L   1       6.717  -5.499   1.573  1.00  0.00    -0.0936  C
ATOM     48  C2  WH0 L   1       6.517  -4.184   1.416  1.00  0.00    -0.0047  C
ATOM     49 H44  WH0 L   1       5.958  -6.225   1.290  1.00  0.00    +0.0536  H
ATOM     50 H45  WH0 L   1       7.644  -5.878   1.988  1.00  0.00    +0.0536  H
ATOM     51 H46  WH0 L   1       7.278  -3.471   1.707  1.00  0.00    +0.0666  H
ENDBRANCH 43 48
ENDBRANCH 40 45
ENDBRANCH 37 40
ENDBRANCH 28 37
BRANCH 33 52
ATOM     52 C40  WH0 L   1       4.591   1.524  -2.103  1.00  0.00    +0.4177  C
ATOM     53 F41  WH0 L   1       4.617   2.171  -3.303  1.00  0.00    -0.1659  F
ATOM     54 F42  WH0 L   1       5.374   2.262  -1.268  1.00  0.00    -0.1659  F
ATOM     55 F43  WH0 L   1       5.259   0.354  -2.305  1.00  0.00    -0.1659  F
ENDBRANCH 33 52
ENDBRANCH 17 30
BRANCH 20 56
ATOM     56 N15  WH0 L   1      -2.841  -2.658   1.439  1.00  0.00    -0.3401  N
ATOM     57 C16  WH0 L   1      -3.844  -3.697   1.733  1.00  0.00    +0.0237  C
ATOM     58 C17  WH0 L   1      -4.356  -4.278   0.415  1.00  0.00    -0.0090  C
ATOM     59 C18  WH0 L   1      -3.194  -4.818  -0.423  1.00  0.00    +0.0585  C
ATOM     60 O19  WH0 L   1      -3.657  -5.202  -1.715  1.00  0.00    -0.3917 OA
ATOM     61 C20  WH0 L   1      -2.077  -3.783  -0.583  1.00  0.00    -0.0090  C
ATOM     62 C21  WH0 L   1      -1.665  -3.242   0.781  1.00  0.00    +0.0237  C
ATOM     63 H53  WH0 L   1      -3.382  -4.490   2.335  1.00  0.00    +0.0489  H
ATOM     64 H54  WH0 L   1      -4.676  -3.317   2.336  1.00  0.00    +0.0489  H
ATOM     65 H55  WH0 L   1      -4.899  -3.513  -0.156  1.00  0.00    +0.0307  H
ATOM     66 H56  WH0 L   1      -5.079  -5.079   0.609  1.00  0.00    +0.0307  H
ATOM     67 H57  WH0 L   1      -2.786  -5.715   0.057  1.00  0.00    +0.0594  H
ATOM     68 H58  WH0 L   1      -4.418  -5.795  -1.596  1.00  0.00    +0.2098 HD
ATOM     69 H59  WH0 L   1      -2.415  -2.968  -1.236  1.00  0.00    +0.0307  H
ATOM     70 H60  WH0 L   1      -1.219  -4.242  -1.088  1.00  0.00    +0.0307  H
ATOM     71 H61  WH0 L   1      -1.296  -4.072   1.398  1.00  0.00    +0.0489  H
ATOM     72 H62  WH0 L   1      -0.809  -2.575   0.708  1.00  0.00    +0.0489  H
ENDBRANCH 20 56
ENDBRANCH 1 25
TORSDOF 8
