ROOT
ATOM      1 N14  WH0 L   1      -1.053  -0.525  -1.539  1.00  0.00    -0.2837  N
ATOM      2 C15  WH0 L   1      -1.424  -1.696  -2.212  1.00  0.00    +0.2395  C
ATOM      3 O16  WH0 L   1      -0.725  -2.314  -3.009  1.00  0.00    -0.2717 OA
ATOM      4 C17  WH0 L   1      -2.822  -2.154  -1.847  1.00  0.00    +0.0758  C
ATOM      5 S18  WH0 L   1      -3.350  -1.138  -0.456  1.00  0.00    -0.1088 SA
ATOM      6 C19  WH0 L   1      -2.140   0.166  -0.866  1.00  0.00    +0.2010  C
ATOM      7 C20  WH0 L   1      -2.882   1.248  -1.737  1.00  0.00    +0.2665  C
ATOM      8 O21  WH0 L   1      -3.386   1.098  -2.842  1.00  0.00    -0.2689 OA
ATOM      9 N22  WH0 L   1      -2.853   2.444  -1.019  1.00  0.00    -0.3228  N
ATOM     10 C23  WH0 L   1      -2.201   2.287   0.197  1.00  0.00    +0.0486  A
ATOM     11 C24  WH0 L   1      -2.003   3.254   1.163  1.00  0.00    -0.0379  A
ATOM     12 C25  WH0 L   1      -1.338   2.872   2.331  1.00  0.00    -0.0598  A
ATOM     13 C26  WH0 L   1      -0.900   1.547   2.510  1.00  0.00    -0.0613  A
ATOM     14 C27  WH0 L   1      -1.117   0.583   1.520  1.00  0.00    -0.0531  A
ATOM     15 C28  WH0 L   1      -1.760   0.969   0.354  1.00  0.00    +0.0211  A
ATOM     16 H40  WH0 L   1      -2.801  -3.211  -1.561  1.00  0.00    +0.0474  H
ATOM     17 H41  WH0 L   1      -3.490  -2.014  -2.707  1.00  0.00    +0.0474  H
ATOM     18 H42  WH0 L   1      -3.262   3.305  -1.359  1.00  0.00    +0.1687 HD
ATOM     19 H43  WH0 L   1      -2.353   4.272   1.033  1.00  0.00    +0.0638  H
ATOM     20 H44  WH0 L   1      -1.163   3.602   3.120  1.00  0.00    +0.0618  H
ATOM     21 H45  WH0 L   1      -0.389   1.273   3.432  1.00  0.00    +0.0618  H
ATOM     22 H46  WH0 L   1      -0.800  -0.441   1.672  1.00  0.00    +0.0622  H
ENDROOT
BRANCH 1 28
ATOM     23  C8  WH0 L   1       1.387  -0.272  -1.400  1.00  0.00    -0.0221  A
ATOM     24  C9  WH0 L   1       2.553   0.380  -1.846  1.00  0.00    -0.0566  A
ATOM     25 C10  WH0 L   1       2.489   1.410  -2.791  1.00  0.00    -0.0614  A
ATOM     26 C11  WH0 L   1       1.261   1.798  -3.317  1.00  0.00    -0.0598  A
ATOM     27 C12  WH0 L   1       0.093   1.162  -2.893  1.00  0.00    -0.0378  A
ATOM     28 C13  WH0 L   1       0.142   0.139  -1.927  1.00  0.00    +0.0500  A
ATOM     29 H36  WH0 L   1       3.531   0.078  -1.470  1.00  0.00    +0.0621  H
ATOM     30 H37  WH0 L   1       3.402   1.896  -3.128  1.00  0.00    +0.0618  H
ATOM     31 H38  WH0 L   1       1.210   2.578  -4.078  1.00  0.00    +0.0618  H
ATOM     32 H39  WH0 L   1      -0.840   1.446  -3.375  1.00  0.00    +0.0638  H
BRANCH 23 33
ATOM     33  C7  WH0 L   1       1.522  -1.393  -0.386  1.00  0.00    -0.0082  C
ATOM     34 H34  WH0 L   1       0.540  -1.820  -0.146  1.00  0.00    +0.0331  H
ATOM     35 H35  WH0 L   1       2.094  -2.217  -0.838  1.00  0.00    +0.0331  H
BRANCH 33 36
ATOM     36  C6  WH0 L   1       2.196  -0.941   0.917  1.00  0.00    +0.0221  C
ATOM     37 H32  WH0 L   1       1.785   0.011   1.271  1.00  0.00    +0.0489  H
ATOM     38 H33  WH0 L   1       3.269  -0.790   0.769  1.00  0.00    +0.0489  H
BRANCH 36 41
ATOM     39  O1  WH0 L   1       3.625  -0.993   3.344  1.00  0.00    -0.2720 OA
ATOM     40  C2  WH0 L   1       2.692  -1.777   3.183  1.00  0.00    +0.2356  C
ATOM     41  N5  WH0 L   1       2.017  -1.907   1.986  1.00  0.00    -0.3547  N
ATOM     42 H31  WH0 L   1       1.142  -2.424   2.028  1.00  0.00    +0.1623 HD
BRANCH 40 43
ATOM     43  C3  WH0 L   1       2.271  -2.738   4.282  1.00  0.00    +0.1010  C
ATOM     44 CL4  WH0 L   1       0.528  -3.106   4.190  1.00  0.00    -0.1154 Cl
ATOM     45 H29  WH0 L   1       2.839  -3.670   4.192  1.00  0.00    +0.0527  H
ATOM     46 H30  WH0 L   1       2.465  -2.277   5.256  1.00  0.00    +0.0527  H
ENDBRANCH 40 43
ENDBRANCH 36 41
ENDBRANCH 33 36
ENDBRANCH 23 33
ENDBRANCH 1 28
TORSDOF 5
