ROOT
ATOM      1  O1  959 L   1      -2.813   1.170  -2.415  1.00  0.00    -0.2678 OA
ATOM      2  C2  959 L   1      -2.510   0.892  -1.257  1.00  0.00    +0.2503  C
ATOM      3  N8  959 L   1      -1.202   0.755  -0.815  1.00  0.00    -0.3385  N
ATOM      4  C9  959 L   1      -0.828   0.203   0.489  1.00  0.00    +0.0220  C
ATOM      5 C10  959 L   1       0.650  -0.181   0.576  1.00  0.00    -0.0269  C
ATOM      6 C11  959 L   1       1.075  -0.951  -0.681  1.00  0.00    +0.0042  C
ATOM      7 C20  959 L   1       0.738  -0.207  -1.988  1.00  0.00    -0.0269  C
ATOM      8 C21  959 L   1      -0.117   1.036  -1.747  1.00  0.00    +0.0220  C
ATOM      9 H29  959 L   1      -1.049   0.951   1.257  1.00  0.00    +0.0489  H
ATOM     10 H30  959 L   1      -1.450  -0.678   0.683  1.00  0.00    +0.0489  H
ATOM     11 H31  959 L   1       1.250   0.727   0.701  1.00  0.00    +0.0289  H
ATOM     12 H32  959 L   1       0.819  -0.783   1.477  1.00  0.00    +0.0289  H
ATOM     13 H33  959 L   1       0.456  -1.862  -0.692  1.00  0.00    +0.0365  H
ATOM     14 H41  959 L   1       0.184  -0.896  -2.640  1.00  0.00    +0.0289  H
ATOM     15 H42  959 L   1       1.634   0.076  -2.553  1.00  0.00    +0.0289  H
ATOM     16 H43  959 L   1       0.486   1.841  -1.310  1.00  0.00    +0.0489  H
ATOM     17 H44  959 L   1      -0.494   1.413  -2.703  1.00  0.00    +0.0489  H
ENDROOT
BRANCH 2 18
ATOM     18  C3  959 L   1      -3.596   0.645  -0.285  1.00  0.00    +0.0129  C
ATOM     19  C4  959 L   1      -3.796   1.288   0.873  1.00  0.00    -0.0757  C
ATOM     20  C5  959 L   1      -5.062   0.843   1.526  1.00  0.00    -0.0338  C
ATOM     21  C6  959 L   1      -5.434  -0.409   0.731  1.00  0.00    -0.0454  C
ATOM     22  C7  959 L   1      -4.711  -0.291  -0.611  1.00  0.00    -0.0226  C
ATOM     23 H22  959 L   1      -3.169   2.077   1.263  1.00  0.00    +0.0576  H
ATOM     24 H23  959 L   1      -4.915   0.609   2.585  1.00  0.00    +0.0308  H
ATOM     25 H24  959 L   1      -5.829   1.619   1.436  1.00  0.00    +0.0308  H
ATOM     26 H25  959 L   1      -5.082  -1.303   1.263  1.00  0.00    +0.0271  H
ATOM     27 H26  959 L   1      -6.517  -0.513   0.608  1.00  0.00    +0.0271  H
ATOM     28 H27  959 L   1      -5.365   0.137  -1.378  1.00  0.00    +0.0315  H
ATOM     29 H28  959 L   1      -4.351  -1.267  -0.951  1.00  0.00    +0.0315  H
ENDBRANCH 2 18
BRANCH 6 30
ATOM     30 C12  959 L   1       2.501  -1.426  -0.615  1.00  0.00    +0.0425  A
ATOM     31 C13  959 L   1       2.959  -2.731  -0.553  1.00  0.00    -0.0207  A
ATOM     32 C14  959 L   1       4.356  -2.639  -0.487  1.00  0.00    +0.0497  A
ATOM     33 N15  959 L   1       4.776  -1.375  -0.500  1.00  0.00    -0.1793 NA
ATOM     34 N16  959 L   1       3.638  -0.648  -0.600  1.00  0.00    -0.2659  N
ATOM     35 H34  959 L   1       2.358  -3.629  -0.551  1.00  0.00    +0.0651  H
ATOM     36 H35  959 L   1       5.084  -3.437  -0.425  1.00  0.00    +0.0848  H
BRANCH 34 37
ATOM     37 C17  959 L   1       3.781   0.799  -0.660  1.00  0.00    +0.0649  C
ATOM     38 H36  959 L   1       2.800   1.244  -0.820  1.00  0.00    +0.0531  H
ATOM     39 H37  959 L   1       4.406   1.012  -1.534  1.00  0.00    +0.0531  H
BRANCH 37 40
ATOM     40 C18  959 L   1       4.408   1.349   0.617  1.00  0.00    +0.0637  C
ATOM     41 O19  959 L   1       5.802   1.054   0.685  1.00  0.00    -0.3932 OA
ATOM     42 H38  959 L   1       4.310   2.439   0.639  1.00  0.00    +0.0575  H
ATOM     43 H39  959 L   1       3.926   0.945   1.514  1.00  0.00    +0.0575  H
ATOM     44 H40  959 L   1       5.893   0.103   0.452  1.00  0.00    +0.2095 HD
ENDBRANCH 37 40
ENDBRANCH 34 37
ENDBRANCH 6 30
TORSDOF 4
