ROOT
ATOM      1  C3  CHE L   1      -0.738  -0.461  -1.682  1.00  0.00    +0.1623  A
ATOM      2  C4  CHE L   1      -2.090  -0.168  -1.480  1.00  0.00    -0.0052  A
ATOM      3  C5  CHE L   1      -2.703  -0.306  -0.209  1.00  0.00    +0.0270  A
ATOM      4  C6  CHE L   1      -4.070   0.005   0.054  1.00  0.00    +0.0462  A
ATOM      5 C11  CHE L   1      -4.574  -0.285   1.323  1.00  0.00    -0.0199  A
ATOM      6 C12  CHE L   1      -3.716  -0.759   2.295  1.00  0.00    +0.0302  A
ATOM      7 N13  CHE L   1      -2.406  -0.990   2.093  1.00  0.00    -0.2547 NA
ATOM      8 C14  CHE L   1      -1.915  -0.782   0.863  1.00  0.00    +0.0766  A
ATOM      9 C15  CHE L   1      -0.572  -1.064   0.652  1.00  0.00    +0.0097  A
ATOM     10 C16  CHE L   1       0.032  -0.904  -0.598  1.00  0.00    +0.1639  A
ATOM     11 H29  CHE L   1      -2.700   0.158  -2.314  1.00  0.00    +0.0662  H
ATOM     12 H37  CHE L   1      -5.617  -0.145   1.575  1.00  0.00    +0.0653  H
ATOM     13 H38  CHE L   1      -4.074  -0.978   3.298  1.00  0.00    +0.0830  H
ATOM     14 H39  CHE L   1      -0.008  -1.431   1.503  1.00  0.00    +0.0677  H
ENDROOT
BRANCH 1 16
ATOM     15  C1  CHE L   1      -0.837   0.104  -4.002  1.00  0.00    +0.0790  C
ATOM     16  O2  CHE L   1      -0.085  -0.343  -2.883  1.00  0.00    -0.4914 OA
ATOM     17 H26  CHE L   1      -1.646  -0.594  -4.240  1.00  0.00    +0.0660  H
ATOM     18 H27  CHE L   1      -1.220   1.117  -3.841  1.00  0.00    +0.0660  H
ATOM     19 H28  CHE L   1      -0.164   0.138  -4.864  1.00  0.00    +0.0660  H
ENDBRANCH 1 16
BRANCH 4 20
ATOM     20  N7  CHE L   1      -4.907   0.465  -0.979  1.00  0.00    -0.3827  N
ATOM     21 H30  CHE L   1      -4.408   1.058  -1.648  1.00  0.00    +0.1597 HD
BRANCH 20 22
ATOM     22  C8  CHE L   1      -6.190   1.100  -0.671  1.00  0.00    +0.0279  C
ATOM     23 H31  CHE L   1      -6.931   0.346  -0.384  1.00  0.00    +0.0498  H
ATOM     24 H32  CHE L   1      -6.077   1.819   0.150  1.00  0.00    +0.0498  H
BRANCH 22 25
ATOM     25  C9  CHE L   1      -6.684   1.858  -1.924  1.00  0.00    +0.0105  C
ATOM     26 N10  CHE L   1      -5.650   2.762  -2.455  1.00  0.00    -0.3283 NA
ATOM     27 H33  CHE L   1      -7.586   2.429  -1.679  1.00  0.00    +0.0439  H
ATOM     28 H34  CHE L   1      -6.944   1.138  -2.708  1.00  0.00    +0.0439  H
ATOM     29 H35  CHE L   1      -5.417   3.458  -1.746  1.00  0.00    +0.1183 HD
ATOM     30 H36  CHE L   1      -6.034   3.276  -3.248  1.00  0.00    +0.1183 HD
ENDBRANCH 22 25
ENDBRANCH 20 22
ENDBRANCH 4 20
BRANCH 10 31
ATOM     31 O17  CHE L   1       1.351  -1.179  -0.863  1.00  0.00    -0.4882 OA
BRANCH 31 32
ATOM     32 C18  CHE L   1       2.225  -1.362   0.253  1.00  0.00    +0.0909  C
ATOM     33 H40  CHE L   1       2.147  -0.505   0.932  1.00  0.00    +0.0697  H
ATOM     34 H41  CHE L   1       1.964  -2.288   0.780  1.00  0.00    +0.0697  H
BRANCH 32 35
ATOM     35 C19  CHE L   1       3.647  -1.474  -0.293  1.00  0.00    -0.0058  C
ATOM     36 H42  CHE L   1       3.893  -0.572  -0.868  1.00  0.00    +0.0310  H
ATOM     37 H43  CHE L   1       3.684  -2.296  -1.020  1.00  0.00    +0.0310  H
BRANCH 35 38
ATOM     38 C20  CHE L   1       4.690  -1.730   0.797  1.00  0.00    +0.0020  C
ATOM     39 H44  CHE L   1       4.453  -2.692   1.270  1.00  0.00    +0.0428  H
ATOM     40 H45  CHE L   1       5.674  -1.847   0.326  1.00  0.00    +0.0428  H
BRANCH 38 41
ATOM     41 N21  CHE L   1       4.728  -0.691   1.829  1.00  0.00    -0.3022 NA
ATOM     42 C22  CHE L   1       5.165   0.615   1.331  1.00  0.00    -0.0011  C
ATOM     43 C23  CHE L   1       5.549   1.373   2.597  1.00  0.00    -0.0390  C
ATOM     44 C24  CHE L   1       5.783   0.300   3.653  1.00  0.00    -0.0390  C
ATOM     45 C25  CHE L   1       5.667  -1.018   2.905  1.00  0.00    -0.0011  C
ATOM     46 H46  CHE L   1       6.041   0.527   0.675  1.00  0.00    +0.0426  H
ATOM     47 H47  CHE L   1       4.374   1.140   0.785  1.00  0.00    +0.0426  H
ATOM     48 H48  CHE L   1       6.447   1.981   2.433  1.00  0.00    +0.0278  H
ATOM     49 H49  CHE L   1       4.741   2.042   2.914  1.00  0.00    +0.0278  H
ATOM     50 H50  CHE L   1       6.756   0.411   4.141  1.00  0.00    +0.0278  H
ATOM     51 H51  CHE L   1       5.011   0.373   4.431  1.00  0.00    +0.0278  H
ATOM     52 H52  CHE L   1       6.648  -1.313   2.511  1.00  0.00    +0.0426  H
ATOM     53 H53  CHE L   1       5.293  -1.817   3.553  1.00  0.00    +0.0426  H
ENDBRANCH 38 41
ENDBRANCH 35 38
ENDBRANCH 32 35
ENDBRANCH 31 32
ENDBRANCH 10 31
TORSDOF 9
