ROOT
ATOM      1 C30  WH0 L   1      -1.410  -3.176  -0.083  1.00  0.00    -0.0133  A
ATOM      2 C31  WH0 L   1      -0.264  -3.503  -0.843  1.00  0.00    -0.0519  A
ATOM      3 C32  WH0 L   1       0.164  -4.829  -0.972  1.00  0.00    -0.0374  A
ATOM      4 C33  WH0 L   1      -0.580  -5.796  -0.333  1.00  0.00    +0.0454  A
ATOM      5 C34  WH0 L   1      -1.711  -5.494   0.421  1.00  0.00    -0.0145  A
ATOM      6 C35  WH0 L   1      -2.140  -4.187   0.563  1.00  0.00    -0.0483  A
ATOM      7 C36  WH0 L   1      -2.293  -6.761   0.971  1.00  0.00    +0.0535  C
ATOM      8 C37  WH0 L   1      -1.331  -7.822   0.423  1.00  0.00    +0.2296  C
ATOM      9 O38  WH0 L   1      -1.397  -9.027   0.600  1.00  0.00    -0.2725 OA
ATOM     10 N39  WH0 L   1      -0.362  -7.163  -0.323  1.00  0.00    -0.3256  N
ATOM     11 H67  WH0 L   1       0.302  -2.721  -1.345  1.00  0.00    +0.0624  H
ATOM     12 H68  WH0 L   1       1.043  -5.076  -1.557  1.00  0.00    +0.0638  H
ATOM     13 H69  WH0 L   1      -3.015  -3.956   1.162  1.00  0.00    +0.0627  H
ATOM     14 H70  WH0 L   1      -3.297  -6.939   0.577  1.00  0.00    +0.0410  H
ATOM     15 H71  WH0 L   1      -2.270  -6.771   2.063  1.00  0.00    +0.0410  H
ATOM     16 H72  WH0 L   1       0.388  -7.647  -0.794  1.00  0.00    +0.1686 HD
ENDROOT
BRANCH 1 25
ATOM     17 C14  WH0 L   1      -1.094  -0.627   0.440  1.00  0.00    +0.1015  A
ATOM     18 N15  WH0 L   1      -1.845   0.481   0.354  1.00  0.00    -0.1627 NA
ATOM     19 N16  WH0 L   1      -3.043   0.054  -0.116  1.00  0.00    -0.1987  N
ATOM     20 C17  WH0 L   1      -4.177   0.906  -0.328  1.00  0.00    +0.2282  A
ATOM     21 N25  WH0 L   1      -5.302   0.349  -0.727  1.00  0.00    -0.2207 NA
ATOM     22 C26  WH0 L   1      -5.319  -1.006  -0.968  1.00  0.00    +0.0334  A
ATOM     23 C27  WH0 L   1      -4.285  -1.843  -0.798  1.00  0.00    -0.0173  A
ATOM     24 C28  WH0 L   1      -3.070  -1.312  -0.314  1.00  0.00    +0.0803  A
ATOM     25 C29  WH0 L   1      -1.822  -1.787   0.031  1.00  0.00    +0.0353  A
ATOM     26 H65  WH0 L   1      -6.266  -1.394  -1.336  1.00  0.00    +0.0831  H
ATOM     27 H66  WH0 L   1      -4.381  -2.899  -1.024  1.00  0.00    +0.0654  H
BRANCH 17 30
ATOM     28 C11  WH0 L   1       2.504   0.470   0.730  1.00  0.00    -0.0115  A
ATOM     29 C12  WH0 L   1       1.161   0.397   0.329  1.00  0.00    -0.0466  A
ATOM     30 C13  WH0 L   1       0.290  -0.544   0.903  1.00  0.00    +0.0032  A
ATOM     31 C40  WH0 L   1       0.767  -1.403   1.902  1.00  0.00    -0.0498  A
ATOM     32 C41  WH0 L   1       2.100  -1.331   2.311  1.00  0.00    -0.0256  A
ATOM     33 C42  WH0 L   1       2.954  -0.406   1.721  1.00  0.00    +0.1266  A
ATOM     34 F43  WH0 L   1       4.236  -0.367   2.114  1.00  0.00    -0.2052  F
ATOM     35 H53  WH0 L   1       0.789   1.066  -0.445  1.00  0.00    +0.0628  H
ATOM     36 H73  WH0 L   1       0.107  -2.129   2.371  1.00  0.00    +0.0625  H
ATOM     37 H74  WH0 L   1       2.479  -1.995   3.082  1.00  0.00    +0.0646  H
BRANCH 28 38
ATOM     38 C10  WH0 L   1       3.452   1.437   0.069  1.00  0.00    -0.0234  C
ATOM     39 H51  WH0 L   1       4.226   1.734   0.785  1.00  0.00    +0.0315  H
ATOM     40 H52  WH0 L   1       2.912   2.356  -0.190  1.00  0.00    +0.0315  H
BRANCH 38 41
ATOM     41  C9  WH0 L   1       4.082   0.824  -1.186  1.00  0.00    -0.0314  C
ATOM     42 H49  WH0 L   1       4.607  -0.103  -0.925  1.00  0.00    +0.0285  H
ATOM     43 H50  WH0 L   1       3.290   0.545  -1.892  1.00  0.00    +0.0285  H
BRANCH 41 44
ATOM     44  C8  WH0 L   1       5.037   1.788  -1.888  1.00  0.00    +0.0187  C
ATOM     45 H47  WH0 L   1       5.368   1.347  -2.835  1.00  0.00    +0.0486  H
ATOM     46 H48  WH0 L   1       4.535   2.734  -2.115  1.00  0.00    +0.0486  H
BRANCH 44 49
ATOM     47  C5  WH0 L   1       7.266   1.217  -0.993  1.00  0.00    +0.2618  C
ATOM     48  O6  WH0 L   1       7.290   0.145  -1.591  1.00  0.00    -0.2669 OA
ATOM     49  N7  WH0 L   1       6.210   2.097  -1.093  1.00  0.00    -0.3514  N
ATOM     50 H46  WH0 L   1       6.197   2.965  -0.569  1.00  0.00    +0.1626 HD
BRANCH 47 52
ATOM     51  C1  WH0 L   1       9.401   0.775   0.114  1.00  0.00    -0.0760  C
ATOM     52  C2  WH0 L   1       8.394   1.640  -0.102  1.00  0.00    +0.1085  C
ATOM     53 H44  WH0 L   1      10.245   1.027   0.749  1.00  0.00    +0.0549  H
ATOM     54 H45  WH0 L   1       9.407  -0.212  -0.342  1.00  0.00    +0.0549  H
BRANCH 52 55
ATOM     55  C3  WH0 L   1       8.404   2.925   0.502  1.00  0.00    +0.1040  C
ATOM     56  N4  WH0 L   1       8.377   3.982   0.980  1.00  0.00    -0.1907 NA
ENDBRANCH 52 55
ENDBRANCH 47 52
ENDBRANCH 44 49
ENDBRANCH 41 44
ENDBRANCH 38 41
ENDBRANCH 28 38
ENDBRANCH 17 30
BRANCH 20 57
ATOM     57 N18  WH0 L   1      -4.141   2.293  -0.112  1.00  0.00    -0.3402  N
ATOM     58 C19  WH0 L   1      -2.895   3.061  -0.038  1.00  0.00    +0.0228  C
ATOM     59 C20  WH0 L   1      -3.114   4.500  -0.505  1.00  0.00    -0.0199  C
ATOM     60 C21  WH0 L   1      -4.258   5.161   0.261  1.00  0.00    +0.0080  C
ATOM     61 N22  WH0 L   1      -4.470   6.525  -0.230  1.00  0.00    -0.3271 NA
ATOM     62 C23  WH0 L   1      -5.527   4.324   0.113  1.00  0.00    -0.0199  C
ATOM     63 C24  WH0 L   1      -5.281   2.897   0.591  1.00  0.00    +0.0228  C
ATOM     64 H54  WH0 L   1      -2.508   3.052   0.988  1.00  0.00    +0.0489  H
ATOM     65 H55  WH0 L   1      -2.136   2.639  -0.705  1.00  0.00    +0.0489  H
ATOM     66 H56  WH0 L   1      -3.337   4.495  -1.581  1.00  0.00    +0.0297  H
ATOM     67 H57  WH0 L   1      -2.187   5.070  -0.374  1.00  0.00    +0.0297  H
ATOM     68 H58  WH0 L   1      -3.988   5.224   1.322  1.00  0.00    +0.0459  H
ATOM     69 H59  WH0 L   1      -4.723   6.499  -1.218  1.00  0.00    +0.1185 HD
ATOM     70 H60  WH0 L   1      -5.266   6.944   0.250  1.00  0.00    +0.1185 HD
ATOM     71 H61  WH0 L   1      -6.346   4.766   0.694  1.00  0.00    +0.0297  H
ATOM     72 H62  WH0 L   1      -5.850   4.304  -0.936  1.00  0.00    +0.0297  H
ATOM     73 H63  WH0 L   1      -6.203   2.326   0.434  1.00  0.00    +0.0489  H
ATOM     74 H64  WH0 L   1      -5.082   2.887   1.670  1.00  0.00    +0.0489  H
ENDBRANCH 20 57
ENDBRANCH 1 25
TORSDOF 9
