ROOT
ATOM      1 C12  WH0 L   1      -1.306  -1.444   0.329  1.00  0.00    +0.0880  C
ATOM      2 C13  WH0 L   1      -2.081  -0.594  -0.736  1.00  0.00    +0.0835  C
ATOM      3 C24  WH0 L   1      -3.027  -1.436  -1.648  1.00  0.00    +0.0873  C
ATOM      4 C25  WH0 L   1      -2.241  -2.176  -2.759  1.00  0.00    -0.0340  C
ATOM      5 O26  WH0 L   1      -3.967  -0.591  -2.273  1.00  0.00    -0.3867 OA
ATOM      6 C27  WH0 L   1      -3.811  -2.451  -0.794  1.00  0.00    -0.0039  C
ATOM      7 C28  WH0 L   1      -2.942  -3.245   0.204  1.00  0.00    +0.0325  C
ATOM      8 N29  WH0 L   1      -1.506  -2.904   0.138  1.00  0.00    -0.2915 NA
ATOM      9 H46  WH0 L   1      -1.700  -1.175   1.338  1.00  0.00    +0.0602  H
ATOM     10 H47  WH0 L   1      -1.363  -0.093  -1.426  1.00  0.00    +0.0575  H
ATOM     11 H53  WH0 L   1      -1.630  -1.459  -3.348  1.00  0.00    +0.0258  H
ATOM     12 H54  WH0 L   1      -2.949  -2.669  -3.460  1.00  0.00    +0.0258  H
ATOM     13 H55  WH0 L   1      -1.568  -2.958  -2.354  1.00  0.00    +0.0258  H
ATOM     14 H56  WH0 L   1      -3.465   0.096  -2.788  1.00  0.00    +0.2102 HD
ATOM     15 H57  WH0 L   1      -4.358  -3.157  -1.461  1.00  0.00    +0.0311  H
ATOM     16 H58  WH0 L   1      -4.599  -1.913  -0.220  1.00  0.00    +0.0311  H
ATOM     17 H59  WH0 L   1      -3.072  -4.321  -0.037  1.00  0.00    +0.0496  H
ATOM     18 H60  WH0 L   1      -3.332  -3.082   1.235  1.00  0.00    +0.0496  H
ENDROOT
BRANCH 1 22
ATOM     19  C8  WH0 L   1       2.894  -0.363   0.183  1.00  0.00    -0.0457  A
ATOM     20  C9  WH0 L   1       2.097   0.033   1.268  1.00  0.00    -0.0582  A
ATOM     21 C10  WH0 L   1       0.746  -0.322   1.318  1.00  0.00    -0.0563  A
ATOM     22 C11  WH0 L   1       0.169  -1.074   0.281  1.00  0.00    -0.0223  A
ATOM     23 C34  WH0 L   1       0.965  -1.448  -0.817  1.00  0.00    -0.0563  A
ATOM     24 C35  WH0 L   1       2.316  -1.095  -0.865  1.00  0.00    -0.0582  A
ATOM     25 H44  WH0 L   1       2.521   0.620   2.073  1.00  0.00    +0.0620  H
ATOM     26 H45  WH0 L   1       0.151  -0.002   2.165  1.00  0.00    +0.0621  H
ATOM     27 H64  WH0 L   1       0.544  -2.014  -1.636  1.00  0.00    +0.0621  H
ATOM     28 H65  WH0 L   1       2.908  -1.388  -1.722  1.00  0.00    +0.0620  H
BRANCH 19 29
ATOM     29  C7  WH0 L   1       4.341   0.045   0.112  1.00  0.00    -0.0102  C
ATOM     30 H42  WH0 L   1       4.759   0.120   1.140  1.00  0.00    +0.0330  H
ATOM     31 H43  WH0 L   1       4.928  -0.733  -0.425  1.00  0.00    +0.0330  H
BRANCH 29 32
ATOM     32  C6  WH0 L   1       4.489   1.385  -0.614  1.00  0.00    +0.0223  C
ATOM     33 H40  WH0 L   1       4.038   1.304  -1.629  1.00  0.00    +0.0489  H
ATOM     34 H41  WH0 L   1       3.949   2.189  -0.065  1.00  0.00    +0.0489  H
BRANCH 32 37
ATOM     35  C3  WH0 L   1       6.670   2.275   0.340  1.00  0.00    +0.2443  C
ATOM     36  O4  WH0 L   1       6.153   2.356   1.487  1.00  0.00    -0.2683 OA
ATOM     37  N5  WH0 L   1       5.901   1.738  -0.752  1.00  0.00    -0.3522  N
ATOM     38 H39  WH0 L   1       6.344   1.579  -1.683  1.00  0.00    +0.1626 HD
BRANCH 35 40
ATOM     39  C1  WH0 L   1       8.636   2.965  -1.009  1.00  0.00    -0.0936  C
ATOM     40  C2  WH0 L   1       8.068   2.724   0.174  1.00  0.00    -0.0047  C
ATOM     41 H36  WH0 L   1       8.102   2.863  -1.944  1.00  0.00    +0.0536  H
ATOM     42 H37  WH0 L   1       9.662   3.308  -1.049  1.00  0.00    +0.0536  H
ATOM     43 H38  WH0 L   1       8.654   2.906   1.068  1.00  0.00    +0.0666  H
ENDBRANCH 35 40
ENDBRANCH 32 37
ENDBRANCH 29 32
ENDBRANCH 19 29
ENDBRANCH 1 22
BRANCH 2 44
ATOM     44 N14  WH0 L   1      -2.844   0.459  -0.049  1.00  0.00    -0.3442  N
ATOM     45 C15  WH0 L   1      -2.313   1.775   0.176  1.00  0.00    +0.2524  C
ATOM     46 O16  WH0 L   1      -1.091   1.999  -0.041  1.00  0.00    -0.2676 OA
ATOM     47 H48  WH0 L   1      -3.729   0.188   0.436  1.00  0.00    +0.1631 HD
BRANCH 45 48
ATOM     48 C17  WH0 L   1      -3.173   2.870   0.689  1.00  0.00    +0.0391  A
ATOM     49 C18  WH0 L   1      -4.573   2.821   0.547  1.00  0.00    -0.0467  A
ATOM     50 C19  WH0 L   1      -5.373   3.860   1.036  1.00  0.00    -0.0257  A
ATOM     51 C20  WH0 L   1      -4.785   4.959   1.669  1.00  0.00    +0.1234  A
ATOM     52 F21  WH0 L   1      -5.560   5.969   2.138  1.00  0.00    -0.2055  F
ATOM     53 C22  WH0 L   1      -3.396   5.030   1.797  1.00  0.00    -0.0257  A
ATOM     54 C23  WH0 L   1      -2.593   3.993   1.311  1.00  0.00    -0.0467  A
ATOM     55 H49  WH0 L   1      -5.055   1.993   0.043  1.00  0.00    +0.0626  H
ATOM     56 H50  WH0 L   1      -6.450   3.812   0.927  1.00  0.00    +0.0646  H
ATOM     57 H51  WH0 L   1      -2.938   5.889   2.274  1.00  0.00    +0.0646  H
ATOM     58 H52  WH0 L   1      -1.519   4.067   1.430  1.00  0.00    +0.0626  H
ENDBRANCH 45 48
ENDBRANCH 2 44
BRANCH 8 59
ATOM     59 S30  WH0 L   1      -0.669  -3.820   1.386  1.00  0.00    +0.2299  S
ATOM     60 C31  WH0 L   1      -1.143  -5.541   1.369  1.00  0.00    +0.0573  C
ATOM     61 O32  WH0 L   1      -0.978  -3.248   2.743  1.00  0.00    -0.2056 OA
ATOM     62 O33  WH0 L   1       0.816  -3.763   1.155  1.00  0.00    -0.2056 OA
ATOM     63 H61  WH0 L   1      -1.101  -5.928   0.330  1.00  0.00    +0.0407  H
ATOM     64 H62  WH0 L   1      -2.171  -5.655   1.770  1.00  0.00    +0.0407  H
ATOM     65 H63  WH0 L   1      -0.446  -6.124   2.005  1.00  0.00    +0.0407  H
ENDBRANCH 8 59
TORSDOF 8
