ROOT
ATOM      1  C6  524 L   1       1.252  -0.153   0.551  1.00  0.00    +0.0414  A
ATOM      2  C7  524 L   1       1.684  -1.458   0.326  1.00  0.00    -0.0380  A
ATOM      3  C8  524 L   1       0.759  -2.481   0.122  1.00  0.00    -0.0547  A
ATOM      4  C9  524 L   1      -0.620  -2.214   0.130  1.00  0.00    -0.0236  A
ATOM      5 C10  524 L   1      -1.080  -0.899   0.343  1.00  0.00    +0.0497  A
ATOM      6 C11  524 L   1      -0.129   0.101   0.594  1.00  0.00    -0.0145  A
ATOM      7 N12  524 L   1      -2.489  -0.640   0.366  1.00  0.00    -0.3116  N
ATOM      8 C13  524 L   1      -3.120   0.606   0.253  1.00  0.00    +0.2309  C
ATOM      9 O14  524 L   1      -4.253   0.815   0.683  1.00  0.00    -0.2724 OA
ATOM     10 C18  524 L   1      -3.357  -1.792   0.609  1.00  0.00    +0.0267  C
ATOM     11 C19  524 L   1      -2.989  -2.941  -0.312  1.00  0.00    -0.0308  C
ATOM     12 C20  524 L   1      -1.564  -3.381  -0.028  1.00  0.00    -0.0241  C
ATOM     13 H25  524 L   1       2.742  -1.707   0.351  1.00  0.00    +0.0638  H
ATOM     14 H26  524 L   1       1.119  -3.498  -0.025  1.00  0.00    +0.0622  H
ATOM     15 H27  524 L   1      -0.437   1.104   0.865  1.00  0.00    +0.0659  H
ATOM     16 H33  524 L   1      -4.406  -1.528   0.436  1.00  0.00    +0.0493  H
ATOM     17 H34  524 L   1      -3.262  -2.073   1.665  1.00  0.00    +0.0493  H
ATOM     18 H35  524 L   1      -3.077  -2.618  -1.357  1.00  0.00    +0.0286  H
ATOM     19 H36  524 L   1      -3.676  -3.784  -0.173  1.00  0.00    +0.0286  H
ATOM     20 H37  524 L   1      -1.541  -3.964   0.901  1.00  0.00    +0.0314  H
ATOM     21 H38  524 L   1      -1.223  -4.035  -0.840  1.00  0.00    +0.0314  H
ENDROOT
BRANCH 1 22
ATOM     22  N5  524 L   1       2.138   0.904   0.851  1.00  0.00    -0.3568  N
ATOM     23 H24  524 L   1       2.054   1.184   1.828  1.00  0.00    +0.1656 HD
BRANCH 22 27
ATOM     24  O1  524 L   1       6.677   2.100   0.243  1.00  0.00    -0.2682 OA
ATOM     25  C2  524 L   1       5.565   1.670   0.010  1.00  0.00    +0.2469  C
ATOM     26  C3  524 L   1       4.454   1.621   0.966  1.00  0.00    +0.0233  C
ATOM     27  C4  524 L   1       3.408   1.067   0.336  1.00  0.00    +0.0409  C
ATOM     28 C21  524 L   1       3.747   0.733  -1.096  1.00  0.00    +0.0589  C
ATOM     29 N22  524 L   1       5.110   1.153  -1.172  1.00  0.00    -0.3470  N
ATOM     30 H23  524 L   1       4.527   1.998   1.969  1.00  0.00    +0.0689  H
ATOM     31 H39  524 L   1       3.702  -0.334  -1.324  1.00  0.00    +0.0551  H
ATOM     32 H40  524 L   1       3.153   1.308  -1.812  1.00  0.00    +0.0551  H
ATOM     33 H41  524 L   1       5.706   1.095  -1.986  1.00  0.00    +0.1630 HD
ENDBRANCH 22 27
ENDBRANCH 1 22
BRANCH 8 34
ATOM     34 C15  524 L   1      -2.435   1.688  -0.523  1.00  0.00    +0.0383  C
ATOM     35 C16  524 L   1      -2.182   3.037   0.112  1.00  0.00    -0.0410  C
ATOM     36 C17  524 L   1      -3.210   2.912  -0.971  1.00  0.00    -0.0410  C
ATOM     37 H28  524 L   1      -1.719   1.333  -1.259  1.00  0.00    +0.0396  H
ATOM     38 H29  524 L   1      -1.253   3.543  -0.124  1.00  0.00    +0.0273  H
ATOM     39 H30  524 L   1      -2.537   3.204   1.124  1.00  0.00    +0.0273  H
ATOM     40 H31  524 L   1      -4.255   2.996  -0.690  1.00  0.00    +0.0273  H
ATOM     41 H32  524 L   1      -2.981   3.329  -1.944  1.00  0.00    +0.0273  H
ENDBRANCH 8 34
TORSDOF 3
