ROOT
ATOM      1  C9  CHE L   1       2.984  -0.658  -0.146  1.00  0.00    +0.0439  A
ATOM      2 C10  CHE L   1       3.766   0.158   0.672  1.00  0.00    -0.0376  A
ATOM      3 C11  CHE L   1       3.209   0.901   1.725  1.00  0.00    -0.0506  A
ATOM      4 C12  CHE L   1       1.827   0.824   1.979  1.00  0.00    +0.0006  A
ATOM      5 C13  CHE L   1       0.974   1.420   2.939  1.00  0.00    -0.0331  A
ATOM      6 C14  CHE L   1      -0.314   0.977   2.716  1.00  0.00    +0.0219  A
ATOM      7 C15  CHE L   1      -1.538   1.255   3.524  1.00  0.00    -0.0239  C
ATOM      8 N16  CHE L   1      -0.278   0.113   1.629  1.00  0.00    -0.3104  N
ATOM      9 C33  CHE L   1       1.034   0.017   1.163  1.00  0.00    +0.0561  A
ATOM     10 C34  CHE L   1       1.593  -0.684   0.070  1.00  0.00    -0.0138  A
ATOM     11 H43  CHE L   1       4.839   0.231   0.517  1.00  0.00    +0.0638  H
ATOM     12 H44  CHE L   1       3.852   1.519   2.346  1.00  0.00    +0.0625  H
ATOM     13 H45  CHE L   1       1.275   2.087   3.736  1.00  0.00    +0.0641  H
ATOM     14 H46  CHE L   1      -2.222   1.920   2.986  1.00  0.00    +0.0292  H
ATOM     15 H47  CHE L   1      -1.271   1.747   4.469  1.00  0.00    +0.0292  H
ATOM     16 H48  CHE L   1      -2.058   0.325   3.775  1.00  0.00    +0.0292  H
ATOM     17 H59  CHE L   1       0.962  -1.274  -0.591  1.00  0.00    +0.0659  H
ENDROOT
BRANCH 1 18
ATOM     18  N8  CHE L   1       3.498  -1.414  -1.217  1.00  0.00    -0.3241  N
ATOM     19 H42  CHE L   1       2.891  -2.160  -1.535  1.00  0.00    +0.1688 HD
BRANCH 18 24
ATOM     20  C3  CHE L   1       7.090  -1.499  -1.533  1.00  0.00    +0.1320  A
ATOM     21  C4  CHE L   1       7.261  -2.676  -2.234  1.00  0.00    -0.0014  A
ATOM     22  C5  CHE L   1       6.115  -3.334  -2.600  1.00  0.00    +0.0348  A
ATOM     23  N6  CHE L   1       4.884  -2.907  -2.290  1.00  0.00    -0.2205 NA
ATOM     24  C7  CHE L   1       4.800  -1.780  -1.565  1.00  0.00    +0.2302  A
ATOM     25 N35  CHE L   1       5.870  -1.058  -1.193  1.00  0.00    -0.1954 NA
ATOM     26 H40  CHE L   1       8.238  -3.070  -2.477  1.00  0.00    +0.0669  H
ATOM     27 H41  CHE L   1       6.156  -4.266  -3.158  1.00  0.00    +0.0832  H
BRANCH 20 29
ATOM     28  C1  CHE L   1       7.973   0.538  -0.607  1.00  0.00    +0.0054  C
ATOM     29  N2  CHE L   1       8.242  -0.791  -1.141  1.00  0.00    -0.3726  N
ATOM     30 H36  CHE L   1       7.431   1.162  -1.327  1.00  0.00    +0.0450  H
ATOM     31 H37  CHE L   1       7.421   0.485   0.341  1.00  0.00    +0.0450  H
ATOM     32 H38  CHE L   1       8.929   1.032  -0.405  1.00  0.00    +0.0450  H
ATOM     33 H39  CHE L   1       8.896  -0.749  -1.916  1.00  0.00    +0.1607 HD
ENDBRANCH 20 29
ENDBRANCH 18 24
ENDBRANCH 1 18
BRANCH 8 34
ATOM     34 C17  CHE L   1      -1.400  -0.520   1.047  1.00  0.00    +0.0844  A
ATOM     35 C18  CHE L   1      -2.465   0.269   0.596  1.00  0.00    -0.0255  A
ATOM     36 C19  CHE L   1      -3.572  -0.345   0.005  1.00  0.00    +0.0077  A
ATOM     37 C29  CHE L   1      -3.565  -1.732  -0.092  1.00  0.00    +0.0373  A
ATOM     38 N30  CHE L   1      -2.547  -2.521   0.335  1.00  0.00    -0.2408 NA
ATOM     39 C31  CHE L   1      -1.490  -1.901   0.908  1.00  0.00    +0.1529  A
ATOM     40 CL32 CHE L   1      -0.364  -3.026   1.570  1.00  0.00    -0.0598 Cl
ATOM     41 H49  CHE L   1      -2.430   1.354   0.682  1.00  0.00    +0.0646  H
ATOM     42 H58  CHE L   1      -4.407  -2.273  -0.518  1.00  0.00    +0.0836  H
BRANCH 36 43
ATOM     43 C20  CHE L   1      -4.718   0.444  -0.477  1.00  0.00    +0.0511  A
ATOM     44 C21  CHE L   1      -4.686   1.142  -1.635  1.00  0.00    -0.0361  A
ATOM     45 C22  CHE L   1      -3.526   1.224  -2.592  1.00  0.00    -0.0389  C
ATOM     46 C23  CHE L   1      -5.850   1.908  -2.045  1.00  0.00    -0.0418  A
ATOM     47 C24  CHE L   1      -6.954   1.936  -1.295  1.00  0.00    +0.0079  A
ATOM     48 N25  CHE L   1      -7.031   1.235  -0.109  1.00  0.00    -0.3177  N
ATOM     49 C26  CHE L   1      -8.261   1.327   0.672  1.00  0.00    +0.0147  C
ATOM     50 C27  CHE L   1      -5.977   0.458   0.367  1.00  0.00    +0.2591  A
ATOM     51 O28  CHE L   1      -6.024  -0.194   1.410  1.00  0.00    -0.2670 OA
ATOM     52 H50  CHE L   1      -2.625   0.714  -2.244  1.00  0.00    +0.0278  H
ATOM     53 H51  CHE L   1      -3.802   0.786  -3.558  1.00  0.00    +0.0278  H
ATOM     54 H52  CHE L   1      -3.260   2.274  -2.767  1.00  0.00    +0.0278  H
ATOM     55 H53  CHE L   1      -5.812   2.471  -2.974  1.00  0.00    +0.0635  H
ATOM     56 H54  CHE L   1      -7.829   2.509  -1.589  1.00  0.00    +0.0810  H
ATOM     57 H55  CHE L   1      -8.459   2.378   0.907  1.00  0.00    +0.0457  H
ATOM     58 H56  CHE L   1      -8.193   0.773   1.611  1.00  0.00    +0.0457  H
ATOM     59 H57  CHE L   1      -9.083   0.922   0.078  1.00  0.00    +0.0457  H
ENDBRANCH 36 43
ENDBRANCH 8 34
TORSDOF 5
