ROOT
ATOM      1  C9  CHE L   1       1.774  -0.245   0.603  1.00  0.00    +0.0428  A
ATOM      2 C10  CHE L   1       1.294  -0.889   1.840  1.00  0.00    -0.0218  A
ATOM      3 C11  CHE L   1      -0.019  -0.952   2.116  1.00  0.00    +0.0131  A
ATOM      4 N12  CHE L   1      -0.923  -0.399   1.222  1.00  0.00    -0.3059  N
ATOM      5 C13  CHE L   1      -2.290  -0.333   1.286  1.00  0.00    +0.0372  A
ATOM      6 C14  CHE L   1      -2.688   0.315   0.134  1.00  0.00    +0.0933  A
ATOM      7 N26  CHE L   1      -1.587   0.674  -0.618  1.00  0.00    -0.2276 NA
ATOM      8 C27  CHE L   1      -0.542   0.228   0.048  1.00  0.00    +0.1402  A
ATOM      9 C28  CHE L   1       0.851   0.292  -0.235  1.00  0.00    +0.0044  A
ATOM     10 H38  CHE L   1       2.010  -1.291   2.547  1.00  0.00    +0.0653  H
ATOM     11 H39  CHE L   1      -0.416  -1.406   3.015  1.00  0.00    +0.0814  H
ATOM     12 H40  CHE L   1      -2.841  -0.736   2.122  1.00  0.00    +0.0835  H
ATOM     13 H49  CHE L   1       1.131   0.771  -1.164  1.00  0.00    +0.0675  H
ENDROOT
BRANCH 1 19
ATOM     14  C3  CHE L   1       7.438  -0.085  -0.213  1.00  0.00    +0.4112  C
ATOM     15  O4  CHE L   1       8.150  -1.079  -0.139  1.00  0.00    -0.2235 OA
ATOM     16  N5  CHE L   1       6.063  -0.115  -0.140  1.00  0.00    -0.3048  N
ATOM     17  C6  CHE L   1       5.369  -1.376   0.095  1.00  0.00    +0.0420  C
ATOM     18  C7  CHE L   1       4.101  -1.194   0.944  1.00  0.00    +0.0364  C
ATOM     19  N8  CHE L   1       3.157  -0.206   0.365  1.00  0.00    -0.3671  N
ATOM     20 C29  CHE L   1       3.765   0.764  -0.581  1.00  0.00    +0.0364  C
ATOM     21 C30  CHE L   1       5.229   1.082  -0.234  1.00  0.00    +0.0420  C
ATOM     22 H34  CHE L   1       6.040  -2.094   0.578  1.00  0.00    +0.0507  H
ATOM     23 H35  CHE L   1       5.107  -1.781  -0.890  1.00  0.00    +0.0507  H
ATOM     24 H36  CHE L   1       3.617  -2.174   1.035  1.00  0.00    +0.0505  H
ATOM     25 H37  CHE L   1       4.381  -0.857   1.949  1.00  0.00    +0.0505  H
ATOM     26 H50  CHE L   1       3.705   0.349  -1.594  1.00  0.00    +0.0505  H
ATOM     27 H51  CHE L   1       3.209   1.709  -0.569  1.00  0.00    +0.0505  H
ATOM     28 H52  CHE L   1       5.283   1.582   0.740  1.00  0.00    +0.0507  H
ATOM     29 H53  CHE L   1       5.647   1.764  -0.982  1.00  0.00    +0.0507  H
BRANCH 14 31
ATOM     30  C1  CHE L   1       9.340   1.259  -0.452  1.00  0.00    +0.0835  C
ATOM     31  O2  CHE L   1       7.917   1.179  -0.373  1.00  0.00    -0.4519 OA
ATOM     32 H31  CHE L   1       9.709   0.698  -1.317  1.00  0.00    +0.0661  H
ATOM     33 H32  CHE L   1       9.614   2.310  -0.580  1.00  0.00    +0.0661  H
ATOM     34 H33  CHE L   1       9.799   0.892   0.472  1.00  0.00    +0.0661  H
ENDBRANCH 14 31
ENDBRANCH 1 19
BRANCH 6 35
ATOM     35 C15  CHE L   1      -4.050   0.656  -0.260  1.00  0.00    +0.0451  A
ATOM     36 C16  CHE L   1      -4.222   1.797  -1.061  1.00  0.00    -0.0271  A
ATOM     37 C17  CHE L   1      -5.492   2.199  -1.475  1.00  0.00    +0.0834  A
ATOM     38 CL18 CHE L   1      -5.614   3.622  -2.452  1.00  0.00    -0.0797 Cl
ATOM     39 C19  CHE L   1      -6.630   1.472  -1.100  1.00  0.00    +0.1418  A
ATOM     40 C22  CHE L   1      -6.465   0.327  -0.311  1.00  0.00    +0.0239  A
ATOM     41 C23  CHE L   1      -5.186  -0.099   0.091  1.00  0.00    +0.1328  A
ATOM     42 H41  CHE L   1      -3.352   2.380  -1.359  1.00  0.00    +0.0641  H
ATOM     43 H45  CHE L   1      -7.331  -0.236   0.014  1.00  0.00    +0.0691  H
BRANCH 39 44
ATOM     44 O20  CHE L   1      -7.839   1.948  -1.537  1.00  0.00    -0.4935 OA
ATOM     45 C21  CHE L   1      -9.006   1.211  -1.202  1.00  0.00    +0.0789  C
ATOM     46 H42  CHE L   1      -9.864   1.721  -1.650  1.00  0.00    +0.0660  H
ATOM     47 H43  CHE L   1      -8.968   0.198  -1.616  1.00  0.00    +0.0660  H
ATOM     48 H44  CHE L   1      -9.162   1.190  -0.118  1.00  0.00    +0.0660  H
ENDBRANCH 39 44
BRANCH 41 49
ATOM     49 O24  CHE L   1      -5.009  -1.224   0.859  1.00  0.00    -0.4943 OA
ATOM     50 C25  CHE L   1      -5.889  -2.311   0.579  1.00  0.00    +0.0788  C
ATOM     51 H46  CHE L   1      -6.855  -2.161   1.075  1.00  0.00    +0.0660  H
ATOM     52 H47  CHE L   1      -5.441  -3.220   0.996  1.00  0.00    +0.0660  H
ATOM     53 H48  CHE L   1      -6.018  -2.466  -0.499  1.00  0.00    +0.0660  H
ENDBRANCH 41 49
ENDBRANCH 6 35
TORSDOF 5
