ROOT
ATOM      1  C1  CHE L   1      -6.925  -0.031  -0.701  1.00  0.00    -0.0594  C
ATOM      2  C2  CHE L   1      -5.914   0.730   0.164  1.00  0.00    -0.0102  C
ATOM      3  C3  CHE L   1      -4.517   0.702  -0.470  1.00  0.00    +0.0347  C
ATOM      4  N4  CHE L   1      -3.621   1.602   0.275  1.00  0.00    -0.2840 NA
ATOM      5 C26  CHE L   1      -3.828   1.761   1.725  1.00  0.00    +0.0321  C
ATOM      6 C27  CHE L   1      -4.499   0.518   2.291  1.00  0.00    -0.0190  C
ATOM      7 C28  CHE L   1      -5.874   0.272   1.644  1.00  0.00    +0.0107  C
ATOM      8 N29  CHE L   1      -6.244  -1.133   1.851  1.00  0.00    -0.3269 NA
ATOM      9 H30  CHE L   1      -7.926   0.006  -0.259  1.00  0.00    +0.0233  H
ATOM     10 H31  CHE L   1      -6.986   0.412  -1.702  1.00  0.00    +0.0233  H
ATOM     11 H32  CHE L   1      -6.635  -1.079  -0.830  1.00  0.00    +0.0233  H
ATOM     12 H33  CHE L   1      -6.251   1.781   0.164  1.00  0.00    +0.0330  H
ATOM     13 H34  CHE L   1      -4.595   1.026  -1.514  1.00  0.00    +0.0499  H
ATOM     14 H35  CHE L   1      -4.114  -0.317  -0.466  1.00  0.00    +0.0499  H
ATOM     15 H54  CHE L   1      -2.869   1.905   2.236  1.00  0.00    +0.0496  H
ATOM     16 H55  CHE L   1      -4.444   2.650   1.904  1.00  0.00    +0.0496  H
ATOM     17 H56  CHE L   1      -4.610   0.605   3.378  1.00  0.00    +0.0298  H
ATOM     18 H57  CHE L   1      -3.839  -0.341   2.113  1.00  0.00    +0.0298  H
ATOM     19 H58  CHE L   1      -6.622   0.874   2.178  1.00  0.00    +0.0462  H
ATOM     20 H59  CHE L   1      -6.262  -1.328   2.854  1.00  0.00    +0.1185 HD
ATOM     21 H60  CHE L   1      -5.544  -1.757   1.446  1.00  0.00    +0.1185 HD
ENDROOT
BRANCH 4 22
ATOM     22  S5  CHE L   1      -2.318   2.334  -0.454  1.00  0.00    +0.3197  S
ATOM     23  O6  CHE L   1      -2.438   2.226  -1.890  1.00  0.00    -0.1824 OA
ATOM     24  O7  CHE L   1      -2.100   3.608   0.194  1.00  0.00    -0.1824 OA
BRANCH 22 25
ATOM     25  N8  CHE L   1      -1.038   1.301   0.023  1.00  0.00    -0.2815 NA
ATOM     26  C9  CHE L   1      -1.207  -0.124  -0.387  1.00  0.00    +0.0329  C
ATOM     27 C10  CHE L   1       0.094  -0.904  -0.299  1.00  0.00    -0.0141  C
ATOM     28 C11  CHE L   1       1.135  -0.328  -1.260  1.00  0.00    +0.0335  C
ATOM     29 C23  CHE L   1       1.006   1.189  -1.427  1.00  0.00    -0.0115  C
ATOM     30 C24  CHE L   1       0.313   1.895  -0.260  1.00  0.00    +0.0410  C
ATOM     31 C25  CHE L   1       1.137   1.922   1.026  1.00  0.00    -0.0438  C
ATOM     32 H36  CHE L   1      -1.923  -0.596   0.294  1.00  0.00    +0.0496  H
ATOM     33 H37  CHE L   1      -1.606  -0.195  -1.407  1.00  0.00    +0.0496  H
ATOM     34 H38  CHE L   1       0.462  -0.908   0.734  1.00  0.00    +0.0302  H
ATOM     35 H39  CHE L   1      -0.096  -1.956  -0.548  1.00  0.00    +0.0302  H
ATOM     36 H40  CHE L   1       0.959  -0.770  -2.250  1.00  0.00    +0.0524  H
ATOM     37 H48  CHE L   1       0.397   1.369  -2.321  1.00  0.00    +0.0305  H
ATOM     38 H49  CHE L   1       1.979   1.650  -1.631  1.00  0.00    +0.0305  H
ATOM     39 H50  CHE L   1       0.202   2.944  -0.562  1.00  0.00    +0.0529  H
ATOM     40 H51  CHE L   1       2.112   2.389   0.848  1.00  0.00    +0.0250  H
ATOM     41 H52  CHE L   1       0.618   2.507   1.794  1.00  0.00    +0.0250  H
ATOM     42 H53  CHE L   1       1.316   0.930   1.446  1.00  0.00    +0.0250  H
BRANCH 28 43
ATOM     43 N12  CHE L   1       2.489  -0.716  -0.878  1.00  0.00    -0.3478  N
ATOM     44 C13  CHE L   1       2.961  -1.996  -1.131  1.00  0.00    +0.2739  C
ATOM     45 O14  CHE L   1       2.263  -2.837  -1.700  1.00  0.00    -0.2658 OA
ATOM     46 H41  CHE L   1       2.986  -0.136  -0.221  1.00  0.00    +0.1629 HD
BRANCH 44 47
ATOM     47 C15  CHE L   1       4.348  -2.249  -0.715  1.00  0.00    +0.1701  A
ATOM     48 C16  CHE L   1       5.355  -1.316  -0.336  1.00  0.00    +0.0132  A
ATOM     49 C17  CHE L   1       6.480  -2.083  -0.144  1.00  0.00    +0.1411  A
ATOM     50 O21  CHE L   1       6.176  -3.390  -0.347  1.00  0.00    -0.3586 OA
ATOM     51 N22  CHE L   1       4.847  -3.499  -0.700  1.00  0.00    -0.0732 NA
ATOM     52 H42  CHE L   1       5.289  -0.241  -0.261  1.00  0.00    +0.0676  H
BRANCH 49 53
ATOM     53 C18  CHE L   1       7.883  -1.568   0.257  1.00  0.00    +0.0199  C
ATOM     54 C19  CHE L   1       9.069  -2.057  -0.537  1.00  0.00    -0.0426  C
ATOM     55 C20  CHE L   1       8.630  -0.626  -0.651  1.00  0.00    -0.0426  C
ATOM     56 H43  CHE L   1       8.032  -1.470   1.326  1.00  0.00    +0.0380  H
ATOM     57 H44  CHE L   1       9.982  -2.273   0.010  1.00  0.00    +0.0272  H
ATOM     58 H45  CHE L   1       8.901  -2.706  -1.390  1.00  0.00    +0.0272  H
ATOM     59 H46  CHE L   1       9.261   0.131  -0.195  1.00  0.00    +0.0272  H
ATOM     60 H47  CHE L   1       8.163  -0.311  -1.577  1.00  0.00    +0.0272  H
ENDBRANCH 49 53
ENDBRANCH 44 47
ENDBRANCH 28 43
ENDBRANCH 22 25
ENDBRANCH 4 22
TORSDOF 5
