ROOT
ATOM      1  C4  CHE L   1       0.639  -1.771  -0.110  1.00  0.00    +0.0338  C
ATOM      2  C5  CHE L   1       0.020  -1.624   1.300  1.00  0.00    -0.0112  C
ATOM      3  C6  CHE L   1      -0.715  -0.291   1.514  1.00  0.00    +0.0441  C
ATOM      4  C7  CHE L   1       0.178   0.930   1.273  1.00  0.00    -0.0298  C
ATOM      5  C8  CHE L   1       0.039   1.235  -0.219  1.00  0.00    -0.0298  C
ATOM      6  C9  CHE L   1      -0.933   0.176  -0.751  1.00  0.00    +0.0441  C
ATOM      7 C10  CHE L   1      -0.220  -1.108  -1.211  1.00  0.00    -0.0112  C
ATOM      8 N11  CHE L   1      -1.734  -0.216   0.435  1.00  0.00    -0.2782 NA
ATOM      9 H30  CHE L   1       0.705  -2.843  -0.339  1.00  0.00    +0.0524  H
ATOM     10 H31  CHE L   1       0.774  -1.756   2.084  1.00  0.00    +0.0305  H
ATOM     11 H32  CHE L   1      -0.712  -2.434   1.429  1.00  0.00    +0.0305  H
ATOM     12 H33  CHE L   1      -1.158  -0.279   2.515  1.00  0.00    +0.0532  H
ATOM     13 H34  CHE L   1       1.217   0.765   1.576  1.00  0.00    +0.0286  H
ATOM     14 H35  CHE L   1      -0.192   1.785   1.851  1.00  0.00    +0.0286  H
ATOM     15 H36  CHE L   1      -0.384   2.238  -0.346  1.00  0.00    +0.0286  H
ATOM     16 H37  CHE L   1       0.999   1.238  -0.744  1.00  0.00    +0.0286  H
ATOM     17 H38  CHE L   1      -1.546   0.563  -1.570  1.00  0.00    +0.0532  H
ATOM     18 H39  CHE L   1       0.383  -0.905  -2.105  1.00  0.00    +0.0305  H
ATOM     19 H40  CHE L   1      -0.993  -1.829  -1.512  1.00  0.00    +0.0305  H
ENDROOT
BRANCH 1 22
ATOM     20  O1  CHE L   1       2.860  -3.036   1.062  1.00  0.00    -0.2658 OA
ATOM     21  C2  CHE L   1       3.059  -1.997   0.439  1.00  0.00    +0.2739  C
ATOM     22  N3  CHE L   1       2.021  -1.287  -0.153  1.00  0.00    -0.3478  N
ATOM     23 H29  CHE L   1       2.264  -0.568  -0.821  1.00  0.00    +0.1629 HD
BRANCH 21 24
ATOM     24 C21  CHE L   1       4.394  -1.411   0.252  1.00  0.00    +0.1701  A
ATOM     25 C22  CHE L   1       4.745  -0.099  -0.175  1.00  0.00    +0.0132  A
ATOM     26 C23  CHE L   1       6.118  -0.079  -0.166  1.00  0.00    +0.1411  A
ATOM     27 O27  CHE L   1       6.571  -1.294   0.237  1.00  0.00    -0.3586 OA
ATOM     28 N28  CHE L   1       5.503  -2.125   0.505  1.00  0.00    -0.0732 NA
ATOM     29 H50  CHE L   1       4.094   0.721  -0.433  1.00  0.00    +0.0676  H
BRANCH 26 30
ATOM     30 C24  CHE L   1       7.057   1.102  -0.534  1.00  0.00    +0.0199  C
ATOM     31 C25  CHE L   1       6.678   2.063  -1.630  1.00  0.00    -0.0426  C
ATOM     32 C26  CHE L   1       6.665   2.516  -0.197  1.00  0.00    -0.0426  C
ATOM     33 H51  CHE L   1       8.112   0.856  -0.444  1.00  0.00    +0.0380  H
ATOM     34 H52  CHE L   1       5.729   1.942  -2.138  1.00  0.00    +0.0272  H
ATOM     35 H53  CHE L   1       7.472   2.431  -2.271  1.00  0.00    +0.0272  H
ATOM     36 H54  CHE L   1       7.449   3.191   0.131  1.00  0.00    +0.0272  H
ATOM     37 H55  CHE L   1       5.706   2.703   0.272  1.00  0.00    +0.0272  H
ENDBRANCH 26 30
ENDBRANCH 21 24
ENDBRANCH 1 22
BRANCH 8 38
ATOM     38 S12  CHE L   1      -3.124   0.674   0.771  1.00  0.00    +0.3200  S
ATOM     39 O13  CHE L   1      -3.738   0.130   1.961  1.00  0.00    -0.1823 OA
ATOM     40 O14  CHE L   1      -2.811   2.079   0.663  1.00  0.00    -0.1823 OA
BRANCH 38 41
ATOM     41 N15  CHE L   1      -4.064   0.227  -0.565  1.00  0.00    -0.2820 NA
ATOM     42 C16  CHE L   1      -4.491  -1.214  -0.579  1.00  0.00    +0.0432  C
ATOM     43 C17  CHE L   1      -5.974  -1.396  -0.183  1.00  0.00    +0.0143  C
ATOM     44 N18  CHE L   1      -6.450  -0.412   0.803  1.00  0.00    -0.3126 NA
ATOM     45 C19  CHE L   1      -6.324   0.954   0.253  1.00  0.00    +0.0143  C
ATOM     46 C20  CHE L   1      -5.227   1.129  -0.819  1.00  0.00    +0.0432  C
ATOM     47 H41  CHE L   1      -4.325  -1.607  -1.589  1.00  0.00    +0.0508  H
ATOM     48 H42  CHE L   1      -3.860  -1.811   0.091  1.00  0.00    +0.0508  H
ATOM     49 H43  CHE L   1      -6.116  -2.406   0.218  1.00  0.00    +0.0442  H
ATOM     50 H44  CHE L   1      -6.606  -1.338  -1.079  1.00  0.00    +0.0442  H
ATOM     51 H45  CHE L   1      -5.805  -0.462   1.604  1.00  0.00    +0.1221 HD
ATOM     52 H46  CHE L   1      -7.287   1.260  -0.171  1.00  0.00    +0.0442  H
ATOM     53 H47  CHE L   1      -6.129   1.636   1.089  1.00  0.00    +0.0442  H
ATOM     54 H48  CHE L   1      -5.632   0.878  -1.807  1.00  0.00    +0.0508  H
ATOM     55 H49  CHE L   1      -4.904   2.173  -0.882  1.00  0.00    +0.0508  H
ENDBRANCH 38 41
ENDBRANCH 8 38
TORSDOF 5
