ROOT
ATOM      1  C1  MCU L   1       6.655  -3.618  -0.892  1.00  0.00    -0.0397  C
ATOM      2  C2  MCU L   1       5.608  -2.783  -0.214  1.00  0.00    -0.0498  A
ATOM      3  C3  MCU L   1       5.789  -2.358   1.110  1.00  0.00    -0.0569  A
ATOM      4  C4  MCU L   1       4.835  -1.552   1.733  1.00  0.00    -0.0375  A
ATOM      5  C5  MCU L   1       3.700  -1.161   1.027  1.00  0.00    +0.0492  A
ATOM      6  N6  MCU L   1       2.738  -0.353   1.637  1.00  0.00    -0.3218  N
ATOM      7  C7  MCU L   1       1.598   0.083   1.014  1.00  0.00    +0.2543  A
ATOM      8  O8  MCU L   1       0.807   0.798   1.619  1.00  0.00    -0.2675 OA
ATOM      9  C9  MCU L   1       1.373  -0.350  -0.398  1.00  0.00    +0.0421  A
ATOM     10 C28  MCU L   1       2.303  -1.122  -0.998  1.00  0.00    -0.0424  A
ATOM     11 C29  MCU L   1       3.507  -1.563  -0.296  1.00  0.00    -0.0009  A
ATOM     12 C30  MCU L   1       4.467  -2.369  -0.917  1.00  0.00    -0.0497  A
ATOM     13 H31  MCU L   1       6.203  -4.278  -1.639  1.00  0.00    +0.0278  H
ATOM     14 H32  MCU L   1       7.386  -2.971  -1.386  1.00  0.00    +0.0278  H
ATOM     15 H33  MCU L   1       7.176  -4.254  -0.169  1.00  0.00    +0.0278  H
ATOM     16 H34  MCU L   1       6.679  -2.652   1.663  1.00  0.00    +0.0621  H
ATOM     17 H35  MCU L   1       4.992  -1.235   2.760  1.00  0.00    +0.0638  H
ATOM     18 H36  MCU L   1       2.865  -0.041   2.590  1.00  0.00    +0.1689 HD
ATOM     19 H59  MCU L   1       2.187  -1.438  -2.030  1.00  0.00    +0.0629  H
ATOM     20 H60  MCU L   1       4.332  -2.679  -1.951  1.00  0.00    +0.0627  H
ENDROOT
BRANCH 9 21
ATOM     21 C10  MCU L   1       0.120   0.124  -1.134  1.00  0.00    +0.1027  C
ATOM     22 H37  MCU L   1       0.220  -0.302  -2.147  1.00  0.00    +0.0596  H
BRANCH 21 23
ATOM     23 C11  MCU L   1       0.128   1.615  -1.383  1.00  0.00    +0.1733  A
ATOM     24 N12  MCU L   1       0.739   2.188  -2.409  1.00  0.00    -0.1114 NA
ATOM     25 N13  MCU L   1       0.508   3.529  -2.309  1.00  0.00    -0.0230 NA
ATOM     26 N14  MCU L   1      -0.237   3.801  -1.252  1.00  0.00    -0.0436 NA
ATOM     27 N15  MCU L   1      -0.472   2.613  -0.650  1.00  0.00    -0.2244  N
BRANCH 27 28
ATOM     28 C16  MCU L   1      -1.330   2.571   0.520  1.00  0.00    +0.0564  C
ATOM     29 C17  MCU L   1      -2.763   3.038   0.210  1.00  0.00    -0.0304  C
ATOM     30 C18  MCU L   1      -2.842   4.457   0.753  1.00  0.00    -0.0511  C
ATOM     31 C19  MCU L   1      -2.019   4.382   2.025  1.00  0.00    -0.0511  C
ATOM     32 C20  MCU L   1      -0.840   3.484   1.664  1.00  0.00    -0.0304  C
ATOM     33 H38  MCU L   1      -1.373   1.541   0.874  1.00  0.00    +0.0546  H
ATOM     34 H39  MCU L   1      -3.474   2.408   0.759  1.00  0.00    +0.0286  H
ATOM     35 H40  MCU L   1      -3.027   2.989  -0.851  1.00  0.00    +0.0286  H
ATOM     36 H41  MCU L   1      -3.872   4.770   0.943  1.00  0.00    +0.0266  H
ATOM     37 H42  MCU L   1      -2.394   5.167   0.048  1.00  0.00    +0.0266  H
ATOM     38 H43  MCU L   1      -1.697   5.368   2.373  1.00  0.00    +0.0266  H
ATOM     39 H44  MCU L   1      -2.608   3.918   2.826  1.00  0.00    +0.0266  H
ATOM     40 H45  MCU L   1       0.023   4.093   1.371  1.00  0.00    +0.0286  H
ATOM     41 H46  MCU L   1      -0.533   2.899   2.538  1.00  0.00    +0.0286  H
ENDBRANCH 27 28
ENDBRANCH 21 23
BRANCH 21 42
ATOM     42 N21  MCU L   1      -1.190  -0.403  -0.652  1.00  0.00    -0.2889 NA
ATOM     43 C22  MCU L   1      -2.251  -0.261  -1.662  1.00  0.00    +0.0001  C
ATOM     44 C23  MCU L   1      -3.633  -0.507  -1.041  1.00  0.00    -0.0375  C
ATOM     45 C24  MCU L   1      -3.610  -1.536   0.100  1.00  0.00    -0.0416  C
ATOM     46 C25  MCU L   1      -4.954  -2.245   0.234  1.00  0.00    -0.0623  C
ATOM     47 C26  MCU L   1      -2.470  -2.526  -0.127  1.00  0.00    -0.0375  C
ATOM     48 C27  MCU L   1      -1.112  -1.808  -0.202  1.00  0.00    +0.0001  C
ATOM     49 H47  MCU L   1      -2.084  -0.962  -2.492  1.00  0.00    +0.0427  H
ATOM     50 H48  MCU L   1      -2.266   0.741  -2.106  1.00  0.00    +0.0427  H
ATOM     51 H49  MCU L   1      -4.040   0.434  -0.650  1.00  0.00    +0.0280  H
ATOM     52 H50  MCU L   1      -4.315  -0.827  -1.840  1.00  0.00    +0.0280  H
ATOM     53 H51  MCU L   1      -3.420  -1.003   1.042  1.00  0.00    +0.0299  H
ATOM     54 H52  MCU L   1      -5.196  -2.816  -0.668  1.00  0.00    +0.0232  H
ATOM     55 H53  MCU L   1      -5.758  -1.521   0.404  1.00  0.00    +0.0232  H
ATOM     56 H54  MCU L   1      -4.943  -2.940   1.080  1.00  0.00    +0.0232  H
ATOM     57 H55  MCU L   1      -2.441  -3.274   0.675  1.00  0.00    +0.0280  H
ATOM     58 H56  MCU L   1      -2.643  -3.073  -1.063  1.00  0.00    +0.0280  H
ATOM     59 H57  MCU L   1      -0.664  -1.826   0.799  1.00  0.00    +0.0427  H
ATOM     60 H58  MCU L   1      -0.467  -2.404  -0.861  1.00  0.00    +0.0427  H
ENDBRANCH 21 42
ENDBRANCH 9 21
TORSDOF 4
