ROOT
ATOM      1  N8  CHE L   1      -2.071  -1.105  -0.757  1.00  0.00    -0.3335  N
ATOM      2  C9  CHE L   1      -1.944  -1.962   0.408  1.00  0.00    +0.0259  C
ATOM      3 C10  CHE L   1      -1.403  -1.166   1.585  1.00  0.00    -0.0078  C
ATOM      4 C11  CHE L   1      -0.096  -0.517   1.203  1.00  0.00    -0.0137  A
ATOM      5 C12  CHE L   1       0.899  -0.269   2.153  1.00  0.00    +0.0453  A
ATOM      6 CL13 CHE L   1       0.689  -0.645   3.827  1.00  0.00    -0.0832 Cl
ATOM      7 C14  CHE L   1       2.112   0.305   1.775  1.00  0.00    -0.0382  A
ATOM      8 C15  CHE L   1       2.386   0.645   0.435  1.00  0.00    -0.0214  A
ATOM      9 C25  CHE L   1       1.374   0.425  -0.530  1.00  0.00    +0.0571  A
ATOM     10 CL26 CHE L   1       1.718   0.765  -2.196  1.00  0.00    -0.0825 Cl
ATOM     11 C27  CHE L   1       0.120  -0.118  -0.141  1.00  0.00    +0.0623  A
ATOM     12 C28  CHE L   1      -1.034  -0.240  -1.105  1.00  0.00    +0.2566  C
ATOM     13 O29  CHE L   1      -1.080   0.441  -2.123  1.00  0.00    -0.2673 OA
ATOM     14 H42  CHE L   1      -1.274  -2.789   0.142  1.00  0.00    +0.0492  H
ATOM     15 H43  CHE L   1      -2.914  -2.385   0.680  1.00  0.00    +0.0492  H
ATOM     16 H44  CHE L   1      -2.111  -0.383   1.883  1.00  0.00    +0.0331  H
ATOM     17 H45  CHE L   1      -1.284  -1.858   2.425  1.00  0.00    +0.0331  H
ATOM     18 H46  CHE L   1       2.870   0.471   2.542  1.00  0.00    +0.0635  H
ENDROOT
BRANCH 1 19
ATOM     19  C7  CHE L   1      -3.153  -1.374  -1.709  1.00  0.00    +0.0519  C
ATOM     20 H40  CHE L   1      -2.967  -0.873  -2.663  1.00  0.00    +0.0540  H
ATOM     21 H41  CHE L   1      -3.132  -2.443  -1.941  1.00  0.00    +0.0540  H
BRANCH 19 27
ATOM     22  C1  CHE L   1      -8.367  -0.104   0.556  1.00  0.00    -0.0244  C
ATOM     23  C2  CHE L   1      -7.015  -0.334  -0.045  1.00  0.00    +0.0162  A
ATOM     24  C3  CHE L   1      -6.228   0.646  -0.514  1.00  0.00    -0.0393  A
ATOM     25  C4  CHE L   1      -4.928   0.351  -1.097  1.00  0.00    -0.0388  A
ATOM     26  C5  CHE L   1      -4.174   1.545  -1.615  1.00  0.00    -0.0392  C
ATOM     27  C6  CHE L   1      -4.474  -0.923  -1.148  1.00  0.00    +0.0391  A
ATOM     28 C30  CHE L   1      -5.366  -2.016  -0.637  1.00  0.00    +0.2540  A
ATOM     29 O31  CHE L   1      -5.040  -3.200  -0.665  1.00  0.00    -0.2675 OA
ATOM     30 N32  CHE L   1      -6.575  -1.632  -0.118  1.00  0.00    -0.3262  N
ATOM     31 H33  CHE L   1      -8.650   0.954   0.534  1.00  0.00    +0.0292  H
ATOM     32 H34  CHE L   1      -8.381  -0.433   1.599  1.00  0.00    +0.0292  H
ATOM     33 H35  CHE L   1      -9.129  -0.663   0.005  1.00  0.00    +0.0292  H
ATOM     34 H36  CHE L   1      -6.549   1.683  -0.469  1.00  0.00    +0.0637  H
ATOM     35 H37  CHE L   1      -3.489   1.287  -2.424  1.00  0.00    +0.0278  H
ATOM     36 H38  CHE L   1      -3.603   2.012  -0.805  1.00  0.00    +0.0278  H
ATOM     37 H39  CHE L   1      -4.855   2.296  -2.029  1.00  0.00    +0.0278  H
ATOM     38 H60  CHE L   1      -7.159  -2.388   0.221  1.00  0.00    +0.1686 HD
ENDBRANCH 19 27
ENDBRANCH 1 19
BRANCH 8 39
ATOM     39 C16  CHE L   1       3.779   1.236   0.158  1.00  0.00    +0.0117  C
ATOM     40 H47  CHE L   1       4.252   1.373   1.140  1.00  0.00    +0.0374  H
BRANCH 39 41
ATOM     41 C17  CHE L   1       3.675   2.661  -0.440  1.00  0.00    +0.0513  C
ATOM     42 O18  CHE L   1       4.732   3.495   0.036  1.00  0.00    -0.3944 OA
ATOM     43 H48  CHE L   1       2.735   3.153  -0.162  1.00  0.00    +0.0563  H
ATOM     44 H49  CHE L   1       3.738   2.650  -1.533  1.00  0.00    +0.0563  H
ATOM     45 H50  CHE L   1       4.593   3.625   0.992  1.00  0.00    +0.2094 HD
ENDBRANCH 39 41
BRANCH 39 46
ATOM     46 C19  CHE L   1       4.731   0.291  -0.655  1.00  0.00    -0.0279  C
ATOM     47 C20  CHE L   1       6.151   0.861  -0.821  1.00  0.00    -0.0259  C
ATOM     48 C21  CHE L   1       6.902   0.939   0.509  1.00  0.00    +0.0479  C
ATOM     49 O22  CHE L   1       6.367   0.052   1.496  1.00  0.00    -0.3797 OA
ATOM     50 C23  CHE L   1       6.043  -1.224   0.953  1.00  0.00    +0.0479  C
ATOM     51 C24  CHE L   1       4.879  -1.117  -0.033  1.00  0.00    -0.0259  C
ATOM     52 H51  CHE L   1       4.316   0.156  -1.660  1.00  0.00    +0.0309  H
ATOM     53 H52  CHE L   1       6.710   0.189  -1.489  1.00  0.00    +0.0290  H
ATOM     54 H53  CHE L   1       6.162   1.831  -1.329  1.00  0.00    +0.0290  H
ATOM     55 H54  CHE L   1       7.965   0.711   0.366  1.00  0.00    +0.0560  H
ATOM     56 H55  CHE L   1       6.844   1.950   0.924  1.00  0.00    +0.0560  H
ATOM     57 H56  CHE L   1       6.931  -1.652   0.471  1.00  0.00    +0.0560  H
ATOM     58 H57  CHE L   1       5.772  -1.889   1.779  1.00  0.00    +0.0560  H
ATOM     59 H58  CHE L   1       3.956  -1.445   0.455  1.00  0.00    +0.0290  H
ATOM     60 H59  CHE L   1       5.045  -1.853  -0.833  1.00  0.00    +0.0290  H
ENDBRANCH 39 46
ENDBRANCH 8 39
TORSDOF 5
