ROOT
ATOM      1 C22  CHE L   1      -2.820  -1.273   0.502  1.00  0.00    +0.1460  A
ATOM      2 N23  CHE L   1      -2.407  -0.001   0.262  1.00  0.00    -0.2095 NA
ATOM      3 C24  CHE L   1      -3.127   1.056   0.703  1.00  0.00    +0.1657  A
ATOM      4 N31  CHE L   1      -4.279   0.987   1.401  1.00  0.00    -0.2080 NA
ATOM      5 C32  CHE L   1      -4.669  -0.277   1.621  1.00  0.00    +0.1639  A
ATOM      6 C33  CHE L   1      -4.018  -1.425   1.214  1.00  0.00    +0.0808  A
ATOM      7 C34  CHE L   1      -4.832  -2.474   1.691  1.00  0.00    +0.0622  A
ATOM      8 N35  CHE L   1      -5.913  -2.040   2.347  1.00  0.00    -0.1773 NA
ATOM      9 N36  CHE L   1      -5.789  -0.693   2.288  1.00  0.00    -0.2494  N
ATOM     10 C37  CHE L   1      -6.787   0.141   2.909  1.00  0.00    +0.0324  C
ATOM     11 H54  CHE L   1      -4.683  -3.541   1.592  1.00  0.00    +0.0856  H
ATOM     12 H55  CHE L   1      -7.776  -0.216   2.608  1.00  0.00    +0.0473  H
ATOM     13 H56  CHE L   1      -6.659   1.177   2.588  1.00  0.00    +0.0473  H
ATOM     14 H57  CHE L   1      -6.667   0.065   3.992  1.00  0.00    +0.0473  H
ENDROOT
BRANCH 1 15
ATOM     15 N21  CHE L   1      -2.109  -2.384   0.023  1.00  0.00    -0.3391  N
ATOM     16 H49  CHE L   1      -2.591  -3.261   0.153  1.00  0.00    +0.1673 HD
BRANCH 15 23
ATOM     17  C1  CHE L   1      -1.492  -4.748  -1.556  1.00  0.00    -0.0378  C
ATOM     18  C2  CHE L   1      -0.502  -3.635  -1.330  1.00  0.00    -0.0271  A
ATOM     19  C3  CHE L   1       0.764  -3.735  -1.936  1.00  0.00    -0.0562  A
ATOM     20  C4  CHE L   1       1.712  -2.726  -1.780  1.00  0.00    -0.0490  A
ATOM     21  C5  CHE L   1       1.405  -1.607  -1.006  1.00  0.00    +0.0413  A
ATOM     22 C19  CHE L   1       0.140  -1.493  -0.414  1.00  0.00    -0.0257  A
ATOM     23 C20  CHE L   1      -0.825  -2.501  -0.546  1.00  0.00    +0.0444  A
ATOM     24 H38  CHE L   1      -1.717  -5.251  -0.610  1.00  0.00    +0.0278  H
ATOM     25 H39  CHE L   1      -2.416  -4.354  -1.992  1.00  0.00    +0.0278  H
ATOM     26 H40  CHE L   1      -1.102  -5.502  -2.248  1.00  0.00    +0.0278  H
ATOM     27 H41  CHE L   1       1.010  -4.598  -2.552  1.00  0.00    +0.0621  H
ATOM     28 H42  CHE L   1       2.665  -2.812  -2.294  1.00  0.00    +0.0625  H
ATOM     29 H48  CHE L   1      -0.069  -0.607   0.180  1.00  0.00    +0.0646  H
BRANCH 21 30
ATOM     30  C6  CHE L   1       2.383  -0.501  -0.807  1.00  0.00    +0.2564  C
ATOM     31  O7  CHE L   1       1.959   0.645  -0.745  1.00  0.00    -0.2673 OA
ATOM     32  N8  CHE L   1       3.699  -0.907  -0.671  1.00  0.00    -0.3221  N
ATOM     33 H43  CHE L   1       3.865  -1.903  -0.609  1.00  0.00    +0.1689 HD
BRANCH 32 34
ATOM     34  C9  CHE L   1       4.833  -0.086  -0.509  1.00  0.00    +0.0425  A
ATOM     35 C10  CHE L   1       6.061  -0.727  -0.301  1.00  0.00    -0.0383  A
ATOM     36 C11  CHE L   1       7.233   0.012  -0.131  1.00  0.00    -0.0593  A
ATOM     37 C12  CHE L   1       7.191   1.403  -0.172  1.00  0.00    -0.0500  A
ATOM     38 C13  CHE L   1       5.976   2.067  -0.388  1.00  0.00    +0.0567  A
ATOM     39 C18  CHE L   1       4.801   1.310  -0.554  1.00  0.00    -0.0267  A
ATOM     40 H44  CHE L   1       6.122  -1.812  -0.262  1.00  0.00    +0.0638  H
ATOM     41 H45  CHE L   1       8.178  -0.499   0.035  1.00  0.00    +0.0618  H
ATOM     42 H46  CHE L   1       8.111   1.970  -0.035  1.00  0.00    +0.0623  H
ATOM     43 H47  CHE L   1       3.868   1.846  -0.720  1.00  0.00    +0.0644  H
BRANCH 38 44
ATOM     44 C14  CHE L   1       5.908   3.574  -0.429  1.00  0.00    +0.4175  C
ATOM     45 F15  CHE L   1       5.261   4.047  -1.530  1.00  0.00    -0.1659  F
ATOM     46 F16  CHE L   1       5.262   4.100   0.648  1.00  0.00    -0.1659  F
ATOM     47 F17  CHE L   1       7.137   4.166  -0.445  1.00  0.00    -0.1659  F
ENDBRANCH 38 44
ENDBRANCH 32 34
ENDBRANCH 21 30
ENDBRANCH 15 23
ENDBRANCH 1 15
BRANCH 3 48
ATOM     48 C25  CHE L   1      -2.623   2.403   0.384  1.00  0.00    +0.0373  A
ATOM     49 C26  CHE L   1      -3.286   3.572   0.798  1.00  0.00    -0.0482  A
ATOM     50 C27  CHE L   1      -2.789   4.834   0.473  1.00  0.00    -0.0429  A
ATOM     51 C28  CHE L   1      -1.627   4.907  -0.270  1.00  0.00    +0.0276  A
ATOM     52 N29  CHE L   1      -0.951   3.823  -0.696  1.00  0.00    -0.2626 NA
ATOM     53 C30  CHE L   1      -1.457   2.607  -0.356  1.00  0.00    +0.0382  A
ATOM     54 H50  CHE L   1      -4.202   3.505   1.382  1.00  0.00    +0.0626  H
ATOM     55 H51  CHE L   1      -3.299   5.736   0.793  1.00  0.00    +0.0633  H
ATOM     56 H52  CHE L   1      -1.196   5.863  -0.552  1.00  0.00    +0.0829  H
ATOM     57 H53  CHE L   1      -0.863   1.770  -0.720  1.00  0.00    +0.0837  H
ENDBRANCH 3 48
TORSDOF 6
