ROOT
ATOM      1 C12  927 L   1      -2.245  -1.223  -0.627  1.00  0.00    +0.0397  C
ATOM      2 C13  927 L   1      -3.305  -1.959   0.219  1.00  0.00    -0.0348  C
ATOM      3 C14  927 L   1      -3.366  -1.635   1.715  1.00  0.00    +0.0081  C
ATOM      4 C15  927 L   1      -3.916  -0.286   1.991  1.00  0.00    +0.1333  A
ATOM      5 N16  927 L   1      -5.003   0.015   2.671  1.00  0.00    -0.1346 NA
ATOM      6 N17  927 L   1      -5.130   1.385   2.688  1.00  0.00    -0.1379 NA
ATOM      7 C18  927 L   1      -4.120   1.886   2.016  1.00  0.00    +0.1198  A
ATOM      8 N19  927 L   1      -3.339   0.874   1.558  1.00  0.00    -0.3173  N
ATOM      9 C20  927 L   1      -2.168   0.985   0.724  1.00  0.00    +0.0265  C
ATOM     10 C21  927 L   1      -2.365   0.314  -0.635  1.00  0.00    -0.0236  C
ATOM     11 H36  927 L   1      -2.415  -1.557  -1.662  1.00  0.00    +0.0397  H
ATOM     12 H37  927 L   1      -3.123  -3.038   0.123  1.00  0.00    +0.0277  H
ATOM     13 H38  927 L   1      -4.292  -1.776  -0.227  1.00  0.00    +0.0277  H
ATOM     14 H39  927 L   1      -4.020  -2.373   2.196  1.00  0.00    +0.0344  H
ATOM     15 H40  927 L   1      -2.390  -1.738   2.197  1.00  0.00    +0.0344  H
ATOM     16 H41  927 L   1      -3.930   2.935   1.840  1.00  0.00    +0.1048  H
ATOM     17 H42  927 L   1      -1.318   0.573   1.278  1.00  0.00    +0.0493  H
ATOM     18 H43  927 L   1      -1.975   2.054   0.574  1.00  0.00    +0.0493  H
ATOM     19 H44  927 L   1      -1.616   0.729  -1.321  1.00  0.00    +0.0290  H
ATOM     20 H45  927 L   1      -3.343   0.592  -1.050  1.00  0.00    +0.0290  H
ENDROOT
BRANCH 1 22
ATOM     21  O1  927 L   1      -0.521  -2.239   0.745  1.00  0.00    -0.2729 OA
ATOM     22  C2  927 L   1      -0.817  -1.661  -0.294  1.00  0.00    +0.2241  C
ATOM     23  N3  927 L   1       0.105  -1.309  -1.253  1.00  0.00    -0.3552  N
ATOM     24 H22  927 L   1      -0.199  -0.860  -2.105  1.00  0.00    +0.1623 HD
BRANCH 23 25
ATOM     25  C4  927 L   1       1.526  -1.519  -1.078  1.00  0.00    +0.0240  C
ATOM     26 H23  927 L   1       1.926  -1.896  -2.025  1.00  0.00    +0.0491  H
ATOM     27 H24  927 L   1       1.701  -2.283  -0.313  1.00  0.00    +0.0491  H
BRANCH 25 28
ATOM     28  C5  927 L   1       2.188  -0.206  -0.715  1.00  0.00    -0.0087  C
ATOM     29  C6  927 L   1       2.224   0.832  -1.824  1.00  0.00    -0.0455  C
ATOM     30  C7  927 L   1       3.634   1.343  -2.111  1.00  0.00    -0.0525  C
ATOM     31  C8  927 L   1       4.326   1.798  -0.832  1.00  0.00    -0.0528  C
ATOM     32  C9  927 L   1       4.543   0.623   0.115  1.00  0.00    -0.0496  C
ATOM     33 C10  927 L   1       3.336  -0.247   0.285  1.00  0.00    -0.0332  C
ATOM     34 C11  927 L   1       2.010   0.316   0.706  1.00  0.00    -0.0421  C
ATOM     35 H25  927 L   1       1.574   1.674  -1.553  1.00  0.00    +0.0271  H
ATOM     36 H26  927 L   1       1.813   0.420  -2.753  1.00  0.00    +0.0271  H
ATOM     37 H27  927 L   1       4.225   0.552  -2.588  1.00  0.00    +0.0265  H
ATOM     38 H28  927 L   1       3.579   2.177  -2.820  1.00  0.00    +0.0265  H
ATOM     39 H29  927 L   1       3.723   2.572  -0.341  1.00  0.00    +0.0265  H
ATOM     40 H30  927 L   1       5.293   2.254  -1.072  1.00  0.00    +0.0265  H
ATOM     41 H31  927 L   1       4.875   0.990   1.093  1.00  0.00    +0.0268  H
ATOM     42 H32  927 L   1       5.356   0.001  -0.279  1.00  0.00    +0.0268  H
ATOM     43 H33  927 L   1       3.611  -1.202   0.725  1.00  0.00    +0.0307  H
ATOM     44 H34  927 L   1       1.928   1.384   0.872  1.00  0.00    +0.0274  H
ATOM     45 H35  927 L   1       1.420  -0.269   1.405  1.00  0.00    +0.0274  H
ENDBRANCH 25 28
ENDBRANCH 23 25
ENDBRANCH 1 22
TORSDOF 3
