ROOT
ATOM      1  C8  WH0 L   1      -2.487   1.345   1.859  1.00  0.00    -0.0350  A
ATOM      2  C9  WH0 L   1      -3.623   1.740   2.590  1.00  0.00    -0.0579  A
ATOM      3 C10  WH0 L   1      -4.039   3.082   2.637  1.00  0.00    -0.0595  A
ATOM      4 C11  WH0 L   1      -3.330   4.066   1.953  1.00  0.00    -0.0378  A
ATOM      5 C12  WH0 L   1      -2.215   3.670   1.242  1.00  0.00    +0.0509  A
ATOM      6 C13  WH0 L   1      -1.777   2.341   1.183  1.00  0.00    +0.0474  A
ATOM      7 C14  WH0 L   1      -0.519   2.259   0.330  1.00  0.00    +0.2807  C
ATOM      8 O15  WH0 L   1       0.530   1.779   1.164  1.00  0.00    -0.3368 OA
ATOM      9 C16  WH0 L   1       1.750   1.612   0.447  1.00  0.00    +0.0637  C
ATOM     10 C17  WH0 L   1       1.568   0.662  -0.746  1.00  0.00    +0.0644  C
ATOM     11 C18  WH0 L   1       2.820   0.643  -1.625  1.00  0.00    +0.0637  C
ATOM     12 O19  WH0 L   1       3.860  -0.097  -0.999  1.00  0.00    -0.3368 OA
ATOM     13 C20  WH0 L   1       3.488  -1.453  -0.750  1.00  0.00    +0.2804  C
ATOM     14 O21  WH0 L   1       2.100  -1.712  -0.928  1.00  0.00    -0.3368 OA
ATOM     15 C22  WH0 L   1       1.299  -0.763  -0.224  1.00  0.00    +0.0637  C
ATOM     16 C23  WH0 L   1       4.066  -1.927   0.656  1.00  0.00    +0.2902  C
ATOM     17 O24  WH0 L   1       3.764  -1.514   1.767  1.00  0.00    -0.2665 OA
ATOM     18 N25  WH0 L   1       5.005  -2.925   0.411  1.00  0.00    -0.3210  N
ATOM     19 C26  WH0 L   1       5.126  -3.177  -0.946  1.00  0.00    +0.0507  A
ATOM     20 C27  WH0 L   1       5.959  -4.102  -1.541  1.00  0.00    -0.0378  A
ATOM     21 C28  WH0 L   1       5.921  -4.203  -2.933  1.00  0.00    -0.0598  A
ATOM     22 C29  WH0 L   1       5.059  -3.388  -3.688  1.00  0.00    -0.0612  A
ATOM     23 C30  WH0 L   1       4.223  -2.457  -3.063  1.00  0.00    -0.0510  A
ATOM     24 C31  WH0 L   1       4.267  -2.357  -1.681  1.00  0.00    +0.0441  A
ATOM     25 C32  WH0 L   1       0.373   1.167  -1.562  1.00  0.00    +0.0637  C
ATOM     26 O33  WH0 L   1      -0.772   1.358  -0.738  1.00  0.00    -0.3368 OA
ATOM     27 C34  WH0 L   1      -0.367   3.793  -0.100  1.00  0.00    +0.2902  C
ATOM     28 O35  WH0 L   1       0.491   4.282  -0.822  1.00  0.00    -0.2665 OA
ATOM     29 N36  WH0 L   1      -1.394   4.504   0.501  1.00  0.00    -0.3210  N
ATOM     30 H45  WH0 L   1      -4.208   0.996   3.127  1.00  0.00    +0.0620  H
ATOM     31 H46  WH0 L   1      -4.926   3.349   3.205  1.00  0.00    +0.0618  H
ATOM     32 H47  WH0 L   1      -3.652   5.100   1.980  1.00  0.00    +0.0638  H
ATOM     33 H48  WH0 L   1       2.494   1.220   1.150  1.00  0.00    +0.0569  H
ATOM     34 H49  WH0 L   1       2.122   2.593   0.130  1.00  0.00    +0.0569  H
ATOM     35 H50  WH0 L   1       3.192   1.659  -1.802  1.00  0.00    +0.0569  H
ATOM     36 H51  WH0 L   1       2.616   0.211  -2.612  1.00  0.00    +0.0569  H
ATOM     37 H52  WH0 L   1       1.481  -0.865   0.851  1.00  0.00    +0.0569  H
ATOM     38 H53  WH0 L   1       0.256  -1.058  -0.380  1.00  0.00    +0.0569  H
ATOM     39 H54  WH0 L   1       5.518  -3.385   1.147  1.00  0.00    +0.1688 HD
ATOM     40 H55  WH0 L   1       6.621  -4.732  -0.958  1.00  0.00    +0.0638  H
ATOM     41 H56  WH0 L   1       6.562  -4.920  -3.441  1.00  0.00    +0.0618  H
ATOM     42 H57  WH0 L   1       5.042  -3.484  -4.772  1.00  0.00    +0.0618  H
ATOM     43 H58  WH0 L   1       3.556  -1.834  -3.649  1.00  0.00    +0.0623  H
ATOM     44 H59  WH0 L   1       0.606   2.098  -2.089  1.00  0.00    +0.0569  H
ATOM     45 H60  WH0 L   1       0.101   0.438  -2.334  1.00  0.00    +0.0569  H
ATOM     46 H61  WH0 L   1      -1.519   5.497   0.380  1.00  0.00    +0.1688 HD
ENDROOT
BRANCH 1 47
ATOM     47  C7  WH0 L   1      -2.095  -0.110   1.809  1.00  0.00    -0.0097  C
ATOM     48 H43  WH0 L   1      -2.310  -0.572   2.782  1.00  0.00    +0.0330  H
ATOM     49 H44  WH0 L   1      -1.011  -0.191   1.689  1.00  0.00    +0.0330  H
BRANCH 47 50
ATOM     50  C6  WH0 L   1      -2.782  -0.904   0.691  1.00  0.00    +0.0223  C
ATOM     51 H41  WH0 L   1      -2.700  -0.394  -0.273  1.00  0.00    +0.0489  H
ATOM     52 H42  WH0 L   1      -2.290  -1.878   0.596  1.00  0.00    +0.0489  H
BRANCH 50 55
ATOM     53  C3  WH0 L   1      -5.207  -0.576   0.326  1.00  0.00    +0.2443  C
ATOM     54  O4  WH0 L   1      -5.078   0.257  -0.562  1.00  0.00    -0.2683 OA
ATOM     55  N5  WH0 L   1      -4.176  -1.196   0.982  1.00  0.00    -0.3522  N
ATOM     56 H40  WH0 L   1      -4.378  -1.805   1.761  1.00  0.00    +0.1626 HD
BRANCH 53 58
ATOM     57  C1  WH0 L   1      -6.920  -2.109   1.346  1.00  0.00    -0.0936  C
ATOM     58  C2  WH0 L   1      -6.568  -0.937   0.799  1.00  0.00    -0.0047  C
ATOM     59 H37  WH0 L   1      -7.954  -2.287   1.627  1.00  0.00    +0.0536  H
ATOM     60 H38  WH0 L   1      -6.222  -2.924   1.496  1.00  0.00    +0.0536  H
ATOM     61 H39  WH0 L   1      -7.316  -0.174   0.604  1.00  0.00    +0.0666  H
ENDBRANCH 53 58
ENDBRANCH 50 55
ENDBRANCH 47 50
ENDBRANCH 1 47
TORSDOF 4
