ROOT
ATOM      1  C1  SEL L   1      -0.586  -2.559   1.723  1.00  0.00    -0.0377  C
ATOM      2  C2  SEL L   1      -0.657  -1.093   2.007  1.00  0.00    -0.0166  A
ATOM      3  C3  SEL L   1      -1.819  -0.385   2.287  1.00  0.00    +0.0819  A
ATOM      4 S19  SEL L   1      -1.512   1.266   2.623  1.00  0.00    -0.0634  S
ATOM      5 C20  SEL L   1       0.151   1.091   2.316  1.00  0.00    +0.1160  A
ATOM      6 N21  SEL L   1       0.994   2.150   2.380  1.00  0.00    -0.2298 NA
ATOM      7 C22  SEL L   1       2.234   1.857   2.149  1.00  0.00    +0.1003  A
ATOM      8 N23  SEL L   1       2.727   0.594   1.885  1.00  0.00    -0.2896  N
ATOM      9 C34  SEL L   1       1.885  -0.509   1.764  1.00  0.00    +0.2629  A
ATOM     10 O35  SEL L   1       2.285  -1.635   1.479  1.00  0.00    -0.2669 OA
ATOM     11 C36  SEL L   1       0.483  -0.213   2.016  1.00  0.00    +0.0758  A
ATOM     12 H37  SEL L   1      -0.121  -2.736   0.748  1.00  0.00    +0.0278  H
ATOM     13 H38  SEL L   1      -1.576  -3.025   1.702  1.00  0.00    +0.0278  H
ATOM     14 H39  SEL L   1       0.007  -3.066   2.492  1.00  0.00    +0.0278  H
ATOM     15 H52  SEL L   1       2.996   2.652   2.162  1.00  0.00    +0.1030  H
ENDROOT
BRANCH 3 16
ATOM     16  C4  SEL L   1      -3.176  -0.895   2.412  1.00  0.00    +0.2616  C
ATOM     17  O5  SEL L   1      -3.464  -1.744   3.255  1.00  0.00    -0.2668 OA
ATOM     18  N6  SEL L   1      -4.136  -0.421   1.517  1.00  0.00    -0.3345  N
ATOM     19  C7  SEL L   1      -5.523  -0.854   1.686  1.00  0.00    +0.0391  C
ATOM     20  C8  SEL L   1      -6.537   0.116   1.054  1.00  0.00    +0.0363  C
ATOM     21  N9  SEL L   1      -6.244   0.369  -0.368  1.00  0.00    -0.3672  N
ATOM     22 C17  SEL L   1      -4.861   0.142  -0.821  1.00  0.00    +0.0363  C
ATOM     23 C18  SEL L   1      -3.847   0.374   0.317  1.00  0.00    +0.0391  C
ATOM     24 H40  SEL L   1      -5.606  -1.841   1.214  1.00  0.00    +0.0506  H
ATOM     25 H41  SEL L   1      -5.746  -0.979   2.752  1.00  0.00    +0.0506  H
ATOM     26 H42  SEL L   1      -7.534  -0.325   1.174  1.00  0.00    +0.0505  H
ATOM     27 H43  SEL L   1      -6.515   1.070   1.595  1.00  0.00    +0.0505  H
ATOM     28 H48  SEL L   1      -4.597   0.824  -1.638  1.00  0.00    +0.0505  H
ATOM     29 H49  SEL L   1      -4.772  -0.887  -1.192  1.00  0.00    +0.0505  H
ATOM     30 H50  SEL L   1      -2.840   0.153  -0.048  1.00  0.00    +0.0506  H
ATOM     31 H51  SEL L   1      -3.881   1.426   0.620  1.00  0.00    +0.0506  H
BRANCH 21 32
ATOM     32 C10  SEL L   1      -7.241   0.760  -1.247  1.00  0.00    +0.0381  A
ATOM     33 C11  SEL L   1      -8.421   1.381  -0.796  1.00  0.00    -0.0358  A
ATOM     34 C12  SEL L   1      -9.432   1.781  -1.677  1.00  0.00    -0.0245  A
ATOM     35 C13  SEL L   1      -9.278   1.564  -3.036  1.00  0.00    +0.1235  A
ATOM     36 F14  SEL L   1     -10.242   1.946  -3.883  1.00  0.00    -0.2055  F
ATOM     37 C15  SEL L   1      -8.132   0.959  -3.525  1.00  0.00    -0.0245  A
ATOM     38 C16  SEL L   1      -7.127   0.562  -2.635  1.00  0.00    -0.0358  A
ATOM     39 H44  SEL L   1      -8.565   1.592   0.260  1.00  0.00    +0.0639  H
ATOM     40 H45  SEL L   1     -10.330   2.262  -1.305  1.00  0.00    +0.0647  H
ATOM     41 H46  SEL L   1      -8.022   0.795  -4.592  1.00  0.00    +0.0647  H
ATOM     42 H47  SEL L   1      -6.252   0.074  -3.054  1.00  0.00    +0.0639  H
ENDBRANCH 21 32
ENDBRANCH 3 16
BRANCH 8 43
ATOM     43 C24  SEL L   1       4.145   0.408   1.623  1.00  0.00    +0.1060  C
ATOM     44 H53  SEL L   1       4.717   1.169   2.165  1.00  0.00    +0.0591  H
ATOM     45 H54  SEL L   1       4.448  -0.588   1.959  1.00  0.00    +0.0591  H
BRANCH 43 46
ATOM     46 C25  SEL L   1       4.436   0.570   0.125  1.00  0.00    +0.2434  C
ATOM     47 O26  SEL L   1       3.620   1.112  -0.625  1.00  0.00    -0.2711 OA
ATOM     48 N27  SEL L   1       5.675   0.129  -0.331  1.00  0.00    -0.3407  N
ATOM     49 C28  SEL L   1       6.717  -0.440   0.528  1.00  0.00    +0.0214  C
ATOM     50 C29  SEL L   1       8.106  -0.261  -0.073  1.00  0.00    -0.0326  C
ATOM     51 C30  SEL L   1       8.224  -0.914  -1.460  1.00  0.00    -0.0407  C
ATOM     52 C31  SEL L   1       9.325  -0.230  -2.272  1.00  0.00    -0.0623  C
ATOM     53 C32  SEL L   1       6.886  -0.914  -2.220  1.00  0.00    -0.0326  C
ATOM     54 C33  SEL L   1       5.959   0.209  -1.764  1.00  0.00    +0.0214  C
ATOM     55 H55  SEL L   1       6.684   0.034   1.514  1.00  0.00    +0.0488  H
ATOM     56 H56  SEL L   1       6.487  -1.503   0.661  1.00  0.00    +0.0488  H
ATOM     57 H57  SEL L   1       8.862  -0.685   0.599  1.00  0.00    +0.0285  H
ATOM     58 H58  SEL L   1       8.320   0.814  -0.143  1.00  0.00    +0.0285  H
ATOM     59 H59  SEL L   1       8.526  -1.961  -1.325  1.00  0.00    +0.0299  H
ATOM     60 H60  SEL L   1      10.276  -0.249  -1.732  1.00  0.00    +0.0232  H
ATOM     61 H61  SEL L   1       9.073   0.815  -2.481  1.00  0.00    +0.0232  H
ATOM     62 H62  SEL L   1       9.473  -0.739  -3.230  1.00  0.00    +0.0232  H
ATOM     63 H63  SEL L   1       7.048  -0.850  -3.302  1.00  0.00    +0.0285  H
ATOM     64 H64  SEL L   1       6.383  -1.873  -2.037  1.00  0.00    +0.0285  H
ATOM     65 H65  SEL L   1       5.026   0.168  -2.336  1.00  0.00    +0.0488  H
ATOM     66 H66  SEL L   1       6.416   1.186  -1.953  1.00  0.00    +0.0488  H
ENDBRANCH 43 46
ENDBRANCH 8 43
TORSDOF 4
