ROOT
ATOM      1  C3  CHE L   1      -3.455  -0.737   0.353  1.00  0.00    +0.0523  A
ATOM      2  C4  CHE L   1      -4.030   0.521   0.550  1.00  0.00    -0.0443  A
ATOM      3  C5  CHE L   1      -3.227   1.659   0.553  1.00  0.00    -0.0600  A
ATOM      4  C6  CHE L   1      -1.848   1.542   0.359  1.00  0.00    -0.0540  A
ATOM      5  C7  CHE L   1      -1.246   0.288   0.159  1.00  0.00    -0.0167  A
ATOM      6 C17  CHE L   1      -2.072  -0.850   0.160  1.00  0.00    -0.0366  A
ATOM      7 H18  CHE L   1      -5.103   0.622   0.702  1.00  0.00    +0.0630  H
ATOM      8 H19  CHE L   1      -3.670   2.640   0.709  1.00  0.00    +0.0618  H
ATOM      9 H20  CHE L   1      -1.238   2.444   0.376  1.00  0.00    +0.0624  H
ATOM     10 H26  CHE L   1      -1.633  -1.834  -0.005  1.00  0.00    +0.0636  H
ENDROOT
BRANCH 1 12
ATOM     11  N1  CHE L   1      -4.944  -2.862   0.346  1.00  0.00    -0.1909 NA
ATOM     12  C2  CHE L   1      -4.278  -1.911   0.348  1.00  0.00    +0.0992  C
ENDBRANCH 1 12
BRANCH 5 13
ATOM     13  C8  CHE L   1       0.207   0.169  -0.045  1.00  0.00    -0.0178  A
ATOM     14  C9  CHE L   1       0.860   0.909  -1.045  1.00  0.00    -0.0533  A
ATOM     15 C10  CHE L   1       2.241   0.797  -1.241  1.00  0.00    -0.0472  A
ATOM     16 C11  CHE L   1       2.998  -0.061  -0.438  1.00  0.00    +0.0589  A
ATOM     17 C15  CHE L   1       2.365  -0.805   0.562  1.00  0.00    -0.0472  A
ATOM     18 C16  CHE L   1       0.983  -0.689   0.754  1.00  0.00    -0.0533  A
ATOM     19 H21  CHE L   1       0.292   1.576  -1.692  1.00  0.00    +0.0624  H
ATOM     20 H22  CHE L   1       2.720   1.380  -2.026  1.00  0.00    +0.0626  H
ATOM     21 H24  CHE L   1       2.934  -1.476   1.201  1.00  0.00    +0.0626  H
ATOM     22 H25  CHE L   1       0.516  -1.271   1.547  1.00  0.00    +0.0624  H
BRANCH 16 23
ATOM     23 C12  CHE L   1       4.458  -0.147  -0.681  1.00  0.00    +0.3368  C
ATOM     24 O13  CHE L   1       5.078   0.472  -1.526  1.00  0.00    -0.2451 OA
ATOM     25 O14  CHE L   1       5.076  -1.008   0.147  1.00  0.00    -0.4771 OA
ATOM     26 H23  CHE L   1       6.016  -0.963  -0.126  1.00  0.00    +0.2954 HD
ENDBRANCH 16 23
ENDBRANCH 5 13
TORSDOF 3
