ROOT
ATOM      1 C14  CHE L   1       5.053   0.080   0.688  1.00  0.00    +0.0389  A
ATOM      2 C15  CHE L   1       5.007  -1.258   0.891  1.00  0.00    -0.0388  A
ATOM      3 C16  CHE L   1       4.026  -1.965   1.781  1.00  0.00    -0.0392  C
ATOM      4 C17  CHE L   1       5.958  -2.136   0.222  1.00  0.00    -0.0393  A
ATOM      5 C18  CHE L   1       6.914  -1.641  -0.578  1.00  0.00    +0.0162  A
ATOM      6 C19  CHE L   1       7.912  -2.485  -1.307  1.00  0.00    -0.0244  C
ATOM      7 N20  CHE L   1       7.003  -0.283  -0.743  1.00  0.00    -0.3262  N
ATOM      8 C21  CHE L   1       6.174   0.633  -0.146  1.00  0.00    +0.2540  A
ATOM      9 O22  CHE L   1       6.382   1.837  -0.263  1.00  0.00    -0.2675 OA
ATOM     10 H46  CHE L   1       4.554  -2.593   2.508  1.00  0.00    +0.0278  H
ATOM     11 H47  CHE L   1       3.367  -2.610   1.190  1.00  0.00    +0.0278  H
ATOM     12 H48  CHE L   1       3.400  -1.281   2.360  1.00  0.00    +0.0278  H
ATOM     13 H49  CHE L   1       5.864  -3.208   0.373  1.00  0.00    +0.0637  H
ATOM     14 H50  CHE L   1       7.764  -3.552  -1.109  1.00  0.00    +0.0292  H
ATOM     15 H51  CHE L   1       8.930  -2.226  -0.998  1.00  0.00    +0.0292  H
ATOM     16 H52  CHE L   1       7.826  -2.330  -2.388  1.00  0.00    +0.0292  H
ATOM     17 H53  CHE L   1       7.733   0.116  -1.320  1.00  0.00    +0.1686 HD
ENDROOT
BRANCH 1 18
ATOM     18 C13  CHE L   1       4.120   1.113   1.252  1.00  0.00    +0.0491  C
ATOM     19 H44  CHE L   1       4.339   2.128   0.907  1.00  0.00    +0.0538  H
ATOM     20 H45  CHE L   1       4.196   1.120   2.345  1.00  0.00    +0.0538  H
BRANCH 18 23
ATOM     21 C10  CHE L   1       2.246   1.088  -0.352  1.00  0.00    +0.2526  C
ATOM     22 O11  CHE L   1       2.932   1.403  -1.314  1.00  0.00    -0.2676 OA
ATOM     23 N12  CHE L   1       2.735   0.832   0.912  1.00  0.00    -0.3478  N
ATOM     24 H43  CHE L   1       2.067   0.811   1.670  1.00  0.00    +0.1630 HD
BRANCH 21 27
ATOM     25  C7  CHE L   1      -1.202   2.310  -1.160  1.00  0.00    -0.0256  A
ATOM     26  C8  CHE L   1       0.184   2.204  -1.049  1.00  0.00    -0.0442  A
ATOM     27  C9  CHE L   1       0.765   1.064  -0.475  1.00  0.00    +0.0441  A
ATOM     28 C23  CHE L   1      -0.031  -0.020  -0.041  1.00  0.00    -0.0150  A
ATOM     29 C24  CHE L   1       0.606  -1.299   0.436  1.00  0.00    -0.0370  C
ATOM     30 C25  CHE L   1      -1.437   0.107  -0.095  1.00  0.00    +0.0421  A
ATOM     31 C35  CHE L   1      -1.993   1.270  -0.657  1.00  0.00    -0.0333  A
ATOM     32 H42  CHE L   1       0.826   3.008  -1.407  1.00  0.00    +0.0628  H
ATOM     33 H54  CHE L   1       0.793  -1.254   1.513  1.00  0.00    +0.0278  H
ATOM     34 H55  CHE L   1       1.546  -1.491  -0.090  1.00  0.00    +0.0278  H
ATOM     35 H56  CHE L   1      -0.025  -2.167   0.224  1.00  0.00    +0.0278  H
ATOM     36 H71  CHE L   1      -3.077   1.376  -0.689  1.00  0.00    +0.0641  H
BRANCH 25 37
ATOM     37  C6  CHE L   1      -1.843   3.534  -1.755  1.00  0.00    +0.0438  C
ATOM     38 H40  CHE L   1      -2.735   3.257  -2.328  1.00  0.00    +0.0536  H
ATOM     39 H41  CHE L   1      -1.153   4.025  -2.450  1.00  0.00    +0.0536  H
BRANCH 37 42
ATOM     40  C3  CHE L   1      -3.439   4.583  -0.207  1.00  0.00    +0.2446  C
ATOM     41  O4  CHE L   1      -4.402   3.941  -0.605  1.00  0.00    -0.2683 OA
ATOM     42  N5  CHE L   1      -2.173   4.493  -0.726  1.00  0.00    -0.3485  N
ATOM     43 H39  CHE L   1      -1.408   4.979  -0.284  1.00  0.00    +0.1629 HD
BRANCH 40 45
ATOM     44  C1  CHE L   1      -4.690   5.739   1.558  1.00  0.00    -0.0936  C
ATOM     45  C2  CHE L   1      -3.530   5.551   0.916  1.00  0.00    -0.0047  C
ATOM     46 H36  CHE L   1      -5.588   5.193   1.278  1.00  0.00    +0.0536  H
ATOM     47 H37  CHE L   1      -4.767   6.445   2.378  1.00  0.00    +0.0536  H
ATOM     48 H38  CHE L   1      -2.645   6.103   1.202  1.00  0.00    +0.0666  H
ENDBRANCH 40 45
ENDBRANCH 37 42
ENDBRANCH 25 37
BRANCH 30 49
ATOM     49 N26  CHE L   1      -2.300  -0.880   0.384  1.00  0.00    -0.3675  N
BRANCH 49 50
ATOM     50 C27  CHE L   1      -2.302  -1.151   1.820  1.00  0.00    +0.0161  C
ATOM     51 C28  CHE L   1      -3.648  -0.832   2.451  1.00  0.00    -0.0475  C
ATOM     52 H57  CHE L   1      -1.547  -0.543   2.335  1.00  0.00    +0.0485  H
ATOM     53 H58  CHE L   1      -2.032  -2.194   2.017  1.00  0.00    +0.0485  H
ATOM     54 H59  CHE L   1      -3.595  -0.961   3.537  1.00  0.00    +0.0247  H
ATOM     55 H60  CHE L   1      -4.436  -1.492   2.077  1.00  0.00    +0.0247  H
ATOM     56 H61  CHE L   1      -3.944   0.203   2.246  1.00  0.00    +0.0247  H
ENDBRANCH 49 50
BRANCH 49 57
ATOM     57 C29  CHE L   1      -3.021  -1.691  -0.617  1.00  0.00    +0.0341  C
ATOM     58 C30  CHE L   1      -3.077  -3.173  -0.247  1.00  0.00    -0.0089  C
ATOM     59 C31  CHE L   1      -3.787  -3.969  -1.339  1.00  0.00    +0.0495  C
ATOM     60 O32  CHE L   1      -4.799  -3.232  -2.024  1.00  0.00    -0.3796 OA
ATOM     61 C33  CHE L   1      -5.422  -2.246  -1.209  1.00  0.00    +0.0495  C
ATOM     62 C34  CHE L   1      -4.429  -1.137  -0.887  1.00  0.00    -0.0089  C
ATOM     63 H62  CHE L   1      -2.465  -1.641  -1.566  1.00  0.00    +0.0525  H
ATOM     64 H63  CHE L   1      -2.077  -3.587  -0.075  1.00  0.00    +0.0307  H
ATOM     65 H64  CHE L   1      -3.629  -3.307   0.691  1.00  0.00    +0.0307  H
ATOM     66 H65  CHE L   1      -4.237  -4.875  -0.916  1.00  0.00    +0.0560  H
ATOM     67 H66  CHE L   1      -3.064  -4.293  -2.095  1.00  0.00    +0.0560  H
ATOM     68 H67  CHE L   1      -6.276  -1.835  -1.758  1.00  0.00    +0.0560  H
ATOM     69 H68  CHE L   1      -5.816  -2.713  -0.299  1.00  0.00    +0.0560  H
ATOM     70 H69  CHE L   1      -4.365  -0.463  -1.751  1.00  0.00    +0.0307  H
ATOM     71 H70  CHE L   1      -4.816  -0.530  -0.064  1.00  0.00    +0.0307  H
ENDBRANCH 49 57
ENDBRANCH 30 49
ENDBRANCH 21 27
ENDBRANCH 18 23
ENDBRANCH 1 18
TORSDOF 9
