ROOT
ATOM      1 C30  WH0 L   1      -1.434  -3.274   0.019  1.00  0.00    -0.0133  A
ATOM      2 C31  WH0 L   1      -0.256  -3.627  -0.682  1.00  0.00    -0.0519  A
ATOM      3 C32  WH0 L   1       0.127  -4.973  -0.803  1.00  0.00    -0.0374  A
ATOM      4 C33  WH0 L   1      -0.683  -5.946  -0.223  1.00  0.00    +0.0454  A
ATOM      5 C34  WH0 L   1      -1.834  -5.614   0.460  1.00  0.00    -0.0145  A
ATOM      6 C35  WH0 L   1      -2.231  -4.285   0.598  1.00  0.00    -0.0483  A
ATOM      7 C36  WH0 L   1      -2.518  -6.841   0.973  1.00  0.00    +0.0535  C
ATOM      8 C37  WH0 L   1      -1.573  -7.890   0.464  1.00  0.00    +0.2296  C
ATOM      9 O38  WH0 L   1      -1.733  -9.126   0.633  1.00  0.00    -0.2725 OA
ATOM     10 N39  WH0 L   1      -0.467  -7.345  -0.247  1.00  0.00    -0.3256  N
ATOM     11 H67  WH0 L   1       0.361  -2.862  -1.138  1.00  0.00    +0.0624  H
ATOM     12 H68  WH0 L   1       1.026  -5.246  -1.338  1.00  0.00    +0.0638  H
ATOM     13 H69  WH0 L   1      -3.131  -4.042   1.152  1.00  0.00    +0.0627  H
ATOM     14 H70  WH0 L   1      -3.524  -6.956   0.520  1.00  0.00    +0.0410  H
ATOM     15 H71  WH0 L   1      -2.556  -6.845   2.082  1.00  0.00    +0.0410  H
ATOM     16 H72  WH0 L   1       0.316  -7.863  -0.706  1.00  0.00    +0.1686 HD
ENDROOT
BRANCH 1 25
ATOM     17 C14  WH0 L   1      -1.043  -0.748   0.467  1.00  0.00    +0.1015  A
ATOM     18 N15  WH0 L   1      -1.779   0.383   0.368  1.00  0.00    -0.1627 NA
ATOM     19 N16  WH0 L   1      -2.992   0.029  -0.018  1.00  0.00    -0.1987  N
ATOM     20 C17  WH0 L   1      -4.055   0.848  -0.257  1.00  0.00    +0.2282  A
ATOM     21 N25  WH0 L   1      -5.228   0.277  -0.657  1.00  0.00    -0.2207 NA
ATOM     22 C26  WH0 L   1      -5.339  -1.072  -0.833  1.00  0.00    +0.0334  A
ATOM     23 C27  WH0 L   1      -4.243  -1.911  -0.596  1.00  0.00    -0.0173  A
ATOM     24 C28  WH0 L   1      -3.066  -1.303  -0.162  1.00  0.00    +0.0803  A
ATOM     25 C29  WH0 L   1      -1.834  -1.857   0.139  1.00  0.00    +0.0353  A
ATOM     26 H65  WH0 L   1      -6.280  -1.495  -1.160  1.00  0.00    +0.0831  H
ATOM     27 H66  WH0 L   1      -4.320  -2.979  -0.749  1.00  0.00    +0.0654  H
BRANCH 17 30
ATOM     28 C11  WH0 L   1       2.561   0.361   0.802  1.00  0.00    -0.0115  A
ATOM     29 C12  WH0 L   1       1.202   0.327   0.451  1.00  0.00    -0.0466  A
ATOM     30 C13  WH0 L   1       0.381  -0.736   0.862  1.00  0.00    +0.0032  A
ATOM     31 C40  WH0 L   1       0.926  -1.757   1.660  1.00  0.00    -0.0498  A
ATOM     32 C41  WH0 L   1       2.280  -1.734   2.004  1.00  0.00    -0.0256  A
ATOM     33 C42  WH0 L   1       3.101  -0.690   1.567  1.00  0.00    +0.1266  A
ATOM     34 F43  WH0 L   1       4.417  -0.697   1.898  1.00  0.00    -0.2052  F
ATOM     35 H53  WH0 L   1       0.789   1.121  -0.160  1.00  0.00    +0.0628  H
ATOM     36 H73  WH0 L   1       0.306  -2.565   2.025  1.00  0.00    +0.0625  H
ATOM     37 H74  WH0 L   1       2.695  -2.530   2.610  1.00  0.00    +0.0646  H
BRANCH 28 38
ATOM     38 C10  WH0 L   1       3.429   1.490   0.312  1.00  0.00    -0.0234  C
ATOM     39 H51  WH0 L   1       4.287   1.642   1.004  1.00  0.00    +0.0315  H
ATOM     40 H52  WH0 L   1       2.843   2.435   0.310  1.00  0.00    +0.0315  H
BRANCH 38 41
ATOM     41  C9  WH0 L   1       3.944   1.200  -1.104  1.00  0.00    -0.0314  C
ATOM     42 H49  WH0 L   1       4.540   0.263  -1.103  1.00  0.00    +0.0285  H
ATOM     43 H50  WH0 L   1       3.079   1.047  -1.783  1.00  0.00    +0.0285  H
BRANCH 41 44
ATOM     44  C8  WH0 L   1       4.789   2.356  -1.653  1.00  0.00    +0.0187  C
ATOM     45 H47  WH0 L   1       5.068   2.150  -2.708  1.00  0.00    +0.0486  H
ATOM     46 H48  WH0 L   1       4.183   3.287  -1.647  1.00  0.00    +0.0486  H
BRANCH 44 49
ATOM     47  C5  WH0 L   1       7.111   1.648  -0.895  1.00  0.00    +0.2618  C
ATOM     48  O6  WH0 L   1       7.101   0.695  -1.721  1.00  0.00    -0.2669 OA
ATOM     49  N7  WH0 L   1       5.998   2.557  -0.853  1.00  0.00    -0.3514  N
ATOM     50 H46  WH0 L   1       6.054   3.425  -0.273  1.00  0.00    +0.1626 HD
BRANCH 47 52
ATOM     51  C1  WH0 L   1       9.320   0.995  -0.032  1.00  0.00    -0.0760  C
ATOM     52  C2  WH0 L   1       8.273   1.824   0.013  1.00  0.00    +0.1085  C
ATOM     53 H44  WH0 L   1      10.166   1.130   0.632  1.00  0.00    +0.0549  H
ATOM     54 H45  WH0 L   1       9.357   0.169  -0.731  1.00  0.00    +0.0549  H
BRANCH 52 55
ATOM     55  C3  WH0 L   1       8.292   2.906   0.968  1.00  0.00    +0.1040  C
ATOM     56  N4  WH0 L   1       8.305   3.774   1.734  1.00  0.00    -0.1907 NA
ENDBRANCH 52 55
ENDBRANCH 47 52
ENDBRANCH 44 49
ENDBRANCH 41 44
ENDBRANCH 38 41
ENDBRANCH 28 38
ENDBRANCH 17 30
BRANCH 20 57
ATOM     57 N18  WH0 L   1      -3.976   2.276  -0.081  1.00  0.00    -0.3402  N
ATOM     58 C19  WH0 L   1      -2.746   3.014  -0.406  1.00  0.00    +0.0228  C
ATOM     59 C20  WH0 L   1      -3.077   4.388  -1.001  1.00  0.00    -0.0199  C
ATOM     60 C21  WH0 L   1      -4.064   5.150  -0.104  1.00  0.00    +0.0080  C
ATOM     61 N22  WH0 L   1      -4.366   6.457  -0.693  1.00  0.00    -0.3271 NA
ATOM     62 C23  WH0 L   1      -5.347   4.321   0.094  1.00  0.00    -0.0199  C
ATOM     63 C24  WH0 L   1      -5.017   2.955   0.703  1.00  0.00    +0.0228  C
ATOM     64 H54  WH0 L   1      -2.138   3.141   0.517  1.00  0.00    +0.0489  H
ATOM     65 H55  WH0 L   1      -2.144   2.457  -1.156  1.00  0.00    +0.0489  H
ATOM     66 H56  WH0 L   1      -3.518   4.248  -2.014  1.00  0.00    +0.0297  H
ATOM     67 H57  WH0 L   1      -2.139   4.976  -1.108  1.00  0.00    +0.0297  H
ATOM     68 H58  WH0 L   1      -3.586   5.316   0.887  1.00  0.00    +0.0459  H
ATOM     69 H59  WH0 L   1      -4.882   6.323  -1.596  1.00  0.00    +0.1185 HD
ATOM     70 H60  WH0 L   1      -5.003   6.976  -0.045  1.00  0.00    +0.1185 HD
ATOM     71 H61  WH0 L   1      -6.044   4.863   0.771  1.00  0.00    +0.0297  H
ATOM     72 H62  WH0 L   1      -5.857   4.171  -0.884  1.00  0.00    +0.0297  H
ATOM     73 H63  WH0 L   1      -5.950   2.350   0.738  1.00  0.00    +0.0489  H
ATOM     74 H64  WH0 L   1      -4.657   3.089   1.747  1.00  0.00    +0.0489  H
ENDBRANCH 20 57
ENDBRANCH 1 25
TORSDOF 9
