ROOT
ATOM      1  C7  EUB L   1       3.461  -0.653  -0.280  1.00  0.00    +0.0253  A
ATOM      2  C8  EUB L   1       2.373  -0.054   0.327  1.00  0.00    -0.0226  A
ATOM      3  C9  EUB L   1       1.174  -0.736   0.015  1.00  0.00    +0.0608  A
ATOM      4 N10  EUB L   1      -0.067  -0.439   0.427  1.00  0.00    -0.3411  N
ATOM      5 C11  EUB L   1      -1.096  -1.235  -0.049  1.00  0.00    +0.1288  A
ATOM      6 N20  EUB L   1      -0.969  -2.277  -0.819  1.00  0.00    -0.1934 NA
ATOM      7 C21  EUB L   1       0.285  -2.662  -1.268  1.00  0.00    +0.2876  A
ATOM      8 O22  EUB L   1       0.440  -3.636  -1.995  1.00  0.00    -0.2646 OA
ATOM      9 C23  EUB L   1       1.360  -1.813  -0.805  1.00  0.00    +0.1023  A
ATOM     10 S24  EUB L   1       2.992  -2.024  -1.211  1.00  0.00    -0.0813  S
ATOM     11 H30  EUB L   1       2.426   0.819   0.960  1.00  0.00    +0.0650  H
ATOM     12 H31  EUB L   1      -0.343   0.363   0.992  1.00  0.00    +0.1671 HD
ENDROOT
BRANCH 1 18
ATOM     13  C1  EUB L   1       4.876   1.940   1.401  1.00  0.00    -0.0200  C
ATOM     14  C2  EUB L   1       5.524   0.915   0.548  1.00  0.00    +0.0679  A
ATOM     15  N3  EUB L   1       6.854   0.963   0.376  1.00  0.00    -0.1785 NA
ATOM     16  N4  EUB L   1       7.120  -0.077  -0.427  1.00  0.00    -0.2839  N
ATOM     17  C5  EUB L   1       6.014  -0.790  -0.777  1.00  0.00    +0.0308  A
ATOM     18  C6  EUB L   1       4.949  -0.174  -0.160  1.00  0.00    +0.0289  A
ATOM     19 H25  EUB L   1       5.607   2.648   1.806  1.00  0.00    +0.0293  H
ATOM     20 H26  EUB L   1       4.146   2.515   0.822  1.00  0.00    +0.0293  H
ATOM     21 H27  EUB L   1       4.368   1.470   2.248  1.00  0.00    +0.0293  H
ATOM     22 H28  EUB L   1       8.084  -0.242  -0.697  1.00  0.00    +0.1882 HD
ATOM     23 H29  EUB L   1       6.087  -1.654  -1.421  1.00  0.00    +0.0830  H
ENDBRANCH 1 18
BRANCH 5 24
ATOM     24 C12  EUB L   1      -2.516  -0.857   0.447  1.00  0.00    +0.0689  C
ATOM     25 C13  EUB L   1      -3.647  -1.176  -0.549  1.00  0.00    -0.0274  C
ATOM     26 C14  EUB L   1      -4.645  -0.006  -0.574  1.00  0.00    -0.0369  C
ATOM     27 C15  EUB L   1      -5.027   0.338   0.875  1.00  0.00    -0.0372  C
ATOM     28 C16  EUB L   1      -3.777   0.811   1.638  1.00  0.00    -0.0002  C
ATOM     29 N17  EUB L   1      -2.538   0.595   0.850  1.00  0.00    -0.2927 NA
ATOM     30 C18  EUB L   1      -2.623   1.448  -0.366  1.00  0.00    -0.0002  C
ATOM     31 C19  EUB L   1      -3.912   1.205  -1.163  1.00  0.00    -0.0372  C
ATOM     32 H32  EUB L   1      -2.653  -1.467   1.352  1.00  0.00    +0.0543  H
ATOM     33 H33  EUB L   1      -4.162  -2.091  -0.232  1.00  0.00    +0.0287  H
ATOM     34 H34  EUB L   1      -3.269  -1.354  -1.562  1.00  0.00    +0.0287  H
ATOM     35 H35  EUB L   1      -5.530  -0.257  -1.166  1.00  0.00    +0.0302  H
ATOM     36 H36  EUB L   1      -5.458  -0.543   1.366  1.00  0.00    +0.0280  H
ATOM     37 H37  EUB L   1      -5.790   1.125   0.889  1.00  0.00    +0.0280  H
ATOM     38 H38  EUB L   1      -3.704   0.283   2.597  1.00  0.00    +0.0427  H
ATOM     39 H39  EUB L   1      -3.871   1.874   1.895  1.00  0.00    +0.0427  H
ATOM     40 H40  EUB L   1      -1.751   1.281  -1.011  1.00  0.00    +0.0427  H
ATOM     41 H41  EUB L   1      -2.563   2.504  -0.074  1.00  0.00    +0.0427  H
ATOM     42 H42  EUB L   1      -3.671   1.029  -2.218  1.00  0.00    +0.0280  H
ATOM     43 H43  EUB L   1      -4.557   2.092  -1.120  1.00  0.00    +0.0280  H
ENDBRANCH 5 24
TORSDOF 2
