ROOT
ATOM      1 C15  CHE L   1      -2.388   2.762  -0.973  1.00  0.00    +0.0652  A
ATOM      2 C16  CHE L   1      -2.869   3.865  -0.221  1.00  0.00    +0.0900  A
ATOM      3 C17  CHE L   1      -3.483   3.890   1.127  1.00  0.00    -0.0184  C
ATOM      4 N18  CHE L   1      -2.712   5.015  -0.891  1.00  0.00    -0.0827 NA
ATOM      5 O19  CHE L   1      -2.084   4.680  -2.076  1.00  0.00    -0.3590 OA
ATOM      6 C20  CHE L   1      -1.881   3.336  -2.120  1.00  0.00    +0.1436  A
ATOM      7 C21  CHE L   1      -1.195   2.819  -3.321  1.00  0.00    -0.0030  C
ATOM      8 H47  CHE L   1      -3.068   4.707   1.729  1.00  0.00    +0.0294  H
ATOM      9 H48  CHE L   1      -4.562   4.048   1.043  1.00  0.00    +0.0294  H
ATOM     10 H49  CHE L   1      -3.314   2.954   1.667  1.00  0.00    +0.0294  H
ATOM     11 H50  CHE L   1      -1.572   1.828  -3.591  1.00  0.00    +0.0309  H
ATOM     12 H51  CHE L   1      -1.351   3.480  -4.180  1.00  0.00    +0.0309  H
ATOM     13 H52  CHE L   1      -0.119   2.742  -3.139  1.00  0.00    +0.0309  H
ENDROOT
BRANCH 1 16
ATOM     14 C12  CHE L   1      -0.950  -0.460  -0.459  1.00  0.00    +0.1625  A
ATOM     15 N13  CHE L   1      -1.080   0.853  -0.674  1.00  0.00    -0.2267 NA
ATOM     16 C14  CHE L   1      -2.333   1.342  -0.692  1.00  0.00    +0.0848  A
ATOM     17 C22  CHE L   1      -3.469   0.562  -0.514  1.00  0.00    +0.0179  A
ATOM     18 C23  CHE L   1      -4.855   1.123  -0.649  1.00  0.00    -0.0342  C
ATOM     19 C24  CHE L   1      -3.231  -0.785  -0.240  1.00  0.00    +0.1371  A
ATOM     20 N31  CHE L   1      -1.984  -1.288  -0.233  1.00  0.00    -0.2102 NA
ATOM     21 H53  CHE L   1      -4.907   1.883  -1.437  1.00  0.00    +0.0279  H
ATOM     22 H54  CHE L   1      -5.177   1.570   0.296  1.00  0.00    +0.0279  H
ATOM     23 H55  CHE L   1      -5.580   0.356  -0.935  1.00  0.00    +0.0279  H
BRANCH 14 28
ATOM     24  C7  CHE L   1       2.834  -0.789  -0.856  1.00  0.00    -0.0329  A
ATOM     25  C8  CHE L   1       3.007  -2.164  -0.654  1.00  0.00    -0.0573  A
ATOM     26  C9  CHE L   1       1.906  -2.975  -0.391  1.00  0.00    -0.0608  A
ATOM     27 C10  CHE L   1       0.626  -2.419  -0.327  1.00  0.00    -0.0510  A
ATOM     28 C11  CHE L   1       0.407  -1.041  -0.513  1.00  0.00    +0.0195  A
ATOM     29 C32  CHE L   1       1.540  -0.243  -0.769  1.00  0.00    -0.0466  A
ATOM     30 H44  CHE L   1       3.999  -2.608  -0.702  1.00  0.00    +0.0621  H
ATOM     31 H45  CHE L   1       2.038  -4.042  -0.235  1.00  0.00    +0.0618  H
ATOM     32 H46  CHE L   1      -0.215  -3.081  -0.129  1.00  0.00    +0.0625  H
ATOM     33 H64  CHE L   1       1.418   0.833  -0.904  1.00  0.00    +0.0628  H
BRANCH 24 34
ATOM     34  C6  CHE L   1       4.026   0.104  -1.112  1.00  0.00    +0.0213  C
ATOM     35 H42  CHE L   1       3.731   0.932  -1.771  1.00  0.00    +0.0473  H
ATOM     36 H43  CHE L   1       4.788  -0.476  -1.651  1.00  0.00    +0.0473  H
BRANCH 34 37
ATOM     37  N5  CHE L   1       4.556   0.611   0.149  1.00  0.00    -0.3108 NA
ATOM     38 H41  CHE L   1       4.718  -0.164   0.789  1.00  0.00    +0.1223 HD
BRANCH 37 39
ATOM     39  C4  CHE L   1       5.786   1.394  -0.041  1.00  0.00    +0.0087  C
ATOM     40 H39  CHE L   1       5.528   2.459   0.015  1.00  0.00    +0.0437  H
ATOM     41 H40  CHE L   1       6.241   1.219  -1.027  1.00  0.00    +0.0437  H
BRANCH 39 42
ATOM     42  C3  CHE L   1       6.821   1.068   1.061  1.00  0.00    +0.0082  C
ATOM     43 H37  CHE L   1       7.686   1.733   0.958  1.00  0.00    +0.0436  H
ATOM     44 H38  CHE L   1       6.360   1.278   2.035  1.00  0.00    +0.0436  H
BRANCH 42 46
ATOM     45  C1  CHE L   1       7.549  -0.889   2.284  1.00  0.00    -0.0157  C
ATOM     46  N2  CHE L   1       7.280  -0.326   0.970  1.00  0.00    -0.3178 NA
ATOM     47 H33  CHE L   1       7.951  -1.901   2.180  1.00  0.00    +0.0388  H
ATOM     48 H34  CHE L   1       8.289  -0.293   2.831  1.00  0.00    +0.0388  H
ATOM     49 H35  CHE L   1       6.631  -0.961   2.878  1.00  0.00    +0.0388  H
ATOM     50 H36  CHE L   1       6.594  -0.892   0.469  1.00  0.00    +0.1217 HD
ENDBRANCH 42 46
ENDBRANCH 39 42
ENDBRANCH 37 39
ENDBRANCH 34 37
ENDBRANCH 24 34
ENDBRANCH 14 28
BRANCH 19 51
ATOM     51 N25  CHE L   1      -4.302  -1.666  -0.017  1.00  0.00    -0.3512  N
ATOM     52 C26  CHE L   1      -4.948  -1.506   1.308  1.00  0.00    +0.0435  C
ATOM     53 C27  CHE L   1      -4.213  -2.295   2.407  1.00  0.00    +0.0653  C
ATOM     54 O28  CHE L   1      -4.091  -3.684   2.058  1.00  0.00    -0.3763 OA
ATOM     55 C29  CHE L   1      -3.331  -3.816   0.844  1.00  0.00    +0.0653  C
ATOM     56 C30  CHE L   1      -4.023  -3.092  -0.324  1.00  0.00    +0.0435  C
ATOM     57 H56  CHE L   1      -5.965  -1.903   1.218  1.00  0.00    +0.0511  H
ATOM     58 H57  CHE L   1      -5.040  -0.457   1.609  1.00  0.00    +0.0511  H
ATOM     59 H58  CHE L   1      -4.788  -2.241   3.338  1.00  0.00    +0.0577  H
ATOM     60 H59  CHE L   1      -3.216  -1.883   2.608  1.00  0.00    +0.0577  H
ATOM     61 H60  CHE L   1      -3.253  -4.884   0.619  1.00  0.00    +0.0577  H
ATOM     62 H61  CHE L   1      -2.317  -3.448   1.026  1.00  0.00    +0.0577  H
ATOM     63 H62  CHE L   1      -4.993  -3.576  -0.491  1.00  0.00    +0.0511  H
ATOM     64 H63  CHE L   1      -3.452  -3.200  -1.256  1.00  0.00    +0.0511  H
ENDBRANCH 19 51
ENDBRANCH 1 16
TORSDOF 8
