ROOT
ATOM      1  C3  232 L   1       0.986   0.699   1.116  1.00  0.00    +0.0472  A
ATOM      2  C4  232 L   1       2.268   0.298   1.095  1.00  0.00    +0.0086  A
ATOM      3  C5  232 L   1       3.127  -0.422   0.138  1.00  0.00    -0.0039  C
ATOM      4  C6  232 L   1       4.417  -0.611   0.939  1.00  0.00    +0.0460  C
ATOM      5  N7  232 L   1       4.310   0.115   2.232  1.00  0.00    -0.2666 NA
ATOM      6  C8  232 L   1       3.101   0.585   2.283  1.00  0.00    +0.1300  A
ATOM      7  N9  232 L   1       2.565   1.291   3.327  1.00  0.00    -0.3463  N
ATOM      8 C10  232 L   1       1.258   1.715   3.306  1.00  0.00    +0.0042  A
ATOM      9 C11  232 L   1       0.458   1.454   2.257  1.00  0.00    -0.0330  A
ATOM     10 H23  232 L   1       2.706  -1.385  -0.164  1.00  0.00    +0.0332  H
ATOM     11 H24  232 L   1       3.317   0.181  -0.756  1.00  0.00    +0.0332  H
ATOM     12 H25  232 L   1       4.593  -1.674   1.142  1.00  0.00    +0.0512  H
ATOM     13 H26  232 L   1       5.280  -0.234   0.379  1.00  0.00    +0.0512  H
ATOM     14 H27  232 L   1       3.144   1.474   4.135  1.00  0.00    +0.1667 HD
ATOM     15 H28  232 L   1       0.931   2.271   4.178  1.00  0.00    +0.0807  H
ATOM     16 H29  232 L   1      -0.571   1.802   2.227  1.00  0.00    +0.0640  H
ENDROOT
BRANCH 1 18
ATOM     17  O1  232 L   1       0.537   0.664  -1.204  1.00  0.00    -0.2674 OA
ATOM     18  C2  232 L   1       0.130   0.406  -0.072  1.00  0.00    +0.2556  C
ATOM     19 N12  232 L   1      -1.128  -0.136   0.209  1.00  0.00    -0.3284  N
ATOM     20 C13  232 L   1      -1.167  -1.300   1.101  1.00  0.00    +0.0222  C
ATOM     21 C14  232 L   1      -0.844  -2.572   0.302  1.00  0.00    -0.0352  C
ATOM     22 C15  232 L   1      -1.747  -2.726  -0.929  1.00  0.00    -0.0492  C
ATOM     23 C16  232 L   1      -1.821  -1.441  -1.769  1.00  0.00    -0.0253  C
ATOM     24 C17  232 L   1      -2.138  -0.251  -0.859  1.00  0.00    +0.0905  C
ATOM     25 H30  232 L   1      -0.454  -1.205   1.925  1.00  0.00    +0.0489  H
ATOM     26 H31  232 L   1      -2.168  -1.363   1.543  1.00  0.00    +0.0489  H
ATOM     27 H32  232 L   1      -0.945  -3.451   0.948  1.00  0.00    +0.0282  H
ATOM     28 H33  232 L   1       0.201  -2.537  -0.032  1.00  0.00    +0.0282  H
ATOM     29 H34  232 L   1      -1.391  -3.555  -1.550  1.00  0.00    +0.0267  H
ATOM     30 H35  232 L   1      -2.758  -2.991  -0.595  1.00  0.00    +0.0267  H
ATOM     31 H36  232 L   1      -0.868  -1.295  -2.290  1.00  0.00    +0.0289  H
ATOM     32 H37  232 L   1      -2.590  -1.554  -2.542  1.00  0.00    +0.0289  H
ATOM     33 H38  232 L   1      -3.079  -0.488  -0.337  1.00  0.00    +0.0606  H
BRANCH 24 34
ATOM     34 C18  232 L   1      -2.444   1.027  -1.587  1.00  0.00    +0.1298  A
ATOM     35 N19  232 L   1      -3.610   1.649  -1.608  1.00  0.00    -0.2387 NA
ATOM     36 C20  232 L   1      -3.443   2.738  -2.423  1.00  0.00    +0.0456  A
ATOM     37 C21  232 L   1      -2.162   2.785  -2.913  1.00  0.00    +0.0213  A
ATOM     38 N22  232 L   1      -1.539   1.694  -2.377  1.00  0.00    -0.3466  N
ATOM     39 H39  232 L   1      -4.253   3.429  -2.613  1.00  0.00    +0.0845  H
ATOM     40 H40  232 L   1      -1.651   3.479  -3.564  1.00  0.00    +0.0823  H
ATOM     41 H41  232 L   1      -0.560   1.437  -2.466  1.00  0.00    +0.1666 HD
ENDBRANCH 24 34
ENDBRANCH 1 18
TORSDOF 2
