ROOT
ATOM      1  N8  330 L   1      -0.983   0.559   1.442  1.00  0.00    -0.2921 NA
ATOM      2  C9  330 L   1      -1.851   1.411   2.272  1.00  0.00    -0.0005  C
ATOM      3 C10  330 L   1      -2.627   2.409   1.411  1.00  0.00    -0.0373  C
ATOM      4 C11  330 L   1      -3.418   1.708   0.306  1.00  0.00    -0.0131  C
ATOM      5 C12  330 L   1      -2.532   0.735  -0.489  1.00  0.00    +0.1730  C
ATOM      6 O13  330 L   1      -1.529   1.518  -1.183  1.00  0.00    -0.3787 OA
ATOM      7 C18  330 L   1      -1.799  -0.222   0.477  1.00  0.00    +0.0367  C
ATOM      8 H30  330 L   1      -2.553   0.801   2.857  1.00  0.00    +0.0427  H
ATOM      9 H31  330 L   1      -1.244   1.982   2.985  1.00  0.00    +0.0427  H
ATOM     10 H32  330 L   1      -3.313   2.985   2.043  1.00  0.00    +0.0278  H
ATOM     11 H33  330 L   1      -1.930   3.130   0.966  1.00  0.00    +0.0278  H
ATOM     12 H34  330 L   1      -3.838   2.471  -0.361  1.00  0.00    +0.0297  H
ATOM     13 H35  330 L   1      -4.258   1.168   0.759  1.00  0.00    +0.0297  H
ATOM     14 H36  330 L   1      -0.796   1.633  -0.543  1.00  0.00    +0.2106 HD
ATOM     15 H37  330 L   1      -1.138  -0.860  -0.122  1.00  0.00    +0.0458  H
ATOM     16 H38  330 L   1      -2.510  -0.871   1.004  1.00  0.00    +0.0458  H
ENDROOT
BRANCH 1 17
ATOM     17  C7  330 L   1      -0.178  -0.334   2.315  1.00  0.00    +0.0623  C
ATOM     18 H28  330 L   1      -0.819  -1.065   2.824  1.00  0.00    +0.0508  H
ATOM     19 H29  330 L   1       0.313   0.263   3.095  1.00  0.00    +0.0508  H
BRANCH 17 22
ATOM     20  C4  330 L   1       2.641  -1.328   0.421  1.00  0.00    +0.2274  A
ATOM     21  N5  330 L   1       1.980  -0.355   1.005  1.00  0.00    -0.1948 NA
ATOM     22  C6  330 L   1       0.911  -1.024   1.554  1.00  0.00    +0.1856  A
ATOM     23 N19  330 L   1       0.911  -2.350   1.346  1.00  0.00    -0.0600 NA
ATOM     24 O20  330 L   1       2.063  -2.554   0.585  1.00  0.00    -0.3380 OA
BRANCH 20 25
ATOM     25  C3  330 L   1       3.889  -1.277  -0.375  1.00  0.00    +0.0263  C
ATOM     26 H26  330 L   1       4.433  -2.222  -0.271  1.00  0.00    +0.0360  H
ATOM     27 H27  330 L   1       4.537  -0.488   0.028  1.00  0.00    +0.0360  H
BRANCH 25 29
ATOM     28  C1  330 L   1       4.868  -0.961  -2.675  1.00  0.00    -0.0648  C
ATOM     29  C2  330 L   1       3.593  -1.001  -1.849  1.00  0.00    -0.0474  C
ATOM     30 H21  330 L   1       5.383  -1.927  -2.646  1.00  0.00    +0.0230  H
ATOM     31 H22  330 L   1       4.637  -0.730  -3.720  1.00  0.00    +0.0230  H
ATOM     32 H23  330 L   1       5.554  -0.194  -2.301  1.00  0.00    +0.0230  H
ATOM     33 H24  330 L   1       3.066  -0.044  -1.953  1.00  0.00    +0.0267  H
ATOM     34 H25  330 L   1       2.927  -1.774  -2.252  1.00  0.00    +0.0267  H
ENDBRANCH 25 29
ENDBRANCH 20 25
ENDBRANCH 17 22
ENDBRANCH 1 17
BRANCH 5 35
ATOM     35 C14  330 L   1      -3.386  -0.093  -1.467  1.00  0.00    +0.4194  C
ATOM     36 F15  330 L   1      -4.305  -0.833  -0.797  1.00  0.00    -0.1676  F
ATOM     37 F16  330 L   1      -4.066   0.690  -2.336  1.00  0.00    -0.1676  F
ATOM     38 F17  330 L   1      -2.635  -0.955  -2.189  1.00  0.00    -0.1676  F
ENDBRANCH 5 35
TORSDOF 5
