ROOT
ATOM      1  C1  CHE L   1       5.972   1.482   0.625  1.00  0.00    -0.0380  C
ATOM      2  C2  CHE L   1       5.114   0.495  -0.109  1.00  0.00    -0.0291  A
ATOM      3  C3  CHE L   1       3.961  -0.021   0.496  1.00  0.00    -0.0508  A
ATOM      4  C4  CHE L   1       3.164  -0.950  -0.178  1.00  0.00    -0.0099  A
ATOM      5 C23  CHE L   1       3.557  -1.314  -1.458  1.00  0.00    +0.0327  A
ATOM      6 N24  CHE L   1       4.658  -0.835  -2.076  1.00  0.00    -0.2596 NA
ATOM      7 C25  CHE L   1       5.426   0.055  -1.401  1.00  0.00    +0.0411  A
ATOM      8 C26  CHE L   1       6.644   0.550  -2.127  1.00  0.00    -0.0221  C
ATOM      9 H27  CHE L   1       6.029   2.424   0.070  1.00  0.00    +0.0278  H
ATOM     10 H28  CHE L   1       5.565   1.709   1.616  1.00  0.00    +0.0278  H
ATOM     11 H29  CHE L   1       6.980   1.080   0.767  1.00  0.00    +0.0278  H
ATOM     12 H30  CHE L   1       3.684   0.299   1.499  1.00  0.00    +0.0624  H
ATOM     13 H49  CHE L   1       2.977  -2.021  -2.046  1.00  0.00    +0.0833  H
ATOM     14 H50  CHE L   1       7.551   0.294  -1.571  1.00  0.00    +0.0293  H
ATOM     15 H51  CHE L   1       6.719   0.091  -3.119  1.00  0.00    +0.0293  H
ATOM     16 H52  CHE L   1       6.593   1.634  -2.264  1.00  0.00    +0.0293  H
ENDROOT
BRANCH 4 17
ATOM     17  C5  CHE L   1       1.908  -1.496   0.427  1.00  0.00    +0.0449  C
ATOM     18 H31  CHE L   1       1.751  -2.539   0.126  1.00  0.00    +0.0536  H
ATOM     19 H32  CHE L   1       1.970  -1.488   1.522  1.00  0.00    +0.0536  H
BRANCH 17 20
ATOM     20  N6  CHE L   1       0.764  -0.709   0.031  1.00  0.00    -0.3503  N
ATOM     21  C7  CHE L   1      -0.508  -1.103   0.418  1.00  0.00    +0.2430  C
ATOM     22  O8  CHE L   1      -0.705  -2.164   1.008  1.00  0.00    -0.2711 OA
ATOM     23 H33  CHE L   1       0.916   0.275  -0.152  1.00  0.00    +0.1627 HD
BRANCH 21 24
ATOM     24  C9  CHE L   1      -1.624  -0.069   0.045  1.00  0.00    +0.1149  C
ATOM     25 H34  CHE L   1      -1.276   0.475  -0.845  1.00  0.00    +0.0611  H
BRANCH 24 26
ATOM     26 C10  CHE L   1      -1.750   0.918   1.208  1.00  0.00    -0.0211  A
ATOM     27 C11  CHE L   1      -1.407   2.270   1.032  1.00  0.00    -0.0539  A
ATOM     28 C12  CHE L   1      -1.512   3.167   2.097  1.00  0.00    -0.0261  A
ATOM     29 C13  CHE L   1      -1.958   2.717   3.334  1.00  0.00    +0.1234  A
ATOM     30 F14  CHE L   1      -2.056   3.583   4.352  1.00  0.00    -0.2055  F
ATOM     31 C15  CHE L   1      -2.304   1.387   3.530  1.00  0.00    -0.0261  A
ATOM     32 C16  CHE L   1      -2.201   0.487   2.469  1.00  0.00    -0.0539  A
ATOM     33 H35  CHE L   1      -1.065   2.636   0.067  1.00  0.00    +0.0622  H
ATOM     34 H36  CHE L   1      -1.254   4.214   1.970  1.00  0.00    +0.0646  H
ATOM     35 H37  CHE L   1      -2.654   1.056   4.503  1.00  0.00    +0.0646  H
ATOM     36 H38  CHE L   1      -2.478  -0.556   2.620  1.00  0.00    +0.0622  H
ENDBRANCH 24 26
BRANCH 24 37
ATOM     37 N17  CHE L   1      -2.915  -0.740  -0.305  1.00  0.00    -0.2877 NA
ATOM     38 C18  CHE L   1      -3.955   0.247  -0.657  1.00  0.00    -0.0001  C
ATOM     39 C19  CHE L   1      -5.294  -0.427  -0.966  1.00  0.00    -0.0401  C
ATOM     40 C20  CHE L   1      -5.154  -1.457  -2.078  1.00  0.00    -0.0507  C
ATOM     41 C21  CHE L   1      -4.032  -2.430  -1.751  1.00  0.00    -0.0401  C
ATOM     42 C22  CHE L   1      -2.733  -1.693  -1.418  1.00  0.00    -0.0001  C
ATOM     43 H39  CHE L   1      -3.640   0.850  -1.518  1.00  0.00    +0.0427  H
ATOM     44 H40  CHE L   1      -4.136   0.938   0.174  1.00  0.00    +0.0427  H
ATOM     45 H41  CHE L   1      -6.031   0.331  -1.256  1.00  0.00    +0.0278  H
ATOM     46 H42  CHE L   1      -5.677  -0.915  -0.060  1.00  0.00    +0.0278  H
ATOM     47 H43  CHE L   1      -6.097  -1.998  -2.212  1.00  0.00    +0.0266  H
ATOM     48 H44  CHE L   1      -4.936  -0.948  -3.025  1.00  0.00    +0.0266  H
ATOM     49 H45  CHE L   1      -4.326  -3.058  -0.900  1.00  0.00    +0.0278  H
ATOM     50 H46  CHE L   1      -3.867  -3.102  -2.601  1.00  0.00    +0.0278  H
ATOM     51 H47  CHE L   1      -2.366  -1.173  -2.313  1.00  0.00    +0.0427  H
ATOM     52 H48  CHE L   1      -1.992  -2.458  -1.166  1.00  0.00    +0.0427  H
ENDBRANCH 24 37
ENDBRANCH 21 24
ENDBRANCH 17 20
ENDBRANCH 4 17
TORSDOF 5
