ROOT
ATOM      1 C18  MCU L   1       4.849   0.531  -0.224  1.00  0.00    +0.0250  C
ATOM      2 C19  MCU L   1       5.507   1.058  -1.525  1.00  0.00    -0.0228  C
ATOM      3 C20  MCU L   1       7.025   0.935  -1.402  1.00  0.00    +0.0514  C
ATOM      4 S21  MCU L   1       7.372   1.068   0.322  1.00  0.00    +0.1528  S
ATOM      5 O22  MCU L   1       8.144  -0.124   0.818  1.00  0.00    -0.2270 OA
ATOM      6 O23  MCU L   1       8.089   2.347   0.653  1.00  0.00    -0.2270 OA
ATOM      7 C24  MCU L   1       5.717   1.067   0.933  1.00  0.00    +0.0654  C
ATOM      8 H53  MCU L   1       4.913  -0.583  -0.217  1.00  0.00    +0.0472  H
ATOM      9 H54  MCU L   1       5.176   0.496  -2.421  1.00  0.00    +0.0290  H
ATOM     10 H55  MCU L   1       5.238   2.130  -1.662  1.00  0.00    +0.0290  H
ATOM     11 H56  MCU L   1       7.538   1.739  -1.973  1.00  0.00    +0.0426  H
ATOM     12 H57  MCU L   1       7.360  -0.059  -1.768  1.00  0.00    +0.0426  H
ATOM     13 H58  MCU L   1       5.436   2.113   1.182  1.00  0.00    +0.0441  H
ATOM     14 H59  MCU L   1       5.640   0.424   1.836  1.00  0.00    +0.0441  H
ENDROOT
BRANCH 1 18
ATOM     15 N14  MCU L   1       0.808  -0.374   0.516  1.00  0.00    -0.2974 NA
ATOM     16 C15  MCU L   1       1.731  -0.862  -0.539  1.00  0.00    +0.0118  C
ATOM     17 C16  MCU L   1       2.561   0.285  -1.137  1.00  0.00    +0.0120  C
ATOM     18 N17  MCU L   1       3.424   0.957  -0.124  1.00  0.00    -0.2960 NA
ATOM     19 C25  MCU L   1       2.883   0.818   1.255  1.00  0.00    +0.0120  C
ATOM     20 C26  MCU L   1       1.348   0.790   1.262  1.00  0.00    +0.0118  C
ATOM     21 H49  MCU L   1       2.431  -1.631  -0.144  1.00  0.00    +0.0439  H
ATOM     22 H50  MCU L   1       1.139  -1.325  -1.356  1.00  0.00    +0.0439  H
ATOM     23 H51  MCU L   1       3.137  -0.126  -1.989  1.00  0.00    +0.0439  H
ATOM     24 H52  MCU L   1       1.867   1.040  -1.566  1.00  0.00    +0.0439  H
ATOM     25 H60  MCU L   1       3.210   1.684   1.868  1.00  0.00    +0.0439  H
ATOM     26 H61  MCU L   1       3.252  -0.114   1.738  1.00  0.00    +0.0439  H
ATOM     27 H62  MCU L   1       0.988   0.825   2.313  1.00  0.00    +0.0439  H
ATOM     28 H63  MCU L   1       0.975   1.720   0.780  1.00  0.00    +0.0439  H
BRANCH 15 29
ATOM     29 C13  MCU L   1       0.396  -1.468   1.426  1.00  0.00    +0.0267  C
ATOM     30 H47  MCU L   1      -0.151  -1.060   2.299  1.00  0.00    +0.0452  H
ATOM     31 H48  MCU L   1       1.288  -1.989   1.839  1.00  0.00    +0.0452  H
BRANCH 29 32
ATOM     32 C11  MCU L   1      -0.527  -2.494   0.726  1.00  0.00    +0.0865  C
ATOM     33 O12  MCU L   1      -1.021  -3.431   1.651  1.00  0.00    -0.3887 OA
ATOM     34 H45  MCU L   1       0.101  -3.062   0.005  1.00  0.00    +0.0624  H
ATOM     35 H46  MCU L   1      -1.555  -2.937   2.327  1.00  0.00    +0.2099 HD
BRANCH 32 36
ATOM     36 C10  MCU L   1      -1.680  -1.868  -0.092  1.00  0.00    +0.0621  C
ATOM     37 H43  MCU L   1      -1.272  -1.196  -0.872  1.00  0.00    +0.0525  H
ATOM     38 H44  MCU L   1      -2.188  -2.689  -0.643  1.00  0.00    +0.0525  H
BRANCH 36 39
ATOM     39  N9  MCU L   1      -2.658  -1.156   0.746  1.00  0.00    -0.2601  N
BRANCH 39 45
ATOM     40  C3  MCU L   1      -2.188   1.248   0.364  1.00  0.00    +0.1441  A
ATOM     41  C4  MCU L   1      -1.912   2.523   0.896  1.00  0.00    -0.0179  A
ATOM     42  C5  MCU L   1      -1.878   2.721   2.278  1.00  0.00    -0.0582  A
ATOM     43  C6  MCU L   1      -2.126   1.656   3.144  1.00  0.00    -0.0596  A
ATOM     44  C7  MCU L   1      -2.392   0.387   2.631  1.00  0.00    -0.0340  A
ATOM     45  C8  MCU L   1      -2.400   0.167   1.245  1.00  0.00    +0.0942  A
ATOM     46 H39  MCU L   1      -1.728   3.370   0.251  1.00  0.00    +0.0655  H
ATOM     47 H40  MCU L   1      -1.667   3.705   2.678  1.00  0.00    +0.0619  H
ATOM     48 H41  MCU L   1      -2.109   1.815   4.214  1.00  0.00    +0.0618  H
ATOM     49 H42  MCU L   1      -2.573  -0.436   3.311  1.00  0.00    +0.0639  H
BRANCH 40 51
ATOM     50  C1  MCU L   1      -2.049   2.019  -2.013  1.00  0.00    +0.0789  C
ATOM     51  O2  MCU L   1      -2.277   1.027  -1.019  1.00  0.00    -0.4930 OA
ATOM     52 H36  MCU L   1      -2.783   2.845  -1.904  1.00  0.00    +0.0660  H
ATOM     53 H37  MCU L   1      -2.176   1.562  -3.016  1.00  0.00    +0.0660  H
ATOM     54 H38  MCU L   1      -1.014   2.411  -1.928  1.00  0.00    +0.0660  H
ENDBRANCH 40 51
ENDBRANCH 39 45
BRANCH 39 55
ATOM     55 S27  MCU L   1      -4.271  -1.788   0.871  1.00  0.00    +0.2656  S
ATOM     56 O28  MCU L   1      -4.211  -3.249   1.222  1.00  0.00    -0.1998 OA
ATOM     57 O29  MCU L   1      -5.033  -1.071   1.950  1.00  0.00    -0.1998 OA
BRANCH 55 58
ATOM     58 C30  MCU L   1      -5.086  -1.551  -0.670  1.00  0.00    +0.0870  A
ATOM     59 C31  MCU L   1      -5.365  -2.640  -1.510  1.00  0.00    -0.0418  A
ATOM     60 C32  MCU L   1      -5.976  -2.430  -2.750  1.00  0.00    -0.0605  A
ATOM     61 C33  MCU L   1      -6.305  -1.135  -3.160  1.00  0.00    -0.0617  A
ATOM     62 C34  MCU L   1      -6.023  -0.046  -2.328  1.00  0.00    -0.0605  A
ATOM     63 C35  MCU L   1      -5.416  -0.253  -1.086  1.00  0.00    -0.0418  A
ATOM     64 H64  MCU L   1      -5.103  -3.647  -1.212  1.00  0.00    +0.0631  H
ATOM     65 H65  MCU L   1      -6.190  -3.272  -3.396  1.00  0.00    +0.0618  H
ATOM     66 H66  MCU L   1      -6.774  -0.973  -4.121  1.00  0.00    +0.0618  H
ATOM     67 H67  MCU L   1      -6.272   0.958  -2.646  1.00  0.00    +0.0618  H
ATOM     68 H68  MCU L   1      -5.195   0.597  -0.452  1.00  0.00    +0.0631  H
ENDBRANCH 55 58
ENDBRANCH 39 55
ENDBRANCH 36 39
ENDBRANCH 32 36
ENDBRANCH 29 32
ENDBRANCH 15 29
ENDBRANCH 1 18
TORSDOF 9
