ROOT
ATOM      1 C11  177 L   1       0.597  -1.173  -0.738  1.00  0.00    +0.0649  C
ATOM      2 C12  177 L   1       1.504  -1.384   0.231  1.00  0.00    -0.0385  C
ATOM      3 C13  177 L   1       2.565  -0.398   0.466  1.00  0.00    -0.0209  A
ATOM      4 C14  177 L   1       3.334  -0.451   1.633  1.00  0.00    -0.0543  A
ATOM      5 C15  177 L   1       4.346   0.486   1.850  1.00  0.00    -0.0612  A
ATOM      6 C16  177 L   1       4.602   1.473   0.900  1.00  0.00    -0.0615  A
ATOM      7 C17  177 L   1       3.848   1.527  -0.273  1.00  0.00    -0.0580  A
ATOM      8 C18  177 L   1       2.821   0.600  -0.493  1.00  0.00    -0.0399  A
ATOM      9 C19  177 L   1       2.045   0.610  -1.787  1.00  0.00    -0.0224  C
ATOM     10 C20  177 L   1       0.632   0.033  -1.632  1.00  0.00    -0.0113  C
ATOM     11 H28  177 L   1       1.472  -2.258   0.877  1.00  0.00    +0.0633  H
ATOM     12 H29  177 L   1       3.154  -1.218   2.382  1.00  0.00    +0.0624  H
ATOM     13 H30  177 L   1       4.940   0.441   2.759  1.00  0.00    +0.0618  H
ATOM     14 H31  177 L   1       5.397   2.195   1.067  1.00  0.00    +0.0618  H
ATOM     15 H32  177 L   1       4.070   2.289  -1.015  1.00  0.00    +0.0620  H
ATOM     16 H33  177 L   1       2.605   0.017  -2.521  1.00  0.00    +0.0317  H
ATOM     17 H34  177 L   1       1.969   1.630  -2.180  1.00  0.00    +0.0317  H
ATOM     18 H35  177 L   1       0.244  -0.200  -2.630  1.00  0.00    +0.0323  H
ATOM     19 H36  177 L   1      -0.031   0.795  -1.203  1.00  0.00    +0.0323  H
ENDROOT
BRANCH 1 21
ATOM     20  O1  177 L   1      -0.630  -3.364   0.035  1.00  0.00    -0.2006 OA
ATOM     21  S2  177 L   1      -0.683  -2.324  -0.971  1.00  0.00    +0.2554  S
ATOM     22  O3  177 L   1      -0.757  -2.667  -2.374  1.00  0.00    -0.2006 OA
BRANCH 21 23
ATOM     23  N4  177 L   1      -2.103  -1.455  -0.662  1.00  0.00    -0.3051 NA
ATOM     24 H21  177 L   1      -2.882  -1.933  -1.125  1.00  0.00    +0.1728 HD
BRANCH 23 25
ATOM     25  C5  177 L   1      -2.382  -1.178   0.760  1.00  0.00    +0.0678  C
ATOM     26 H22  177 L   1      -2.716  -2.087   1.267  1.00  0.00    +0.0555  H
ATOM     27 H23  177 L   1      -1.511  -0.757   1.269  1.00  0.00    +0.0555  H
BRANCH 25 28
ATOM     28  C6  177 L   1      -3.485  -0.165   0.781  1.00  0.00    +0.0805  C
ATOM     29  N7  177 L   1      -4.735  -0.477   0.910  1.00  0.00    -0.0921 NA
ATOM     30  O8  177 L   1      -5.458   0.741   0.876  1.00  0.00    -0.3934 OA
ATOM     31  C9  177 L   1      -4.601   1.728   0.291  1.00  0.00    +0.1231  C
ATOM     32 C10  177 L   1      -3.208   1.287   0.647  1.00  0.00    +0.0274  C
ATOM     33 H24  177 L   1      -4.842   2.716   0.691  1.00  0.00    +0.0727  H
ATOM     34 H25  177 L   1      -4.766   1.730  -0.793  1.00  0.00    +0.0727  H
ATOM     35 H26  177 L   1      -2.881   1.675   1.616  1.00  0.00    +0.0361  H
ATOM     36 H27  177 L   1      -2.472   1.518  -0.125  1.00  0.00    +0.0361  H
ENDBRANCH 25 28
ENDBRANCH 23 25
ENDBRANCH 21 23
ENDBRANCH 1 21
TORSDOF 4
