ROOT
ATOM      1  N6  177 L   1      -1.603  -0.280  -0.969  1.00  0.00    -0.2972 NA
ATOM      2  C7  177 L   1      -1.087  -1.408  -0.157  1.00  0.00    +0.0467  C
ATOM      3  C8  177 L   1       0.109  -1.003   0.725  1.00  0.00    +0.0373  C
ATOM      4  N9  177 L   1       1.198  -0.349  -0.035  1.00  0.00    -0.3622  N
ATOM      5 C17  177 L   1       0.782   0.471  -1.206  1.00  0.00    +0.0455  C
ATOM      6 C18  177 L   1       1.052  -0.296  -2.505  1.00  0.00    -0.0429  C
ATOM      7 C19  177 L   1      -0.709   0.891  -1.104  1.00  0.00    +0.0493  C
ATOM      8 H25  177 L   1      -1.870  -1.818   0.488  1.00  0.00    +0.0513  H
ATOM      9 H26  177 L   1      -0.785  -2.206  -0.844  1.00  0.00    +0.0513  H
ATOM     10 H27  177 L   1      -0.249  -0.318   1.504  1.00  0.00    +0.0505  H
ATOM     11 H28  177 L   1       0.481  -1.916   1.204  1.00  0.00    +0.0505  H
ATOM     12 H32  177 L   1       1.349   1.410  -1.237  1.00  0.00    +0.0539  H
ATOM     13 H33  177 L   1       2.112  -0.548  -2.608  1.00  0.00    +0.0250  H
ATOM     14 H34  177 L   1       0.768   0.308  -3.374  1.00  0.00    +0.0250  H
ATOM     15 H35  177 L   1       0.496  -1.237  -2.555  1.00  0.00    +0.0250  H
ATOM     16 H36  177 L   1      -0.975   1.471  -1.994  1.00  0.00    +0.0515  H
ATOM     17 H37  177 L   1      -0.844   1.537  -0.228  1.00  0.00    +0.0515  H
ENDROOT
BRANCH 1 18
ATOM     18  S3  177 L   1      -3.239  -0.117  -1.255  1.00  0.00    +0.2321  S
ATOM     19  O4  177 L   1      -3.845  -1.428  -1.171  1.00  0.00    -0.2054 OA
ATOM     20  O5  177 L   1      -3.386   0.694  -2.446  1.00  0.00    -0.2054 OA
BRANCH 18 22
ATOM     21  C1  177 L   1      -3.676   0.215   1.471  1.00  0.00    -0.0498  C
ATOM     22  C2  177 L   1      -3.829   0.872   0.117  1.00  0.00    +0.0659  C
ATOM     23 H20  177 L   1      -4.129  -0.781   1.488  1.00  0.00    +0.0240  H
ATOM     24 H21  177 L   1      -4.163   0.823   2.240  1.00  0.00    +0.0240  H
ATOM     25 H22  177 L   1      -2.624   0.116   1.749  1.00  0.00    +0.0240  H
ATOM     26 H23  177 L   1      -4.889   1.057  -0.085  1.00  0.00    +0.0441  H
ATOM     27 H24  177 L   1      -3.312   1.835   0.084  1.00  0.00    +0.0441  H
ENDBRANCH 18 22
ENDBRANCH 1 18
BRANCH 4 28
ATOM     28 C10  177 L   1       2.410  -0.068   0.615  1.00  0.00    +0.0768  A
ATOM     29 C11  177 L   1       3.515   0.425  -0.099  1.00  0.00    -0.0175  A
ATOM     30 C12  177 L   1       4.722   0.684   0.547  1.00  0.00    +0.0297  A
ATOM     31 N13  177 L   1       4.929   0.490   1.862  1.00  0.00    -0.2603 NA
ATOM     32 C14  177 L   1       3.876   0.004   2.551  1.00  0.00    +0.0648  A
ATOM     33 C15  177 L   1       2.639  -0.285   1.988  1.00  0.00    +0.1644  A
ATOM     34 F16  177 L   1       1.678  -0.746   2.803  1.00  0.00    -0.2017  F
ATOM     35 H29  177 L   1       3.474   0.595  -1.168  1.00  0.00    +0.0654  H
ATOM     36 H30  177 L   1       5.579   1.060  -0.007  1.00  0.00    +0.0830  H
ATOM     37 H31  177 L   1       4.043  -0.157   3.612  1.00  0.00    +0.0859  H
ENDBRANCH 4 28
TORSDOF 3
