ROOT
ATOM      1 C10  827 L   1       2.008   0.160  -0.778  1.00  0.00    +0.0371  C
ATOM      2 C11  827 L   1       1.870  -1.124   0.070  1.00  0.00    -0.0320  C
ATOM      3 C12  827 L   1       3.112  -2.005  -0.000  1.00  0.00    -0.0512  C
ATOM      4 C13  827 L   1       3.430  -2.427  -1.437  1.00  0.00    -0.0529  C
ATOM      5 C14  827 L   1       3.090  -1.361  -2.482  1.00  0.00    -0.0512  C
ATOM      6 C15  827 L   1       3.071   0.040  -1.889  1.00  0.00    -0.0320  C
ATOM      7 H26  827 L   1       1.043   0.298  -1.277  1.00  0.00    +0.0528  H
ATOM      8 H27  827 L   1       1.018  -1.705  -0.311  1.00  0.00    +0.0285  H
ATOM      9 H28  827 L   1       1.633  -0.889   1.115  1.00  0.00    +0.0285  H
ATOM     10 H29  827 L   1       3.967  -1.461   0.418  1.00  0.00    +0.0266  H
ATOM     11 H30  827 L   1       2.978  -2.897   0.622  1.00  0.00    +0.0266  H
ATOM     12 H31  827 L   1       4.494  -2.686  -1.501  1.00  0.00    +0.0265  H
ATOM     13 H32  827 L   1       2.884  -3.342  -1.682  1.00  0.00    +0.0265  H
ATOM     14 H33  827 L   1       2.105  -1.579  -2.915  1.00  0.00    +0.0266  H
ATOM     15 H34  827 L   1       3.809  -1.413  -3.309  1.00  0.00    +0.0266  H
ATOM     16 H35  827 L   1       4.074   0.278  -1.513  1.00  0.00    +0.0285  H
ATOM     17 H36  827 L   1       2.860   0.775  -2.674  1.00  0.00    +0.0285  H
ENDROOT
BRANCH 1 22
ATOM     18  C5  827 L   1       1.353   2.389   0.267  1.00  0.00    +0.1528  A
ATOM     19  N6  827 L   1       1.914   3.228   1.117  1.00  0.00    -0.1328 NA
ATOM     20  N7  827 L   1       3.152   2.740   1.450  1.00  0.00    -0.1378 NA
ATOM     21  C8  827 L   1       3.321   1.611   0.806  1.00  0.00    +0.1201  A
ATOM     22  N9  827 L   1       2.220   1.344   0.044  1.00  0.00    -0.3128  N
ATOM     23 H25  827 L   1       4.194   0.974   0.863  1.00  0.00    +0.1048  H
BRANCH 18 24
ATOM     24  C4  827 L   1      -0.013   2.520  -0.298  1.00  0.00    +0.0782  C
ATOM     25 H23  827 L   1      -0.070   2.201  -1.342  1.00  0.00    +0.0567  H
ATOM     26 H24  827 L   1      -0.341   3.564  -0.249  1.00  0.00    +0.0567  H
BRANCH 24 29
ATOM     27  O1  827 L   1      -2.443   1.408  -1.129  1.00  0.00    -0.2729 OA
ATOM     28  C2  827 L   1      -2.126   1.323   0.052  1.00  0.00    +0.2245  C
ATOM     29  N3  827 L   1      -0.909   1.747   0.534  1.00  0.00    -0.3487  N
ATOM     30 H22  827 L   1      -0.812   1.887   1.534  1.00  0.00    +0.1627 HD
BRANCH 28 31
ATOM     31 C16  827 L   1      -3.000   0.666   1.113  1.00  0.00    +0.0418  C
ATOM     32 C17  827 L   1      -2.479  -0.756   1.377  1.00  0.00    -0.0181  C
ATOM     33 C18  827 L   1      -3.606  -1.664   1.847  1.00  0.00    +0.0484  C
ATOM     34 O19  827 L   1      -4.673  -1.774   0.904  1.00  0.00    -0.3797 OA
ATOM     35 C20  827 L   1      -4.838  -0.657   0.027  1.00  0.00    +0.0484  C
ATOM     36 C21  827 L   1      -4.479   0.659   0.700  1.00  0.00    -0.0181  C
ATOM     37 H37  827 L   1      -2.915   1.265   2.030  1.00  0.00    +0.0398  H
ATOM     38 H38  827 L   1      -2.050  -1.176   0.457  1.00  0.00    +0.0295  H
ATOM     39 H39  827 L   1      -1.672  -0.733   2.120  1.00  0.00    +0.0295  H
ATOM     40 H40  827 L   1      -3.225  -2.673   2.039  1.00  0.00    +0.0560  H
ATOM     41 H41  827 L   1      -4.026  -1.293   2.791  1.00  0.00    +0.0560  H
ATOM     42 H42  827 L   1      -4.225  -0.827  -0.864  1.00  0.00    +0.0560  H
ATOM     43 H43  827 L   1      -5.884  -0.647  -0.298  1.00  0.00    +0.0560  H
ATOM     44 H44  827 L   1      -5.089   0.764   1.606  1.00  0.00    +0.0295  H
ATOM     45 H45  827 L   1      -4.725   1.507   0.049  1.00  0.00    +0.0295  H
ENDBRANCH 28 31
ENDBRANCH 24 29
ENDBRANCH 18 24
ENDBRANCH 1 22
TORSDOF 4
