ROOT
ATOM      1  C8  CHE L   1       5.073  -0.615   0.061  1.00  0.00    +0.0327  A
ATOM      2  C9  CHE L   1       5.364  -1.939   0.415  1.00  0.00    -0.0457  A
ATOM      3 C10  CHE L   1       6.597  -2.264   0.971  1.00  0.00    -0.0600  A
ATOM      4 C11  CHE L   1       7.547  -1.265   1.178  1.00  0.00    -0.0540  A
ATOM      5 C12  CHE L   1       7.281   0.069   0.833  1.00  0.00    -0.0167  A
ATOM      6 C13  CHE L   1       8.250   1.064   1.049  1.00  0.00    -0.0540  A
ATOM      7 C14  CHE L   1       8.002   2.395   0.713  1.00  0.00    -0.0612  A
ATOM      8 C15  CHE L   1       6.781   2.749   0.155  1.00  0.00    -0.0611  A
ATOM      9 C16  CHE L   1       5.807   1.773  -0.067  1.00  0.00    -0.0529  A
ATOM     10 C17  CHE L   1       6.029   0.415   0.264  1.00  0.00    -0.0025  A
ATOM     11 H41  CHE L   1       4.626  -2.724   0.260  1.00  0.00    +0.0630  H
ATOM     12 H42  CHE L   1       6.817  -3.292   1.246  1.00  0.00    +0.0618  H
ATOM     13 H43  CHE L   1       8.505  -1.539   1.617  1.00  0.00    +0.0624  H
ATOM     14 H44  CHE L   1       9.212   0.808   1.487  1.00  0.00    +0.0624  H
ATOM     15 H45  CHE L   1       8.763   3.151   0.888  1.00  0.00    +0.0618  H
ATOM     16 H46  CHE L   1       6.581   3.785  -0.108  1.00  0.00    +0.0618  H
ATOM     17 H47  CHE L   1       4.861   2.084  -0.504  1.00  0.00    +0.0624  H
ENDROOT
BRANCH 1 19
ATOM     18  C6  CHE L   1       2.686  -0.141  -0.958  1.00  0.00    -0.0755  C
ATOM     19  C7  CHE L   1       3.779  -0.349  -0.503  1.00  0.00    -0.0639  C
BRANCH 18 20
ATOM     20  C5  CHE L   1       1.342   0.101  -1.492  1.00  0.00    +0.0831  C
ATOM     21 H39  CHE L   1       1.334  -0.057  -2.574  1.00  0.00    +0.0626  H
ATOM     22 H40  CHE L   1       1.041   1.141  -1.325  1.00  0.00    +0.0626  H
BRANCH 20 26
ATOM     23  C1  CHE L   1       0.681  -2.508  -2.598  1.00  0.00    +0.0145  C
ATOM     24  C2  CHE L   1       0.022  -2.035  -1.325  1.00  0.00    +0.2211  C
ATOM     25  O3  CHE L   1      -0.804  -2.752  -0.758  1.00  0.00    -0.2733 OA
ATOM     26  N4  CHE L   1       0.366  -0.778  -0.850  1.00  0.00    -0.3312  N
ATOM     27 H36  CHE L   1       0.317  -1.923  -3.447  1.00  0.00    +0.0325  H
ATOM     28 H37  CHE L   1       0.423  -3.558  -2.766  1.00  0.00    +0.0325  H
ATOM     29 H38  CHE L   1       1.768  -2.442  -2.522  1.00  0.00    +0.0325  H
BRANCH 26 30
ATOM     30 C18  CHE L   1      -0.182  -0.335   0.436  1.00  0.00    +0.0274  C
ATOM     31 H48  CHE L   1       0.602   0.216   0.969  1.00  0.00    +0.0492  H
ATOM     32 H49  CHE L   1      -0.415  -1.210   1.054  1.00  0.00    +0.0492  H
BRANCH 30 33
ATOM     33 C19  CHE L   1      -1.430   0.537   0.272  1.00  0.00    +0.0072  C
ATOM     34 C20  CHE L   1      -2.670  -0.215  -0.213  1.00  0.00    -0.0227  C
ATOM     35 C21  CHE L   1      -3.845   0.704   0.166  1.00  0.00    +0.0646  C
ATOM     36 C32  CHE L   1      -3.343   1.575   1.339  1.00  0.00    +0.1020  C
ATOM     37 O33  CHE L   1      -3.337   2.972   1.003  1.00  0.00    -0.3872 OA
ATOM     38 C34  CHE L   1      -1.904   1.105   1.609  1.00  0.00    +0.0875  C
ATOM     39 O35  CHE L   1      -1.059   2.169   2.024  1.00  0.00    -0.3888 OA
ATOM     40 H50  CHE L   1      -1.204   1.361  -0.419  1.00  0.00    +0.0344  H
ATOM     41 H51  CHE L   1      -2.641  -0.396  -1.293  1.00  0.00    +0.0290  H
ATOM     42 H52  CHE L   1      -2.747  -1.192   0.280  1.00  0.00    +0.0290  H
ATOM     43 H53  CHE L   1      -4.060   1.354  -0.692  1.00  0.00    +0.0555  H
ATOM     44 H57  CHE L   1      -3.950   1.483   2.245  1.00  0.00    +0.0640  H
ATOM     45 H58  CHE L   1      -2.797   3.093   0.199  1.00  0.00    +0.2100 HD
ATOM     46 H59  CHE L   1      -1.904   0.327   2.382  1.00  0.00    +0.0623  H
ATOM     47 H60  CHE L   1      -1.646   2.904   2.299  1.00  0.00    +0.2099 HD
BRANCH 35 48
ATOM     48 N22  CHE L   1      -5.065  -0.028   0.471  1.00  0.00    -0.3261  N
ATOM     49 C23  CHE L   1      -5.231  -0.931   1.497  1.00  0.00    +0.0076  A
ATOM     50 C24  CHE L   1      -6.528  -1.399   1.451  1.00  0.00    -0.0320  A
ATOM     51 C25  CHE L   1      -7.176  -0.759   0.360  1.00  0.00    +0.0557  A
ATOM     52 C26  CHE L   1      -8.426  -0.760  -0.244  1.00  0.00    +0.1416  A
ATOM     53 CL27 CHE L   1      -9.645  -1.760   0.386  1.00  0.00    -0.0612 Cl
ATOM     54 N28  CHE L   1      -8.711   0.003  -1.309  1.00  0.00    -0.2232 NA
ATOM     55 C29  CHE L   1      -7.712   0.775  -1.768  1.00  0.00    +0.1199  A
ATOM     56 N30  CHE L   1      -6.455   0.880  -1.296  1.00  0.00    -0.2176 NA
ATOM     57 C31  CHE L   1      -6.244   0.088  -0.227  1.00  0.00    +0.1457  A
ATOM     58 H54  CHE L   1      -4.419  -1.182   2.170  1.00  0.00    +0.0810  H
ATOM     59 H55  CHE L   1      -6.959  -2.128   2.125  1.00  0.00    +0.0640  H
ATOM     60 H56  CHE L   1      -7.948   1.396  -2.630  1.00  0.00    +0.1048  H
ENDBRANCH 35 48
ENDBRANCH 30 33
ENDBRANCH 26 30
ENDBRANCH 20 26
ENDBRANCH 18 20
ENDBRANCH 1 19
TORSDOF 6
