ROOT
ATOM      1  C1  CHE L   1       0.437   2.120  -1.011  1.00  0.00    -0.0438  C
ATOM      2  C2  CHE L   1       0.957   0.975  -0.146  1.00  0.00    +0.0394  C
ATOM      3  C3  CHE L   1       2.463   0.825  -0.419  1.00  0.00    -0.0116  C
ATOM      4  C4  CHE L   1       3.073  -0.317   0.396  1.00  0.00    +0.0335  C
ATOM      5 C16  CHE L   1       2.795  -0.109   1.880  1.00  0.00    -0.0141  C
ATOM      6 C17  CHE L   1       1.299   0.028   2.125  1.00  0.00    +0.0313  C
ATOM      7 N18  CHE L   1       0.759   1.175   1.334  1.00  0.00    -0.2979 NA
ATOM      8 H37  CHE L   1      -0.656   2.158  -1.019  1.00  0.00    +0.0250  H
ATOM      9 H38  CHE L   1       0.745   1.987  -2.055  1.00  0.00    +0.0250  H
ATOM     10 H39  CHE L   1       0.820   3.089  -0.672  1.00  0.00    +0.0250  H
ATOM     11 H40  CHE L   1       0.449   0.050  -0.446  1.00  0.00    +0.0529  H
ATOM     12 H41  CHE L   1       2.630   0.643  -1.488  1.00  0.00    +0.0305  H
ATOM     13 H42  CHE L   1       2.983   1.763  -0.179  1.00  0.00    +0.0305  H
ATOM     14 H43  CHE L   1       2.610  -1.261   0.079  1.00  0.00    +0.0524  H
ATOM     15 H51  CHE L   1       3.314   0.790   2.238  1.00  0.00    +0.0302  H
ATOM     16 H52  CHE L   1       3.190  -0.953   2.459  1.00  0.00    +0.0302  H
ATOM     17 H53  CHE L   1       1.158   0.190   3.197  1.00  0.00    +0.0496  H
ATOM     18 H54  CHE L   1       0.776  -0.895   1.848  1.00  0.00    +0.0496  H
ENDROOT
BRANCH 4 19
ATOM     19  N5  CHE L   1       4.507  -0.420   0.152  1.00  0.00    -0.3478  N
ATOM     20  C6  CHE L   1       4.990  -1.074  -0.976  1.00  0.00    +0.2739  C
ATOM     21  O7  CHE L   1       4.243  -1.699  -1.726  1.00  0.00    -0.2658 OA
ATOM     22 H44  CHE L   1       5.104   0.267   0.592  1.00  0.00    +0.1629 HD
BRANCH 20 23
ATOM     23  C8  CHE L   1       6.436  -0.943  -1.202  1.00  0.00    +0.1701  A
ATOM     24  C9  CHE L   1       7.447  -0.487  -0.310  1.00  0.00    +0.0132  A
ATOM     25 C10  CHE L   1       8.610  -0.560  -1.033  1.00  0.00    +0.1411  A
ATOM     26 O14  CHE L   1       8.334  -1.029  -2.275  1.00  0.00    -0.3586 OA
ATOM     27 N15  CHE L   1       6.981  -1.280  -2.384  1.00  0.00    -0.0732 NA
ATOM     28 H45  CHE L   1       7.347  -0.162   0.714  1.00  0.00    +0.0676  H
BRANCH 25 29
ATOM     29 C11  CHE L   1      10.018  -0.162  -0.529  1.00  0.00    +0.0199  C
ATOM     30 C12  CHE L   1      10.813  -1.156   0.277  1.00  0.00    -0.0426  C
ATOM     31 C13  CHE L   1      11.227  -0.830  -1.129  1.00  0.00    -0.0426  C
ATOM     32 H46  CHE L   1      10.122   0.888  -0.272  1.00  0.00    +0.0380  H
ATOM     33 H47  CHE L   1      11.426  -0.778   1.087  1.00  0.00    +0.0272  H
ATOM     34 H48  CHE L   1      10.394  -2.140   0.460  1.00  0.00    +0.0272  H
ATOM     35 H49  CHE L   1      11.081  -1.589  -1.890  1.00  0.00    +0.0272  H
ATOM     36 H50  CHE L   1      12.117  -0.227  -1.273  1.00  0.00    +0.0272  H
ENDBRANCH 25 29
ENDBRANCH 20 23
ENDBRANCH 4 19
BRANCH 7 37
ATOM     37 S19  CHE L   1      -0.723   1.802   1.931  1.00  0.00    +0.2325  S
ATOM     38 O20  CHE L   1      -0.667   1.759   3.378  1.00  0.00    -0.2053 OA
ATOM     39 O21  CHE L   1      -1.010   3.047   1.254  1.00  0.00    -0.2053 OA
BRANCH 37 40
ATOM     40 C22  CHE L   1      -1.902   0.568   1.388  1.00  0.00    +0.0699  C
ATOM     41 H55  CHE L   1      -1.794   0.470   0.306  1.00  0.00    +0.0444  H
ATOM     42 H56  CHE L   1      -1.637  -0.379   1.869  1.00  0.00    +0.0444  H
BRANCH 40 43
ATOM     43 C23  CHE L   1      -3.327   0.976   1.754  1.00  0.00    -0.0250  C
ATOM     44 H57  CHE L   1      -3.403   1.112   2.840  1.00  0.00    +0.0287  H
ATOM     45 H58  CHE L   1      -3.566   1.948   1.304  1.00  0.00    +0.0287  H
BRANCH 43 46
ATOM     46 C24  CHE L   1      -4.359  -0.064   1.314  1.00  0.00    -0.0029  C
ATOM     47 H59  CHE L   1      -5.352   0.273   1.630  1.00  0.00    +0.0424  H
ATOM     48 H60  CHE L   1      -4.147  -1.013   1.822  1.00  0.00    +0.0424  H
BRANCH 46 49
ATOM     49 N25  CHE L   1      -4.307  -0.241  -0.136  1.00  0.00    -0.3120 NA
ATOM     50 H61  CHE L   1      -4.568   0.632  -0.596  1.00  0.00    +0.1222 HD
BRANCH 49 51
ATOM     51 C26  CHE L   1      -5.192  -1.306  -0.612  1.00  0.00    +0.0212  C
ATOM     52 H62  CHE L   1      -5.031  -2.229  -0.040  1.00  0.00    +0.0473  H
ATOM     53 H63  CHE L   1      -4.904  -1.554  -1.641  1.00  0.00    +0.0473  H
BRANCH 51 54
ATOM     54 C27  CHE L   1      -6.653  -0.922  -0.616  1.00  0.00    -0.0336  A
ATOM     55 C28  CHE L   1      -7.533  -1.450   0.337  1.00  0.00    -0.0568  A
ATOM     56 C29  CHE L   1      -8.885  -1.100   0.325  1.00  0.00    -0.0498  A
ATOM     57 C30  CHE L   1      -9.383  -0.206  -0.635  1.00  0.00    +0.0548  A
ATOM     58 C35  CHE L   1      -8.501   0.323  -1.588  1.00  0.00    -0.0498  A
ATOM     59 C36  CHE L   1      -7.150  -0.030  -1.577  1.00  0.00    -0.0568  A
ATOM     60 H64  CHE L   1      -7.171  -2.144   1.094  1.00  0.00    +0.0621  H
ATOM     61 H65  CHE L   1      -9.552  -1.531   1.070  1.00  0.00    +0.0623  H
ATOM     62 H66  CHE L   1      -8.865   1.012  -2.349  1.00  0.00    +0.0623  H
ATOM     63 H67  CHE L   1      -6.486   0.390  -2.330  1.00  0.00    +0.0621  H
BRANCH 57 64
ATOM     64 C31  CHE L   1     -10.848   0.151  -0.674  1.00  0.00    +0.4174  C
ATOM     65 F32  CHE L   1     -11.484  -0.046   0.515  1.00  0.00    -0.1659  F
ATOM     66 F33  CHE L   1     -11.534  -0.585  -1.591  1.00  0.00    -0.1659  F
ATOM     67 F34  CHE L   1     -11.067   1.455  -1.001  1.00  0.00    -0.1659  F
ENDBRANCH 57 64
ENDBRANCH 51 54
ENDBRANCH 49 51
ENDBRANCH 46 49
ENDBRANCH 43 46
ENDBRANCH 40 43
ENDBRANCH 37 40
ENDBRANCH 7 37
TORSDOF 11
