ROOT
ATOM      1  C6  CHE L   1       1.935   0.053   1.167  1.00  0.00    +0.0426  A
ATOM      2  C7  CHE L   1       2.539  -0.383   2.345  1.00  0.00    -0.0383  A
ATOM      3  C8  CHE L   1       2.120  -1.574   2.953  1.00  0.00    -0.0592  A
ATOM      4  C9  CHE L   1       1.087  -2.331   2.395  1.00  0.00    -0.0538  A
ATOM      5 C10  CHE L   1       0.478  -1.908   1.213  1.00  0.00    -0.0142  A
ATOM      6 C22  CHE L   1       0.932  -0.737   0.600  1.00  0.00    -0.0305  A
ATOM      7 H27  CHE L   1       3.329   0.187   2.824  1.00  0.00    +0.0638  H
ATOM      8 H28  CHE L   1       2.596  -1.901   3.873  1.00  0.00    +0.0618  H
ATOM      9 H29  CHE L   1       0.755  -3.237   2.894  1.00  0.00    +0.0624  H
ATOM     10 H43  CHE L   1       0.486  -0.447  -0.342  1.00  0.00    +0.0644  H
ENDROOT
BRANCH 1 13
ATOM     11  C3  CHE L   1       3.192   2.191   0.849  1.00  0.00    +0.2486  C
ATOM     12  O4  CHE L   1       3.999   2.118   1.768  1.00  0.00    -0.2679 OA
ATOM     13  N5  CHE L   1       2.236   1.262   0.503  1.00  0.00    -0.3226  N
ATOM     14 H26  CHE L   1       1.642   1.480  -0.296  1.00  0.00    +0.1689 HD
BRANCH 11 16
ATOM     15  C1  CHE L   1       4.030   4.382   0.098  1.00  0.00    -0.0936  C
ATOM     16  C2  CHE L   1       3.160   3.376  -0.057  1.00  0.00    -0.0043  C
ATOM     17 H23  CHE L   1       4.783   4.365   0.882  1.00  0.00    +0.0536  H
ATOM     18 H24  CHE L   1       4.007   5.245  -0.559  1.00  0.00    +0.0536  H
ATOM     19 H25  CHE L   1       2.414   3.410  -0.841  1.00  0.00    +0.0666  H
ENDBRANCH 11 16
ENDBRANCH 1 13
BRANCH 5 20
ATOM     20 C11  CHE L   1      -0.636  -2.630   0.621  1.00  0.00    +0.0039  A
ATOM     21 C12  CHE L   1      -0.585  -3.979   0.329  1.00  0.00    +0.0097  A
ATOM     22 N13  CHE L   1      -1.778  -4.338  -0.238  1.00  0.00    -0.3661  N
ATOM     23 C14  CHE L   1      -2.603  -3.246  -0.304  1.00  0.00    +0.0067  A
ATOM     24 C15  CHE L   1      -1.927  -2.149   0.206  1.00  0.00    -0.0084  A
ATOM     25 H30  CHE L   1       0.204  -4.708   0.461  1.00  0.00    +0.0813  H
ATOM     26 H31  CHE L   1      -2.013  -5.267  -0.561  1.00  0.00    +0.1648 HD
ATOM     27 H32  CHE L   1      -3.601  -3.337  -0.710  1.00  0.00    +0.0810  H
BRANCH 24 28
ATOM     28 C16  CHE L   1      -2.473  -0.755   0.362  1.00  0.00    +0.0258  C
ATOM     29 H33  CHE L   1      -2.117  -0.381   1.331  1.00  0.00    +0.0476  H
ATOM     30 H34  CHE L   1      -3.569  -0.769   0.429  1.00  0.00    +0.0476  H
BRANCH 28 31
ATOM     31 N17  CHE L   1      -2.009   0.114  -0.744  1.00  0.00    -0.2989 NA
ATOM     32 C18  CHE L   1      -2.850  -0.069  -1.932  1.00  0.00    -0.0123  C
ATOM     33 H35  CHE L   1      -3.890   0.224  -1.748  1.00  0.00    +0.0391  H
ATOM     34 H36  CHE L   1      -2.840  -1.109  -2.272  1.00  0.00    +0.0391  H
ATOM     35 H37  CHE L   1      -2.474   0.522  -2.772  1.00  0.00    +0.0391  H
BRANCH 31 36
ATOM     36 C19  CHE L   1      -2.000   1.526  -0.295  1.00  0.00    +0.0221  C
ATOM     37 H38  CHE L   1      -1.485   1.578   0.673  1.00  0.00    +0.0449  H
ATOM     38 H39  CHE L   1      -3.015   1.913  -0.146  1.00  0.00    +0.0449  H
BRANCH 36 39
ATOM     39 C20  CHE L   1      -1.207   2.447  -1.238  1.00  0.00    +0.0569  C
ATOM     40 O21  CHE L   1       0.073   1.874  -1.525  1.00  0.00    -0.3937 OA
ATOM     41 H40  CHE L   1      -1.733   2.609  -2.185  1.00  0.00    +0.0570  H
ATOM     42 H41  CHE L   1      -1.044   3.422  -0.770  1.00  0.00    +0.0570  H
ATOM     43 H42  CHE L   1      -0.147   0.958  -1.800  1.00  0.00    +0.2095 HD
ENDBRANCH 36 39
ENDBRANCH 31 36
ENDBRANCH 28 31
ENDBRANCH 24 28
ENDBRANCH 5 20
TORSDOF 7
