ROOT
ATOM      1  C1  363 L   1      -5.591   1.535   0.354  1.00  0.00    +0.0145  C
ATOM      2  C2  363 L   1      -4.136   1.584   0.741  1.00  0.00    +0.2204  C
ATOM      3  O3  363 L   1      -3.715   2.420   1.538  1.00  0.00    -0.2733 OA
ATOM      4  N4  363 L   1      -3.315   0.649   0.155  1.00  0.00    -0.3414  N
ATOM      5  C5  363 L   1      -3.698  -0.371  -0.805  1.00  0.00    +0.0222  C
ATOM      6  C6  363 L   1      -2.377  -0.950  -1.294  1.00  0.00    -0.0197  C
ATOM      7  C7  363 L   1      -1.406  -0.737  -0.113  1.00  0.00    +0.0657  C
ATOM      8  C8  363 L   1      -1.548  -1.870   0.915  1.00  0.00    -0.0493  C
ATOM      9 C21  363 L   1      -1.893   0.604   0.446  1.00  0.00    +0.0351  C
ATOM     10 H22  363 L   1      -6.154   2.245   0.968  1.00  0.00    +0.0325  H
ATOM     11 H23  363 L   1      -5.707   1.814  -0.696  1.00  0.00    +0.0325  H
ATOM     12 H24  363 L   1      -5.999   0.536   0.528  1.00  0.00    +0.0325  H
ATOM     13 H25  363 L   1      -4.300  -1.122  -0.283  1.00  0.00    +0.0489  H
ATOM     14 H26  363 L   1      -4.293   0.058  -1.616  1.00  0.00    +0.0489  H
ATOM     15 H27  363 L   1      -2.473  -1.997  -1.598  1.00  0.00    +0.0293  H
ATOM     16 H28  363 L   1      -2.049  -0.383  -2.175  1.00  0.00    +0.0293  H
ATOM     17 H29  363 L   1      -1.206  -2.822   0.492  1.00  0.00    +0.0240  H
ATOM     18 H30  363 L   1      -0.950  -1.681   1.813  1.00  0.00    +0.0240  H
ATOM     19 H31  363 L   1      -2.586  -2.003   1.240  1.00  0.00    +0.0240  H
ATOM     20 H38  363 L   1      -1.725   0.714   1.523  1.00  0.00    +0.0499  H
ATOM     21 H39  363 L   1      -1.428   1.459  -0.060  1.00  0.00    +0.0499  H
ENDROOT
BRANCH 7 22
ATOM     22  C9  363 L   1       0.052  -0.640  -0.583  1.00  0.00    +0.2329  C
ATOM     23 O10  363 L   1       0.362  -0.927  -1.736  1.00  0.00    -0.2722 OA
ATOM     24 N11  363 L   1       0.933  -0.250   0.414  1.00  0.00    -0.3255  N
ATOM     25 H32  363 L   1       0.547  -0.068   1.331  1.00  0.00    +0.1686 HD
BRANCH 24 26
ATOM     26 C12  363 L   1       2.331  -0.074   0.306  1.00  0.00    +0.0454  A
ATOM     27 C13  363 L   1       3.010   0.331   1.479  1.00  0.00    -0.0346  A
ATOM     28 C14  363 L   1       4.395   0.534   1.484  1.00  0.00    -0.0142  A
ATOM     29 C15  363 L   1       5.073   0.328   0.305  1.00  0.00    +0.1664  A
ATOM     30 C16  363 L   1       4.422  -0.065  -0.839  1.00  0.00    +0.1682  A
ATOM     31 C17  363 L   1       3.056  -0.273  -0.873  1.00  0.00    +0.0073  A
ATOM     32 O18  363 L   1       5.273  -0.213  -1.891  1.00  0.00    -0.4525 OA
ATOM     33 C19  363 L   1       6.530   0.133  -1.277  1.00  0.00    +0.2332  C
ATOM     34 O20  363 L   1       6.411   0.476   0.120  1.00  0.00    -0.4526 OA
ATOM     35 H33  363 L   1       2.465   0.493   2.406  1.00  0.00    +0.0639  H
ATOM     36 H34  363 L   1       4.917   0.845   2.382  1.00  0.00    +0.0656  H
ATOM     37 H35  363 L   1       2.599  -0.581  -1.804  1.00  0.00    +0.0676  H
ATOM     38 H36  363 L   1       7.213  -0.719  -1.371  1.00  0.00    +0.1166  H
ATOM     39 H37  363 L   1       6.959   0.988  -1.812  1.00  0.00    +0.1166  H
ENDBRANCH 24 26
ENDBRANCH 7 22
TORSDOF 2
