ROOT
ATOM      1  C1  WH0 L   1      -3.068  -2.811  -0.002  1.00  0.00    -0.0340  C
ATOM      2  C2  WH0 L   1      -2.042  -2.318   1.029  1.00  0.00    +0.0873  C
ATOM      3  O3  WH0 L   1      -2.768  -1.924   2.209  1.00  0.00    -0.3867 OA
ATOM      4  C4  WH0 L   1      -1.094  -3.469   1.403  1.00  0.00    -0.0039  C
ATOM      5  C5  WH0 L   1       0.053  -3.033   2.310  1.00  0.00    +0.0325  C
ATOM      6  N6  WH0 L   1       0.786  -1.884   1.729  1.00  0.00    -0.2915 NA
ATOM      7 C11  WH0 L   1      -0.113  -0.708   1.504  1.00  0.00    +0.0880  C
ATOM      8 C25  WH0 L   1      -1.246  -1.085   0.497  1.00  0.00    +0.0835  C
ATOM      9 H36  WH0 L   1      -3.596  -3.699   0.368  1.00  0.00    +0.0258  H
ATOM     10 H37  WH0 L   1      -2.591  -3.065  -0.955  1.00  0.00    +0.0258  H
ATOM     11 H38  WH0 L   1      -3.843  -2.058  -0.186  1.00  0.00    +0.0258  H
ATOM     12 H39  WH0 L   1      -3.381  -2.645   2.441  1.00  0.00    +0.2102 HD
ATOM     13 H40  WH0 L   1      -0.687  -3.920   0.491  1.00  0.00    +0.0311  H
ATOM     14 H41  WH0 L   1      -1.654  -4.257   1.923  1.00  0.00    +0.0311  H
ATOM     15 H42  WH0 L   1       0.717  -3.884   2.489  1.00  0.00    +0.0496  H
ATOM     16 H43  WH0 L   1      -0.328  -2.742   3.297  1.00  0.00    +0.0496  H
ATOM     17 H47  WH0 L   1      -0.624  -0.545   2.467  1.00  0.00    +0.0602  H
ATOM     18 H59  WH0 L   1      -0.791  -1.362  -0.459  1.00  0.00    +0.0575  H
ENDROOT
BRANCH 6 19
ATOM     19  S7  WH0 L   1       2.247  -2.164   0.937  1.00  0.00    +0.2299  S
ATOM     20  C8  WH0 L   1       1.763  -2.734  -0.678  1.00  0.00    +0.0573  C
ATOM     21  O9  WH0 L   1       2.891  -3.279   1.601  1.00  0.00    -0.2056 OA
ATOM     22 O10  WH0 L   1       2.976  -0.929   0.740  1.00  0.00    -0.2056 OA
ATOM     23 H44  WH0 L   1       1.216  -1.949  -1.198  1.00  0.00    +0.0407  H
ATOM     24 H45  WH0 L   1       1.178  -3.647  -0.585  1.00  0.00    +0.0407  H
ATOM     25 H46  WH0 L   1       2.676  -2.956  -1.236  1.00  0.00    +0.0407  H
ENDBRANCH 6 19
BRANCH 7 26
ATOM     26 C12  WH0 L   1       0.588   0.619   1.261  1.00  0.00    -0.0221  A
ATOM     27 C13  WH0 L   1       0.994   1.390   2.364  1.00  0.00    -0.0565  A
ATOM     28 C14  WH0 L   1       1.685   2.587   2.188  1.00  0.00    -0.0612  A
ATOM     29 C15  WH0 L   1       2.023   3.009   0.905  1.00  0.00    -0.0585  A
ATOM     30 C16  WH0 L   1       1.668   2.241  -0.209  1.00  0.00    -0.0454  A
ATOM     31 C24  WH0 L   1       0.898   1.082  -0.026  1.00  0.00    -0.0533  A
ATOM     32 H48  WH0 L   1       0.789   1.049   3.377  1.00  0.00    +0.0621  H
ATOM     33 H49  WH0 L   1       1.995   3.169   3.052  1.00  0.00    +0.0618  H
ATOM     34 H50  WH0 L   1       2.607   3.919   0.785  1.00  0.00    +0.0620  H
ATOM     35 H58  WH0 L   1       0.604   0.500  -0.896  1.00  0.00    +0.0624  H
BRANCH 30 36
ATOM     36 C17  WH0 L   1       2.181   2.619  -1.580  1.00  0.00    -0.0102  C
ATOM     37 H51  WH0 L   1       2.879   3.460  -1.487  1.00  0.00    +0.0330  H
ATOM     38 H52  WH0 L   1       1.340   2.975  -2.188  1.00  0.00    +0.0330  H
BRANCH 36 39
ATOM     39 C18  WH0 L   1       2.906   1.477  -2.309  1.00  0.00    +0.0221  C
ATOM     40 H53  WH0 L   1       2.197   0.702  -2.619  1.00  0.00    +0.0489  H
ATOM     41 H54  WH0 L   1       3.373   1.865  -3.221  1.00  0.00    +0.0489  H
BRANCH 39 42
ATOM     42 N19  WH0 L   1       3.908   0.817  -1.484  1.00  0.00    -0.3547  N
ATOM     43 C20  WH0 L   1       5.069   0.306  -2.029  1.00  0.00    +0.2356  C
ATOM     44 O21  WH0 L   1       5.417   0.516  -3.189  1.00  0.00    -0.2720 OA
ATOM     45 H55  WH0 L   1       3.591   0.420  -0.595  1.00  0.00    +0.1623 HD
BRANCH 43 46
ATOM     46 C22  WH0 L   1       5.892  -0.537  -1.077  1.00  0.00    +0.1010  C
ATOM     47 CL23 WH0 L   1       5.820  -2.235  -1.609  1.00  0.00    -0.1154 Cl
ATOM     48 H56  WH0 L   1       5.525  -0.482  -0.047  1.00  0.00    +0.0527  H
ATOM     49 H57  WH0 L   1       6.931  -0.195  -1.101  1.00  0.00    +0.0527  H
ENDBRANCH 43 46
ENDBRANCH 39 42
ENDBRANCH 36 39
ENDBRANCH 30 36
ENDBRANCH 7 26
BRANCH 8 50
ATOM     50 N26  WH0 L   1      -2.164   0.040   0.268  1.00  0.00    -0.3442  N
ATOM     51 C27  WH0 L   1      -2.504   0.459  -0.998  1.00  0.00    +0.2524  C
ATOM     52 O28  WH0 L   1      -2.061  -0.063  -2.015  1.00  0.00    -0.2676 OA
ATOM     53 H60  WH0 L   1      -2.714   0.339   1.065  1.00  0.00    +0.1631 HD
BRANCH 51 54
ATOM     54 C29  WH0 L   1      -3.478   1.577  -1.085  1.00  0.00    +0.0391  A
ATOM     55 C30  WH0 L   1      -3.565   2.563  -0.090  1.00  0.00    -0.0467  A
ATOM     56 C31  WH0 L   1      -4.488   3.604  -0.222  1.00  0.00    -0.0257  A
ATOM     57 C32  WH0 L   1      -5.308   3.660  -1.344  1.00  0.00    +0.1234  A
ATOM     58 F33  WH0 L   1      -6.186   4.663  -1.471  1.00  0.00    -0.2055  F
ATOM     59 C34  WH0 L   1      -5.224   2.696  -2.343  1.00  0.00    -0.0257  A
ATOM     60 C35  WH0 L   1      -4.304   1.653  -2.216  1.00  0.00    -0.0467  A
ATOM     61 H61  WH0 L   1      -2.904   2.554   0.772  1.00  0.00    +0.0626  H
ATOM     62 H62  WH0 L   1      -4.563   4.379   0.534  1.00  0.00    +0.0646  H
ATOM     63 H63  WH0 L   1      -5.867   2.765  -3.215  1.00  0.00    +0.0646  H
ATOM     64 H64  WH0 L   1      -4.229   0.902  -3.001  1.00  0.00    +0.0626  H
ENDBRANCH 51 54
ENDBRANCH 8 50
TORSDOF 8
