ROOT
ATOM      1  C8  367 L   1       0.673  -1.483   0.417  1.00  0.00    +0.2252  C
ATOM      2  O9  367 L   1       1.293  -2.187  -0.380  1.00  0.00    -0.2730 OA
ATOM      3 N10  367 L   1      -0.677  -1.239   0.275  1.00  0.00    -0.3401  N
ATOM      4 C11  367 L   1      -1.412  -1.730  -0.875  1.00  0.00    +0.0232  C
ATOM      5 C12  367 L   1      -2.872  -1.537  -0.500  1.00  0.00    -0.0111  C
ATOM      6 C13  367 L   1      -2.865  -0.290   0.391  1.00  0.00    +0.0718  C
ATOM      7 C20  367 L   1      -1.486  -0.315   1.062  1.00  0.00    +0.0436  C
ATOM      8 H29  367 L   1      -1.165  -2.776  -1.080  1.00  0.00    +0.0489  H
ATOM      9 H30  367 L   1      -1.129  -1.128  -1.746  1.00  0.00    +0.0489  H
ATOM     10 H31  367 L   1      -3.207  -2.398   0.093  1.00  0.00    +0.0303  H
ATOM     11 H32  367 L   1      -3.521  -1.457  -1.378  1.00  0.00    +0.0303  H
ATOM     12 H33  367 L   1      -3.652  -0.361   1.152  1.00  0.00    +0.0563  H
ATOM     13 H36  367 L   1      -1.002   0.665   1.115  1.00  0.00    +0.0509  H
ATOM     14 H37  367 L   1      -1.553  -0.727   2.075  1.00  0.00    +0.0509  H
ENDROOT
BRANCH 1 15
ATOM     15  C7  367 L   1       1.338  -0.847   1.626  1.00  0.00    +0.0437  C
ATOM     16 H27  367 L   1       1.243   0.242   1.553  1.00  0.00    +0.0378  H
ATOM     17 H28  367 L   1       0.811  -1.190   2.524  1.00  0.00    +0.0378  H
BRANCH 15 18
ATOM     18  C6  367 L   1       2.806  -1.238   1.744  1.00  0.00    +0.0268  C
ATOM     19 H25  367 L   1       3.191  -0.912   2.715  1.00  0.00    +0.0491  H
ATOM     20 H26  367 L   1       2.936  -2.323   1.679  1.00  0.00    +0.0491  H
BRANCH 18 23
ATOM     21  C3  367 L   1       4.125   0.624   0.801  1.00  0.00    +0.2443  C
ATOM     22  O4  367 L   1       4.061   1.316   1.811  1.00  0.00    -0.2683 OA
ATOM     23  N5  367 L   1       3.619  -0.644   0.701  1.00  0.00    -0.3520  N
ATOM     24 H24  367 L   1       3.656  -1.140  -0.181  1.00  0.00    +0.1626 HD
BRANCH 21 26
ATOM     25  C1  367 L   1       4.554   0.781  -1.671  1.00  0.00    -0.0936  C
ATOM     26  C2  367 L   1       4.815   1.144  -0.407  1.00  0.00    -0.0047  C
ATOM     27 H21  367 L   1       3.793   0.053  -1.935  1.00  0.00    +0.0536  H
ATOM     28 H22  367 L   1       5.095   1.245  -2.490  1.00  0.00    +0.0536  H
ATOM     29 H23  367 L   1       5.543   1.925  -0.197  1.00  0.00    +0.0666  H
ENDBRANCH 21 26
ENDBRANCH 18 23
ENDBRANCH 15 18
ENDBRANCH 1 15
BRANCH 6 30
ATOM     30 N14  367 L   1      -3.129   0.935  -0.348  1.00  0.00    -0.2652  N
ATOM     31 C15  367 L   1      -4.227   1.742  -0.206  1.00  0.00    +0.0442  A
ATOM     32 C16  367 L   1      -4.068   2.758  -1.113  1.00  0.00    +0.0783  A
ATOM     33 CL17 367 L   1      -5.102   4.060  -1.417  1.00  0.00    -0.0804 Cl
ATOM     34 C18  367 L   1      -2.845   2.486  -1.753  1.00  0.00    +0.0677  A
ATOM     35 N19  367 L   1      -2.273   1.368  -1.296  1.00  0.00    -0.1778 NA
ATOM     36 H34  367 L   1      -5.014   1.529   0.504  1.00  0.00    +0.0841  H
ATOM     37 H35  367 L   1      -2.351   3.047  -2.534  1.00  0.00    +0.0863  H
ENDBRANCH 6 30
TORSDOF 5
