ROOT
ATOM      1  C1  MCU L   1       2.361  -2.730   2.998  1.00  0.00    +0.0305  C
ATOM      2  N2  MCU L   1       2.253  -1.911   1.798  1.00  0.00    -0.2702  N
ATOM      3  N3  MCU L   1       3.224  -1.129   1.342  1.00  0.00    -0.1660 NA
ATOM      4  C4  MCU L   1       2.755  -0.488   0.246  1.00  0.00    +0.1549  A
ATOM      5 C12  MCU L   1       1.450  -0.897   0.013  1.00  0.00    +0.0314  A
ATOM      6 C13  MCU L   1       1.162  -1.758   1.024  1.00  0.00    +0.0477  A
ATOM      7 C14  MCU L   1      -0.174  -2.404   1.172  1.00  0.00    +0.0189  C
ATOM      8 C15  MCU L   1      -1.234  -1.600   0.354  1.00  0.00    +0.0785  C
ATOM      9 C16  MCU L   1      -1.695  -0.343   1.138  1.00  0.00    -0.0056  C
ATOM     10 C17  MCU L   1      -2.702   0.493   0.334  1.00  0.00    +0.0238  C
ATOM     11 N18  MCU L   1      -3.439  -0.311  -0.650  1.00  0.00    -0.3420  N
ATOM     12 C19  MCU L   1      -4.125   0.386  -1.707  1.00  0.00    +0.2238  C
ATOM     13 O20  MCU L   1      -3.519   1.282  -2.356  1.00  0.00    -0.2730 OA
ATOM     14 C25  MCU L   1      -3.699  -1.742  -0.423  1.00  0.00    +0.0238  C
ATOM     15 C26  MCU L   1      -2.483  -2.491   0.170  1.00  0.00    -0.0056  C
ATOM     16 O27  MCU L   1      -0.735  -1.276  -0.955  1.00  0.00    -0.3682 OA
ATOM     17 C28  MCU L   1       0.410  -0.424  -0.953  1.00  0.00    +0.0773  C
ATOM     18 H29  MCU L   1       1.765  -2.272   3.818  1.00  0.00    +0.0473  H
ATOM     19 H30  MCU L   1       1.974  -3.753   2.789  1.00  0.00    +0.0473  H
ATOM     20 H31  MCU L   1       3.425  -2.805   3.316  1.00  0.00    +0.0473  H
ATOM     21 H40  MCU L   1      -0.458  -2.456   2.245  1.00  0.00    +0.0356  H
ATOM     22 H41  MCU L   1      -0.091  -3.441   0.780  1.00  0.00    +0.0356  H
ATOM     23 H42  MCU L   1      -2.179  -0.662   2.089  1.00  0.00    +0.0310  H
ATOM     24 H43  MCU L   1      -0.831   0.292   1.429  1.00  0.00    +0.0310  H
ATOM     25 H44  MCU L   1      -2.144   1.301  -0.185  1.00  0.00    +0.0489  H
ATOM     26 H45  MCU L   1      -3.425   0.978   1.024  1.00  0.00    +0.0489  H
ATOM     27 H53  MCU L   1      -4.573  -1.846   0.257  1.00  0.00    +0.0489  H
ATOM     28 H54  MCU L   1      -3.960  -2.232  -1.387  1.00  0.00    +0.0489  H
ATOM     29 H55  MCU L   1      -2.782  -2.916   1.156  1.00  0.00    +0.0310  H
ATOM     30 H56  MCU L   1      -2.225  -3.358  -0.486  1.00  0.00    +0.0310  H
ATOM     31 H57  MCU L   1       0.120   0.622  -0.722  1.00  0.00    +0.0611  H
ATOM     32 H58  MCU L   1       0.846  -0.431  -1.973  1.00  0.00    +0.0611  H
ENDROOT
BRANCH 4 33
ATOM     33  C5  MCU L   1       3.524   0.513  -0.515  1.00  0.00    +0.2725  C
ATOM     34  O6  MCU L   1       3.022   1.034  -1.549  1.00  0.00    -0.2659 OA
ATOM     35  N7  MCU L   1       4.834   0.907  -0.082  1.00  0.00    -0.3504  N
ATOM     36 H32  MCU L   1       5.238   0.466   0.773  1.00  0.00    +0.1627 HD
BRANCH 35 37
ATOM     37  C8  MCU L   1       5.595   1.929  -0.796  1.00  0.00    +0.0213  C
ATOM     38 H33  MCU L   1       5.783   1.581  -1.835  1.00  0.00    +0.0489  H
ATOM     39 H34  MCU L   1       4.994   2.861  -0.843  1.00  0.00    +0.0489  H
BRANCH 37 40
ATOM     40  C9  MCU L   1       6.904   2.243  -0.058  1.00  0.00    -0.0235  C
ATOM     41 C10  MCU L   1       7.988   2.881  -0.915  1.00  0.00    -0.0483  C
ATOM     42 C11  MCU L   1       8.115   1.427  -0.488  1.00  0.00    -0.0483  C
ATOM     43 H35  MCU L   1       6.884   2.575   1.003  1.00  0.00    +0.0318  H
ATOM     44 H36  MCU L   1       7.749   3.016  -1.992  1.00  0.00    +0.0269  H
ATOM     45 H37  MCU L   1       8.661   3.573  -0.365  1.00  0.00    +0.0269  H
ATOM     46 H38  MCU L   1       7.949   0.698  -1.307  1.00  0.00    +0.0269  H
ATOM     47 H39  MCU L   1       8.861   1.255   0.316  1.00  0.00    +0.0269  H
ENDBRANCH 37 40
ENDBRANCH 35 37
ENDBRANCH 4 33
BRANCH 12 48
ATOM     48 C21  MCU L   1      -5.578   0.129  -2.010  1.00  0.00    +0.0291  C
ATOM     49 H46  MCU L   1      -5.752  -0.962  -2.105  1.00  0.00    +0.0363  H
ATOM     50 H47  MCU L   1      -5.836   0.556  -3.000  1.00  0.00    +0.0363  H
BRANCH 48 51
ATOM     51 C22  MCU L   1      -6.510   0.664  -0.911  1.00  0.00    -0.0326  C
ATOM     52 C23  MCU L   1      -6.186   2.005  -0.256  1.00  0.00    -0.0495  C
ATOM     53 C24  MCU L   1      -7.279   1.925  -1.302  1.00  0.00    -0.0495  C
ATOM     54 H48  MCU L   1      -7.123  -0.050  -0.315  1.00  0.00    +0.0305  H
ATOM     55 H49  MCU L   1      -6.563   2.112   0.784  1.00  0.00    +0.0268  H
ATOM     56 H50  MCU L   1      -5.270   2.531  -0.604  1.00  0.00    +0.0268  H
ATOM     57 H51  MCU L   1      -6.987   2.432  -2.243  1.00  0.00    +0.0268  H
ATOM     58 H52  MCU L   1      -8.291   2.025  -0.866  1.00  0.00    +0.0268  H
ENDBRANCH 48 51
ENDBRANCH 12 48
TORSDOF 5
