ROOT
ATOM      1 C15  CHE L   1       0.612  -0.644   0.425  1.00  0.00    +0.0673  A
ATOM      2 C16  CHE L   1      -0.535  -0.304   1.134  1.00  0.00    +0.0294  A
ATOM      3 C17  CHE L   1      -0.717   0.778   2.149  1.00  0.00    -0.0235  C
ATOM      4 N18  CHE L   1      -1.549  -1.157   0.742  1.00  0.00    -0.3403  N
ATOM      5 C32  CHE L   1      -1.050  -2.099  -0.147  1.00  0.00    +0.0505  A
ATOM      6 C33  CHE L   1      -1.665  -3.210  -0.752  1.00  0.00    -0.0376  A
ATOM      7 C34  CHE L   1      -0.941  -3.973  -1.662  1.00  0.00    -0.0595  A
ATOM      8 C35  CHE L   1       0.361  -3.627  -1.986  1.00  0.00    -0.0581  A
ATOM      9 C36  CHE L   1       0.995  -2.512  -1.402  1.00  0.00    -0.0406  A
ATOM     10 C37  CHE L   1       2.400  -2.208  -1.850  1.00  0.00    -0.0391  C
ATOM     11 C38  CHE L   1       0.285  -1.760  -0.421  1.00  0.00    +0.0154  A
ATOM     12 H50  CHE L   1      -1.198   0.389   3.053  1.00  0.00    +0.0292  H
ATOM     13 H51  CHE L   1       0.238   1.208   2.465  1.00  0.00    +0.0292  H
ATOM     14 H52  CHE L   1      -1.331   1.586   1.738  1.00  0.00    +0.0292  H
ATOM     15 H68  CHE L   1      -2.689  -3.490  -0.531  1.00  0.00    +0.0638  H
ATOM     16 H69  CHE L   1      -1.406  -4.834  -2.135  1.00  0.00    +0.0618  H
ATOM     17 H70  CHE L   1       0.895  -4.229  -2.720  1.00  0.00    +0.0620  H
ATOM     18 H71  CHE L   1       2.561  -2.528  -2.885  1.00  0.00    +0.0278  H
ATOM     19 H72  CHE L   1       3.108  -2.740  -1.210  1.00  0.00    +0.0278  H
ATOM     20 H73  CHE L   1       2.601  -1.134  -1.821  1.00  0.00    +0.0278  H
ENDROOT
BRANCH 1 22
ATOM     21 N12  CHE L   1       2.937  -0.772   0.927  1.00  0.00    -0.3477  N
ATOM     22 C13  CHE L   1       1.885   0.056   0.594  1.00  0.00    +0.2546  C
ATOM     23 O14  CHE L   1       1.971   1.277   0.535  1.00  0.00    -0.2675 OA
ATOM     24 H49  CHE L   1       2.690  -1.735   1.109  1.00  0.00    +0.1630 HD
BRANCH 21 25
ATOM     25 C11  CHE L   1       4.124  -0.260   1.589  1.00  0.00    +0.0499  C
ATOM     26 H47  CHE L   1       4.707  -1.126   1.923  1.00  0.00    +0.0538  H
ATOM     27 H48  CHE L   1       3.794   0.253   2.499  1.00  0.00    +0.0538  H
BRANCH 25 35
ATOM     28  C3  CHE L   1       5.715   0.224  -0.354  1.00  0.00    +0.0192  A
ATOM     29  C4  CHE L   1       6.409   1.201  -1.177  1.00  0.00    -0.0288  A
ATOM     30  C5  CHE L   1       6.367   2.507  -0.877  1.00  0.00    +0.0170  A
ATOM     31  C6  CHE L   1       7.042   3.572  -1.683  1.00  0.00    -0.0243  C
ATOM     32  N7  CHE L   1       5.675   2.906   0.236  1.00  0.00    -0.3262  N
ATOM     33  C8  CHE L   1       4.999   2.061   1.080  1.00  0.00    +0.2548  A
ATOM     34  O9  CHE L   1       4.514   2.483   2.125  1.00  0.00    -0.2675 OA
ATOM     35 C10  CHE L   1       4.954   0.611   0.692  1.00  0.00    +0.0493  A
ATOM     36 H42  CHE L   1       6.943   0.856  -2.057  1.00  0.00    +0.0646  H
ATOM     37 H43  CHE L   1       7.574   3.156  -2.545  1.00  0.00    +0.0292  H
ATOM     38 H44  CHE L   1       6.307   4.292  -2.058  1.00  0.00    +0.0292  H
ATOM     39 H45  CHE L   1       7.772   4.111  -1.068  1.00  0.00    +0.0292  H
ATOM     40 H46  CHE L   1       5.654   3.882   0.505  1.00  0.00    +0.1686 HD
BRANCH 28 42
ATOM     41  C1  CHE L   1       7.546  -1.769  -0.128  1.00  0.00    -0.0134  C
ATOM     42  S2  CHE L   1       5.904  -1.447  -0.815  1.00  0.00    -0.1280 SA
ATOM     43 H39  CHE L   1       7.815  -2.813  -0.310  1.00  0.00    +0.0344  H
ATOM     44 H40  CHE L   1       7.552  -1.590   0.951  1.00  0.00    +0.0344  H
ATOM     45 H41  CHE L   1       8.297  -1.131  -0.604  1.00  0.00    +0.0344  H
ENDBRANCH 28 42
ENDBRANCH 25 35
ENDBRANCH 21 25
ENDBRANCH 1 22
BRANCH 4 46
ATOM     46 C19  CHE L   1      -2.946  -1.058   1.205  1.00  0.00    +0.0349  C
ATOM     47 C20  CHE L   1      -3.290  -2.241   2.121  1.00  0.00    -0.0440  C
ATOM     48 H53  CHE L   1      -2.994  -0.167   1.840  1.00  0.00    +0.0528  H
ATOM     49 H54  CHE L   1      -4.203  -2.043   2.693  1.00  0.00    +0.0250  H
ATOM     50 H55  CHE L   1      -2.488  -2.423   2.846  1.00  0.00    +0.0250  H
ATOM     51 H56  CHE L   1      -3.448  -3.165   1.560  1.00  0.00    +0.0250  H
BRANCH 46 52
ATOM     52 C21  CHE L   1      -3.977  -0.817   0.060  1.00  0.00    -0.0181  C
ATOM     53 C22  CHE L   1      -5.417  -0.736   0.613  1.00  0.00    -0.0354  C
ATOM     54 C23  CHE L   1      -6.344   0.018  -0.339  1.00  0.00    -0.0005  C
ATOM     55 N24  CHE L   1      -5.930   1.407  -0.569  1.00  0.00    -0.2944 NA
ATOM     56 C30  CHE L   1      -4.494   1.643  -0.367  1.00  0.00    -0.0005  C
ATOM     57 C31  CHE L   1      -3.655   0.436  -0.787  1.00  0.00    -0.0354  C
ATOM     58 H57  CHE L   1      -3.947  -1.670  -0.627  1.00  0.00    +0.0321  H
ATOM     59 H58  CHE L   1      -5.805  -1.750   0.771  1.00  0.00    +0.0281  H
ATOM     60 H59  CHE L   1      -5.430  -0.238   1.590  1.00  0.00    +0.0281  H
ATOM     61 H60  CHE L   1      -6.349  -0.497  -1.308  1.00  0.00    +0.0427  H
ATOM     62 H61  CHE L   1      -7.376  -0.041   0.029  1.00  0.00    +0.0427  H
ATOM     63 H64  CHE L   1      -4.275   1.873   0.684  1.00  0.00    +0.0427  H
ATOM     64 H65  CHE L   1      -4.187   2.509  -0.964  1.00  0.00    +0.0427  H
ATOM     65 H66  CHE L   1      -2.594   0.700  -0.749  1.00  0.00    +0.0281  H
ATOM     66 H67  CHE L   1      -3.864   0.211  -1.842  1.00  0.00    +0.0281  H
BRANCH 55 67
ATOM     67 C25  CHE L   1      -6.770   2.375   0.184  1.00  0.00    +0.0949  C
ATOM     68 H62  CHE L   1      -7.813   2.207  -0.110  1.00  0.00    +0.0515  H
ATOM     69 H63  CHE L   1      -6.704   2.154   1.257  1.00  0.00    +0.0515  H
BRANCH 67 70
ATOM     70 C26  CHE L   1      -6.509   3.885  -0.001  1.00  0.00    +0.4024  C
ATOM     71 F27  CHE L   1      -7.464   4.603   0.640  1.00  0.00    -0.1693  F
ATOM     72 F28  CHE L   1      -6.531   4.254  -1.299  1.00  0.00    -0.1693  F
ATOM     73 F29  CHE L   1      -5.318   4.254   0.523  1.00  0.00    -0.1693  F
ENDBRANCH 67 70
ENDBRANCH 55 67
ENDBRANCH 46 52
ENDBRANCH 4 46
TORSDOF 8
