ROOT
ATOM      1  C1  275 L   1      -2.897   0.968   1.467  1.00  0.00    -0.0065  C
ATOM      2  C2  275 L   1      -3.371  -0.027   0.444  1.00  0.00    +0.1029  C
ATOM      3  C3  275 L   1      -2.669  -1.095   0.010  1.00  0.00    +0.0537  C
ATOM      4 C18  275 L   1      -3.261  -2.139  -0.891  1.00  0.00    -0.0163  C
ATOM      5 C19  275 L   1      -4.771  -1.973  -1.007  1.00  0.00    -0.0144  C
ATOM      6 C20  275 L   1      -5.106  -0.497  -1.126  1.00  0.00    +0.0894  C
ATOM      7 O21  275 L   1      -4.663   0.241   0.018  1.00  0.00    -0.4960 OA
ATOM      8 H22  275 L   1      -2.043   0.613   2.050  1.00  0.00    +0.0308  H
ATOM      9 H23  275 L   1      -3.699   1.183   2.182  1.00  0.00    +0.0308  H
ATOM     10 H24  275 L   1      -2.617   1.905   0.975  1.00  0.00    +0.0308  H
ATOM     11 H37  275 L   1      -3.042  -3.148  -0.525  1.00  0.00    +0.0317  H
ATOM     12 H38  275 L   1      -2.803  -2.047  -1.884  1.00  0.00    +0.0317  H
ATOM     13 H39  275 L   1      -5.248  -2.383  -0.107  1.00  0.00    +0.0301  H
ATOM     14 H40  275 L   1      -5.151  -2.532  -1.869  1.00  0.00    +0.0301  H
ATOM     15 H41  275 L   1      -4.660  -0.056  -2.026  1.00  0.00    +0.0696  H
ATOM     16 H42  275 L   1      -6.191  -0.365  -1.199  1.00  0.00    +0.0696  H
ENDROOT
BRANCH 3 17
ATOM     17  C4  275 L   1      -1.273  -1.363   0.446  1.00  0.00    +0.2515  C
ATOM     18  O5  275 L   1      -0.955  -2.427   0.956  1.00  0.00    -0.2678 OA
ATOM     19  N6  275 L   1      -0.396  -0.357   0.123  1.00  0.00    -0.3465  N
ATOM     20 H25  275 L   1      -0.725   0.399  -0.465  1.00  0.00    +0.1630 HD
BRANCH 19 21
ATOM     21  C7  275 L   1       1.050  -0.488   0.355  1.00  0.00    +0.0652  C
ATOM     22  C8  275 L   1       1.690  -1.326  -0.736  1.00  0.00    -0.0062  C
ATOM     23  C9  275 L   1       1.905  -0.314  -1.842  1.00  0.00    +0.0506  C
ATOM     24 O10  275 L   1       2.040   0.982  -1.236  1.00  0.00    -0.3668 OA
ATOM     25 C11  275 L   1       1.773   0.855   0.181  1.00  0.00    +0.1362  C
ATOM     26 H26  275 L   1       1.181  -0.936   1.346  1.00  0.00    +0.0553  H
ATOM     27 H27  275 L   1       2.661  -1.703  -0.394  1.00  0.00    +0.0308  H
ATOM     28 H28  275 L   1       1.098  -2.184  -1.068  1.00  0.00    +0.0308  H
ATOM     29 H29  275 L   1       2.795  -0.533  -2.438  1.00  0.00    +0.0561  H
ATOM     30 H30  275 L   1       1.042  -0.275  -2.514  1.00  0.00    +0.0561  H
ATOM     31 H31  275 L   1       1.144   1.698   0.491  1.00  0.00    +0.0698  H
BRANCH 25 32
ATOM     32 C12  275 L   1       3.090   0.941   0.900  1.00  0.00    +0.1404  A
ATOM     33 N13  275 L   1       3.542   0.091   1.806  1.00  0.00    -0.2379 NA
ATOM     34 C14  275 L   1       4.762   0.567   2.203  1.00  0.00    +0.0458  A
ATOM     35 C15  275 L   1       5.067   1.729   1.539  1.00  0.00    +0.0240  A
ATOM     36 N16  275 L   1       3.999   1.961   0.717  1.00  0.00    -0.3352  N
ATOM     37 C17  275 L   1       3.875   3.081  -0.186  1.00  0.00    +0.0130  C
ATOM     38 H32  275 L   1       5.355   0.049   2.945  1.00  0.00    +0.0845  H
ATOM     39 H33  275 L   1       5.928   2.382   1.580  1.00  0.00    +0.0825  H
ATOM     40 H34  275 L   1       2.863   3.487  -0.120  1.00  0.00    +0.0456  H
ATOM     41 H35  275 L   1       4.091   2.731  -1.200  1.00  0.00    +0.0456  H
ATOM     42 H36  275 L   1       4.591   3.855   0.100  1.00  0.00    +0.0456  H
ENDBRANCH 25 32
ENDBRANCH 19 21
ENDBRANCH 3 17
TORSDOF 3
