ROOT
ATOM      1  C1  130 L   1      -2.099   2.724   0.779  1.00  0.00    -0.0203  C
ATOM      2  C2  130 L   1      -3.131   1.665   0.647  1.00  0.00    +0.0644  A
ATOM      3  N3  130 L   1      -4.413   1.995   0.457  1.00  0.00    -0.1786 NA
ATOM      4  N4  130 L   1      -5.042   0.817   0.364  1.00  0.00    -0.2813  N
ATOM      5  C5  130 L   1      -4.216  -0.263   0.500  1.00  0.00    +0.0376  A
ATOM      6  C6  130 L   1      -4.717  -1.655   0.434  1.00  0.00    -0.0226  C
ATOM      7  C7  130 L   1      -2.944   0.253   0.684  1.00  0.00    +0.0096  A
ATOM      8 H22  130 L   1      -1.398   2.486   1.585  1.00  0.00    +0.0293  H
ATOM      9 H23  130 L   1      -2.551   3.695   1.006  1.00  0.00    +0.0293  H
ATOM     10 H24  130 L   1      -1.534   2.821  -0.154  1.00  0.00    +0.0293  H
ATOM     11 H25  130 L   1      -6.045   0.823   0.210  1.00  0.00    +0.1885 HD
ATOM     12 H26  130 L   1      -5.807  -1.689   0.338  1.00  0.00    +0.0292  H
ATOM     13 H27  130 L   1      -4.286  -2.174  -0.429  1.00  0.00    +0.0292  H
ATOM     14 H28  130 L   1      -4.441  -2.204   1.339  1.00  0.00    +0.0292  H
ENDROOT
BRANCH 7 15
ATOM     15  C8  130 L   1      -1.664  -0.494   0.896  1.00  0.00    +0.0278  C
ATOM     16 H29  130 L   1      -1.852  -1.567   1.014  1.00  0.00    +0.0477  H
ATOM     17 H30  130 L   1      -1.256  -0.144   1.854  1.00  0.00    +0.0477  H
BRANCH 15 18
ATOM     18  N9  130 L   1      -0.713  -0.212  -0.194  1.00  0.00    -0.2939 NA
ATOM     19 C10  130 L   1      -1.121  -0.811  -1.477  1.00  0.00    -0.0005  C
ATOM     20 C11  130 L   1      -0.929  -2.327  -1.559  1.00  0.00    -0.0401  C
ATOM     21 C12  130 L   1       0.492  -2.732  -1.192  1.00  0.00    -0.0504  C
ATOM     22 C13  130 L   1       0.899  -2.117   0.143  1.00  0.00    -0.0361  C
ATOM     23 C14  130 L   1       0.673  -0.592   0.186  1.00  0.00    +0.0235  C
ATOM     24 H31  130 L   1      -2.163  -0.566  -1.715  1.00  0.00    +0.0427  H
ATOM     25 H32  130 L   1      -0.546  -0.339  -2.283  1.00  0.00    +0.0427  H
ATOM     26 H33  130 L   1      -1.156  -2.670  -2.575  1.00  0.00    +0.0278  H
ATOM     27 H34  130 L   1      -1.639  -2.833  -0.894  1.00  0.00    +0.0278  H
ATOM     28 H35  130 L   1       0.565  -3.824  -1.137  1.00  0.00    +0.0266  H
ATOM     29 H36  130 L   1       1.184  -2.409  -1.979  1.00  0.00    +0.0266  H
ATOM     30 H37  130 L   1       1.945  -2.363   0.356  1.00  0.00    +0.0281  H
ATOM     31 H38  130 L   1       0.313  -2.591   0.942  1.00  0.00    +0.0281  H
ATOM     32 H39  130 L   1       0.832  -0.265   1.221  1.00  0.00    +0.0475  H
BRANCH 23 33
ATOM     33 C15  130 L   1       1.711   0.199  -0.678  1.00  0.00    +0.0147  C
ATOM     34 H40  130 L   1       1.578  -0.094  -1.726  1.00  0.00    +0.0442  H
ATOM     35 H41  130 L   1       1.469   1.268  -0.631  1.00  0.00    +0.0442  H
BRANCH 33 36
ATOM     36 N16  130 L   1       3.127  -0.039  -0.323  1.00  0.00    -0.2965 NA
ATOM     37 C17  130 L   1       4.037   0.501  -1.360  1.00  0.00    +0.0225  C
ATOM     38 C18  130 L   1       4.156   2.034  -1.356  1.00  0.00    +0.0604  C
ATOM     39 O19  130 L   1       4.564   2.521  -0.071  1.00  0.00    -0.3772 OA
ATOM     40 C20  130 L   1       3.649   2.095   0.946  1.00  0.00    +0.0604  C
ATOM     41 C21  130 L   1       3.514   0.563   0.974  1.00  0.00    +0.0225  C
ATOM     42 H42  130 L   1       3.743   0.147  -2.355  1.00  0.00    +0.0449  H
ATOM     43 H43  130 L   1       5.032   0.077  -1.172  1.00  0.00    +0.0449  H
ATOM     44 H44  130 L   1       3.213   2.515  -1.641  1.00  0.00    +0.0572  H
ATOM     45 H45  130 L   1       4.915   2.346  -2.080  1.00  0.00    +0.0572  H
ATOM     46 H46  130 L   1       4.043   2.445   1.906  1.00  0.00    +0.0572  H
ATOM     47 H47  130 L   1       2.683   2.587   0.791  1.00  0.00    +0.0572  H
ATOM     48 H48  130 L   1       4.491   0.140   1.243  1.00  0.00    +0.0449  H
ATOM     49 H49  130 L   1       2.834   0.260   1.776  1.00  0.00    +0.0449  H
ENDBRANCH 33 36
ENDBRANCH 23 33
ENDBRANCH 15 18
ENDBRANCH 7 15
TORSDOF 4
