ROOT
ATOM      1  C4  184 L   1       0.186  -0.156  -1.363  1.00  0.00    +0.0681  C
ATOM      2  C5  184 L   1       0.958   0.694  -0.658  1.00  0.00    -0.0351  C
ATOM      3  C6  184 L   1       2.145   0.408   0.174  1.00  0.00    +0.0176  A
ATOM      4  C7  184 L   1       2.653   1.488   0.924  1.00  0.00    -0.0511  A
ATOM      5  C8  184 L   1       3.812   1.364   1.697  1.00  0.00    -0.0610  A
ATOM      6  C9  184 L   1       4.499   0.157   1.725  1.00  0.00    -0.0583  A
ATOM      7 C10  184 L   1       4.018  -0.923   0.991  1.00  0.00    -0.0194  A
ATOM      8 C11  184 L   1       2.841  -0.809   0.238  1.00  0.00    +0.1276  A
ATOM      9 O12  184 L   1       2.500  -1.953  -0.432  1.00  0.00    -0.4910 OA
ATOM     10 C13  184 L   1       1.114  -2.268  -0.332  1.00  0.00    +0.0943  C
ATOM     11 C14  184 L   1       0.351  -1.642  -1.484  1.00  0.00    +0.0190  C
ATOM     12 H21  184 L   1       0.722   1.757  -0.712  1.00  0.00    +0.0634  H
ATOM     13 H22  184 L   1       2.160   2.458   0.905  1.00  0.00    +0.0625  H
ATOM     14 H23  184 L   1       4.185   2.216   2.260  1.00  0.00    +0.0618  H
ATOM     15 H24  184 L   1       5.409   0.056   2.311  1.00  0.00    +0.0619  H
ATOM     16 H25  184 L   1       4.556  -1.867   1.006  1.00  0.00    +0.0654  H
ATOM     17 H26  184 L   1       0.696  -2.008   0.651  1.00  0.00    +0.0700  H
ATOM     18 H27  184 L   1       1.042  -3.359  -0.416  1.00  0.00    +0.0700  H
ATOM     19 H28  184 L   1       0.861  -1.855  -2.432  1.00  0.00    +0.0353  H
ATOM     20 H29  184 L   1      -0.629  -2.127  -1.528  1.00  0.00    +0.0353  H
ENDROOT
BRANCH 1 22
ATOM     21  O1  184 L   1      -1.564  -0.401  -3.292  1.00  0.00    -0.2004 OA
ATOM     22  S2  184 L   1      -1.161   0.544  -2.268  1.00  0.00    +0.2576  S
ATOM     23  O3  184 L   1      -0.822   1.905  -2.640  1.00  0.00    -0.2004 OA
BRANCH 22 24
ATOM     24 N15  184 L   1      -2.464   0.666  -1.201  1.00  0.00    -0.2947 NA
ATOM     25 C16  184 L   1      -3.134  -0.568  -0.738  1.00  0.00    +0.0319  C
ATOM     26 C17  184 L   1      -3.837  -0.156   0.550  1.00  0.00    -0.0068  C
ATOM     27 C18  184 L   1      -2.859   0.840   1.145  1.00  0.00    +0.0750  C
ATOM     28 O19  184 L   1      -1.769   0.121   1.726  1.00  0.00    -0.3900 OA
ATOM     29 C20  184 L   1      -2.408   1.638  -0.083  1.00  0.00    +0.0554  C
ATOM     30 H30  184 L   1      -2.410  -1.357  -0.522  1.00  0.00    +0.0496  H
ATOM     31 H31  184 L   1      -3.848  -0.928  -1.483  1.00  0.00    +0.0496  H
ATOM     32 H32  184 L   1      -4.790   0.335   0.320  1.00  0.00    +0.0308  H
ATOM     33 H33  184 L   1      -4.026  -1.020   1.195  1.00  0.00    +0.0308  H
ATOM     34 H34  184 L   1      -3.311   1.469   1.918  1.00  0.00    +0.0612  H
ATOM     35 H35  184 L   1      -1.142   0.771   2.090  1.00  0.00    +0.2099 HD
ATOM     36 H36  184 L   1      -1.416   2.069   0.062  1.00  0.00    +0.0521  H
ATOM     37 H37  184 L   1      -3.117   2.443  -0.304  1.00  0.00    +0.0521  H
ENDBRANCH 22 24
ENDBRANCH 1 22
TORSDOF 2
