ROOT
ATOM      1 C31  WH0 L   1      -0.062   3.057   0.284  1.00  0.00    -0.0133  A
ATOM      2 C32  WH0 L   1      -0.358   3.778  -0.898  1.00  0.00    -0.0519  A
ATOM      3 C33  WH0 L   1      -0.827   5.099  -0.832  1.00  0.00    -0.0374  A
ATOM      4 C34  WH0 L   1      -0.994   5.679   0.422  1.00  0.00    +0.0454  A
ATOM      5 C35  WH0 L   1      -0.710   4.988   1.581  1.00  0.00    -0.0145  A
ATOM      6 C36  WH0 L   1      -0.245   3.674   1.540  1.00  0.00    -0.0483  A
ATOM      7 C37  WH0 L   1      -0.982   5.834   2.783  1.00  0.00    +0.0535  C
ATOM      8 C38  WH0 L   1      -1.451   7.090   2.108  1.00  0.00    +0.2296  C
ATOM      9 O39  WH0 L   1      -1.800   8.134   2.721  1.00  0.00    -0.2725 OA
ATOM     10 N40  WH0 L   1      -1.458   6.988   0.688  1.00  0.00    -0.3256  N
ATOM     11 H65  WH0 L   1      -0.215   3.321  -1.869  1.00  0.00    +0.0624  H
ATOM     12 H66  WH0 L   1      -1.053   5.652  -1.734  1.00  0.00    +0.0638  H
ATOM     13 H67  WH0 L   1      -0.060   3.138   2.462  1.00  0.00    +0.0627  H
ATOM     14 H68  WH0 L   1      -0.052   6.015   3.363  1.00  0.00    +0.0410  H
ATOM     15 H69  WH0 L   1      -1.787   5.393   3.408  1.00  0.00    +0.0410  H
ATOM     16 H70  WH0 L   1      -1.732   7.722  -0.003  1.00  0.00    +0.1686 HD
ENDROOT
BRANCH 1 25
ATOM     17 C15  WH0 L   1      -0.119   0.628  -0.596  1.00  0.00    +0.1018  A
ATOM     18 N16  WH0 L   1       0.590  -0.508  -0.409  1.00  0.00    -0.1627 NA
ATOM     19 N17  WH0 L   1       1.519  -0.236   0.491  1.00  0.00    -0.1987  N
ATOM     20 C18  WH0 L   1       2.447  -1.092   0.999  1.00  0.00    +0.2282  A
ATOM     21 N26  WH0 L   1       3.300  -0.626   1.955  1.00  0.00    -0.2207 NA
ATOM     22 C27  WH0 L   1       3.253   0.673   2.376  1.00  0.00    +0.0334  A
ATOM     23 C28  WH0 L   1       2.311   1.560   1.837  1.00  0.00    -0.0173  A
ATOM     24 C29  WH0 L   1       1.428   1.043   0.891  1.00  0.00    +0.0803  A
ATOM     25 C30  WH0 L   1       0.393   1.652   0.205  1.00  0.00    +0.0353  A
ATOM     26 H63  WH0 L   1       3.951   1.019   3.126  1.00  0.00    +0.0831  H
ATOM     27 H64  WH0 L   1       2.279   2.594   2.151  1.00  0.00    +0.0654  H
BRANCH 17 34
ATOM     28  C8  WH0 L   1      -2.571   1.022  -1.125  1.00  0.00    -0.0338  A
ATOM     29  C9  WH0 L   1      -3.583   1.125  -2.096  1.00  0.00    -0.0226  A
ATOM     30 C10  WH0 L   1      -3.299   0.923  -3.447  1.00  0.00    +0.1237  A
ATOM     31 F11  WH0 L   1      -4.287   1.022  -4.370  1.00  0.00    -0.2055  F
ATOM     32 C12  WH0 L   1      -2.003   0.601  -3.848  1.00  0.00    -0.0258  A
ATOM     33 C13  WH0 L   1      -0.984   0.495  -2.900  1.00  0.00    -0.0495  A
ATOM     34 C14  WH0 L   1      -1.247   0.721  -1.541  1.00  0.00    +0.0061  A
ATOM     35 H49  WH0 L   1      -4.602   1.345  -1.799  1.00  0.00    +0.0649  H
ATOM     36 H50  WH0 L   1      -1.784   0.432  -4.894  1.00  0.00    +0.0646  H
ATOM     37 H51  WH0 L   1       0.019   0.251  -3.229  1.00  0.00    +0.0625  H
BRANCH 28 38
ATOM     38  C7  WH0 L   1      -2.968   1.123   0.334  1.00  0.00    -0.0095  C
ATOM     39 H47  WH0 L   1      -3.731   1.924   0.451  1.00  0.00    +0.0330  H
ATOM     40 H48  WH0 L   1      -2.121   1.414   0.982  1.00  0.00    +0.0330  H
BRANCH 38 41
ATOM     41  C6  WH0 L   1      -3.553  -0.194   0.851  1.00  0.00    +0.0224  C
ATOM     42 H45  WH0 L   1      -4.436  -0.489   0.244  1.00  0.00    +0.0489  H
ATOM     43 H46  WH0 L   1      -3.910  -0.042   1.892  1.00  0.00    +0.0489  H
BRANCH 41 46
ATOM     44  C3  WH0 L   1      -2.468  -2.267  -0.153  1.00  0.00    +0.2443  C
ATOM     45  O4  WH0 L   1      -3.319  -2.296  -1.085  1.00  0.00    -0.2683 OA
ATOM     46  N5  WH0 L   1      -2.538  -1.248   0.854  1.00  0.00    -0.3522  N
ATOM     47 H44  WH0 L   1      -1.784  -1.197   1.576  1.00  0.00    +0.1626 HD
BRANCH 44 49
ATOM     48  C1  WH0 L   1      -1.285  -4.253  -0.993  1.00  0.00    -0.0936  C
ATOM     49  C2  WH0 L   1      -1.397  -3.279  -0.091  1.00  0.00    -0.0047  C
ATOM     50 H41  WH0 L   1      -1.981  -4.345  -1.818  1.00  0.00    +0.0536  H
ATOM     51 H42  WH0 L   1      -0.484  -4.976  -0.911  1.00  0.00    +0.0536  H
ATOM     52 H43  WH0 L   1      -0.675  -3.228   0.715  1.00  0.00    +0.0666  H
ENDBRANCH 44 49
ENDBRANCH 41 46
ENDBRANCH 38 41
ENDBRANCH 28 38
ENDBRANCH 17 34
BRANCH 20 53
ATOM     53 N19  WH0 L   1       2.533  -2.459   0.560  1.00  0.00    -0.3402  N
ATOM     54 C20  WH0 L   1       2.443  -2.797  -0.867  1.00  0.00    +0.0228  C
ATOM     55 C21  WH0 L   1       3.503  -3.841  -1.238  1.00  0.00    -0.0199  C
ATOM     56 C22  WH0 L   1       3.550  -5.054  -0.263  1.00  0.00    +0.0080  C
ATOM     57 N23  WH0 L   1       3.263  -6.311  -0.962  1.00  0.00    -0.3271 NA
ATOM     58 C24  WH0 L   1       2.599  -4.906   0.939  1.00  0.00    -0.0199  C
ATOM     59 C25  WH0 L   1       2.721  -3.514   1.565  1.00  0.00    +0.0228  C
ATOM     60 H52  WH0 L   1       1.432  -3.196  -1.088  1.00  0.00    +0.0489  H
ATOM     61 H53  WH0 L   1       2.605  -1.894  -1.495  1.00  0.00    +0.0489  H
ATOM     62 H54  WH0 L   1       3.322  -4.171  -2.284  1.00  0.00    +0.0297  H
ATOM     63 H55  WH0 L   1       4.497  -3.341  -1.231  1.00  0.00    +0.0297  H
ATOM     64 H56  WH0 L   1       4.583  -5.122   0.148  1.00  0.00    +0.0459  H
ATOM     65 H57  WH0 L   1       3.981  -6.451  -1.709  1.00  0.00    +0.1185 HD
ATOM     66 H58  WH0 L   1       2.332  -6.236  -1.434  1.00  0.00    +0.1185 HD
ATOM     67 H59  WH0 L   1       1.547  -5.067   0.616  1.00  0.00    +0.0297  H
ATOM     68 H60  WH0 L   1       2.840  -5.678   1.703  1.00  0.00    +0.0297  H
ATOM     69 H61  WH0 L   1       1.950  -3.411   2.359  1.00  0.00    +0.0489  H
ATOM     70 H62  WH0 L   1       3.725  -3.405   2.032  1.00  0.00    +0.0489  H
ENDBRANCH 20 53
ENDBRANCH 1 25
TORSDOF 7
