ROOT
ATOM      1  C8  CHE L   1      -4.877   0.185   0.567  1.00  0.00    +0.0394  A
ATOM      2  C9  CHE L   1      -5.395  -0.590  -0.497  1.00  0.00    -0.0475  A
ATOM      3 C10  CHE L   1      -6.765  -0.863  -0.583  1.00  0.00    -0.0373  A
ATOM      4 C11  CHE L   1      -7.578  -0.340   0.399  1.00  0.00    +0.0454  A
ATOM      5 C12  CHE L   1      -7.087   0.438   1.445  1.00  0.00    -0.0143  A
ATOM      6 C13  CHE L   1      -5.736   0.717   1.544  1.00  0.00    -0.0438  A
ATOM      7 C14  CHE L   1      -8.222   0.858   2.330  1.00  0.00    +0.0535  C
ATOM      8 C15  CHE L   1      -9.426   0.206   1.639  1.00  0.00    +0.2296  C
ATOM      9 O16  CHE L   1     -10.591   0.264   1.994  1.00  0.00    -0.2725 OA
ATOM     10 N17  CHE L   1      -8.951  -0.471   0.521  1.00  0.00    -0.3256  N
ATOM     11 H39  CHE L   1      -4.743  -0.961  -1.283  1.00  0.00    +0.0626  H
ATOM     12 H40  CHE L   1      -7.166  -1.453  -1.400  1.00  0.00    +0.0638  H
ATOM     13 H41  CHE L   1      -5.347   1.329   2.353  1.00  0.00    +0.0629  H
ATOM     14 H42  CHE L   1      -8.344   1.944   2.334  1.00  0.00    +0.0410  H
ATOM     15 H43  CHE L   1      -8.113   0.452   3.339  1.00  0.00    +0.0410  H
ATOM     16 H44  CHE L   1      -9.558  -0.980  -0.104  1.00  0.00    +0.1686 HD
ENDROOT
BRANCH 1 18
ATOM     17  N5  CHE L   1      -2.551  -0.460   0.199  1.00  0.00    -0.3492  N
ATOM     18  C6  CHE L   1      -3.425   0.494   0.678  1.00  0.00    +0.2523  C
ATOM     19  O7  CHE L   1      -3.058   1.544   1.195  1.00  0.00    -0.2676 OA
ATOM     20 H38  CHE L   1      -2.907  -1.313  -0.211  1.00  0.00    +0.1629 HD
BRANCH 17 24
ATOM     21  C1  CHE L   1       1.085   1.651  -2.388  1.00  0.00    -0.0438  C
ATOM     22  C2  CHE L   1       0.793   0.819  -1.142  1.00  0.00    +0.0394  C
ATOM     23  C3  CHE L   1      -0.726   0.584  -1.076  1.00  0.00    -0.0116  C
ATOM     24  C4  CHE L   1      -1.113  -0.223   0.165  1.00  0.00    +0.0334  C
ATOM     25 C18  CHE L   1      -0.346  -1.540   0.196  1.00  0.00    -0.0141  C
ATOM     26 C19  CHE L   1       1.152  -1.281   0.133  1.00  0.00    +0.0313  C
ATOM     27 N20  CHE L   1       1.483  -0.518  -1.109  1.00  0.00    -0.2979 NA
ATOM     28 H31  CHE L   1       2.115   2.020  -2.392  1.00  0.00    +0.0250  H
ATOM     29 H32  CHE L   1       0.443   2.539  -2.422  1.00  0.00    +0.0250  H
ATOM     30 H33  CHE L   1       0.911   1.079  -3.306  1.00  0.00    +0.0250  H
ATOM     31 H34  CHE L   1       1.100   1.393  -0.259  1.00  0.00    +0.0529  H
ATOM     32 H35  CHE L   1      -1.252   1.547  -1.067  1.00  0.00    +0.0305  H
ATOM     33 H36  CHE L   1      -1.064   0.054  -1.977  1.00  0.00    +0.0305  H
ATOM     34 H37  CHE L   1      -0.852   0.360   1.058  1.00  0.00    +0.0524  H
ATOM     35 H45  CHE L   1      -0.588  -2.095   1.110  1.00  0.00    +0.0302  H
ATOM     36 H46  CHE L   1      -0.650  -2.173  -0.648  1.00  0.00    +0.0302  H
ATOM     37 H47  CHE L   1       1.655  -2.252   0.145  1.00  0.00    +0.0496  H
ATOM     38 H48  CHE L   1       1.484  -0.717   1.012  1.00  0.00    +0.0496  H
BRANCH 27 39
ATOM     39 S21  CHE L   1       3.107  -0.687  -1.627  1.00  0.00    +0.2327  S
ATOM     40 O22  CHE L   1       3.482  -2.069  -1.410  1.00  0.00    -0.2053 OA
ATOM     41 O23  CHE L   1       3.249  -0.092  -2.937  1.00  0.00    -0.2053 OA
BRANCH 39 42
ATOM     42 C24  CHE L   1       3.991   0.326  -0.435  1.00  0.00    +0.0716  C
ATOM     43 H49  CHE L   1       3.892  -0.152   0.543  1.00  0.00    +0.0446  H
ATOM     44 H50  CHE L   1       3.472   1.289  -0.407  1.00  0.00    +0.0446  H
BRANCH 42 45
ATOM     45 C25  CHE L   1       5.465   0.572  -0.810  1.00  0.00    -0.0234  C
ATOM     46 C26  CHE L   1       6.330  -0.696  -0.817  1.00  0.00    -0.0366  C
ATOM     47 C27  CHE L   1       6.508  -1.284   0.586  1.00  0.00    -0.0038  C
ATOM     48 N28  CHE L   1       6.682  -0.280   1.641  1.00  0.00    -0.3160 NA
ATOM     49 C29  CHE L   1       7.121   1.008   1.114  1.00  0.00    -0.0038  C
ATOM     50 C30  CHE L   1       6.085   1.609   0.158  1.00  0.00    -0.0366  C
ATOM     51 H51  CHE L   1       5.484   1.001  -1.821  1.00  0.00    +0.0312  H
ATOM     52 H52  CHE L   1       7.318  -0.439  -1.222  1.00  0.00    +0.0280  H
ATOM     53 H53  CHE L   1       5.931  -1.457  -1.494  1.00  0.00    +0.0280  H
ATOM     54 H54  CHE L   1       5.645  -1.910   0.840  1.00  0.00    +0.0424  H
ATOM     55 H55  CHE L   1       7.379  -1.950   0.585  1.00  0.00    +0.0424  H
ATOM     56 H56  CHE L   1       5.809  -0.162   2.153  1.00  0.00    +0.1219 HD
ATOM     57 H57  CHE L   1       7.288   1.701   1.947  1.00  0.00    +0.0424  H
ATOM     58 H58  CHE L   1       8.091   0.898   0.614  1.00  0.00    +0.0424  H
ATOM     59 H59  CHE L   1       6.579   2.394  -0.429  1.00  0.00    +0.0280  H
ATOM     60 H60  CHE L   1       5.303   2.113   0.738  1.00  0.00    +0.0280  H
ENDBRANCH 42 45
ENDBRANCH 39 42
ENDBRANCH 27 39
ENDBRANCH 17 24
ENDBRANCH 1 18
TORSDOF 5
