ROOT
ATOM      1  C8  WH0 L   1       4.458  -0.577  -1.562  1.00  0.00    -0.0219  A
ATOM      2  C9  WH0 L   1       4.370  -1.412  -2.685  1.00  0.00    -0.0565  A
ATOM      3 C10  WH0 L   1       3.132  -1.929  -3.109  1.00  0.00    -0.0609  A
ATOM      4 C11  WH0 L   1       1.955  -1.622  -2.421  1.00  0.00    -0.0510  A
ATOM      5 C12  WH0 L   1       2.037  -0.795  -1.310  1.00  0.00    +0.0444  A
ATOM      6 C13  WH0 L   1       3.272  -0.293  -0.894  1.00  0.00    +0.0539  A
ATOM      7 N14  WH0 L   1       3.117   0.490   0.245  1.00  0.00    -0.3207  N
ATOM      8 C15  WH0 L   1       1.785   0.555   0.640  1.00  0.00    +0.2902  C
ATOM      9 O16  WH0 L   1       1.361   1.168   1.611  1.00  0.00    -0.2665 OA
ATOM     10 C17  WH0 L   1       0.938  -0.309  -0.392  1.00  0.00    +0.2804  C
ATOM     11 O18  WH0 L   1       0.299  -1.444   0.185  1.00  0.00    -0.3368 OA
ATOM     12 C19  WH0 L   1      -0.857  -1.062   0.929  1.00  0.00    +0.0637  C
ATOM     13 C20  WH0 L   1      -1.891  -0.368   0.020  1.00  0.00    +0.0644  C
ATOM     14 C21  WH0 L   1      -2.394   0.946   0.655  1.00  0.00    +0.0637  C
ATOM     15 O22  WH0 L   1      -3.759   0.821   1.059  1.00  0.00    -0.3368 OA
ATOM     16 C23  WH0 L   1      -4.604   0.523  -0.046  1.00  0.00    +0.2804  C
ATOM     17 O24  WH0 L   1      -4.162  -0.591  -0.824  1.00  0.00    -0.3368 OA
ATOM     18 C25  WH0 L   1      -3.096  -1.293  -0.198  1.00  0.00    +0.0637  C
ATOM     19 C26  WH0 L   1      -4.922   1.762  -0.995  1.00  0.00    +0.2902  C
ATOM     20 O27  WH0 L   1      -4.137   2.391  -1.692  1.00  0.00    -0.2665 OA
ATOM     21 N28  WH0 L   1      -6.288   2.020  -0.910  1.00  0.00    -0.3210  N
ATOM     22 C29  WH0 L   1      -6.913   1.129  -0.053  1.00  0.00    +0.0507  A
ATOM     23 C30  WH0 L   1      -8.257   1.094   0.261  1.00  0.00    -0.0378  A
ATOM     24 C31  WH0 L   1      -8.685   0.110   1.155  1.00  0.00    -0.0598  A
ATOM     25 C32  WH0 L   1      -7.769  -0.803   1.709  1.00  0.00    -0.0612  A
ATOM     26 C33  WH0 L   1      -6.412  -0.747   1.377  1.00  0.00    -0.0510  A
ATOM     27 C34  WH0 L   1      -5.992   0.229   0.486  1.00  0.00    +0.0441  A
ATOM     28 C35  WH0 L   1      -1.222  -0.064  -1.330  1.00  0.00    +0.0637  C
ATOM     29 O36  WH0 L   1       0.053   0.533  -1.130  1.00  0.00    -0.3368 OA
ATOM     30 H44  WH0 L   1       5.264  -1.670  -3.250  1.00  0.00    +0.0621  H
ATOM     31 H45  WH0 L   1       3.091  -2.573  -3.985  1.00  0.00    +0.0618  H
ATOM     32 H46  WH0 L   1       1.001  -2.023  -2.749  1.00  0.00    +0.0623  H
ATOM     33 H47  WH0 L   1       3.864   0.954   0.760  1.00  0.00    +0.1688 HD
ATOM     34 H48  WH0 L   1      -1.266  -1.982   1.363  1.00  0.00    +0.0569  H
ATOM     35 H49  WH0 L   1      -0.549  -0.451   1.784  1.00  0.00    +0.0569  H
ATOM     36 H50  WH0 L   1      -1.826   1.213   1.552  1.00  0.00    +0.0569  H
ATOM     37 H51  WH0 L   1      -2.295   1.805  -0.017  1.00  0.00    +0.0569  H
ATOM     38 H52  WH0 L   1      -3.459  -1.721   0.745  1.00  0.00    +0.0569  H
ATOM     39 H53  WH0 L   1      -2.830  -2.141  -0.840  1.00  0.00    +0.0569  H
ATOM     40 H54  WH0 L   1      -6.736   2.761  -1.425  1.00  0.00    +0.1688 HD
ATOM     41 H55  WH0 L   1      -8.962   1.800  -0.165  1.00  0.00    +0.0638  H
ATOM     42 H56  WH0 L   1      -9.736   0.048   1.428  1.00  0.00    +0.0618  H
ATOM     43 H57  WH0 L   1      -8.122  -1.560   2.406  1.00  0.00    +0.0618  H
ATOM     44 H58  WH0 L   1      -5.706  -1.448   1.812  1.00  0.00    +0.0623  H
ATOM     45 H59  WH0 L   1      -1.099  -0.971  -1.937  1.00  0.00    +0.0569  H
ATOM     46 H60  WH0 L   1      -1.826   0.625  -1.931  1.00  0.00    +0.0569  H
ENDROOT
BRANCH 1 47
ATOM     47  C7  WH0 L   1       5.778  -0.021  -1.107  1.00  0.00    -0.0082  C
ATOM     48 H42  WH0 L   1       6.520  -0.085  -1.914  1.00  0.00    +0.0331  H
ATOM     49 H43  WH0 L   1       5.655   1.054  -0.924  1.00  0.00    +0.0331  H
BRANCH 47 50
ATOM     50  C6  WH0 L   1       6.315  -0.752   0.130  1.00  0.00    +0.0221  C
ATOM     51 H40  WH0 L   1       5.508  -1.112   0.780  1.00  0.00    +0.0489  H
ATOM     52 H41  WH0 L   1       6.900  -1.627  -0.176  1.00  0.00    +0.0489  H
BRANCH 50 55
ATOM     53  O1  WH0 L   1       5.451   1.395   1.679  1.00  0.00    -0.2720 OA
ATOM     54  C2  WH0 L   1       6.642   1.083   1.737  1.00  0.00    +0.2356  C
ATOM     55  N5  WH0 L   1       7.176   0.093   0.936  1.00  0.00    -0.3547  N
ATOM     56 H39  WH0 L   1       8.103  -0.247   1.178  1.00  0.00    +0.1623 HD
BRANCH 54 57
ATOM     57  C3  WH0 L   1       7.618   1.833   2.625  1.00  0.00    +0.1010  C
ATOM     58 CL4  WH0 L   1       9.012   0.822   3.077  1.00  0.00    -0.1154 Cl
ATOM     59 H37  WH0 L   1       7.984   2.716   2.095  1.00  0.00    +0.0527  H
ATOM     60 H38  WH0 L   1       7.112   2.132   3.548  1.00  0.00    +0.0527  H
ENDBRANCH 54 57
ENDBRANCH 50 55
ENDBRANCH 47 50
ENDBRANCH 1 47
TORSDOF 4
