ROOT
ATOM      1  C9  CHE L   1      -1.980  -0.894  -0.023  1.00  0.00    +0.0933  A
ATOM      2 C10  CHE L   1      -1.409  -2.121  -0.290  1.00  0.00    +0.0372  A
ATOM      3 N11  CHE L   1      -0.073  -1.867  -0.459  1.00  0.00    -0.3059  N
ATOM      4 C12  CHE L   1       0.963  -2.740  -0.760  1.00  0.00    +0.0131  A
ATOM      5 C13  CHE L   1       2.213  -2.258  -0.875  1.00  0.00    -0.0220  A
ATOM      6 C14  CHE L   1       2.474  -0.827  -0.677  1.00  0.00    +0.0402  A
ATOM      7 C22  CHE L   1       1.435  -0.004  -0.395  1.00  0.00    +0.0042  A
ATOM      8 C23  CHE L   1       0.109  -0.505  -0.272  1.00  0.00    +0.1402  A
ATOM      9 N24  CHE L   1      -1.030   0.100  -0.001  1.00  0.00    -0.2276 NA
ATOM     10 H35  CHE L   1      -1.824  -3.113  -0.386  1.00  0.00    +0.0835  H
ATOM     11 H36  CHE L   1       0.716  -3.785  -0.897  1.00  0.00    +0.0814  H
ATOM     12 H37  CHE L   1       3.028  -2.926  -1.122  1.00  0.00    +0.0653  H
ATOM     13 H47  CHE L   1       1.576   1.061  -0.255  1.00  0.00    +0.0675  H
ENDROOT
BRANCH 1 17
ATOM     14  C3  CHE L   1      -6.142  -0.278   0.749  1.00  0.00    +0.1418  A
ATOM     15  C4  CHE L   1      -5.510   0.418  -0.285  1.00  0.00    +0.0239  A
ATOM     16  C5  CHE L   1      -4.142   0.236  -0.527  1.00  0.00    +0.1328  A
ATOM     17  C8  CHE L   1      -3.388  -0.670   0.230  1.00  0.00    +0.0451  A
ATOM     18 C25  CHE L   1      -4.021  -1.367   1.266  1.00  0.00    -0.0271  A
ATOM     19 C26  CHE L   1      -5.381  -1.168   1.524  1.00  0.00    +0.0834  A
ATOM     20 CL27 CHE L   1      -6.093  -2.063   2.824  1.00  0.00    -0.0797 Cl
ATOM     21 H31  CHE L   1      -6.052   1.102  -0.930  1.00  0.00    +0.0691  H
ATOM     22 H48  CHE L   1      -3.453  -2.060   1.883  1.00  0.00    +0.0641  H
BRANCH 14 24
ATOM     23  C1  CHE L   1      -8.262   0.721   0.280  1.00  0.00    +0.0789  C
ATOM     24  O2  CHE L   1      -7.471  -0.160   1.066  1.00  0.00    -0.4935 OA
ATOM     25 H28  CHE L   1      -7.905   1.753   0.364  1.00  0.00    +0.0660  H
ATOM     26 H29  CHE L   1      -9.284   0.690   0.670  1.00  0.00    +0.0660  H
ATOM     27 H30  CHE L   1      -8.294   0.396  -0.765  1.00  0.00    +0.0660  H
ENDBRANCH 14 24
BRANCH 16 28
ATOM     28  O6  CHE L   1      -3.587   0.897  -1.595  1.00  0.00    -0.4943 OA
ATOM     29  C7  CHE L   1      -3.213   2.223  -1.213  1.00  0.00    +0.0788  C
ATOM     30 H32  CHE L   1      -4.099   2.863  -1.149  1.00  0.00    +0.0660  H
ATOM     31 H33  CHE L   1      -2.666   2.246  -0.265  1.00  0.00    +0.0660  H
ATOM     32 H34  CHE L   1      -2.559   2.625  -1.993  1.00  0.00    +0.0660  H
ENDBRANCH 16 28
ENDBRANCH 1 17
BRANCH 6 33
ATOM     33 N15  CHE L   1       3.768  -0.342  -0.801  1.00  0.00    -0.3826  N
ATOM     34 H38  CHE L   1       3.864   0.596  -0.414  1.00  0.00    +0.1597 HD
BRANCH 33 35
ATOM     35 C16  CHE L   1       5.001  -1.114  -0.632  1.00  0.00    +0.0330  C
ATOM     36 H39  CHE L   1       5.020  -1.962  -1.324  1.00  0.00    +0.0502  H
ATOM     37 H40  CHE L   1       5.050  -1.501   0.391  1.00  0.00    +0.0502  H
BRANCH 35 38
ATOM     38 C17  CHE L   1       6.223  -0.228  -0.934  1.00  0.00    +0.0354  C
ATOM     39 H41  CHE L   1       7.142  -0.809  -0.801  1.00  0.00    +0.0503  H
ATOM     40 H42  CHE L   1       6.186   0.125  -1.970  1.00  0.00    +0.0503  H
BRANCH 38 41
ATOM     41 N18  CHE L   1       6.296   0.956  -0.089  1.00  0.00    -0.3545  N
ATOM     42 C19  CHE L   1       6.685   0.869   1.226  1.00  0.00    +0.2179  C
ATOM     43 C20  CHE L   1       6.737   2.187   1.950  1.00  0.00    +0.0143  C
ATOM     44 O21  CHE L   1       6.956  -0.192   1.779  1.00  0.00    -0.2736 OA
ATOM     45 H43  CHE L   1       6.140   1.861  -0.514  1.00  0.00    +0.1623 HD
ATOM     46 H44  CHE L   1       5.956   2.205   2.716  1.00  0.00    +0.0325  H
ATOM     47 H45  CHE L   1       7.718   2.297   2.420  1.00  0.00    +0.0325  H
ATOM     48 H46  CHE L   1       6.583   3.030   1.271  1.00  0.00    +0.0325  H
ENDBRANCH 38 41
ENDBRANCH 35 38
ENDBRANCH 33 35
ENDBRANCH 6 33
TORSDOF 7
