ROOT
ATOM      1 C11  CHE L   1      -1.177  -1.083   0.671  1.00  0.00    +0.0486  A
ATOM      2 C12  CHE L   1      -1.909   0.120   0.699  1.00  0.00    -0.0410  A
ATOM      3 C13  CHE L   1      -3.170   0.222   0.091  1.00  0.00    -0.0152  A
ATOM      4 C20  CHE L   1      -3.688  -0.916  -0.542  1.00  0.00    -0.0300  A
ATOM      5 C21  CHE L   1      -2.967  -2.114  -0.564  1.00  0.00    +0.0505  A
ATOM      6 N22  CHE L   1      -3.524  -3.225  -1.214  1.00  0.00    -0.3221  N
ATOM      7 C23  CHE L   1      -2.906  -4.441  -1.308  1.00  0.00    +0.2492  A
ATOM      8 O24  CHE L   1      -3.414  -5.394  -1.886  1.00  0.00    -0.2679 OA
ATOM      9 C25  CHE L   1      -1.573  -4.557  -0.675  1.00  0.00    +0.0034  A
ATOM     10 C26  CHE L   1      -1.011  -3.517  -0.045  1.00  0.00    -0.0468  A
ATOM     11 C27  CHE L   1      -1.704  -2.222   0.043  1.00  0.00    +0.0109  A
ATOM     12 H41  CHE L   1      -1.492   0.988   1.209  1.00  0.00    +0.0631  H
ATOM     13 H47  CHE L   1      -4.669  -0.868  -1.010  1.00  0.00    +0.0644  H
ATOM     14 H48  CHE L   1      -4.435  -3.163  -1.649  1.00  0.00    +0.1689 HD
ATOM     15 H49  CHE L   1      -1.087  -5.523  -0.748  1.00  0.00    +0.0672  H
ATOM     16 H50  CHE L   1      -0.035  -3.633   0.416  1.00  0.00    +0.0626  H
ENDROOT
BRANCH 1 18
ATOM     17  N8  CHE L   1       1.003  -0.092   0.973  1.00  0.00    -0.3478  N
ATOM     18  C9  CHE L   1       0.146  -1.101   1.345  1.00  0.00    +0.2529  C
ATOM     19 O10  CHE L   1       0.413  -1.962   2.174  1.00  0.00    -0.2676 OA
ATOM     20 H40  CHE L   1       0.688   0.635   0.341  1.00  0.00    +0.1630 HD
BRANCH 17 21
ATOM     21  C7  CHE L   1       2.269   0.125   1.636  1.00  0.00    +0.0491  C
ATOM     22 H38  CHE L   1       2.533  -0.734   2.259  1.00  0.00    +0.0538  H
ATOM     23 H39  CHE L   1       2.140   0.966   2.327  1.00  0.00    +0.0538  H
BRANCH 21 29
ATOM     24  C1  CHE L   1       6.282   1.836  -2.204  1.00  0.00    -0.0244  C
ATOM     25  C2  CHE L   1       5.277   1.299  -1.234  1.00  0.00    +0.0162  A
ATOM     26  C3  CHE L   1       5.253   0.026  -0.813  1.00  0.00    -0.0393  A
ATOM     27  C4  CHE L   1       4.252  -0.433   0.140  1.00  0.00    -0.0388  A
ATOM     28  C5  CHE L   1       4.357  -1.883   0.521  1.00  0.00    -0.0392  C
ATOM     29  C6  CHE L   1       3.316   0.425   0.606  1.00  0.00    +0.0389  A
ATOM     30 C28  CHE L   1       3.323   1.836   0.103  1.00  0.00    +0.2540  A
ATOM     31 O29  CHE L   1       2.465   2.649   0.436  1.00  0.00    -0.2675 OA
ATOM     32 N30  CHE L   1       4.326   2.173  -0.770  1.00  0.00    -0.3262  N
ATOM     33 H31  CHE L   1       6.968   1.059  -2.555  1.00  0.00    +0.0292  H
ATOM     34 H32  CHE L   1       5.781   2.260  -3.081  1.00  0.00    +0.0292  H
ATOM     35 H33  CHE L   1       6.880   2.624  -1.735  1.00  0.00    +0.0292  H
ATOM     36 H34  CHE L   1       5.989  -0.690  -1.170  1.00  0.00    +0.0637  H
ATOM     37 H35  CHE L   1       4.458  -2.510  -0.372  1.00  0.00    +0.0278  H
ATOM     38 H36  CHE L   1       3.477  -2.249   1.056  1.00  0.00    +0.0278  H
ATOM     39 H37  CHE L   1       5.231  -2.044   1.161  1.00  0.00    +0.0278  H
ATOM     40 H51  CHE L   1       4.313   3.131  -1.096  1.00  0.00    +0.1686 HD
ENDBRANCH 21 29
ENDBRANCH 17 21
ENDBRANCH 1 18
BRANCH 3 41
ATOM     41 C14  CHE L   1      -3.923   1.486   0.118  1.00  0.00    -0.0178  A
ATOM     42 C15  CHE L   1      -4.404   2.068  -1.068  1.00  0.00    -0.0540  A
ATOM     43 C16  CHE L   1      -5.113   3.272  -1.045  1.00  0.00    -0.0612  A
ATOM     44 C17  CHE L   1      -5.356   3.915   0.166  1.00  0.00    -0.0617  A
ATOM     45 C18  CHE L   1      -4.891   3.354   1.352  1.00  0.00    -0.0612  A
ATOM     46 C19  CHE L   1      -4.181   2.151   1.328  1.00  0.00    -0.0540  A
ATOM     47 H42  CHE L   1      -4.215   1.591  -2.027  1.00  0.00    +0.0624  H
ATOM     48 H43  CHE L   1      -5.471   3.709  -1.973  1.00  0.00    +0.0618  H
ATOM     49 H44  CHE L   1      -5.907   4.852   0.185  1.00  0.00    +0.0618  H
ATOM     50 H45  CHE L   1      -5.081   3.853   2.299  1.00  0.00    +0.0618  H
ATOM     51 H46  CHE L   1      -3.837   1.728   2.270  1.00  0.00    +0.0624  H
ENDBRANCH 3 41
TORSDOF 4
