ROOT
ATOM      1  C1  238 L   1      -2.747   3.177   0.585  1.00  0.00    +0.0145  C
ATOM      2  C2  238 L   1      -2.240   1.757   0.662  1.00  0.00    +0.2209  C
ATOM      3  O3  238 L   1      -2.811   0.921   1.357  1.00  0.00    -0.2733 OA
ATOM      4  N4  238 L   1      -1.090   1.514  -0.097  1.00  0.00    -0.3349  N
ATOM      5  C5  238 L   1       0.084   2.283   0.287  1.00  0.00    +0.0261  C
ATOM      6  C6  238 L   1       0.807   1.369   1.288  1.00  0.00    -0.0044  C
ATOM      7  C7  238 L   1       2.318   1.308   1.121  1.00  0.00    +0.0042  C
ATOM      8  N8  238 L   1       2.515   0.181   0.206  1.00  0.00    -0.2918 NA
ATOM      9 C13  238 L   1       1.573  -0.852   0.664  1.00  0.00    +0.0048  C
ATOM     10 C14  238 L   1       0.304  -0.062   0.960  1.00  0.00    +0.0020  C
ATOM     11 C15  238 L   1      -0.605   0.139  -0.266  1.00  0.00    +0.0620  C
ATOM     12 H22  238 L   1      -2.347   3.696  -0.291  1.00  0.00    +0.0325  H
ATOM     13 H23  238 L   1      -2.461   3.714   1.492  1.00  0.00    +0.0325  H
ATOM     14 H24  238 L   1      -3.837   3.160   0.496  1.00  0.00    +0.0325  H
ATOM     15 H25  238 L   1      -0.161   3.248   0.739  1.00  0.00    +0.0492  H
ATOM     16 H26  238 L   1       0.680   2.463  -0.615  1.00  0.00    +0.0492  H
ATOM     17 H27  238 L   1       0.536   1.644   2.315  1.00  0.00    +0.0334  H
ATOM     18 H28  238 L   1       2.785   1.111   2.095  1.00  0.00    +0.0430  H
ATOM     19 H29  238 L   1       2.734   2.240   0.723  1.00  0.00    +0.0430  H
ATOM     20 H33  238 L   1       1.405  -1.635  -0.082  1.00  0.00    +0.0430  H
ATOM     21 H34  238 L   1       1.930  -1.327   1.587  1.00  0.00    +0.0430  H
ATOM     22 H35  238 L   1      -0.236  -0.470   1.821  1.00  0.00    +0.0340  H
ATOM     23 H36  238 L   1       0.046   0.183  -1.154  1.00  0.00    +0.0578  H
ENDROOT
BRANCH 8 24
ATOM     24  C9  238 L   1       3.917  -0.280   0.197  1.00  0.00    +0.0968  C
ATOM     25 H30  238 L   1       4.570   0.573  -0.024  1.00  0.00    +0.0541  H
ATOM     26 H31  238 L   1       4.200  -0.704   1.167  1.00  0.00    +0.0541  H
BRANCH 24 27
ATOM     27 C10  238 L   1       4.186  -1.319  -0.888  1.00  0.00    +0.3189  C
ATOM     28 O11  238 L   1       3.423  -1.767  -1.728  1.00  0.00    -0.2496 OA
ATOM     29 O12  238 L   1       5.466  -1.755  -0.850  1.00  0.00    -0.4797 OA
ATOM     30 H32  238 L   1       5.506  -2.397  -1.590  1.00  0.00    +0.2951 HD
ENDBRANCH 24 27
ENDBRANCH 8 24
BRANCH 11 31
ATOM     31 C16  238 L   1      -1.645  -0.899  -0.634  1.00  0.00    -0.0246  A
ATOM     32 C17  238 L   1      -1.878  -2.054   0.126  1.00  0.00    -0.0566  A
ATOM     33 C18  238 L   1      -2.831  -2.995  -0.276  1.00  0.00    -0.0614  A
ATOM     34 C19  238 L   1      -3.563  -2.799  -1.445  1.00  0.00    -0.0617  A
ATOM     35 C20  238 L   1      -3.344  -1.660  -2.214  1.00  0.00    -0.0614  A
ATOM     36 C21  238 L   1      -2.393  -0.720  -1.813  1.00  0.00    -0.0566  A
ATOM     37 H37  238 L   1      -1.336  -2.240   1.048  1.00  0.00    +0.0621  H
ATOM     38 H38  238 L   1      -3.006  -3.880   0.331  1.00  0.00    +0.0618  H
ATOM     39 H39  238 L   1      -4.305  -3.530  -1.752  1.00  0.00    +0.0618  H
ATOM     40 H40  238 L   1      -3.914  -1.500  -3.125  1.00  0.00    +0.0618  H
ATOM     41 H41  238 L   1      -2.234   0.165  -2.425  1.00  0.00    +0.0621  H
ENDBRANCH 11 31
TORSDOF 3
