ROOT
ATOM      1 C13  187 L   1       3.498   0.549   1.142  1.00  0.00    +0.0004  C
ATOM      2 C14  187 L   1       3.295   2.049   1.181  1.00  0.00    -0.0686  C
ATOM      3 C15  187 L   1       4.129   2.785   0.434  1.00  0.00    +0.0266  C
ATOM      4 S16  187 L   1       5.262   1.784  -0.407  1.00  0.00    +0.1728  S
ATOM      5 O17  187 L   1       6.613   2.227  -0.136  1.00  0.00    -0.2226 OA
ATOM      6 O18  187 L   1       4.787   1.542  -1.754  1.00  0.00    -0.2226 OA
ATOM      7 C19  187 L   1       4.912   0.333   0.584  1.00  0.00    +0.0605  C
ATOM      8 H38  187 L   1       3.462   0.144   2.161  1.00  0.00    +0.0357  H
ATOM      9 H39  187 L   1       2.499   2.486   1.775  1.00  0.00    +0.0582  H
ATOM     10 H40  187 L   1       4.134   3.858   0.328  1.00  0.00    +0.0736  H
ATOM     11 H41  187 L   1       5.647   0.315   1.397  1.00  0.00    +0.0435  H
ATOM     12 H42  187 L   1       5.025  -0.565  -0.028  1.00  0.00    +0.0435  H
ENDROOT
BRANCH 1 13
ATOM     13 C12  187 L   1       2.437  -0.141   0.270  1.00  0.00    +0.0333  C
ATOM     14 H36  187 L   1       2.733  -1.181   0.086  1.00  0.00    +0.0366  H
ATOM     15 H37  187 L   1       2.342   0.358  -0.702  1.00  0.00    +0.0366  H
BRANCH 13 17
ATOM     16  N9  187 L   1       0.080  -0.627   0.083  1.00  0.00    -0.3530  N
ATOM     17 C10  187 L   1       1.072  -0.186   0.932  1.00  0.00    +0.2218  C
ATOM     18 O11  187 L   1       0.877   0.122   2.102  1.00  0.00    -0.2732 OA
ATOM     19 H35  187 L   1       0.346  -1.022  -0.811  1.00  0.00    +0.1626 HD
BRANCH 16 24
ATOM     20  C4  187 L   1      -2.294  -0.920  -0.599  1.00  0.00    -0.0183  C
ATOM     21  C5  187 L   1      -3.505  -1.545   0.100  1.00  0.00    -0.0480  C
ATOM     22  C6  187 L   1      -2.911  -2.565   1.072  1.00  0.00    -0.0509  C
ATOM     23  C7  187 L   1      -1.444  -2.181   1.260  1.00  0.00    -0.0323  C
ATOM     24  C8  187 L   1      -1.276  -0.835   0.548  1.00  0.00    +0.0327  C
ATOM     25 H27  187 L   1      -1.922  -1.647  -1.337  1.00  0.00    +0.0323  H
ATOM     26 H28  187 L   1      -4.193  -2.020  -0.606  1.00  0.00    +0.0269  H
ATOM     27 H29  187 L   1      -4.071  -0.799   0.666  1.00  0.00    +0.0269  H
ATOM     28 H30  187 L   1      -2.985  -3.579   0.664  1.00  0.00    +0.0266  H
ATOM     29 H31  187 L   1      -3.454  -2.555   2.024  1.00  0.00    +0.0266  H
ATOM     30 H32  187 L   1      -1.171  -2.117   2.318  1.00  0.00    +0.0285  H
ATOM     31 H33  187 L   1      -0.803  -2.949   0.809  1.00  0.00    +0.0285  H
ATOM     32 H34  187 L   1      -1.535  -0.037   1.253  1.00  0.00    +0.0525  H
BRANCH 20 34
ATOM     33  C1  187 L   1      -3.017   1.566  -0.474  1.00  0.00    -0.0623  C
ATOM     34  C2  187 L   1      -2.555   0.402  -1.354  1.00  0.00    -0.0420  C
ATOM     35  C3  187 L   1      -3.560   0.190  -2.491  1.00  0.00    -0.0623  C
ATOM     36 H20  187 L   1      -2.275   1.811   0.292  1.00  0.00    +0.0232  H
ATOM     37 H21  187 L   1      -3.969   1.352   0.022  1.00  0.00    +0.0232  H
ATOM     38 H22  187 L   1      -3.160   2.469  -1.079  1.00  0.00    +0.0232  H
ATOM     39 H23  187 L   1      -1.607   0.708  -1.817  1.00  0.00    +0.0299  H
ATOM     40 H24  187 L   1      -4.557  -0.054  -2.108  1.00  0.00    +0.0232  H
ATOM     41 H25  187 L   1      -3.238  -0.622  -3.151  1.00  0.00    +0.0232  H
ATOM     42 H26  187 L   1      -3.650   1.096  -3.101  1.00  0.00    +0.0232  H
ENDBRANCH 20 34
ENDBRANCH 16 24
ENDBRANCH 13 17
ENDBRANCH 1 13
TORSDOF 4
