ROOT
ATOM      1 C12  238 L   1       0.629  -0.718   0.988  1.00  0.00    +0.0544  C
ATOM      2 C13  238 L   1       1.548  -0.775   0.017  1.00  0.00    -0.0395  C
ATOM      3 C14  238 L   1       2.762   0.003   0.219  1.00  0.00    +0.0172  A
ATOM      4 C15  238 L   1       3.838  -0.103  -0.668  1.00  0.00    -0.0511  A
ATOM      5 C16  238 L   1       4.981   0.679  -0.480  1.00  0.00    -0.0610  A
ATOM      6 C17  238 L   1       5.048   1.575   0.587  1.00  0.00    -0.0583  A
ATOM      7 C18  238 L   1       3.975   1.688   1.472  1.00  0.00    -0.0193  A
ATOM      8 C19  238 L   1       2.841   0.897   1.295  1.00  0.00    +0.1281  A
ATOM      9 O20  238 L   1       1.821   1.083   2.191  1.00  0.00    -0.4866 OA
ATOM     10 C21  238 L   1       0.842   0.029   2.263  1.00  0.00    +0.1197  C
ATOM     11 H32  238 L   1       1.429  -1.377  -0.877  1.00  0.00    +0.0630  H
ATOM     12 H33  238 L   1       3.798  -0.791  -1.508  1.00  0.00    +0.0625  H
ATOM     13 H34  238 L   1       5.817   0.592  -1.168  1.00  0.00    +0.0618  H
ATOM     14 H35  238 L   1       5.935   2.187   0.730  1.00  0.00    +0.0619  H
ATOM     15 H36  238 L   1       4.024   2.389   2.301  1.00  0.00    +0.0654  H
ATOM     16 H37  238 L   1      -0.094   0.505   2.576  1.00  0.00    +0.0749  H
ATOM     17 H38  238 L   1       1.143  -0.660   3.062  1.00  0.00    +0.0749  H
ENDROOT
BRANCH 1 24
ATOM     18  C4  238 L   1      -1.557   0.261  -0.695  1.00  0.00    +0.1295  C
ATOM     19  C5  238 L   1      -2.983   0.772  -0.975  1.00  0.00    -0.0219  C
ATOM     20  C6  238 L   1      -3.939   0.403   0.157  1.00  0.00    -0.0491  C
ATOM     21  C7  238 L   1      -3.979  -1.108   0.414  1.00  0.00    -0.0352  C
ATOM     22  C8  238 L   1      -2.787  -1.843  -0.195  1.00  0.00    +0.0223  C
ATOM     23  N9  238 L   1      -1.572  -1.061  -0.025  1.00  0.00    -0.3251  N
ATOM     24 C10  238 L   1      -0.617  -1.502   0.876  1.00  0.00    +0.2545  C
ATOM     25 O11  238 L   1      -0.759  -2.484   1.601  1.00  0.00    -0.2676 OA
ATOM     26 H23  238 L   1      -1.043   0.965  -0.032  1.00  0.00    +0.0641  H
ATOM     27 H24  238 L   1      -2.966   1.860  -1.112  1.00  0.00    +0.0290  H
ATOM     28 H25  238 L   1      -3.365   0.354  -1.916  1.00  0.00    +0.0290  H
ATOM     29 H26  238 L   1      -3.618   0.914   1.073  1.00  0.00    +0.0267  H
ATOM     30 H27  238 L   1      -4.948   0.769  -0.064  1.00  0.00    +0.0267  H
ATOM     31 H28  238 L   1      -4.006  -1.276   1.498  1.00  0.00    +0.0282  H
ATOM     32 H29  238 L   1      -4.906  -1.535   0.012  1.00  0.00    +0.0282  H
ATOM     33 H30  238 L   1      -2.693  -2.839   0.251  1.00  0.00    +0.0489  H
ATOM     34 H31  238 L   1      -2.937  -1.993  -1.271  1.00  0.00    +0.0489  H
BRANCH 18 36
ATOM     35  O1  238 L   1      -0.521  -0.774  -2.688  1.00  0.00    -0.2487 OA
ATOM     36  C2  238 L   1      -0.789   0.211  -2.019  1.00  0.00    +0.3276  C
ATOM     37  O3  238 L   1      -0.419   1.439  -2.444  1.00  0.00    -0.4792 OA
ATOM     38 H22  238 L   1       0.067   1.267  -3.278  1.00  0.00    +0.2951 HD
ENDBRANCH 18 36
ENDBRANCH 1 24
TORSDOF 2
