ROOT
ATOM      1  N8  MCU L   1      -1.249  -2.262  -0.188  1.00  0.00    -0.3017  N
ATOM      2  C9  MCU L   1      -1.986  -3.339  -0.653  1.00  0.00    +0.2702  A
ATOM      3 O10  MCU L   1      -2.530  -3.332  -1.788  1.00  0.00    -0.2660 OA
ATOM      4 C11  MCU L   1      -2.130  -4.487   0.129  1.00  0.00    +0.0928  A
ATOM      5 N12  MCU L   1      -1.512  -4.566   1.327  1.00  0.00    -0.2466 NA
ATOM      6 C13  MCU L   1      -0.643  -3.606   1.719  1.00  0.00    +0.1062  A
ATOM      7 C14  MCU L   1      -0.036  -3.693   2.971  1.00  0.00    +0.0556  A
ATOM      8 N15  MCU L   1       0.868  -2.759   3.355  1.00  0.00    -0.2527 NA
ATOM      9 C16  MCU L   1       1.279  -1.775   2.514  1.00  0.00    +0.0731  A
ATOM     10 C17  MCU L   1       2.288  -0.901   2.928  1.00  0.00    -0.0351  A
ATOM     11 C18  MCU L   1       2.849   0.001   2.025  1.00  0.00    -0.0519  A
ATOM     12 C19  MCU L   1       2.453  -0.005   0.679  1.00  0.00    -0.0157  A
ATOM     13 C27  MCU L   1       1.425  -0.876   0.271  1.00  0.00    -0.0427  A
ATOM     14 C28  MCU L   1       0.743  -1.683   1.205  1.00  0.00    +0.0266  A
ATOM     15 C29  MCU L   1      -0.369  -2.512   0.863  1.00  0.00    +0.0813  A
ATOM     16 H39  MCU L   1      -2.758  -5.305  -0.202  1.00  0.00    +0.0885  H
ATOM     17 H40  MCU L   1      -0.293  -4.495   3.651  1.00  0.00    +0.0852  H
ATOM     18 H41  MCU L   1       2.669  -0.948   3.941  1.00  0.00    +0.0639  H
ATOM     19 H42  MCU L   1       3.646   0.653   2.363  1.00  0.00    +0.0624  H
ATOM     20 H48  MCU L   1       1.228  -0.980  -0.782  1.00  0.00    +0.0631  H
ENDROOT
BRANCH 1 24
ATOM     21  N4  MCU L   1      -3.530   1.470  -0.547  1.00  0.00    -0.2898 NA
ATOM     22  C5  MCU L   1      -3.069   0.813  -1.800  1.00  0.00    +0.0017  C
ATOM     23  C6  MCU L   1      -2.733  -0.674  -1.614  1.00  0.00    -0.0191  C
ATOM     24  C7  MCU L   1      -1.568  -0.842  -0.600  1.00  0.00    +0.0404  C
ATOM     25 C30  MCU L   1      -1.812   0.077   0.645  1.00  0.00    -0.0191  C
ATOM     26 C31  MCU L   1      -3.212   0.709   0.684  1.00  0.00    +0.0017  C
ATOM     27 H34  MCU L   1      -2.171   1.319  -2.224  1.00  0.00    +0.0427  H
ATOM     28 H35  MCU L   1      -3.878   0.897  -2.556  1.00  0.00    +0.0427  H
ATOM     29 H36  MCU L   1      -2.433  -1.073  -2.608  1.00  0.00    +0.0298  H
ATOM     30 H37  MCU L   1      -3.649  -1.200  -1.267  1.00  0.00    +0.0298  H
ATOM     31 H38  MCU L   1      -0.714  -0.426  -1.157  1.00  0.00    +0.0530  H
ATOM     32 H49  MCU L   1      -1.694  -0.477   1.599  1.00  0.00    +0.0298  H
ATOM     33 H50  MCU L   1      -1.055   0.892   0.654  1.00  0.00    +0.0298  H
ATOM     34 H51  MCU L   1      -3.304   1.345   1.592  1.00  0.00    +0.0427  H
ATOM     35 H52  MCU L   1      -3.969  -0.096   0.812  1.00  0.00    +0.0427  H
BRANCH 21 36
ATOM     36  C3  MCU L   1      -3.065   2.871  -0.456  1.00  0.00    +0.0868  C
ATOM     37 H32  MCU L   1      -3.345   3.313   0.523  1.00  0.00    +0.0584  H
ATOM     38 H33  MCU L   1      -1.959   2.933  -0.560  1.00  0.00    +0.0584  H
BRANCH 36 40
ATOM     39  N1  MCU L   1      -4.212   4.345  -2.302  1.00  0.00    -0.1952 NA
ATOM     40  C2  MCU L   1      -3.706   3.695  -1.489  1.00  0.00    +0.0781  C
ENDBRANCH 36 40
ENDBRANCH 21 36
ENDBRANCH 1 24
BRANCH 12 41
ATOM     41 C20  MCU L   1       3.128   0.880  -0.301  1.00  0.00    +0.0004  A
ATOM     42 C21  MCU L   1       3.425   2.214   0.023  1.00  0.00    -0.0492  A
ATOM     43 C22  MCU L   1       4.064   3.038  -0.904  1.00  0.00    -0.0193  A
ATOM     44 C23  MCU L   1       4.411   2.522  -2.157  1.00  0.00    +0.1244  A
ATOM     45 N24  MCU L   1       5.079   3.340  -3.118  1.00  0.00    -0.3836  N
ATOM     46 N25  MCU L   1       4.119   1.229  -2.458  1.00  0.00    -0.2380 NA
ATOM     47 C26  MCU L   1       3.492   0.408  -1.574  1.00  0.00    +0.0376  A
ATOM     48 H43  MCU L   1       3.145   2.624   0.987  1.00  0.00    +0.0625  H
ATOM     49 H44  MCU L   1       4.288   4.066  -0.649  1.00  0.00    +0.0654  H
ATOM     50 H45  MCU L   1       5.350   2.944  -4.046  1.00  0.00    +0.1573 HD
ATOM     51 H46  MCU L   1       5.336   4.328  -2.897  1.00  0.00    +0.1573 HD
ATOM     52 H47  MCU L   1       3.299  -0.618  -1.861  1.00  0.00    +0.0836  H
ENDBRANCH 12 41
TORSDOF 4
