ROOT
ATOM      1  C1  MCU L   1      -5.251   4.006  -3.353  1.00  0.00    -0.0397  C
ATOM      2  C2  MCU L   1      -4.833   3.500  -2.001  1.00  0.00    -0.0498  A
ATOM      3  C3  MCU L   1      -5.450   3.995  -0.843  1.00  0.00    -0.0569  A
ATOM      4  C4  MCU L   1      -5.047   3.557   0.420  1.00  0.00    -0.0375  A
ATOM      5  C5  MCU L   1      -4.016   2.626   0.525  1.00  0.00    +0.0492  A
ATOM      6  N6  MCU L   1      -3.599   2.186   1.782  1.00  0.00    -0.3218  N
ATOM      7  C7  MCU L   1      -2.581   1.289   1.987  1.00  0.00    +0.2543  A
ATOM      8  O8  MCU L   1      -2.272   0.984   3.131  1.00  0.00    -0.2675 OA
ATOM      9  C9  MCU L   1      -1.908   0.729   0.770  1.00  0.00    +0.0421  A
ATOM     10 C36  MCU L   1      -2.310   1.144  -0.451  1.00  0.00    -0.0424  A
ATOM     11 C37  MCU L   1      -3.382   2.126  -0.614  1.00  0.00    -0.0009  A
ATOM     12 C38  MCU L   1      -3.787   2.572  -1.877  1.00  0.00    -0.0497  A
ATOM     13 H39  MCU L   1      -4.668   4.896  -3.621  1.00  0.00    +0.0278  H
ATOM     14 H40  MCU L   1      -5.094   3.240  -4.118  1.00  0.00    +0.0278  H
ATOM     15 H41  MCU L   1      -6.316   4.261  -3.365  1.00  0.00    +0.0278  H
ATOM     16 H42  MCU L   1      -6.251   4.729  -0.921  1.00  0.00    +0.0621  H
ATOM     17 H43  MCU L   1      -5.540   3.951   1.304  1.00  0.00    +0.0638  H
ATOM     18 H44  MCU L   1      -4.041   2.541   2.619  1.00  0.00    +0.1689 HD
ATOM     19 H67  MCU L   1      -1.841   0.771  -1.354  1.00  0.00    +0.0629  H
ATOM     20 H68  MCU L   1      -3.297   2.200  -2.774  1.00  0.00    +0.0627  H
ENDROOT
BRANCH 9 21
ATOM     21 C10  MCU L   1      -0.800  -0.310   0.953  1.00  0.00    +0.1028  C
ATOM     22 H45  MCU L   1      -0.542  -0.681  -0.052  1.00  0.00    +0.0596  H
BRANCH 21 23
ATOM     23 C11  MCU L   1      -1.264  -1.539   1.714  1.00  0.00    +0.1733  A
ATOM     24 N12  MCU L   1      -1.024  -1.859   2.975  1.00  0.00    -0.1114 NA
ATOM     25 N13  MCU L   1      -1.578  -3.092   3.184  1.00  0.00    -0.0230 NA
ATOM     26 N14  MCU L   1      -2.141  -3.550   2.079  1.00  0.00    -0.0436 NA
ATOM     27 N15  MCU L   1      -1.975  -2.580   1.164  1.00  0.00    -0.2244  N
BRANCH 27 28
ATOM     28 C16  MCU L   1      -2.484  -2.727  -0.184  1.00  0.00    +0.0564  C
ATOM     29 C17  MCU L   1      -1.462  -3.352  -1.138  1.00  0.00    -0.0304  C
ATOM     30 C18  MCU L   1      -1.659  -4.854  -0.978  1.00  0.00    -0.0511  C
ATOM     31 C19  MCU L   1      -3.131  -5.047  -0.621  1.00  0.00    -0.0511  C
ATOM     32 C20  MCU L   1      -3.697  -3.654  -0.328  1.00  0.00    -0.0304  C
ATOM     33 H46  MCU L   1      -2.761  -1.724  -0.521  1.00  0.00    +0.0546  H
ATOM     34 H47  MCU L   1      -0.427  -3.055  -0.937  1.00  0.00    +0.0286  H
ATOM     35 H48  MCU L   1      -1.700  -3.064  -2.171  1.00  0.00    +0.0286  H
ATOM     36 H49  MCU L   1      -1.387  -5.398  -1.889  1.00  0.00    +0.0266  H
ATOM     37 H50  MCU L   1      -1.024  -5.237  -0.167  1.00  0.00    +0.0266  H
ATOM     38 H51  MCU L   1      -3.226  -5.703   0.251  1.00  0.00    +0.0266  H
ATOM     39 H52  MCU L   1      -3.679  -5.522  -1.445  1.00  0.00    +0.0266  H
ATOM     40 H53  MCU L   1      -4.295  -3.329  -1.191  1.00  0.00    +0.0286  H
ATOM     41 H54  MCU L   1      -4.358  -3.653   0.545  1.00  0.00    +0.0286  H
ENDBRANCH 27 28
ENDBRANCH 21 23
BRANCH 21 42
ATOM     42 N21  MCU L   1       0.470   0.269   1.478  1.00  0.00    -0.2855 NA
ATOM     43 C22  MCU L   1       0.911   1.470   0.730  1.00  0.00    +0.0176  C
ATOM     44 C23  MCU L   1       2.419   1.784   0.853  1.00  0.00    +0.0333  C
ATOM     45 N24  MCU L   1       3.223   0.674   0.325  1.00  0.00    -0.3478  N
ATOM     46 C34  MCU L   1       2.628  -0.667   0.458  1.00  0.00    +0.0333  C
ATOM     47 C35  MCU L   1       1.580  -0.712   1.593  1.00  0.00    +0.0176  C
ATOM     48 H55  MCU L   1       0.352   2.342   1.090  1.00  0.00    +0.0444  H
ATOM     49 H56  MCU L   1       0.693   1.351  -0.340  1.00  0.00    +0.0444  H
ATOM     50 H57  MCU L   1       2.612   2.702   0.283  1.00  0.00    +0.0501  H
ATOM     51 H58  MCU L   1       2.670   1.972   1.904  1.00  0.00    +0.0501  H
ATOM     52 H63  MCU L   1       3.375  -1.442   0.664  1.00  0.00    +0.0501  H
ATOM     53 H64  MCU L   1       2.148  -0.929  -0.492  1.00  0.00    +0.0501  H
ATOM     54 H65  MCU L   1       1.225  -1.744   1.678  1.00  0.00    +0.0444  H
ATOM     55 H66  MCU L   1       2.094  -0.498   2.537  1.00  0.00    +0.0444  H
BRANCH 45 56
ATOM     56 C25  MCU L   1       4.582   0.767   0.219  1.00  0.00    +0.1703  A
ATOM     57 N26  MCU L   1       5.368  -0.283   0.086  1.00  0.00    -0.2228 NA
ATOM     58 C27  MCU L   1       6.696   0.087  -0.019  1.00  0.00    +0.0805  A
ATOM     59 C28  MCU L   1       7.791  -0.792  -0.165  1.00  0.00    -0.0351  A
ATOM     60 C29  MCU L   1       9.086  -0.275  -0.277  1.00  0.00    -0.0597  A
ATOM     61 C30  MCU L   1       9.300   1.101  -0.253  1.00  0.00    -0.0606  A
ATOM     62 C31  MCU L   1       8.233   1.990  -0.096  1.00  0.00    -0.0458  A
ATOM     63 C32  MCU L   1       6.937   1.456   0.029  1.00  0.00    +0.0410  A
ATOM     64 S33  MCU L   1       5.442   2.269   0.244  1.00  0.00    -0.0498  S
ATOM     65 H59  MCU L   1       7.620  -1.863  -0.201  1.00  0.00    +0.0639  H
ATOM     66 H60  MCU L   1       9.930  -0.952  -0.391  1.00  0.00    +0.0618  H
ATOM     67 H61  MCU L   1      10.312   1.487  -0.342  1.00  0.00    +0.0618  H
ATOM     68 H62  MCU L   1       8.399   3.065  -0.087  1.00  0.00    +0.0629  H
ENDBRANCH 45 56
ENDBRANCH 21 42
ENDBRANCH 9 21
TORSDOF 5
