ROOT
ATOM      1 C15  CHE L   1      -2.234   0.749  -0.931  1.00  0.00    +0.1263  A
ATOM      2 C16  CHE L   1      -2.591  -0.098  -1.981  1.00  0.00    -0.0083  A
ATOM      3 C17  CHE L   1      -3.904  -0.568  -2.090  1.00  0.00    +0.0563  A
ATOM      4 C21  CHE L   1      -4.858  -0.156  -1.153  1.00  0.00    +0.1359  A
ATOM      5 F22  CHE L   1      -6.113  -0.607  -1.286  1.00  0.00    -0.2047  F
ATOM      6 C23  CHE L   1      -4.522   0.696  -0.098  1.00  0.00    +0.0001  A
ATOM      7 C24  CHE L   1      -3.193   1.170  -0.004  1.00  0.00    +0.0142  A
ATOM      8 C25  CHE L   1      -2.889   2.152   1.101  1.00  0.00    +0.0251  C
ATOM      9 N26  CHE L   1      -3.382   1.687   2.401  1.00  0.00    -0.3113 NA
ATOM     10 C27  CHE L   1      -4.749   1.141   2.351  1.00  0.00    +0.0029  C
ATOM     11 C28  CHE L   1      -5.476   1.192   0.979  1.00  0.00    -0.0030  C
ATOM     12 C29  CHE L   1      -6.817   0.465   1.088  1.00  0.00    -0.0571  C
ATOM     13 H44  CHE L   1      -1.848  -0.391  -2.723  1.00  0.00    +0.0659  H
ATOM     14 H46  CHE L   1      -1.813   2.339   1.193  1.00  0.00    +0.0475  H
ATOM     15 H47  CHE L   1      -3.345   3.120   0.854  1.00  0.00    +0.0475  H
ATOM     16 H48  CHE L   1      -2.748   0.944   2.708  1.00  0.00    +0.1223 HD
ATOM     17 H49  CHE L   1      -4.699   0.098   2.691  1.00  0.00    +0.0430  H
ATOM     18 H50  CHE L   1      -5.350   1.675   3.096  1.00  0.00    +0.0430  H
ATOM     19 H51  CHE L   1      -5.701   2.242   0.745  1.00  0.00    +0.0359  H
ATOM     20 H52  CHE L   1      -6.680  -0.613   1.216  1.00  0.00    +0.0236  H
ATOM     21 H53  CHE L   1      -7.391   0.837   1.945  1.00  0.00    +0.0236  H
ATOM     22 H54  CHE L   1      -7.427   0.633   0.195  1.00  0.00    +0.0236  H
ENDROOT
BRANCH 1 23
ATOM     23 O14  CHE L   1      -0.957   1.226  -0.845  1.00  0.00    -0.4858 OA
BRANCH 23 26
ATOM     24 C11  CHE L   1       2.296  -0.384  -0.475  1.00  0.00    +0.0677  C
ATOM     25 C12  CHE L   1       1.293   0.478  -1.242  1.00  0.00    +0.0102  C
ATOM     26 C13  CHE L   1      -0.016   0.201  -0.505  1.00  0.00    +0.1304  C
ATOM     27 C30  CHE L   1       0.425   0.307   0.963  1.00  0.00    +0.1197  C
ATOM     28 O31  CHE L   1      -0.491  -0.328   1.858  1.00  0.00    -0.3855 OA
ATOM     29 C32  CHE L   1       1.810  -0.371   0.990  1.00  0.00    +0.1053  C
ATOM     30 O33  CHE L   1       1.668  -1.714   1.476  1.00  0.00    -0.3870 OA
ATOM     31 H40  CHE L   1       2.216  -1.406  -0.877  1.00  0.00    +0.0556  H
ATOM     32 H41  CHE L   1       1.231   0.203  -2.305  1.00  0.00    +0.0323  H
ATOM     33 H42  CHE L   1       1.522   1.551  -1.203  1.00  0.00    +0.0323  H
ATOM     34 H43  CHE L   1      -0.382  -0.813  -0.729  1.00  0.00    +0.0761  H
ATOM     35 H55  CHE L   1       0.507   1.362   1.254  1.00  0.00    +0.0657  H
ATOM     36 H56  CHE L   1      -0.112  -1.221   2.019  1.00  0.00    +0.2101 HD
ATOM     37 H57  CHE L   1       2.479   0.167   1.675  1.00  0.00    +0.0641  H
ATOM     38 H58  CHE L   1       2.574  -2.094   1.519  1.00  0.00    +0.2100 HD
BRANCH 24 48
ATOM     39  C1  CHE L   1       8.469  -0.537  -0.560  1.00  0.00    -0.0216  C
ATOM     40  C2  CHE L   1       7.083  -1.048  -0.319  1.00  0.00    +0.0506  A
ATOM     41  N3  CHE L   1       6.945  -2.328   0.127  1.00  0.00    -0.2399 NA
ATOM     42  C4  CHE L   1       5.706  -2.804   0.351  1.00  0.00    +0.1185  A
ATOM     43  N5  CHE L   1       4.533  -2.169   0.190  1.00  0.00    -0.2177 NA
ATOM     44  C6  CHE L   1       4.711  -0.918  -0.278  1.00  0.00    +0.1445  A
ATOM     45  C7  CHE L   1       5.921  -0.292  -0.536  1.00  0.00    +0.0399  A
ATOM     46  C8  CHE L   1       5.619   1.026  -0.970  1.00  0.00    -0.0331  A
ATOM     47  C9  CHE L   1       4.245   1.161  -0.972  1.00  0.00    +0.0076  A
ATOM     48 N10  CHE L   1       3.700  -0.035  -0.591  1.00  0.00    -0.3261  N
ATOM     49 H34  CHE L   1       8.654   0.353   0.046  1.00  0.00    +0.0293  H
ATOM     50 H35  CHE L   1       9.216  -1.290  -0.295  1.00  0.00    +0.0293  H
ATOM     51 H36  CHE L   1       8.598  -0.281  -1.615  1.00  0.00    +0.0293  H
ATOM     52 H37  CHE L   1       5.653  -3.829   0.707  1.00  0.00    +0.1047  H
ATOM     53 H38  CHE L   1       6.323   1.799  -1.247  1.00  0.00    +0.0640  H
ATOM     54 H39  CHE L   1       3.643   2.022  -1.224  1.00  0.00    +0.0810  H
ENDBRANCH 24 48
ENDBRANCH 23 26
ENDBRANCH 1 23
BRANCH 3 55
ATOM     55 C18  CHE L   1      -4.300  -1.474  -3.216  1.00  0.00    +0.2672  C
ATOM     56 F19  CHE L   1      -3.331  -2.396  -3.500  1.00  0.00    -0.2038  F
ATOM     57 F20  CHE L   1      -4.508  -0.791  -4.382  1.00  0.00    -0.2038  F
ATOM     58 H45  CHE L   1      -5.214  -2.036  -2.988  1.00  0.00    +0.1072  H
ENDBRANCH 3 55
TORSDOF 4
