ROOT
ATOM      1 C15  CHE L   1       2.255   0.321   0.984  1.00  0.00    +0.0671  A
ATOM      2 C16  CHE L   1       1.441   0.514  -0.135  1.00  0.00    +0.0293  A
ATOM      3 C17  CHE L   1       1.578   1.539  -1.214  1.00  0.00    -0.0235  C
ATOM      4 N18  CHE L   1       0.417  -0.424  -0.077  1.00  0.00    -0.3403  N
ATOM      5 C34  CHE L   1       0.556  -1.200   1.072  1.00  0.00    +0.0503  A
ATOM      6 C35  CHE L   1      -0.219  -2.262   1.582  1.00  0.00    -0.0376  A
ATOM      7 C36  CHE L   1       0.154  -2.848   2.795  1.00  0.00    -0.0598  A
ATOM      8 C37  CHE L   1       1.266  -2.395   3.490  1.00  0.00    -0.0611  A
ATOM      9 C38  CHE L   1       2.032  -1.344   2.981  1.00  0.00    -0.0518  A
ATOM     10 C39  CHE L   1       1.677  -0.732   1.757  1.00  0.00    +0.0125  A
ATOM     11 H51  CHE L   1       2.062   1.101  -2.093  1.00  0.00    +0.0292  H
ATOM     12 H52  CHE L   1       0.622   1.965  -1.514  1.00  0.00    +0.0292  H
ATOM     13 H53  CHE L   1       2.188   2.383  -0.884  1.00  0.00    +0.0292  H
ATOM     14 H79  CHE L   1      -1.101  -2.628   1.067  1.00  0.00    +0.0638  H
ATOM     15 H80  CHE L   1      -0.437  -3.666   3.199  1.00  0.00    +0.0618  H
ATOM     16 H81  CHE L   1       1.545  -2.855   4.433  1.00  0.00    +0.0618  H
ATOM     17 H82  CHE L   1       2.902  -0.992   3.531  1.00  0.00    +0.0624  H
ENDROOT
BRANCH 1 19
ATOM     18 N12  CHE L   1       4.294   1.347   0.287  1.00  0.00    -0.3477  N
ATOM     19 C13  CHE L   1       3.466   1.061   1.348  1.00  0.00    +0.2546  C
ATOM     20 O14  CHE L   1       3.729   1.366   2.505  1.00  0.00    -0.2675 OA
ATOM     21 H50  CHE L   1       4.091   0.904  -0.601  1.00  0.00    +0.1630 HD
BRANCH 18 22
ATOM     22 C11  CHE L   1       5.590   1.976   0.444  1.00  0.00    +0.0499  C
ATOM     23 H48  CHE L   1       5.642   2.797  -0.281  1.00  0.00    +0.0538  H
ATOM     24 H49  CHE L   1       5.659   2.427   1.438  1.00  0.00    +0.0538  H
BRANCH 22 32
ATOM     25  C3  CHE L   1       6.866   0.257  -0.961  1.00  0.00    +0.0192  A
ATOM     26  C4  CHE L   1       7.946  -0.709  -1.067  1.00  0.00    -0.0288  A
ATOM     27  C5  CHE L   1       8.820  -0.875  -0.064  1.00  0.00    +0.0170  A
ATOM     28  C6  CHE L   1       9.949  -1.857  -0.094  1.00  0.00    -0.0243  C
ATOM     29  N7  CHE L   1       8.688  -0.102   1.061  1.00  0.00    -0.3262  N
ATOM     30  C8  CHE L   1       7.711   0.842   1.251  1.00  0.00    +0.2548  A
ATOM     31  O9  CHE L   1       7.718   1.547   2.252  1.00  0.00    -0.2675 OA
ATOM     32 C10  CHE L   1       6.686   0.984   0.166  1.00  0.00    +0.0493  A
ATOM     33 H43  CHE L   1       8.021  -1.313  -1.967  1.00  0.00    +0.0646  H
ATOM     34 H44  CHE L   1       9.976  -2.418  -1.034  1.00  0.00    +0.0292  H
ATOM     35 H45  CHE L   1       9.849  -2.580   0.723  1.00  0.00    +0.0292  H
ATOM     36 H46  CHE L   1      10.909  -1.340   0.014  1.00  0.00    +0.0292  H
ATOM     37 H47  CHE L   1       9.352  -0.188   1.821  1.00  0.00    +0.1686 HD
BRANCH 25 39
ATOM     38  C1  CHE L   1       6.809   1.537  -3.355  1.00  0.00    -0.0134  C
ATOM     39  S2  CHE L   1       5.820   0.397  -2.354  1.00  0.00    -0.1280 SA
ATOM     40 H40  CHE L   1       6.273   1.755  -4.282  1.00  0.00    +0.0344  H
ATOM     41 H41  CHE L   1       6.973   2.476  -2.818  1.00  0.00    +0.0344  H
ATOM     42 H42  CHE L   1       7.775   1.092  -3.609  1.00  0.00    +0.0344  H
ENDBRANCH 25 39
ENDBRANCH 22 32
ENDBRANCH 18 22
ENDBRANCH 1 19
BRANCH 4 43
ATOM     43 C19  CHE L   1      -0.674  -0.622  -1.048  1.00  0.00    +0.0348  C
ATOM     44 C20  CHE L   1      -0.131  -0.860  -2.466  1.00  0.00    -0.0440  C
ATOM     45 H54  CHE L   1      -1.145  -1.573  -0.773  1.00  0.00    +0.0528  H
ATOM     46 H55  CHE L   1       0.118   0.076  -2.974  1.00  0.00    +0.0250  H
ATOM     47 H56  CHE L   1       0.765  -1.491  -2.449  1.00  0.00    +0.0250  H
ATOM     48 H57  CHE L   1      -0.875  -1.372  -3.086  1.00  0.00    +0.0250  H
BRANCH 43 49
ATOM     49 C21  CHE L   1      -1.796   0.465  -0.987  1.00  0.00    -0.0203  C
ATOM     50 C22  CHE L   1      -2.378   0.684   0.428  1.00  0.00    -0.0469  C
ATOM     51 C23  CHE L   1      -3.618  -0.169   0.664  1.00  0.00    -0.0370  C
ATOM     52 C24  CHE L   1      -4.793   0.260  -0.253  1.00  0.00    +0.0105  C
ATOM     53 C32  CHE L   1      -4.246   0.797  -1.601  1.00  0.00    -0.0370  C
ATOM     54 C33  CHE L   1      -2.924   0.147  -1.998  1.00  0.00    -0.0469  C
ATOM     55 H58  CHE L   1      -1.363   1.425  -1.284  1.00  0.00    +0.0321  H
ATOM     56 H59  CHE L   1      -2.654   1.741   0.538  1.00  0.00    +0.0269  H
ATOM     57 H60  CHE L   1      -1.641   0.499   1.213  1.00  0.00    +0.0269  H
ATOM     58 H61  CHE L   1      -3.916  -0.082   1.715  1.00  0.00    +0.0280  H
ATOM     59 H62  CHE L   1      -3.362  -1.224   0.502  1.00  0.00    +0.0280  H
ATOM     60 H63  CHE L   1      -5.325   1.089   0.237  1.00  0.00    +0.0462  H
ATOM     61 H75  CHE L   1      -4.969   0.663  -2.413  1.00  0.00    +0.0280  H
ATOM     62 H76  CHE L   1      -4.100   1.882  -1.517  1.00  0.00    +0.0280  H
ATOM     63 H77  CHE L   1      -2.629   0.504  -2.992  1.00  0.00    +0.0269  H
ATOM     64 H78  CHE L   1      -3.074  -0.936  -2.084  1.00  0.00    +0.0269  H
BRANCH 52 65
ATOM     65 N25  CHE L   1      -5.707  -0.887  -0.467  1.00  0.00    -0.2964 NA
ATOM     66 C26  CHE L   1      -6.392  -1.267   0.787  1.00  0.00    +0.0160  C
ATOM     67 C27  CHE L   1      -7.745  -0.740   0.260  1.00  0.00    +0.0353  C
ATOM     68 C31  CHE L   1      -6.989  -0.433  -1.050  1.00  0.00    +0.0160  C
ATOM     69 H64  CHE L   1      -6.011  -0.820   1.711  1.00  0.00    +0.0442  H
ATOM     70 H65  CHE L   1      -6.396  -2.354   0.943  1.00  0.00    +0.0442  H
ATOM     71 H66  CHE L   1      -8.531  -1.499   0.172  1.00  0.00    +0.0487  H
ATOM     72 H73  CHE L   1      -7.313  -1.069  -1.885  1.00  0.00    +0.0442  H
ATOM     73 H74  CHE L   1      -7.021   0.601  -1.412  1.00  0.00    +0.0442  H
BRANCH 67 74
ATOM     74 N28  CHE L   1      -8.135   0.516   0.957  1.00  0.00    -0.3030 NA
ATOM     75 C29  CHE L   1      -8.576   0.198   2.323  1.00  0.00    -0.0127  C
ATOM     76 C30  CHE L   1      -9.261   1.135   0.242  1.00  0.00    -0.0127  C
ATOM     77 H67  CHE L   1      -9.417  -0.506   2.336  1.00  0.00    +0.0391  H
ATOM     78 H68  CHE L   1      -7.764  -0.232   2.918  1.00  0.00    +0.0391  H
ATOM     79 H69  CHE L   1      -8.883   1.112   2.845  1.00  0.00    +0.0391  H
ATOM     80 H70  CHE L   1      -9.577   2.052   0.753  1.00  0.00    +0.0391  H
ATOM     81 H71  CHE L   1      -8.977   1.437  -0.770  1.00  0.00    +0.0391  H
ATOM     82 H72  CHE L   1     -10.126   0.465   0.168  1.00  0.00    +0.0391  H
ENDBRANCH 67 74
ENDBRANCH 52 65
ENDBRANCH 43 49
ENDBRANCH 4 43
TORSDOF 8
