ROOT
ATOM      1 C10  CHE L   1       0.813  -1.006   0.054  1.00  0.00    -0.0207  A
ATOM      2 C11  CHE L   1       1.371  -2.037   0.783  1.00  0.00    +0.0060  A
ATOM      3 N12  CHE L   1       2.716  -1.808   0.892  1.00  0.00    -0.3604  N
ATOM      4 C13  CHE L   1       3.053  -0.640   0.250  1.00  0.00    +0.0467  A
ATOM      5 C14  CHE L   1       4.299  -0.016   0.106  1.00  0.00    -0.0378  A
ATOM      6 C15  CHE L   1       4.343   1.184  -0.610  1.00  0.00    -0.0598  A
ATOM      7 C16  CHE L   1       3.188   1.735  -1.159  1.00  0.00    -0.0611  A
ATOM      8 C17  CHE L   1       1.951   1.098  -1.007  1.00  0.00    -0.0523  A
ATOM      9 C18  CHE L   1       1.879  -0.114  -0.289  1.00  0.00    +0.0029  A
ATOM     10 H25  CHE L   1       0.925  -2.915   1.232  1.00  0.00    +0.0810  H
ATOM     11 H26  CHE L   1       3.373  -2.406   1.373  1.00  0.00    +0.1653 HD
ATOM     12 H27  CHE L   1       5.201  -0.442   0.533  1.00  0.00    +0.0638  H
ATOM     13 H28  CHE L   1       5.295   1.694  -0.740  1.00  0.00    +0.0618  H
ATOM     14 H29  CHE L   1       3.244   2.669  -1.713  1.00  0.00    +0.0618  H
ATOM     15 H30  CHE L   1       1.057   1.538  -1.440  1.00  0.00    +0.0624  H
ENDROOT
BRANCH 1 16
ATOM     16  C9  CHE L   1      -0.630  -0.849  -0.304  1.00  0.00    -0.0074  C
ATOM     17 H23  CHE L   1      -1.124  -1.829  -0.286  1.00  0.00    +0.0331  H
ATOM     18 H24  CHE L   1      -0.710  -0.491  -1.338  1.00  0.00    +0.0331  H
BRANCH 16 19
ATOM     19  C8  CHE L   1      -1.358   0.111   0.641  1.00  0.00    +0.0336  C
ATOM     20 H21  CHE L   1      -1.335  -0.280   1.665  1.00  0.00    +0.0497  H
ATOM     21 H22  CHE L   1      -0.866   1.091   0.641  1.00  0.00    +0.0497  H
BRANCH 19 28
ATOM     22  O1  CHE L   1      -2.511   2.008  -1.308  1.00  0.00    -0.2676 OA
ATOM     23  C2  CHE L   1      -3.162   1.197  -0.676  1.00  0.00    +0.2542  C
ATOM     24  C3  CHE L   1      -4.609   1.009  -0.831  1.00  0.00    +0.0082  C
ATOM     25  C4  CHE L   1      -4.972  -0.007  -0.047  1.00  0.00    +0.0082  C
ATOM     26  C5  CHE L   1      -3.768  -0.498   0.634  1.00  0.00    +0.2542  C
ATOM     27  O6  CHE L   1      -3.755  -1.463   1.375  1.00  0.00    -0.2676 OA
ATOM     28  N7  CHE L   1      -2.742   0.300   0.250  1.00  0.00    -0.2755  N
ATOM     29 H19  CHE L   1      -5.218   1.605  -1.487  1.00  0.00    +0.0673  H
ATOM     30 H20  CHE L   1      -5.948  -0.437   0.090  1.00  0.00    +0.0673  H
ENDBRANCH 19 28
ENDBRANCH 16 19
ENDBRANCH 1 16
TORSDOF 3
