ROOT
ATOM      1  C6  CHE L   1       2.664   0.826   0.185  1.00  0.00    -0.0151  A
ATOM      2  C7  CHE L   1       1.314   0.857   0.566  1.00  0.00    -0.0410  A
ATOM      3  C8  CHE L   1       0.461   1.891   0.143  1.00  0.00    +0.0486  A
ATOM      4 C22  CHE L   1       0.948   2.948  -0.639  1.00  0.00    +0.0109  A
ATOM      5 C23  CHE L   1       0.152   4.115  -1.046  1.00  0.00    -0.0468  A
ATOM      6 C24  CHE L   1       0.684   5.072  -1.818  1.00  0.00    +0.0034  A
ATOM      7 C25  CHE L   1       2.090   4.998  -2.275  1.00  0.00    +0.2492  A
ATOM      8 O26  CHE L   1       2.564   5.865  -2.999  1.00  0.00    -0.2679 OA
ATOM      9 N27  CHE L   1       2.818   3.926  -1.840  1.00  0.00    -0.3221  N
ATOM     10 C28  CHE L   1       2.297   2.907  -1.028  1.00  0.00    +0.0505  A
ATOM     11 C29  CHE L   1       3.141   1.864  -0.629  1.00  0.00    -0.0300  A
ATOM     12 H38  CHE L   1       0.910   0.073   1.208  1.00  0.00    +0.0631  H
ATOM     13 H50  CHE L   1      -0.868   4.217  -0.691  1.00  0.00    +0.0626  H
ATOM     14 H51  CHE L   1       0.126   5.948  -2.124  1.00  0.00    +0.0672  H
ATOM     15 H52  CHE L   1       3.783   3.902  -2.142  1.00  0.00    +0.1689 HD
ATOM     16 H53  CHE L   1       4.179   1.857  -0.954  1.00  0.00    +0.0644  H
ENDROOT
BRANCH 1 19
ATOM     17  C3  CHE L   1       4.037  -2.659   0.806  1.00  0.00    +0.1557  A
ATOM     18  C4  CHE L   1       3.200  -1.615   0.397  1.00  0.00    -0.0094  A
ATOM     19  C5  CHE L   1       3.550  -0.267   0.621  1.00  0.00    -0.0142  A
ATOM     20 C30  CHE L   1       4.765   0.010   1.271  1.00  0.00    -0.0511  A
ATOM     21 C31  CHE L   1       5.606  -1.025   1.681  1.00  0.00    -0.0222  A
ATOM     22 C32  CHE L   1       5.238  -2.344   1.446  1.00  0.00    +0.1648  A
ATOM     23 F33  CHE L   1       6.064  -3.321   1.850  1.00  0.00    -0.2017  F
ATOM     24 H37  CHE L   1       2.266  -1.826  -0.115  1.00  0.00    +0.0661  H
ATOM     25 H54  CHE L   1       5.060   1.038   1.475  1.00  0.00    +0.0625  H
ATOM     26 H55  CHE L   1       6.543  -0.813   2.186  1.00  0.00    +0.0647  H
BRANCH 17 28
ATOM     27  C1  CHE L   1       2.552  -4.357   0.034  1.00  0.00    +0.0789  C
ATOM     28  O2  CHE L   1       3.789  -3.994   0.632  1.00  0.00    -0.4922 OA
ATOM     29 H34  CHE L   1       1.705  -4.008   0.633  1.00  0.00    +0.0660  H
ATOM     30 H35  CHE L   1       2.489  -3.986  -0.995  1.00  0.00    +0.0660  H
ATOM     31 H36  CHE L   1       2.506  -5.450  -0.004  1.00  0.00    +0.0660  H
ENDBRANCH 17 28
ENDBRANCH 1 19
BRANCH 3 32
ATOM     32  C9  CHE L   1      -0.953   1.777   0.561  1.00  0.00    +0.2529  C
ATOM     33 O10  CHE L   1      -1.229   1.652   1.746  1.00  0.00    -0.2676 OA
ATOM     34 N11  CHE L   1      -1.867   1.750  -0.468  1.00  0.00    -0.3478  N
ATOM     35 H39  CHE L   1      -1.551   1.818  -1.425  1.00  0.00    +0.1630 HD
BRANCH 34 36
ATOM     36 C12  CHE L   1      -3.289   1.609  -0.224  1.00  0.00    +0.0491  C
ATOM     37 H40  CHE L   1      -3.519   2.234   0.647  1.00  0.00    +0.0538  H
ATOM     38 H41  CHE L   1      -3.812   2.028  -1.091  1.00  0.00    +0.0538  H
BRANCH 36 39
ATOM     39 C13  CHE L   1      -3.729   0.185  -0.001  1.00  0.00    +0.0389  A
ATOM     40 C14  CHE L   1      -3.161  -0.982  -0.390  1.00  0.00    -0.0388  A
ATOM     41 C15  CHE L   1      -1.951  -1.119  -1.271  1.00  0.00    -0.0392  C
ATOM     42 C16  CHE L   1      -3.734  -2.255   0.033  1.00  0.00    -0.0393  A
ATOM     43 C17  CHE L   1      -4.847  -2.307   0.778  1.00  0.00    +0.0162  A
ATOM     44 C18  CHE L   1      -5.478  -3.580   1.249  1.00  0.00    -0.0244  C
ATOM     45 N19  CHE L   1      -5.460  -1.135   1.134  1.00  0.00    -0.3262  N
ATOM     46 C20  CHE L   1      -5.012   0.113   0.788  1.00  0.00    +0.2540  A
ATOM     47 O21  CHE L   1      -5.650   1.117   1.092  1.00  0.00    -0.2675 OA
ATOM     48 H42  CHE L   1      -1.042  -1.190  -0.667  1.00  0.00    +0.0278  H
ATOM     49 H43  CHE L   1      -1.855  -0.289  -1.975  1.00  0.00    +0.0278  H
ATOM     50 H44  CHE L   1      -2.012  -2.019  -1.894  1.00  0.00    +0.0278  H
ATOM     51 H45  CHE L   1      -3.230  -3.172  -0.259  1.00  0.00    +0.0637  H
ATOM     52 H46  CHE L   1      -5.517  -3.604   2.344  1.00  0.00    +0.0292  H
ATOM     53 H47  CHE L   1      -4.919  -4.460   0.916  1.00  0.00    +0.0292  H
ATOM     54 H48  CHE L   1      -6.500  -3.666   0.864  1.00  0.00    +0.0292  H
ATOM     55 H49  CHE L   1      -6.313  -1.149   1.680  1.00  0.00    +0.1686 HD
ENDBRANCH 36 39
ENDBRANCH 34 36
ENDBRANCH 3 32
TORSDOF 5
