ROOT
ATOM      1  C3  CHE L   1       0.787   0.393   1.505  1.00  0.00    +0.1619  A
ATOM      2  C4  CHE L   1       2.132   0.218   1.155  1.00  0.00    -0.0102  A
ATOM      3  C5  CHE L   1       2.467  -0.165  -0.144  1.00  0.00    -0.0049  A
ATOM      4  C6  CHE L   1       1.443  -0.381  -1.079  1.00  0.00    +0.0737  A
ATOM      5  C7  CHE L   1       0.108  -0.212  -0.760  1.00  0.00    +0.0095  A
ATOM      6  C8  CHE L   1      -0.220   0.203   0.533  1.00  0.00    +0.1640  A
ATOM      7 N17  CHE L   1       1.935  -0.775  -2.340  1.00  0.00    -0.2337 NA
ATOM      8 C18  CHE L   1       3.233  -0.814  -2.255  1.00  0.00    +0.1119  C
ATOM      9 N19  CHE L   1       4.074  -1.153  -3.267  1.00  0.00    -0.3863  N
ATOM     10 C20  CHE L   1       3.847  -0.428  -0.825  1.00  0.00    +0.0550  C
ATOM     11 C21  CHE L   1       4.942   0.665  -0.765  1.00  0.00    -0.0364  C
ATOM     12 C22  CHE L   1       5.990  -0.448  -0.586  1.00  0.00    -0.0507  C
ATOM     13 C23  CHE L   1       4.856  -1.397  -0.162  1.00  0.00    -0.0364  C
ATOM     14 H27  CHE L   1       2.933   0.380   1.863  1.00  0.00    +0.0659  H
ATOM     15 H28  CHE L   1      -0.649  -0.415  -1.507  1.00  0.00    +0.0677  H
ATOM     16 H41  CHE L   1       4.966  -1.560  -3.034  1.00  0.00    +0.1570 HD
ATOM     17 H42  CHE L   1       3.605  -1.577  -4.064  1.00  0.00    +0.1570 HD
ATOM     18 H43  CHE L   1       5.065   1.272  -1.663  1.00  0.00    +0.0278  H
ATOM     19 H44  CHE L   1       4.864   1.335   0.099  1.00  0.00    +0.0278  H
ATOM     20 H45  CHE L   1       6.748  -0.262   0.177  1.00  0.00    +0.0266  H
ATOM     21 H46  CHE L   1       6.489  -0.737  -1.516  1.00  0.00    +0.0266  H
ATOM     22 H47  CHE L   1       4.745  -1.489   0.924  1.00  0.00    +0.0278  H
ATOM     23 H48  CHE L   1       4.912  -2.402  -0.589  1.00  0.00    +0.0278  H
ENDROOT
BRANCH 1 25
ATOM     24  C1  CHE L   1       1.310   0.749   3.804  1.00  0.00    +0.0790  C
ATOM     25  O2  CHE L   1       0.355   0.770   2.750  1.00  0.00    -0.4914 OA
ATOM     26 H24  CHE L   1       0.780   0.952   4.739  1.00  0.00    +0.0660  H
ATOM     27 H25  CHE L   1       1.781  -0.236   3.898  1.00  0.00    +0.0660  H
ATOM     28 H26  CHE L   1       2.061   1.535   3.667  1.00  0.00    +0.0660  H
ENDBRANCH 1 25
BRANCH 6 29
ATOM     29  O9  CHE L   1      -1.521   0.362   0.936  1.00  0.00    -0.4867 OA
BRANCH 29 30
ATOM     30 C10  CHE L   1      -2.349   1.132   0.053  1.00  0.00    +0.1052  C
ATOM     31 H29  CHE L   1      -1.783   1.567  -0.780  1.00  0.00    +0.0712  H
ATOM     32 H30  CHE L   1      -2.733   1.979   0.630  1.00  0.00    +0.0712  H
BRANCH 30 33
ATOM     33 C11  CHE L   1      -3.519   0.289  -0.474  1.00  0.00    +0.0442  C
ATOM     34 C12  CHE L   1      -4.255   1.011  -1.617  1.00  0.00    -0.0330  C
ATOM     35 C13  CHE L   1      -5.710   1.110  -1.165  1.00  0.00    -0.0387  C
ATOM     36 C14  CHE L   1      -5.838  -0.035  -0.182  1.00  0.00    -0.0010  C
ATOM     37 N15  CHE L   1      -4.573   0.065   0.542  1.00  0.00    -0.2992 NA
ATOM     38 C16  CHE L   1      -4.333  -1.125   1.359  1.00  0.00    -0.0124  C
ATOM     39 H31  CHE L   1      -3.145  -0.665  -0.855  1.00  0.00    +0.0496  H
ATOM     40 H32  CHE L   1      -3.854   2.004  -1.861  1.00  0.00    +0.0282  H
ATOM     41 H33  CHE L   1      -4.191   0.391  -2.524  1.00  0.00    +0.0282  H
ATOM     42 H34  CHE L   1      -6.418   1.027  -1.994  1.00  0.00    +0.0278  H
ATOM     43 H35  CHE L   1      -5.879   2.066  -0.657  1.00  0.00    +0.0278  H
ATOM     44 H36  CHE L   1      -5.931  -0.986  -0.720  1.00  0.00    +0.0427  H
ATOM     45 H37  CHE L   1      -6.695   0.109   0.479  1.00  0.00    +0.0427  H
ATOM     46 H38  CHE L   1      -5.130  -1.245   2.099  1.00  0.00    +0.0391  H
ATOM     47 H39  CHE L   1      -4.302  -2.037   0.755  1.00  0.00    +0.0391  H
ATOM     48 H40  CHE L   1      -3.397  -1.039   1.922  1.00  0.00    +0.0391  H
ENDBRANCH 30 33
ENDBRANCH 29 30
ENDBRANCH 6 29
TORSDOF 4
