ROOT
ATOM      1 C15  WH0 L   1      -2.897  -0.979  -1.390  1.00  0.00    -0.0133  A
ATOM      2 C16  WH0 L   1      -2.616  -1.549  -2.653  1.00  0.00    -0.0519  A
ATOM      3 C17  WH0 L   1      -3.483  -2.499  -3.217  1.00  0.00    -0.0374  A
ATOM      4 C18  WH0 L   1      -4.621  -2.861  -2.502  1.00  0.00    +0.0454  A
ATOM      5 C19  WH0 L   1      -4.904  -2.313  -1.269  1.00  0.00    -0.0145  A
ATOM      6 C20  WH0 L   1      -4.058  -1.369  -0.688  1.00  0.00    -0.0483  A
ATOM      7 C21  WH0 L   1      -6.177  -2.875  -0.721  1.00  0.00    +0.0535  C
ATOM      8 C22  WH0 L   1      -6.548  -3.802  -1.841  1.00  0.00    +0.2296  C
ATOM      9 O23  WH0 L   1      -7.587  -4.513  -1.855  1.00  0.00    -0.2725 OA
ATOM     10 N24  WH0 L   1      -5.606  -3.793  -2.908  1.00  0.00    -0.3256  N
ATOM     11 H54  WH0 L   1      -1.736  -1.247  -3.208  1.00  0.00    +0.0624  H
ATOM     12 H55  WH0 L   1      -3.272  -2.936  -4.184  1.00  0.00    +0.0638  H
ATOM     13 H56  WH0 L   1      -4.294  -0.952   0.283  1.00  0.00    +0.0627  H
ATOM     14 H57  WH0 L   1      -6.940  -2.076  -0.596  1.00  0.00    +0.0410  H
ATOM     15 H58  WH0 L   1      -5.993  -3.438   0.220  1.00  0.00    +0.0410  H
ATOM     16 H59  WH0 L   1      -5.641  -4.342  -3.796  1.00  0.00    +0.1686 HD
ENDROOT
BRANCH 1 20
ATOM     17 C11  WH0 L   1       1.605  -0.976  -0.654  1.00  0.00    +0.0472  A
ATOM     18 C12  WH0 L   1       0.246  -1.139  -0.973  1.00  0.00    -0.0141  A
ATOM     19 C13  WH0 L   1      -0.614  -0.097  -0.629  1.00  0.00    +0.0806  A
ATOM     20 C14  WH0 L   1      -1.980   0.023  -0.811  1.00  0.00    +0.0353  A
ATOM     21 C25  WH0 L   1      -2.287   1.255  -0.222  1.00  0.00    +0.1015  A
ATOM     22 N33  WH0 L   1      -1.160   1.817   0.272  1.00  0.00    -0.1627 NA
ATOM     23 N34  WH0 L   1      -0.162   0.987   0.021  1.00  0.00    -0.1987  N
ATOM     24 C35  WH0 L   1       1.153   1.144   0.350  1.00  0.00    +0.2285  A
ATOM     25 N43  WH0 L   1       2.021   0.151  -0.001  1.00  0.00    -0.2173 NA
ATOM     26 H53  WH0 L   1      -0.114  -2.034  -1.463  1.00  0.00    +0.0657  H
BRANCH 17 27
ATOM     27 C10  WH0 L   1       2.597  -2.060  -0.952  1.00  0.00    -0.0086  C
ATOM     28 H51  WH0 L   1       3.583  -1.595  -1.170  1.00  0.00    +0.0329  H
ATOM     29 H52  WH0 L   1       2.282  -2.626  -1.855  1.00  0.00    +0.0329  H
BRANCH 27 30
ATOM     30  C9  WH0 L   1       2.717  -3.011   0.245  1.00  0.00    -0.0301  C
ATOM     31 H49  WH0 L   1       1.740  -3.515   0.408  1.00  0.00    +0.0286  H
ATOM     32 H50  WH0 L   1       2.958  -2.431   1.161  1.00  0.00    +0.0286  H
BRANCH 30 33
ATOM     33  C8  WH0 L   1       3.785  -4.088   0.020  1.00  0.00    +0.0187  C
ATOM     34 H47  WH0 L   1       3.787  -4.798   0.874  1.00  0.00    +0.0486  H
ATOM     35 H48  WH0 L   1       3.536  -4.669  -0.895  1.00  0.00    +0.0486  H
BRANCH 33 38
ATOM     36  C5  WH0 L   1       5.842  -2.946   0.982  1.00  0.00    +0.2618  C
ATOM     37  O6  WH0 L   1       5.341  -2.991   2.140  1.00  0.00    -0.2669 OA
ATOM     38  N7  WH0 L   1       5.113  -3.493  -0.131  1.00  0.00    -0.3514  N
ATOM     39 H46  WH0 L   1       5.505  -3.432  -1.095  1.00  0.00    +0.1626 HD
BRANCH 36 41
ATOM     40  C1  WH0 L   1       7.978  -2.610  -0.210  1.00  0.00    -0.0760  C
ATOM     41  C2  WH0 L   1       7.163  -2.300   0.801  1.00  0.00    +0.1085  C
ATOM     42 H44  WH0 L   1       8.942  -2.124  -0.315  1.00  0.00    +0.0549  H
ATOM     43 H45  WH0 L   1       7.726  -3.371  -0.935  1.00  0.00    +0.0549  H
BRANCH 41 44
ATOM     44  C3  WH0 L   1       7.608  -1.335   1.776  1.00  0.00    +0.1040  C
ATOM     45  N4  WH0 L   1       7.969  -0.562   2.560  1.00  0.00    -0.1907 NA
ENDBRANCH 41 44
ENDBRANCH 36 41
ENDBRANCH 33 38
ENDBRANCH 30 33
ENDBRANCH 27 30
ENDBRANCH 17 27
BRANCH 21 46
ATOM     46 C26  WH0 L   1      -3.609   1.911  -0.128  1.00  0.00    +0.0029  A
ATOM     47 C27  WH0 L   1      -4.554   1.803  -1.166  1.00  0.00    -0.0498  A
ATOM     48 C28  WH0 L   1      -5.795   2.441  -1.059  1.00  0.00    -0.0258  A
ATOM     49 C29  WH0 L   1      -6.099   3.204   0.073  1.00  0.00    +0.1234  A
ATOM     50 F30  WH0 L   1      -7.302   3.823   0.174  1.00  0.00    -0.2055  F
ATOM     51 C31  WH0 L   1      -5.158   3.333   1.099  1.00  0.00    -0.0258  A
ATOM     52 C32  WH0 L   1      -3.917   2.694   0.998  1.00  0.00    -0.0498  A
ATOM     53 H60  WH0 L   1      -4.327   1.246  -2.066  1.00  0.00    +0.0625  H
ATOM     54 H61  WH0 L   1      -6.517   2.353  -1.860  1.00  0.00    +0.0646  H
ATOM     55 H62  WH0 L   1      -5.389   3.929   1.972  1.00  0.00    +0.0646  H
ATOM     56 H63  WH0 L   1      -3.204   2.800   1.807  1.00  0.00    +0.0625  H
ENDBRANCH 21 46
BRANCH 24 57
ATOM     57 N36  WH0 L   1       1.643   2.311   1.049  1.00  0.00    -0.3401  N
ATOM     58 C37  WH0 L   1       0.782   3.041   1.997  1.00  0.00    +0.0237  C
ATOM     59 C38  WH0 L   1       1.612   3.834   3.015  1.00  0.00    -0.0090  C
ATOM     60 C39  WH0 L   1       2.637   4.769   2.334  1.00  0.00    +0.0585  C
ATOM     61 O40  WH0 L   1       2.075   6.038   2.094  1.00  0.00    -0.3917 OA
ATOM     62 C41  WH0 L   1       3.238   4.185   1.030  1.00  0.00    -0.0090  C
ATOM     63 C42  WH0 L   1       3.067   2.666   0.941  1.00  0.00    +0.0237  C
ATOM     64 H64  WH0 L   1       0.147   2.322   2.561  1.00  0.00    +0.0489  H
ATOM     65 H65  WH0 L   1       0.124   3.738   1.437  1.00  0.00    +0.0489  H
ATOM     66 H66  WH0 L   1       2.156   3.112   3.664  1.00  0.00    +0.0307  H
ATOM     67 H67  WH0 L   1       0.935   4.419   3.677  1.00  0.00    +0.0307  H
ATOM     68 H68  WH0 L   1       3.469   4.915   3.060  1.00  0.00    +0.0594  H
ATOM     69 H69  WH0 L   1       1.293   5.913   1.491  1.00  0.00    +0.2098 HD
ATOM     70 H70  WH0 L   1       2.746   4.637   0.139  1.00  0.00    +0.0307  H
ATOM     71 H71  WH0 L   1       4.318   4.438   0.970  1.00  0.00    +0.0307  H
ATOM     72 H72  WH0 L   1       3.482   2.326  -0.035  1.00  0.00    +0.0489  H
ATOM     73 H73  WH0 L   1       3.638   2.169   1.757  1.00  0.00    +0.0489  H
ENDBRANCH 24 57
ENDBRANCH 1 20
TORSDOF 9
