ROOT
ATOM      1  C1  SEL L   1      -3.057  -2.806   3.104  1.00  0.00    -0.0471  C
ATOM      2  C2  SEL L   1      -1.942  -3.075   2.093  1.00  0.00    +0.0711  C
ATOM      3  C3  SEL L   1      -1.823  -4.566   1.773  1.00  0.00    -0.0471  C
ATOM      4  C4  SEL L   1      -0.600  -2.560   2.654  1.00  0.00    +0.2434  C
ATOM      5  O5  SEL L   1      -0.100  -2.982   3.688  1.00  0.00    -0.2713 OA
ATOM      6  N6  SEL L   1      -0.115  -1.572   1.777  1.00  0.00    -0.2627  N
ATOM      7 C19  SEL L   1      -1.015  -1.386   0.699  1.00  0.00    +0.0559  A
ATOM      8 C20  SEL L   1      -0.971  -0.533  -0.393  1.00  0.00    -0.0296  A
ATOM      9 C21  SEL L   1      -2.009  -0.530  -1.348  1.00  0.00    -0.0145  A
ATOM     10 C28  SEL L   1      -3.091  -1.415  -1.168  1.00  0.00    -0.0536  A
ATOM     11 C29  SEL L   1      -3.145  -2.278  -0.073  1.00  0.00    -0.0550  A
ATOM     12 C30  SEL L   1      -2.104  -2.249   0.846  1.00  0.00    -0.0087  A
ATOM     13 H31  SEL L   1      -4.035  -3.106   2.713  1.00  0.00    +0.0243  H
ATOM     14 H32  SEL L   1      -3.115  -1.742   3.363  1.00  0.00    +0.0243  H
ATOM     15 H33  SEL L   1      -2.886  -3.357   4.036  1.00  0.00    +0.0243  H
ATOM     16 H34  SEL L   1      -2.741  -4.954   1.318  1.00  0.00    +0.0243  H
ATOM     17 H35  SEL L   1      -1.626  -5.150   2.679  1.00  0.00    +0.0243  H
ATOM     18 H36  SEL L   1      -0.998  -4.762   1.076  1.00  0.00    +0.0243  H
ATOM     19 H47  SEL L   1      -0.138   0.139  -0.544  1.00  0.00    +0.0644  H
ATOM     20 H52  SEL L   1      -3.913  -1.425  -1.883  1.00  0.00    +0.0624  H
ATOM     21 H53  SEL L   1      -3.989  -2.951   0.052  1.00  0.00    +0.0621  H
ENDROOT
BRANCH 6 22
ATOM     22  C7  SEL L   1       1.106  -0.852   1.938  1.00  0.00    +0.1610  A
ATOM     23  C8  SEL L   1       1.945  -1.066   3.035  1.00  0.00    +0.0706  A
ATOM     24  N9  SEL L   1       3.120  -0.415   3.234  1.00  0.00    -0.2560 NA
ATOM     25 C10  SEL L   1       3.443   0.479   2.277  1.00  0.00    +0.0698  A
ATOM     26 C11  SEL L   1       2.641   0.756   1.169  1.00  0.00    +0.1503  A
ATOM     27 N18  SEL L   1       1.481   0.071   1.010  1.00  0.00    -0.2093 NA
ATOM     28 H37  SEL L   1       1.726  -1.775   3.822  1.00  0.00    +0.0867  H
ATOM     29 H38  SEL L   1       4.401   0.967   2.415  1.00  0.00    +0.0867  H
BRANCH 26 30
ATOM     30 N12  SEL L   1       3.049   1.699   0.203  1.00  0.00    -0.3503  N
ATOM     31 C13  SEL L   1       3.267   3.053   0.761  1.00  0.00    +0.0435  C
ATOM     32 C14  SEL L   1       3.786   3.996  -0.339  1.00  0.00    +0.0653  C
ATOM     33 O15  SEL L   1       2.900   4.032  -1.469  1.00  0.00    -0.3763 OA
ATOM     34 C16  SEL L   1       2.763   2.715  -2.028  1.00  0.00    +0.0653  C
ATOM     35 C17  SEL L   1       2.187   1.733  -0.997  1.00  0.00    +0.0435  C
ATOM     36 H39  SEL L   1       2.317   3.442   1.151  1.00  0.00    +0.0511  H
ATOM     37 H40  SEL L   1       3.999   3.045   1.576  1.00  0.00    +0.0511  H
ATOM     38 H41  SEL L   1       4.783   3.690  -0.679  1.00  0.00    +0.0577  H
ATOM     39 H42  SEL L   1       3.866   5.015   0.053  1.00  0.00    +0.0577  H
ATOM     40 H43  SEL L   1       2.089   2.789  -2.888  1.00  0.00    +0.0577  H
ATOM     41 H44  SEL L   1       3.740   2.379  -2.394  1.00  0.00    +0.0577  H
ATOM     42 H45  SEL L   1       1.181   2.073  -0.720  1.00  0.00    +0.0511  H
ATOM     43 H46  SEL L   1       2.122   0.741  -1.459  1.00  0.00    +0.0511  H
ENDBRANCH 26 30
ENDBRANCH 6 22
BRANCH 9 44
ATOM     44 C22  SEL L   1      -1.953   0.379  -2.503  1.00  0.00    +0.0003  A
ATOM     45 C23  SEL L   1      -1.721   1.753  -2.351  1.00  0.00    -0.0512  A
ATOM     46 C24  SEL L   1      -1.659   2.585  -3.467  1.00  0.00    -0.0430  A
ATOM     47 C25  SEL L   1      -1.835   2.020  -4.718  1.00  0.00    +0.0276  A
ATOM     48 N26  SEL L   1      -2.061   0.705  -4.918  1.00  0.00    -0.2627 NA
ATOM     49 C27  SEL L   1      -2.113  -0.078  -3.812  1.00  0.00    +0.0353  A
ATOM     50 H48  SEL L   1      -1.597   2.185  -1.361  1.00  0.00    +0.0625  H
ATOM     51 H49  SEL L   1      -1.482   3.650  -3.361  1.00  0.00    +0.0633  H
ATOM     52 H50  SEL L   1      -1.798   2.626  -5.618  1.00  0.00    +0.0829  H
ATOM     53 H51  SEL L   1      -2.283  -1.131  -4.022  1.00  0.00    +0.0836  H
ENDBRANCH 9 44
TORSDOF 3
