ROOT
ATOM      1  N5  CHE L   1       2.254  -0.791  -1.460  1.00  0.00    -0.3010 NA
ATOM      2  C6  CHE L   1       1.371   0.324  -1.816  1.00  0.00    +0.0013  C
ATOM      3  C7  CHE L   1       0.375   0.682  -0.715  1.00  0.00    -0.0137  C
ATOM      4  C8  CHE L   1      -0.506  -0.518  -0.344  1.00  0.00    +0.0614  C
ATOM      5 C21  CHE L   1       0.221  -1.851  -0.562  1.00  0.00    -0.0137  C
ATOM      6 C22  CHE L   1       1.731  -1.684  -0.426  1.00  0.00    +0.0013  C
ATOM      7 H31  CHE L   1       0.811   0.033  -2.714  1.00  0.00    +0.0427  H
ATOM      8 H32  CHE L   1       1.939   1.216  -2.106  1.00  0.00    +0.0427  H
ATOM      9 H33  CHE L   1       0.930   1.012   0.173  1.00  0.00    +0.0302  H
ATOM     10 H34  CHE L   1      -0.240   1.529  -1.040  1.00  0.00    +0.0302  H
ATOM     11 H35  CHE L   1      -0.781  -0.407   0.712  1.00  0.00    +0.0597  H
ATOM     12 H42  CHE L   1      -0.134  -2.584   0.174  1.00  0.00    +0.0302  H
ATOM     13 H43  CHE L   1      -0.025  -2.270  -1.547  1.00  0.00    +0.0302  H
ATOM     14 H44  CHE L   1       2.209  -2.666  -0.522  1.00  0.00    +0.0427  H
ATOM     15 H45  CHE L   1       1.953  -1.315   0.582  1.00  0.00    +0.0427  H
ENDROOT
BRANCH 1 16
ATOM     16  C4  CHE L   1       3.661  -0.421  -1.259  1.00  0.00    +0.0114  C
ATOM     17 H29  CHE L   1       4.034   0.010  -2.198  1.00  0.00    +0.0439  H
ATOM     18 H30  CHE L   1       4.248  -1.337  -1.112  1.00  0.00    +0.0439  H
BRANCH 16 19
ATOM     19  C3  CHE L   1       3.961   0.564  -0.104  1.00  0.00    +0.0084  C
ATOM     20 H27  CHE L   1       3.630   0.131   0.846  1.00  0.00    +0.0436  H
ATOM     21 H28  CHE L   1       3.411   1.499  -0.261  1.00  0.00    +0.0436  H
BRANCH 19 23
ATOM     22  C1  CHE L   1       5.685   1.796   1.048  1.00  0.00    -0.0157  C
ATOM     23  N2  CHE L   1       5.400   0.852  -0.025  1.00  0.00    -0.3178 NA
ATOM     24 H23  CHE L   1       6.762   1.987   1.089  1.00  0.00    +0.0388  H
ATOM     25 H24  CHE L   1       5.385   1.392   2.021  1.00  0.00    +0.0388  H
ATOM     26 H25  CHE L   1       5.179   2.753   0.886  1.00  0.00    +0.0388  H
ATOM     27 H26  CHE L   1       5.714   1.247  -0.911  1.00  0.00    +0.1217 HD
ENDBRANCH 19 23
ENDBRANCH 16 19
ENDBRANCH 1 16
BRANCH 4 28
ATOM     28  O9  CHE L   1      -1.696  -0.450  -1.143  1.00  0.00    -0.3719 OA
BRANCH 28 29
ATOM     29 C10  CHE L   1      -2.764  -1.284  -0.703  1.00  0.00    +0.0736  C
ATOM     30 H36  CHE L   1      -3.467  -1.402  -1.535  1.00  0.00    +0.0610  H
ATOM     31 H37  CHE L   1      -2.399  -2.291  -0.472  1.00  0.00    +0.0610  H
BRANCH 29 32
ATOM     32 C11  CHE L   1      -3.498  -0.667   0.467  1.00  0.00    -0.0103  A
ATOM     33 C12  CHE L   1      -3.625  -1.417   1.651  1.00  0.00    -0.0559  A
ATOM     34 C13  CHE L   1      -4.282  -0.894   2.765  1.00  0.00    -0.0614  A
ATOM     35 C14  CHE L   1      -4.822   0.385   2.714  1.00  0.00    -0.0612  A
ATOM     36 C15  CHE L   1      -4.710   1.141   1.547  1.00  0.00    -0.0498  A
ATOM     37 C16  CHE L   1      -4.061   0.629   0.406  1.00  0.00    +0.0602  A
ATOM     38 H38  CHE L   1      -3.205  -2.420   1.716  1.00  0.00    +0.0621  H
ATOM     39 H39  CHE L   1      -4.369  -1.486   3.673  1.00  0.00    +0.0618  H
ATOM     40 H40  CHE L   1      -5.331   0.797   3.583  1.00  0.00    +0.0618  H
ATOM     41 H41  CHE L   1      -5.140   2.142   1.528  1.00  0.00    +0.0623  H
BRANCH 37 42
ATOM     42 C17  CHE L   1      -3.967   1.503  -0.830  1.00  0.00    +0.4177  C
ATOM     43 F18  CHE L   1      -2.773   2.146  -0.939  1.00  0.00    -0.1659  F
ATOM     44 F19  CHE L   1      -4.163   0.831  -1.998  1.00  0.00    -0.1659  F
ATOM     45 F20  CHE L   1      -4.908   2.496  -0.837  1.00  0.00    -0.1659  F
ENDBRANCH 37 42
ENDBRANCH 29 32
ENDBRANCH 28 29
ENDBRANCH 4 28
TORSDOF 7
