ROOT
ATOM      1  C8  490 L   1       0.497   1.352   0.755  1.00  0.00    +0.2257  C
ATOM      2  O9  490 L   1      -0.069   2.247   1.437  1.00  0.00    -0.2730 OA
ATOM      3 N10  490 L   1      -0.231   0.184   0.377  1.00  0.00    -0.3340  N
ATOM      4 C11  490 L   1       0.042  -1.084  -0.333  1.00  0.00    +0.0291  C
ATOM      5 C12  490 L   1      -1.337  -1.667  -0.162  1.00  0.00    +0.0075  C
ATOM      6 C13  490 L   1      -1.375  -2.898   0.759  1.00  0.00    -0.0560  C
ATOM      7 C14  490 L   1      -2.076  -1.900  -1.495  1.00  0.00    -0.0560  C
ATOM      8 C15  490 L   1      -1.592  -0.361   0.566  1.00  0.00    +0.0673  C
ATOM      9 H30  490 L   1       0.841  -1.658   0.187  1.00  0.00    +0.0495  H
ATOM     10 H31  490 L   1       0.320  -0.882  -1.391  1.00  0.00    +0.0495  H
ATOM     11 H32  490 L   1      -0.806  -2.722   1.698  1.00  0.00    +0.0236  H
ATOM     12 H33  490 L   1      -2.427  -3.135   1.025  1.00  0.00    +0.0236  H
ATOM     13 H34  490 L   1      -0.930  -3.774   0.240  1.00  0.00    +0.0236  H
ATOM     14 H35  490 L   1      -1.661  -2.795  -2.005  1.00  0.00    +0.0236  H
ATOM     15 H36  490 L   1      -3.156  -2.071  -1.304  1.00  0.00    +0.0236  H
ATOM     16 H37  490 L   1      -1.968  -1.035  -2.184  1.00  0.00    +0.0236  H
ATOM     17 H38  490 L   1      -1.792  -0.498   1.653  1.00  0.00    +0.0582  H
ENDROOT
BRANCH 1 18
ATOM     18  C7  490 L   1       1.940   1.493   0.385  1.00  0.00    +0.0437  C
ATOM     19 H28  490 L   1       2.104   1.042  -0.616  1.00  0.00    +0.0378  H
ATOM     20 H29  490 L   1       2.206   2.571   0.321  1.00  0.00    +0.0378  H
BRANCH 18 21
ATOM     21  C6  490 L   1       2.829   0.809   1.426  1.00  0.00    +0.0268  C
ATOM     22 H26  490 L   1       2.552  -0.262   1.537  1.00  0.00    +0.0491  H
ATOM     23 H27  490 L   1       2.680   1.303   2.411  1.00  0.00    +0.0491  H
BRANCH 21 26
ATOM     24  C3  490 L   1       4.817   0.114   0.008  1.00  0.00    +0.2443  C
ATOM     25  O4  490 L   1       4.113  -0.739  -0.601  1.00  0.00    -0.2683 OA
ATOM     26  N5  490 L   1       4.236   0.916   1.046  1.00  0.00    -0.3520  N
ATOM     27 H25  490 L   1       4.849   1.564   1.591  1.00  0.00    +0.1626 HD
BRANCH 24 29
ATOM     28  C1  490 L   1       6.838  -0.425  -1.289  1.00  0.00    -0.0936  C
ATOM     29  C2  490 L   1       6.239   0.289  -0.338  1.00  0.00    -0.0047  C
ATOM     30 H22  490 L   1       6.302  -1.175  -1.858  1.00  0.00    +0.0536  H
ATOM     31 H23  490 L   1       7.886  -0.261  -1.508  1.00  0.00    +0.0536  H
ATOM     32 H24  490 L   1       6.821   1.027   0.201  1.00  0.00    +0.0666  H
ENDBRANCH 24 29
ENDBRANCH 21 26
ENDBRANCH 18 21
ENDBRANCH 1 18
BRANCH 8 33
ATOM     33 C16  490 L   1      -2.642   0.541  -0.036  1.00  0.00    +0.0130  A
ATOM     34 C17  490 L   1      -2.488   1.496  -1.028  1.00  0.00    +0.0545  A
ATOM     35 N18  490 L   1      -3.694   2.014  -1.333  1.00  0.00    -0.1796 NA
ATOM     36 N19  490 L   1      -4.591   1.421  -0.560  1.00  0.00    -0.2742  N
ATOM     37 C20  490 L   1      -6.025   1.659  -0.652  1.00  0.00    +0.0302  C
ATOM     38 C21  490 L   1      -3.994   0.507   0.226  1.00  0.00    +0.0303  A
ATOM     39 H39  490 L   1      -1.564   1.778  -1.513  1.00  0.00    +0.0851  H
ATOM     40 H40  490 L   1      -6.483   0.906  -1.326  1.00  0.00    +0.0473  H
ATOM     41 H41  490 L   1      -6.217   2.675  -1.056  1.00  0.00    +0.0473  H
ATOM     42 H42  490 L   1      -6.489   1.582   0.354  1.00  0.00    +0.0473  H
ATOM     43 H43  490 L   1      -4.506  -0.148   0.920  1.00  0.00    +0.0829  H
ENDBRANCH 8 33
TORSDOF 5
