ROOT
ATOM      1  C3  CHE L   1      -4.580   1.381  -0.070  1.00  0.00    +0.2468  C
ATOM      2  O4  CHE L   1      -4.568   2.585   0.175  1.00  0.00    -0.2681 OA
ATOM      3  N5  CHE L   1      -3.524   0.532   0.224  1.00  0.00    -0.3386  N
ATOM      4  C6  CHE L   1      -2.408   1.084   0.986  1.00  0.00    +0.0233  C
ATOM      5  C7  CHE L   1      -1.614  -0.005   1.695  1.00  0.00    -0.0148  C
ATOM      6  C8  CHE L   1      -1.067  -1.049   0.713  1.00  0.00    +0.0332  C
ATOM      7 C20  CHE L   1      -1.891  -1.139  -0.580  1.00  0.00    -0.0148  C
ATOM      8 C21  CHE L   1      -3.358  -0.814  -0.334  1.00  0.00    +0.0233  C
ATOM      9 H25  CHE L   1      -2.787   1.804   1.719  1.00  0.00    +0.0489  H
ATOM     10 H26  CHE L   1      -1.769   1.635   0.286  1.00  0.00    +0.0489  H
ATOM     11 H27  CHE L   1      -2.285  -0.511   2.402  1.00  0.00    +0.0302  H
ATOM     12 H28  CHE L   1      -0.810   0.441   2.292  1.00  0.00    +0.0302  H
ATOM     13 H29  CHE L   1      -1.103  -2.024   1.217  1.00  0.00    +0.0524  H
ATOM     14 H37  CHE L   1      -1.796  -2.141  -1.015  1.00  0.00    +0.0302  H
ATOM     15 H38  CHE L   1      -1.494  -0.439  -1.329  1.00  0.00    +0.0302  H
ATOM     16 H39  CHE L   1      -3.909  -0.903  -1.276  1.00  0.00    +0.0489  H
ATOM     17 H40  CHE L   1      -3.789  -1.522   0.383  1.00  0.00    +0.0489  H
ENDROOT
BRANCH 1 19
ATOM     18  C1  CHE L   1      -6.475  -0.201  -0.210  1.00  0.00    -0.0936  C
ATOM     19  C2  CHE L   1      -5.775   0.811  -0.738  1.00  0.00    -0.0045  C
ATOM     20 H22  CHE L   1      -6.181  -0.678   0.720  1.00  0.00    +0.0536  H
ATOM     21 H23  CHE L   1      -7.381  -0.555  -0.692  1.00  0.00    +0.0536  H
ATOM     22 H24  CHE L   1      -6.113   1.340  -1.621  1.00  0.00    +0.0666  H
ENDBRANCH 1 19
BRANCH 6 23
ATOM     23  N9  CHE L   1       0.337  -0.786   0.404  1.00  0.00    -0.3478  N
ATOM     24 C10  CHE L   1       1.168  -1.797  -0.066  1.00  0.00    +0.2739  C
ATOM     25 O11  CHE L   1       0.783  -2.961  -0.146  1.00  0.00    -0.2658 OA
ATOM     26 H30  CHE L   1       0.609   0.170   0.226  1.00  0.00    +0.1629 HD
BRANCH 24 27
ATOM     27 C12  CHE L   1       2.513  -1.361  -0.467  1.00  0.00    +0.1701  A
ATOM     28 C13  CHE L   1       3.170  -0.125  -0.212  1.00  0.00    +0.0132  A
ATOM     29 C14  CHE L   1       4.401  -0.255  -0.803  1.00  0.00    +0.1411  A
ATOM     30 O18  CHE L   1       4.490  -1.476  -1.385  1.00  0.00    -0.3586 OA
ATOM     31 N19  CHE L   1       3.318  -2.175  -1.173  1.00  0.00    -0.0732 NA
ATOM     32 H31  CHE L   1       2.812   0.731   0.338  1.00  0.00    +0.0676  H
BRANCH 29 33
ATOM     33 C15  CHE L   1       5.521   0.813  -0.824  1.00  0.00    +0.0199  C
ATOM     34 C16  CHE L   1       6.140   1.258   0.475  1.00  0.00    -0.0426  C
ATOM     35 C17  CHE L   1       6.924   0.396  -0.471  1.00  0.00    -0.0426  C
ATOM     36 H32  CHE L   1       5.415   1.555  -1.609  1.00  0.00    +0.0380  H
ATOM     37 H33  CHE L   1       6.429   2.298   0.569  1.00  0.00    +0.0272  H
ATOM     38 H34  CHE L   1       5.804   0.806   1.402  1.00  0.00    +0.0272  H
ATOM     39 H35  CHE L   1       7.104  -0.637  -0.190  1.00  0.00    +0.0272  H
ATOM     40 H36  CHE L   1       7.740   0.850  -1.021  1.00  0.00    +0.0272  H
ENDBRANCH 29 33
ENDBRANCH 24 27
ENDBRANCH 6 23
TORSDOF 4
