ROOT
ATOM      1  C3  221 L   1       2.812   0.868  -0.467  1.00  0.00    +0.0919  A
ATOM      2  C4  221 L   1       1.776   1.254   0.412  1.00  0.00    -0.0140  A
ATOM      3  C5  221 L   1       0.640   0.618  -0.051  1.00  0.00    +0.0535  A
ATOM      4  N6  221 L   1       1.048  -0.087  -1.154  1.00  0.00    -0.2667  N
ATOM      5  N7  221 L   1       2.362   0.045  -1.428  1.00  0.00    -0.1733 NA
ATOM      6  C8  221 L   1       0.231  -0.945  -1.987  1.00  0.00    +0.0430  C
ATOM      7  C9  221 L   1      -0.373  -2.117  -1.218  1.00  0.00    -0.0205  C
ATOM      8 C10  221 L   1      -1.030  -1.731   0.112  1.00  0.00    +0.0012  C
ATOM      9 N11  221 L   1      -1.666  -0.406   0.001  1.00  0.00    -0.2936 NA
ATOM     10 C18  221 L   1      -0.757   0.650   0.494  1.00  0.00    +0.0412  C
ATOM     11 H24  221 L   1       1.849   1.909   1.269  1.00  0.00    +0.0655  H
ATOM     12 H25  221 L   1       0.851  -1.321  -2.810  1.00  0.00    +0.0509  H
ATOM     13 H26  221 L   1      -0.545  -0.313  -2.436  1.00  0.00    +0.0509  H
ATOM     14 H27  221 L   1      -1.115  -2.603  -1.866  1.00  0.00    +0.0295  H
ATOM     15 H28  221 L   1       0.405  -2.866  -1.016  1.00  0.00    +0.0295  H
ATOM     16 H29  221 L   1      -0.296  -1.758   0.930  1.00  0.00    +0.0427  H
ATOM     17 H30  221 L   1      -1.740  -2.525   0.368  1.00  0.00    +0.0427  H
ATOM     18 H40  221 L   1      -1.157   1.635   0.221  1.00  0.00    +0.0491  H
ATOM     19 H41  221 L   1      -0.699   0.606   1.590  1.00  0.00    +0.0491  H
ENDROOT
BRANCH 1 21
ATOM     20  O1  221 L   1       4.833   1.201  -1.758  1.00  0.00    -0.3853 OA
ATOM     21  C2  221 L   1       4.263   1.279  -0.444  1.00  0.00    +0.1015  C
ATOM     22 H22  221 L   1       4.217   0.608  -2.237  1.00  0.00    +0.2103 HD
ATOM     23 H23  221 L   1       4.318   2.334  -0.148  1.00  0.00    +0.0662  H
BRANCH 21 24
ATOM     24 C19  221 L   1       5.119   0.434   0.463  1.00  0.00    -0.0093  C
ATOM     25 C20  221 L   1       5.281   0.769   1.929  1.00  0.00    -0.0472  C
ATOM     26 C21  221 L   1       6.433   0.967   0.983  1.00  0.00    -0.0472  C
ATOM     27 H42  221 L   1       5.087  -0.613   0.179  1.00  0.00    +0.0329  H
ATOM     28 H43  221 L   1       4.793   1.654   2.325  1.00  0.00    +0.0269  H
ATOM     29 H44  221 L   1       5.335  -0.057   2.629  1.00  0.00    +0.0269  H
ATOM     30 H45  221 L   1       6.715   1.974   0.695  1.00  0.00    +0.0269  H
ATOM     31 H46  221 L   1       7.267   0.274   1.035  1.00  0.00    +0.0269  H
ENDBRANCH 21 24
ENDBRANCH 1 21
BRANCH 9 32
ATOM     32 C12  221 L   1      -3.011  -0.371   0.638  1.00  0.00    +0.0150  C
ATOM     33 C13  221 L   1      -4.013  -1.187  -0.211  1.00  0.00    -0.0137  C
ATOM     34 C14  221 L   1      -5.413  -1.126   0.384  1.00  0.00    +0.0491  C
ATOM     35 O15  221 L   1      -5.858   0.222   0.499  1.00  0.00    -0.3797 OA
ATOM     36 C16  221 L   1      -5.019   0.990   1.357  1.00  0.00    +0.0491  C
ATOM     37 C17  221 L   1      -3.597   1.049   0.813  1.00  0.00    -0.0137  C
ATOM     38 H31  221 L   1      -2.939  -0.821   1.640  1.00  0.00    +0.0464  H
ATOM     39 H32  221 L   1      -3.720  -2.237  -0.300  1.00  0.00    +0.0302  H
ATOM     40 H33  221 L   1      -4.042  -0.769  -1.227  1.00  0.00    +0.0302  H
ATOM     41 H34  221 L   1      -5.451  -1.611   1.367  1.00  0.00    +0.0560  H
ATOM     42 H35  221 L   1      -6.116  -1.651  -0.272  1.00  0.00    +0.0560  H
ATOM     43 H36  221 L   1      -5.436   2.002   1.412  1.00  0.00    +0.0560  H
ATOM     44 H37  221 L   1      -5.042   0.567   2.369  1.00  0.00    +0.0560  H
ATOM     45 H38  221 L   1      -2.992   1.652   1.499  1.00  0.00    +0.0302  H
ATOM     46 H39  221 L   1      -3.610   1.554  -0.163  1.00  0.00    +0.0302  H
ENDBRANCH 9 32
TORSDOF 3
