ROOT
ATOM      1  N6  641 L   1      -1.444  -0.299   0.592  1.00  0.00    -0.2972 NA
ATOM      2  C7  641 L   1      -1.028  -0.800  -0.762  1.00  0.00    +0.0467  C
ATOM      3  C8  641 L   1       0.119   0.024  -1.368  1.00  0.00    +0.0373  C
ATOM      4  N9  641 L   1       1.320  -0.034  -0.501  1.00  0.00    -0.3622  N
ATOM      5 C17  641 L   1       1.041   0.129   0.957  1.00  0.00    +0.0455  C
ATOM      6 C18  641 L   1       1.347  -1.203   1.651  1.00  0.00    -0.0429  C
ATOM      7 C19  641 L   1      -0.412   0.588   1.236  1.00  0.00    +0.0493  C
ATOM      8 H25  641 L   1      -1.870  -0.804  -1.460  1.00  0.00    +0.0513  H
ATOM      9 H26  641 L   1      -0.720  -1.846  -0.642  1.00  0.00    +0.0513  H
ATOM     10 H27  641 L   1       0.361  -0.389  -2.355  1.00  0.00    +0.0505  H
ATOM     11 H28  641 L   1      -0.212   1.061  -1.512  1.00  0.00    +0.0505  H
ATOM     12 H32  641 L   1       1.713   0.868   1.411  1.00  0.00    +0.0539  H
ATOM     13 H33  641 L   1       2.394  -1.485   1.495  1.00  0.00    +0.0250  H
ATOM     14 H34  641 L   1       0.729  -2.021   1.266  1.00  0.00    +0.0250  H
ATOM     15 H35  641 L   1       1.176  -1.127   2.730  1.00  0.00    +0.0250  H
ATOM     16 H36  641 L   1      -0.542   1.612   0.867  1.00  0.00    +0.0515  H
ATOM     17 H37  641 L   1      -0.581   0.595   2.319  1.00  0.00    +0.0515  H
ENDROOT
BRANCH 1 18
ATOM     18  S3  641 L   1      -3.019   0.327   0.698  1.00  0.00    +0.2321  S
ATOM     19  O4  641 L   1      -3.217   1.179  -0.456  1.00  0.00    -0.2054 OA
ATOM     20  O5  641 L   1      -3.204   0.838   2.040  1.00  0.00    -0.2054 OA
BRANCH 18 22
ATOM     21  C1  641 L   1      -3.739  -2.195   1.559  1.00  0.00    -0.0498  C
ATOM     22  C2  641 L   1      -4.034  -1.137   0.515  1.00  0.00    +0.0659  C
ATOM     23 H20  641 L   1      -2.711  -2.560   1.479  1.00  0.00    +0.0240  H
ATOM     24 H21  641 L   1      -4.411  -3.049   1.432  1.00  0.00    +0.0240  H
ATOM     25 H22  641 L   1      -3.877  -1.802   2.571  1.00  0.00    +0.0240  H
ATOM     26 H23  641 L   1      -3.888  -1.529  -0.495  1.00  0.00    +0.0441  H
ATOM     27 H24  641 L   1      -5.073  -0.802   0.600  1.00  0.00    +0.0441  H
ENDBRANCH 18 22
ENDBRANCH 1 18
BRANCH 4 28
ATOM     28 C10  641 L   1       2.344   0.793  -1.016  1.00  0.00    +0.0768  A
ATOM     29 C11  641 L   1       3.313   0.206  -1.836  1.00  0.00    -0.0175  A
ATOM     30 C12  641 L   1       4.320   0.998  -2.371  1.00  0.00    +0.0297  A
ATOM     31 N13  641 L   1       4.425   2.328  -2.159  1.00  0.00    -0.2603 NA
ATOM     32 C14  641 L   1       3.475   2.885  -1.374  1.00  0.00    +0.0648  A
ATOM     33 C15  641 L   1       2.438   2.173  -0.796  1.00  0.00    +0.1644  A
ATOM     34 F16  641 L   1       1.528   2.816  -0.049  1.00  0.00    -0.2017  F
ATOM     35 H29  641 L   1       3.288  -0.859  -2.044  1.00  0.00    +0.0654  H
ATOM     36 H30  641 L   1       5.090   0.567  -3.005  1.00  0.00    +0.0830  H
ATOM     37 H31  641 L   1       3.563   3.955  -1.216  1.00  0.00    +0.0859  H
ENDBRANCH 4 28
TORSDOF 3
