ROOT
ATOM      1  C6  CHE L   1      -1.456   0.478  -1.750  1.00  0.00    -0.0137  A
ATOM      2  C7  CHE L   1      -1.337   1.754  -2.313  1.00  0.00    -0.0532  A
ATOM      3  C8  CHE L   1      -1.984   2.840  -1.722  1.00  0.00    -0.0482  A
ATOM      4  C9  CHE L   1      -2.747   2.651  -0.562  1.00  0.00    +0.0497  A
ATOM      5 C10  CHE L   1      -3.443   3.788   0.062  1.00  0.00    +0.2725  A
ATOM      6 O11  CHE L   1      -3.375   4.916  -0.411  1.00  0.00    -0.2658 OA
ATOM      7 N12  CHE L   1      -4.169   3.506   1.193  1.00  0.00    -0.2424  N
ATOM      8 N13  CHE L   1      -4.281   2.290   1.794  1.00  0.00    -0.1740 NA
ATOM      9 C14  CHE L   1      -3.664   1.277   1.258  1.00  0.00    +0.0828  A
ATOM     10 C17  CHE L   1      -2.862   1.387   0.012  1.00  0.00    +0.0121  A
ATOM     11 C18  CHE L   1      -2.227   0.295  -0.592  1.00  0.00    -0.0442  A
ATOM     12 H38  CHE L   1      -0.733   1.914  -3.204  1.00  0.00    +0.0624  H
ATOM     13 H39  CHE L   1      -1.891   3.831  -2.162  1.00  0.00    +0.0625  H
ATOM     14 H40  CHE L   1      -4.658   4.278   1.635  1.00  0.00    +0.1921 HD
ATOM     15 H45  CHE L   1      -2.342  -0.709  -0.189  1.00  0.00    +0.0630  H
ENDROOT
BRANCH 1 20
ATOM     16  C1  CHE L   1       1.554  -3.390  -2.594  1.00  0.00    +0.0309  C
ATOM     17  N2  CHE L   1       0.549  -2.357  -2.700  1.00  0.00    -0.2660  N
ATOM     18  N3  CHE L   1      -0.121  -2.231  -3.861  1.00  0.00    -0.1787 NA
ATOM     19  C4  CHE L   1      -0.930  -1.192  -3.654  1.00  0.00    +0.0577  A
ATOM     20  C5  CHE L   1      -0.785  -0.648  -2.362  1.00  0.00    +0.0276  A
ATOM     21 C19  CHE L   1       0.209  -1.408  -1.759  1.00  0.00    +0.0804  A
ATOM     22 H34  CHE L   1       1.319  -4.194  -3.299  1.00  0.00    +0.0473  H
ATOM     23 H35  CHE L   1       2.522  -2.944  -2.838  1.00  0.00    +0.0473  H
ATOM     24 H36  CHE L   1       1.559  -3.793  -1.578  1.00  0.00    +0.0473  H
ATOM     25 H37  CHE L   1      -1.593  -0.876  -4.448  1.00  0.00    +0.0854  H
BRANCH 21 26
ATOM     26 C20  CHE L   1       0.838  -1.275  -0.442  1.00  0.00    +0.0581  A
ATOM     27 C21  CHE L   1       0.420  -2.112   0.604  1.00  0.00    +0.1522  A
ATOM     28 F22  CHE L   1      -0.518  -3.042   0.365  1.00  0.00    -0.2032  F
ATOM     29 C23  CHE L   1       0.952  -1.985   1.887  1.00  0.00    +0.0803  A
ATOM     30 CL24 CHE L   1       0.404  -2.997   3.168  1.00  0.00    -0.0804 Cl
ATOM     31 C25  CHE L   1       1.925  -1.025   2.145  1.00  0.00    +0.0025  A
ATOM     32 C26  CHE L   1       2.369  -0.200   1.106  1.00  0.00    +0.1404  A
ATOM     33 C31  CHE L   1       1.817  -0.297  -0.182  1.00  0.00    +0.1053  A
ATOM     34 H46  CHE L   1       2.327  -0.908   3.149  1.00  0.00    +0.0670  H
BRANCH 32 35
ATOM     35 O27  CHE L   1       3.303   0.774   1.365  1.00  0.00    -0.4875 OA
BRANCH 35 36
ATOM     36 C28  CHE L   1       4.589   0.234   1.742  1.00  0.00    +0.1005  C
ATOM     37 C29  CHE L   1       5.549  -0.085   0.628  1.00  0.00    -0.0124  C
ATOM     38 C30  CHE L   1       5.755   1.144   1.463  1.00  0.00    -0.0124  C
ATOM     39 H47  CHE L   1       4.660  -0.345   2.659  1.00  0.00    +0.0733  H
ATOM     40 H48  CHE L   1       5.233   0.064  -0.398  1.00  0.00    +0.0302  H
ATOM     41 H49  CHE L   1       6.232  -0.913   0.771  1.00  0.00    +0.0302  H
ATOM     42 H50  CHE L   1       6.575   1.151   2.171  1.00  0.00    +0.0302  H
ATOM     43 H51  CHE L   1       5.553   2.107   1.006  1.00  0.00    +0.0302  H
ENDBRANCH 35 36
ENDBRANCH 32 35
BRANCH 33 44
ATOM     44 C32  CHE L   1       2.267   0.595  -1.216  1.00  0.00    +0.1036  C
ATOM     45 N33  CHE L   1       2.638   1.301  -2.060  1.00  0.00    -0.1907 NA
ENDBRANCH 33 44
ENDBRANCH 21 26
ENDBRANCH 1 20
BRANCH 9 46
ATOM     46 C15  CHE L   1      -3.785  -0.069   1.968  1.00  0.00    +0.0383  C
ATOM     47 N16  CHE L   1      -4.741  -0.910   1.246  1.00  0.00    -0.3248 NA
ATOM     48 H41  CHE L   1      -4.137   0.092   2.993  1.00  0.00    +0.0487  H
ATOM     49 H42  CHE L   1      -2.806  -0.556   2.029  1.00  0.00    +0.0487  H
ATOM     50 H43  CHE L   1      -4.887  -1.770   1.775  1.00  0.00    +0.1186 HD
ATOM     51 H44  CHE L   1      -5.647  -0.436   1.242  1.00  0.00    +0.1186 HD
ENDBRANCH 9 46
TORSDOF 6
