ROOT
ATOM      1  C1  SEL L   1      -3.939   1.149  -1.689  1.00  0.00    +0.0145  C
ATOM      2  C2  SEL L   1      -2.595   1.832  -1.661  1.00  0.00    +0.2209  C
ATOM      3  O3  SEL L   1      -2.509   3.035  -1.912  1.00  0.00    -0.2733 OA
ATOM      4  N4  SEL L   1      -1.489   1.073  -1.333  1.00  0.00    -0.3349  N
ATOM      5  C5  SEL L   1      -0.155   1.637  -1.504  1.00  0.00    +0.0266  C
ATOM      6  C6  SEL L   1       0.708   0.442  -1.900  1.00  0.00    +0.0010  C
ATOM      7  C7  SEL L   1       2.149   0.513  -1.410  1.00  0.00    +0.0263  C
ATOM      8  N8  SEL L   1       2.129  -0.182  -0.134  1.00  0.00    -0.3372  N
ATOM      9 C15  SEL L   1       0.802  -0.649   0.230  1.00  0.00    +0.0268  C
ATOM     10 C16  SEL L   1       0.072  -0.712  -1.118  1.00  0.00    +0.0074  C
ATOM     11 C17  SEL L   1      -1.428  -0.380  -1.132  1.00  0.00    +0.0625  C
ATOM     12 H26  SEL L   1      -4.635   1.761  -2.273  1.00  0.00    +0.0325  H
ATOM     13 H27  SEL L   1      -3.886   0.172  -2.172  1.00  0.00    +0.0325  H
ATOM     14 H28  SEL L   1      -4.331   1.055  -0.674  1.00  0.00    +0.0325  H
ATOM     15 H29  SEL L   1      -0.137   2.421  -2.267  1.00  0.00    +0.0492  H
ATOM     16 H30  SEL L   1       0.141   2.078  -0.546  1.00  0.00    +0.0492  H
ATOM     17 H31  SEL L   1       0.648   0.280  -2.983  1.00  0.00    +0.0339  H
ATOM     18 H32  SEL L   1       2.492   1.551  -1.327  1.00  0.00    +0.0492  H
ATOM     19 H33  SEL L   1       2.811  -0.020  -2.102  1.00  0.00    +0.0492  H
ATOM     20 H37  SEL L   1       0.828  -1.637   0.703  1.00  0.00    +0.0492  H
ATOM     21 H38  SEL L   1       0.345   0.063   0.925  1.00  0.00    +0.0492  H
ATOM     22 H39  SEL L   1       0.276  -1.679  -1.597  1.00  0.00    +0.0345  H
ATOM     23 H40  SEL L   1      -1.872  -0.814  -2.039  1.00  0.00    +0.0578  H
ENDROOT
BRANCH 8 24
ATOM     24  C9  SEL L   1       3.120  -0.059   0.771  1.00  0.00    +0.2663  A
ATOM     25 N10  SEL L   1       3.114  -0.497   2.037  1.00  0.00    -0.0376 NA
ATOM     26 O11  SEL L   1       4.366  -0.129   2.523  1.00  0.00    -0.3365 OA
ATOM     27 C12  SEL L   1       5.000   0.502   1.497  1.00  0.00    +0.2258  A
ATOM     28 C13  SEL L   1       6.363   0.991   1.760  1.00  0.00    +0.0148  C
ATOM     29 N14  SEL L   1       4.282   0.568   0.402  1.00  0.00    -0.1766 NA
ATOM     30 H34  SEL L   1       6.676   1.691   0.981  1.00  0.00    +0.0325  H
ATOM     31 H35  SEL L   1       6.413   1.506   2.724  1.00  0.00    +0.0325  H
ATOM     32 H36  SEL L   1       7.072   0.155   1.775  1.00  0.00    +0.0325  H
ENDBRANCH 8 24
BRANCH 11 33
ATOM     33 C18  SEL L   1      -2.175  -0.916   0.073  1.00  0.00    -0.0217  A
ATOM     34 C19  SEL L   1      -2.593  -2.261   0.077  1.00  0.00    -0.0537  A
ATOM     35 C20  SEL L   1      -3.273  -2.795   1.175  1.00  0.00    -0.0233  A
ATOM     36 C21  SEL L   1      -3.536  -1.992   2.279  1.00  0.00    +0.1584  A
ATOM     37 F22  SEL L   1      -4.191  -2.510   3.327  1.00  0.00    -0.2025  F
ATOM     38 C23  SEL L   1      -3.122  -0.668   2.295  1.00  0.00    +0.1587  A
ATOM     39 F24  SEL L   1      -3.375   0.106   3.360  1.00  0.00    -0.2025  F
ATOM     40 C25  SEL L   1      -2.443  -0.127   1.206  1.00  0.00    -0.0184  A
ATOM     41 H41  SEL L   1      -2.395  -2.903  -0.781  1.00  0.00    +0.0622  H
ATOM     42 H42  SEL L   1      -3.597  -3.832   1.178  1.00  0.00    +0.0647  H
ATOM     43 H43  SEL L   1      -2.130   0.914   1.257  1.00  0.00    +0.0650  H
ENDBRANCH 11 33
TORSDOF 2
