ROOT
ATOM      1  C3  CHE L   1      -5.701   1.010  -0.365  1.00  0.00    +0.1635  A
ATOM      2  C4  CHE L   1      -5.006   1.945  -1.141  1.00  0.00    +0.0099  A
ATOM      3  C5  CHE L   1      -3.627   2.085  -1.064  1.00  0.00    +0.0812  A
ATOM      4  N6  CHE L   1      -3.038   2.992  -1.846  1.00  0.00    -0.2183 NA
ATOM      5  C7  CHE L   1      -1.703   3.091  -1.751  1.00  0.00    +0.2343  A
ATOM      6 N10  CHE L   1      -0.914   2.384  -0.929  1.00  0.00    -0.2010 NA
ATOM      7 C11  CHE L   1      -1.517   1.487  -0.137  1.00  0.00    +0.1396  A
ATOM      8 C26  CHE L   1      -2.911   1.276  -0.173  1.00  0.00    +0.0461  A
ATOM      9 C27  CHE L   1      -3.604   0.316   0.606  1.00  0.00    -0.0036  A
ATOM     10 C28  CHE L   1      -4.990   0.178   0.513  1.00  0.00    +0.1623  A
ATOM     11 H34  CHE L   1      -5.530   2.593  -1.838  1.00  0.00    +0.0677  H
ATOM     12 H52  CHE L   1      -3.030  -0.322   1.270  1.00  0.00    +0.0663  H
ENDROOT
BRANCH 1 14
ATOM     13  C1  CHE L   1      -7.816   1.643  -1.287  1.00  0.00    +0.0790  C
ATOM     14  O2  CHE L   1      -7.062   0.829  -0.400  1.00  0.00    -0.4914 OA
ATOM     15 H31  CHE L   1      -7.726   2.702  -1.025  1.00  0.00    +0.0660  H
ATOM     16 H32  CHE L   1      -7.527   1.466  -2.328  1.00  0.00    +0.0660  H
ATOM     17 H33  CHE L   1      -8.869   1.363  -1.183  1.00  0.00    +0.0660  H
ENDBRANCH 1 14
BRANCH 5 18
ATOM     18  C8  CHE L   1      -1.057   4.059  -2.598  1.00  0.00    +0.1400  C
ATOM     19  N9  CHE L   1      -0.532   4.844  -3.278  1.00  0.00    -0.1876 NA
ENDBRANCH 5 18
BRANCH 7 20
ATOM     20 N12  CHE L   1      -0.732   0.730   0.761  1.00  0.00    -0.3663  N
ATOM     21 H35  CHE L   1      -1.092   0.903   1.698  1.00  0.00    +0.1613 HD
BRANCH 20 22
ATOM     22 C13  CHE L   1       0.731   0.911   0.695  1.00  0.00    +0.0308  C
ATOM     23 C14  CHE L   1       1.298   0.217  -0.556  1.00  0.00    -0.0198  C
ATOM     24 C15  CHE L   1       2.739  -0.231  -0.329  1.00  0.00    +0.0011  C
ATOM     25 N16  CHE L   1       2.844  -1.247   0.732  1.00  0.00    -0.2980 NA
ATOM     26 C24  CHE L   1       1.837  -1.092   1.789  1.00  0.00    +0.0011  C
ATOM     27 C25  CHE L   1       1.372   0.350   1.978  1.00  0.00    -0.0198  C
ATOM     28 H36  CHE L   1       0.969   1.983   0.674  1.00  0.00    +0.0523  H
ATOM     29 H37  CHE L   1       0.685  -0.650  -0.837  1.00  0.00    +0.0297  H
ATOM     30 H38  CHE L   1       1.264   0.903  -1.411  1.00  0.00    +0.0297  H
ATOM     31 H39  CHE L   1       3.128  -0.645  -1.266  1.00  0.00    +0.0427  H
ATOM     32 H40  CHE L   1       3.342   0.655  -0.089  1.00  0.00    +0.0427  H
ATOM     33 H48  CHE L   1       2.193  -1.493   2.746  1.00  0.00    +0.0427  H
ATOM     34 H49  CHE L   1       0.970  -1.711   1.523  1.00  0.00    +0.0427  H
ATOM     35 H50  CHE L   1       0.684   0.410   2.830  1.00  0.00    +0.0297  H
ATOM     36 H51  CHE L   1       2.240   0.967   2.245  1.00  0.00    +0.0297  H
BRANCH 25 37
ATOM     37 C17  CHE L   1       4.209  -1.331   1.278  1.00  0.00    +0.0240  C
ATOM     38 H41  CHE L   1       4.245  -2.086   2.075  1.00  0.00    +0.0476  H
ATOM     39 H42  CHE L   1       4.491  -0.378   1.746  1.00  0.00    +0.0476  H
BRANCH 37 40
ATOM     40 C18  CHE L   1       5.248  -1.746   0.258  1.00  0.00    -0.0334  A
ATOM     41 C19  CHE L   1       5.144  -2.980  -0.401  1.00  0.00    -0.0573  A
ATOM     42 C20  CHE L   1       6.105  -3.370  -1.335  1.00  0.00    -0.0615  A
ATOM     43 C21  CHE L   1       7.182  -2.532  -1.618  1.00  0.00    -0.0617  A
ATOM     44 C22  CHE L   1       7.299  -1.304  -0.968  1.00  0.00    -0.0615  A
ATOM     45 C23  CHE L   1       6.338  -0.912  -0.034  1.00  0.00    -0.0573  A
ATOM     46 H43  CHE L   1       4.301  -3.636  -0.192  1.00  0.00    +0.0621  H
ATOM     47 H44  CHE L   1       6.010  -4.326  -1.843  1.00  0.00    +0.0618  H
ATOM     48 H45  CHE L   1       7.930  -2.835  -2.346  1.00  0.00    +0.0618  H
ATOM     49 H46  CHE L   1       8.138  -0.651  -1.190  1.00  0.00    +0.0618  H
ATOM     50 H47  CHE L   1       6.444   0.050   0.462  1.00  0.00    +0.0621  H
ENDBRANCH 37 40
ENDBRANCH 25 37
ENDBRANCH 20 22
ENDBRANCH 7 20
BRANCH 10 51
ATOM     51 O29  CHE L   1      -5.732  -0.721   1.235  1.00  0.00    -0.4914 OA
ATOM     52 C30  CHE L   1      -5.034  -1.691   2.002  1.00  0.00    +0.0790  C
ATOM     53 H53  CHE L   1      -5.775  -2.367   2.441  1.00  0.00    +0.0660  H
ATOM     54 H54  CHE L   1      -4.368  -2.291   1.374  1.00  0.00    +0.0660  H
ATOM     55 H55  CHE L   1      -4.486  -1.221   2.825  1.00  0.00    +0.0660  H
ENDBRANCH 10 51
TORSDOF 7
