ROOT
ATOM      1  C8  WH0 L   1      -2.359  -0.195  -1.570  1.00  0.00    -0.0323  A
ATOM      2  C9  WH0 L   1      -1.428   0.863  -1.438  1.00  0.00    -0.0101  A
ATOM      3 C32  WH0 L   1      -1.677   2.124  -2.043  1.00  0.00    -0.0517  A
ATOM      4 C33  WH0 L   1      -2.834   2.366  -2.783  1.00  0.00    -0.0374  A
ATOM      5 C34  WH0 L   1      -3.723   1.326  -2.905  1.00  0.00    +0.0457  A
ATOM      6 C35  WH0 L   1      -3.508   0.076  -2.321  1.00  0.00    -0.0112  A
ATOM      7 C36  WH0 L   1      -4.672  -0.818  -2.667  1.00  0.00    +0.0538  C
ATOM      8 C37  WH0 L   1      -5.557   0.100  -3.514  1.00  0.00    +0.2296  C
ATOM      9 O38  WH0 L   1      -6.624  -0.187  -4.030  1.00  0.00    -0.2725 OA
ATOM     10 N39  WH0 L   1      -4.922   1.331  -3.596  1.00  0.00    -0.3256  N
ATOM     11 H62  WH0 L   1      -0.947   2.927  -1.941  1.00  0.00    +0.0624  H
ATOM     12 H63  WH0 L   1      -3.011   3.331  -3.243  1.00  0.00    +0.0638  H
ATOM     13 H64  WH0 L   1      -5.221  -1.125  -1.774  1.00  0.00    +0.0410  H
ATOM     14 H65  WH0 L   1      -4.353  -1.671  -3.270  1.00  0.00    +0.0410  H
ATOM     15 H66  WH0 L   1      -5.310   2.109  -4.107  1.00  0.00    +0.1686 HD
ENDROOT
BRANCH 1 16
ATOM     16  C7  WH0 L   1      -2.187  -1.566  -0.949  1.00  0.00    -0.0093  C
ATOM     17 H46  WH0 L   1      -1.132  -1.806  -0.788  1.00  0.00    +0.0331  H
ATOM     18 H47  WH0 L   1      -2.534  -2.309  -1.679  1.00  0.00    +0.0331  H
BRANCH 16 19
ATOM     19  C6  WH0 L   1      -2.969  -1.756   0.353  1.00  0.00    +0.0224  C
ATOM     20 H44  WH0 L   1      -3.102  -2.829   0.537  1.00  0.00    +0.0489  H
ATOM     21 H45  WH0 L   1      -3.968  -1.309   0.304  1.00  0.00    +0.0489  H
BRANCH 19 24
ATOM     22  C3  WH0 L   1      -2.764  -1.464   2.774  1.00  0.00    +0.2443  C
ATOM     23  O4  WH0 L   1      -3.725  -2.180   3.025  1.00  0.00    -0.2683 OA
ATOM     24  N5  WH0 L   1      -2.295  -1.206   1.511  1.00  0.00    -0.3522  N
ATOM     25 H43  WH0 L   1      -1.676  -0.417   1.387  1.00  0.00    +0.1626 HD
BRANCH 22 27
ATOM     26  C1  WH0 L   1      -0.747  -0.492   3.865  1.00  0.00    -0.0936  C
ATOM     27  C2  WH0 L   1      -2.062  -0.746   3.864  1.00  0.00    -0.0047  C
ATOM     28 H40  WH0 L   1      -0.284   0.010   4.710  1.00  0.00    +0.0536  H
ATOM     29 H41  WH0 L   1      -0.094  -0.794   3.053  1.00  0.00    +0.0536  H
ATOM     30 H42  WH0 L   1      -2.681  -0.500   4.720  1.00  0.00    +0.0666  H
ENDBRANCH 22 27
ENDBRANCH 19 24
ENDBRANCH 16 19
ENDBRANCH 1 16
BRANCH 2 31
ATOM     31 C10  WH0 L   1      -0.177   0.718  -0.710  1.00  0.00    +0.0356  A
ATOM     32 C11  WH0 L   1       1.007  -0.034  -0.996  1.00  0.00    +0.1015  A
ATOM     33 N19  WH0 L   1       1.923   0.125  -0.026  1.00  0.00    -0.1627 NA
ATOM     34 N20  WH0 L   1       1.371   1.007   0.841  1.00  0.00    -0.1987  N
ATOM     35 C21  WH0 L   1       2.024   1.498   2.018  1.00  0.00    +0.2283  A
ATOM     36 N28  WH0 L   1       1.385   2.379   2.758  1.00  0.00    -0.2207 NA
ATOM     37 C29  WH0 L   1       0.120   2.767   2.378  1.00  0.00    +0.0334  A
ATOM     38 C30  WH0 L   1      -0.542   2.326   1.298  1.00  0.00    -0.0173  A
ATOM     39 C31  WH0 L   1       0.106   1.394   0.457  1.00  0.00    +0.0803  A
ATOM     40 H60  WH0 L   1      -0.357   3.489   3.038  1.00  0.00    +0.0831  H
ATOM     41 H61  WH0 L   1      -1.542   2.680   1.072  1.00  0.00    +0.0654  H
BRANCH 32 42
ATOM     42 C12  WH0 L   1       1.293  -0.904  -2.142  1.00  0.00    +0.0029  A
ATOM     43 C13  WH0 L   1       2.023  -2.090  -1.953  1.00  0.00    -0.0498  A
ATOM     44 C14  WH0 L   1       2.295  -2.938  -3.029  1.00  0.00    -0.0258  A
ATOM     45 C15  WH0 L   1       1.843  -2.598  -4.297  1.00  0.00    +0.1234  A
ATOM     46 F16  WH0 L   1       2.102  -3.410  -5.330  1.00  0.00    -0.2055  F
ATOM     47 C17  WH0 L   1       1.128  -1.426  -4.510  1.00  0.00    -0.0258  A
ATOM     48 C18  WH0 L   1       0.856  -0.577  -3.434  1.00  0.00    -0.0498  A
ATOM     49 H48  WH0 L   1       2.381  -2.360  -0.961  1.00  0.00    +0.0625  H
ATOM     50 H49  WH0 L   1       2.857  -3.855  -2.885  1.00  0.00    +0.0646  H
ATOM     51 H50  WH0 L   1       0.792  -1.177  -5.512  1.00  0.00    +0.0646  H
ATOM     52 H51  WH0 L   1       0.313   0.345  -3.626  1.00  0.00    +0.0625  H
ENDBRANCH 32 42
BRANCH 35 53
ATOM     53 N22  WH0 L   1       3.303   1.081   2.391  1.00  0.00    -0.3359  N
ATOM     54 C23  WH0 L   1       4.056   1.831   3.409  1.00  0.00    +0.0449  C
ATOM     55 C24  WH0 L   1       5.564   1.672   3.173  1.00  0.00    +0.0653  C
ATOM     56 O25  WH0 L   1       6.022   0.315   3.233  1.00  0.00    -0.3763 OA
ATOM     57 C26  WH0 L   1       5.000  -0.641   2.928  1.00  0.00    +0.0653  C
ATOM     58 C27  WH0 L   1       3.962  -0.141   1.909  1.00  0.00    +0.0449  C
ATOM     59 H52  WH0 L   1       3.813   2.899   3.369  1.00  0.00    +0.0511  H
ATOM     60 H53  WH0 L   1       3.784   1.452   4.401  1.00  0.00    +0.0511  H
ATOM     61 H54  WH0 L   1       6.126   2.242   3.920  1.00  0.00    +0.0577  H
ATOM     62 H55  WH0 L   1       5.837   2.068   2.187  1.00  0.00    +0.0577  H
ATOM     63 H56  WH0 L   1       4.508  -0.914   3.869  1.00  0.00    +0.0577  H
ATOM     64 H57  WH0 L   1       5.494  -1.542   2.549  1.00  0.00    +0.0577  H
ATOM     65 H58  WH0 L   1       3.235  -0.947   1.771  1.00  0.00    +0.0511  H
ATOM     66 H59  WH0 L   1       4.459   0.075   0.957  1.00  0.00    +0.0511  H
ENDBRANCH 35 53
ENDBRANCH 2 31
TORSDOF 7
