ROOT
ATOM      1  C1  CHE L   1      -1.569   5.207   0.902  1.00  0.00    +0.0324  C
ATOM      2  N2  CHE L   1      -2.175   3.983   0.444  1.00  0.00    -0.2493  N
ATOM      3  N3  CHE L   1      -3.427   4.011  -0.071  1.00  0.00    -0.1773 NA
ATOM      4  C4  CHE L   1      -3.658   2.730  -0.380  1.00  0.00    +0.0622  A
ATOM      5  C5  CHE L   1      -2.574   1.884  -0.064  1.00  0.00    +0.0806  A
ATOM      6  C6  CHE L   1      -2.249   0.525  -0.150  1.00  0.00    +0.1435  A
ATOM      7 N12  CHE L   1      -1.019   0.162   0.286  1.00  0.00    -0.1948 NA
ATOM      8 C13  CHE L   1      -0.167   1.076   0.783  1.00  0.00    +0.2278  A
ATOM      9 N25  CHE L   1      -0.398   2.390   0.897  1.00  0.00    -0.1929 NA
ATOM     10 C26  CHE L   1      -1.620   2.733   0.462  1.00  0.00    +0.1653  A
ATOM     11 H27  CHE L   1      -2.199   5.629   1.690  1.00  0.00    +0.0473  H
ATOM     12 H28  CHE L   1      -0.570   5.007   1.295  1.00  0.00    +0.0473  H
ATOM     13 H29  CHE L   1      -1.504   5.896   0.056  1.00  0.00    +0.0473  H
ATOM     14 H30  CHE L   1      -4.608   2.466  -0.825  1.00  0.00    +0.0856  H
ENDROOT
BRANCH 6 15
ATOM     15  N7  CHE L   1      -3.133  -0.408  -0.674  1.00  0.00    -0.3644  N
ATOM     16 H31  CHE L   1      -4.093  -0.083  -0.646  1.00  0.00    +0.1616 HD
BRANCH 15 17
ATOM     17  C8  CHE L   1      -2.983  -1.858  -0.474  1.00  0.00    +0.0314  C
ATOM     18  C9  CHE L   1      -2.994  -2.222   1.017  1.00  0.00    -0.0424  C
ATOM     19 C10  CHE L   1      -1.728  -2.401  -1.174  1.00  0.00    -0.0424  C
ATOM     20 C11  CHE L   1      -4.210  -2.520  -1.139  1.00  0.00    -0.0424  C
ATOM     21 H32  CHE L   1      -3.874  -1.805   1.520  1.00  0.00    +0.0252  H
ATOM     22 H33  CHE L   1      -3.011  -3.309   1.156  1.00  0.00    +0.0252  H
ATOM     23 H34  CHE L   1      -2.110  -1.846   1.541  1.00  0.00    +0.0252  H
ATOM     24 H35  CHE L   1      -0.803  -2.093  -0.679  1.00  0.00    +0.0252  H
ATOM     25 H36  CHE L   1      -1.727  -3.497  -1.182  1.00  0.00    +0.0252  H
ATOM     26 H37  CHE L   1      -1.675  -2.059  -2.214  1.00  0.00    +0.0252  H
ATOM     27 H38  CHE L   1      -4.176  -3.612  -1.045  1.00  0.00    +0.0252  H
ATOM     28 H39  CHE L   1      -4.261  -2.275  -2.207  1.00  0.00    +0.0252  H
ATOM     29 H40  CHE L   1      -5.145  -2.175  -0.681  1.00  0.00    +0.0252  H
ENDBRANCH 15 17
ENDBRANCH 6 15
BRANCH 8 30
ATOM     30 N14  CHE L   1       1.058   0.551   1.187  1.00  0.00    -0.3521  N
ATOM     31 H41  CHE L   1       1.063  -0.393   0.808  1.00  0.00    +0.1626 HD
BRANCH 30 32
ATOM     32 C15  CHE L   1       2.198   1.373   0.768  1.00  0.00    +0.0376  C
ATOM     33 H42  CHE L   1       2.229   2.276   1.392  1.00  0.00    +0.0505  H
ATOM     34 H43  CHE L   1       2.102   1.702  -0.275  1.00  0.00    +0.0505  H
BRANCH 32 35
ATOM     35 C16  CHE L   1       3.539   0.600   0.966  1.00  0.00    +0.0480  C
ATOM     36 N17  CHE L   1       3.607   0.069   2.345  1.00  0.00    -0.3222 NA
ATOM     37 H44  CHE L   1       4.347   1.335   0.847  1.00  0.00    +0.0525  H
ATOM     38 H45  CHE L   1       2.778  -0.519   2.471  1.00  0.00    +0.1188 HD
ATOM     39 H46  CHE L   1       3.446   0.841   2.992  1.00  0.00    +0.1188 HD
BRANCH 35 40
ATOM     40 C18  CHE L   1       3.835  -0.517  -0.035  1.00  0.00    -0.0279  A
ATOM     41 C19  CHE L   1       3.017  -0.820  -1.136  1.00  0.00    -0.0570  A
ATOM     42 C20  CHE L   1       3.356  -1.845  -2.026  1.00  0.00    -0.0604  A
ATOM     43 C21  CHE L   1       4.523  -2.582  -1.840  1.00  0.00    -0.0477  A
ATOM     44 C22  CHE L   1       5.351  -2.289  -0.762  1.00  0.00    +0.0182  A
ATOM     45 BR23 CHE L   1       6.941  -3.280  -0.505  1.00  0.00    -0.0503 Br
ATOM     46 C24  CHE L   1       5.017  -1.268   0.129  1.00  0.00    -0.0430  A
ATOM     47 H47  CHE L   1       2.099  -0.273  -1.335  1.00  0.00    +0.0621  H
ATOM     48 H48  CHE L   1       2.705  -2.066  -2.869  1.00  0.00    +0.0618  H
ATOM     49 H49  CHE L   1       4.776  -3.376  -2.537  1.00  0.00    +0.0629  H
ATOM     50 H50  CHE L   1       5.674  -1.053   0.971  1.00  0.00    +0.0632  H
ENDBRANCH 35 40
ENDBRANCH 32 35
ENDBRANCH 30 32
ENDBRANCH 8 30
TORSDOF 6
