ROOT
ATOM      1  C3  SEL L   1      -1.661   5.139  -0.067  1.00  0.00    +0.1621  A
ATOM      2  C4  SEL L   1      -0.801   4.062   0.119  1.00  0.00    -0.0036  A
ATOM      3  C5  SEL L   1      -1.308   2.737   0.247  1.00  0.00    +0.0462  A
ATOM      4  C6  SEL L   1      -0.524   1.586   0.429  1.00  0.00    +0.1404  A
ATOM      5 N21  SEL L   1      -1.077   0.374   0.593  1.00  0.00    -0.1948 NA
ATOM      6 C22  SEL L   1      -2.414   0.253   0.550  1.00  0.00    +0.2290  A
ATOM      7 N31  SEL L   1      -3.222   1.303   0.348  1.00  0.00    -0.2121 NA
ATOM      8 C32  SEL L   1      -2.685   2.514   0.205  1.00  0.00    +0.0820  A
ATOM      9 C33  SEL L   1      -3.533   3.595   0.011  1.00  0.00    +0.0097  A
ATOM     10 C34  SEL L   1      -3.029   4.883  -0.125  1.00  0.00    +0.1605  A
ATOM     11 O35  SEL L   1      -3.915   5.910  -0.312  1.00  0.00    -0.5032 OA
ATOM     12 H39  SEL L   1       0.271   4.214   0.188  1.00  0.00    +0.0663  H
ATOM     13 H70  SEL L   1      -4.606   3.433  -0.028  1.00  0.00    +0.0677  H
ATOM     14 H71  SEL L   1      -3.365   6.716  -0.371  1.00  0.00    +0.2923 HD
ENDROOT
BRANCH 1 16
ATOM     15  C1  SEL L   1       0.080   6.756  -0.074  1.00  0.00    +0.0790  C
ATOM     16  O2  SEL L   1      -1.305   6.454  -0.203  1.00  0.00    -0.4914 OA
ATOM     17 H36  SEL L   1       0.662   6.281  -0.870  1.00  0.00    +0.0660  H
ATOM     18 H37  SEL L   1       0.196   7.839  -0.177  1.00  0.00    +0.0660  H
ATOM     19 H38  SEL L   1       0.456   6.473   0.915  1.00  0.00    +0.0660  H
ENDBRANCH 1 16
BRANCH 4 20
ATOM     20  N7  SEL L   1       0.878   1.724   0.448  1.00  0.00    -0.3662  N
ATOM     21 H40  SEL L   1       1.158   2.190  -0.412  1.00  0.00    +0.1613 HD
BRANCH 20 22
ATOM     22  C8  SEL L   1       1.756   0.575   0.713  1.00  0.00    +0.0308  C
ATOM     23  C9  SEL L   1       1.585  -0.027   2.107  1.00  0.00    -0.0198  C
ATOM     24 C10  SEL L   1       2.664  -1.092   2.309  1.00  0.00    +0.0011  C
ATOM     25 N11  SEL L   1       2.676  -2.117   1.271  1.00  0.00    -0.2980 NA
ATOM     26 C19  SEL L   1       1.795  -1.898   0.133  1.00  0.00    +0.0011  C
ATOM     27 C20  SEL L   1       1.765  -0.468  -0.407  1.00  0.00    -0.0198  C
ATOM     28 H41  SEL L   1       2.764   1.015   0.711  1.00  0.00    +0.0523  H
ATOM     29 H42  SEL L   1       0.596  -0.475   2.249  1.00  0.00    +0.0297  H
ATOM     30 H43  SEL L   1       1.686   0.752   2.872  1.00  0.00    +0.0297  H
ATOM     31 H44  SEL L   1       2.513  -1.575   3.281  1.00  0.00    +0.0427  H
ATOM     32 H45  SEL L   1       3.627  -0.574   2.371  1.00  0.00    +0.0427  H
ATOM     33 H53  SEL L   1       0.783  -2.159   0.459  1.00  0.00    +0.0427  H
ATOM     34 H54  SEL L   1       2.003  -2.601  -0.683  1.00  0.00    +0.0427  H
ATOM     35 H55  SEL L   1       0.904  -0.361  -1.076  1.00  0.00    +0.0297  H
ATOM     36 H56  SEL L   1       2.643  -0.291  -1.040  1.00  0.00    +0.0297  H
BRANCH 25 37
ATOM     37 C12  SEL L   1       3.971  -2.736   0.997  1.00  0.00    +0.0240  C
ATOM     38 H46  SEL L   1       4.459  -3.002   1.945  1.00  0.00    +0.0476  H
ATOM     39 H47  SEL L   1       3.806  -3.705   0.506  1.00  0.00    +0.0476  H
BRANCH 37 40
ATOM     40 C13  SEL L   1       4.936  -1.925   0.157  1.00  0.00    -0.0334  A
ATOM     41 C14  SEL L   1       5.848  -1.044   0.756  1.00  0.00    -0.0573  A
ATOM     42 C15  SEL L   1       6.734  -0.297  -0.022  1.00  0.00    -0.0615  A
ATOM     43 C16  SEL L   1       6.725  -0.427  -1.409  1.00  0.00    -0.0617  A
ATOM     44 C17  SEL L   1       5.833  -1.307  -2.018  1.00  0.00    -0.0615  A
ATOM     45 C18  SEL L   1       4.946  -2.053  -1.240  1.00  0.00    -0.0573  A
ATOM     46 H48  SEL L   1       5.878  -0.938   1.838  1.00  0.00    +0.0621  H
ATOM     47 H49  SEL L   1       7.435   0.382   0.455  1.00  0.00    +0.0618  H
ATOM     48 H50  SEL L   1       7.417   0.152  -2.015  1.00  0.00    +0.0618  H
ATOM     49 H51  SEL L   1       5.828  -1.414  -3.100  1.00  0.00    +0.0618  H
ATOM     50 H52  SEL L   1       4.259  -2.738  -1.732  1.00  0.00    +0.0621  H
ENDBRANCH 37 40
ENDBRANCH 25 37
ENDBRANCH 20 22
ENDBRANCH 4 20
BRANCH 6 51
ATOM     51 N23  SEL L   1      -2.990  -0.999   0.761  1.00  0.00    -0.3390  N
ATOM     52 C24  SEL L   1      -2.090  -2.131   0.530  1.00  0.00    +0.0226  C
ATOM     53 C25  SEL L   1      -2.818  -3.474   0.441  1.00  0.00    -0.0224  C
ATOM     54 C26  SEL L   1      -3.617  -3.687  -0.858  1.00  0.00    +0.0003  C
ATOM     55 N27  SEL L   1      -3.800  -2.497  -1.691  1.00  0.00    -0.3036 NA
ATOM     56 C28  SEL L   1      -4.308  -2.846  -3.018  1.00  0.00    -0.0127  C
ATOM     57 C29  SEL L   1      -4.648  -1.452  -1.077  1.00  0.00    +0.0163  C
ATOM     58 C30  SEL L   1      -4.407  -1.132   0.414  1.00  0.00    +0.0341  C
ATOM     59 H57  SEL L   1      -1.492  -1.992  -0.382  1.00  0.00    +0.0489  H
ATOM     60 H58  SEL L   1      -1.392  -2.188   1.375  1.00  0.00    +0.0489  H
ATOM     61 H59  SEL L   1      -3.475  -3.607   1.309  1.00  0.00    +0.0295  H
ATOM     62 H60  SEL L   1      -2.068  -4.273   0.512  1.00  0.00    +0.0295  H
ATOM     63 H61  SEL L   1      -3.062  -4.434  -1.442  1.00  0.00    +0.0427  H
ATOM     64 H62  SEL L   1      -4.582  -4.152  -0.621  1.00  0.00    +0.0427  H
ATOM     65 H63  SEL L   1      -3.621  -3.531  -3.527  1.00  0.00    +0.0391  H
ATOM     66 H64  SEL L   1      -5.294  -3.320  -2.969  1.00  0.00    +0.0391  H
ATOM     67 H65  SEL L   1      -4.383  -1.954  -3.650  1.00  0.00    +0.0391  H
ATOM     68 H66  SEL L   1      -5.708  -1.719  -1.182  1.00  0.00    +0.0444  H
ATOM     69 H67  SEL L   1      -4.498  -0.527  -1.650  1.00  0.00    +0.0444  H
ATOM     70 H68  SEL L   1      -4.990  -0.246   0.697  1.00  0.00    +0.0501  H
ATOM     71 H69  SEL L   1      -4.848  -1.928   1.026  1.00  0.00    +0.0501  H
ENDBRANCH 6 51
TORSDOF 6
