ROOT
ATOM      1  C9  CHE L   1      -0.574   0.113   0.340  1.00  0.00    +0.0901  A
ATOM      2 C10  CHE L   1      -0.062  -1.153   0.523  1.00  0.00    +0.0371  A
ATOM      3 N11  CHE L   1       1.292  -1.022   0.362  1.00  0.00    -0.3059  N
ATOM      4 C12  CHE L   1       2.290  -1.981   0.437  1.00  0.00    +0.0131  A
ATOM      5 C13  CHE L   1       3.567  -1.611   0.242  1.00  0.00    -0.0218  A
ATOM      6 C14  CHE L   1       3.910  -0.206  -0.054  1.00  0.00    +0.0423  A
ATOM      7 C18  CHE L   1       2.897   0.697  -0.105  1.00  0.00    +0.0044  A
ATOM      8 C19  CHE L   1       1.541   0.316   0.100  1.00  0.00    +0.1402  A
ATOM      9 N20  CHE L   1       0.427   1.020   0.091  1.00  0.00    -0.2277 NA
ATOM     10 H31  CHE L   1      -0.530  -2.099   0.756  1.00  0.00    +0.0835  H
ATOM     11 H32  CHE L   1       1.995  -2.997   0.664  1.00  0.00    +0.0814  H
ATOM     12 H33  CHE L   1       4.355  -2.348   0.325  1.00  0.00    +0.0653  H
ATOM     13 H40  CHE L   1       3.073   1.743  -0.322  1.00  0.00    +0.0675  H
ENDROOT
BRANCH 1 17
ATOM     14  C3  CHE L   1      -4.662   1.239   0.867  1.00  0.00    +0.1387  A
ATOM     15  C4  CHE L   1      -4.329   0.270  -0.087  1.00  0.00    -0.0125  A
ATOM     16  C5  CHE L   1      -2.987  -0.105  -0.319  1.00  0.00    -0.0094  A
ATOM     17  C8  CHE L   1      -1.970   0.482   0.457  1.00  0.00    +0.0088  A
ATOM     18 C21  CHE L   1      -2.300   1.472   1.393  1.00  0.00    -0.0303  A
ATOM     19 C22  CHE L   1      -3.629   1.846   1.594  1.00  0.00    +0.0831  A
ATOM     20 CL23 CHE L   1      -3.956   3.065   2.778  1.00  0.00    -0.0797 Cl
ATOM     21 H27  CHE L   1      -5.098  -0.216  -0.679  1.00  0.00    +0.0658  H
ATOM     22 H41  CHE L   1      -1.510   1.946   1.973  1.00  0.00    +0.0640  H
BRANCH 14 24
ATOM     23  C1  CHE L   1      -7.007   0.973   0.495  1.00  0.00    +0.0789  C
ATOM     24  O2  CHE L   1      -5.939   1.656   1.137  1.00  0.00    -0.4936 OA
ATOM     25 H24  CHE L   1      -6.998  -0.095   0.738  1.00  0.00    +0.0660  H
ATOM     26 H25  CHE L   1      -7.945   1.391   0.870  1.00  0.00    +0.0660  H
ATOM     27 H26  CHE L   1      -6.981   1.133  -0.588  1.00  0.00    +0.0660  H
ENDBRANCH 14 24
BRANCH 16 28
ATOM     28  C6  CHE L   1      -2.711  -1.119  -1.399  1.00  0.00    +0.0700  C
ATOM     29  O7  CHE L   1      -2.900  -2.423  -0.870  1.00  0.00    -0.3904 OA
ATOM     30 H28  CHE L   1      -1.700  -1.030  -1.808  1.00  0.00    +0.0607  H
ATOM     31 H29  CHE L   1      -3.404  -0.976  -2.236  1.00  0.00    +0.0607  H
ATOM     32 H30  CHE L   1      -2.710  -3.043  -1.593  1.00  0.00    +0.2098 HD
ENDBRANCH 16 28
ENDBRANCH 1 17
BRANCH 6 33
ATOM     33 N15  CHE L   1       5.260   0.126  -0.255  1.00  0.00    -0.3765  N
ATOM     34 C16  CHE L   1       5.729   1.516  -0.275  1.00  0.00    +0.0069  C
ATOM     35 C17  CHE L   1       6.291  -0.862  -0.580  1.00  0.00    +0.0069  C
ATOM     36 H34  CHE L   1       6.809   1.580  -0.100  1.00  0.00    +0.0451  H
ATOM     37 H35  CHE L   1       5.510   1.974  -1.245  1.00  0.00    +0.0451  H
ATOM     38 H36  CHE L   1       5.253   2.105   0.516  1.00  0.00    +0.0451  H
ATOM     39 H37  CHE L   1       5.926  -1.581  -1.322  1.00  0.00    +0.0451  H
ATOM     40 H38  CHE L   1       7.184  -0.396  -1.011  1.00  0.00    +0.0451  H
ATOM     41 H39  CHE L   1       6.597  -1.400   0.323  1.00  0.00    +0.0451  H
ENDBRANCH 6 33
TORSDOF 4
