ROOT
ATOM      1  C9  CHE L   1       1.430   0.626  -0.004  1.00  0.00    +0.0933  A
ATOM      2 C10  CHE L   1       0.575   0.089   0.937  1.00  0.00    +0.0373  A
ATOM      3 N11  CHE L   1      -0.690   0.279   0.439  1.00  0.00    -0.3040  N
ATOM      4 C12  CHE L   1      -1.914  -0.081   0.987  1.00  0.00    +0.0344  A
ATOM      5 C13  CHE L   1      -3.059   0.187   0.327  1.00  0.00    +0.0552  A
ATOM      6 C18  CHE L   1      -2.954   0.933  -0.952  1.00  0.00    -0.0226  A
ATOM      7 C19  CHE L   1      -4.208   1.399  -1.644  1.00  0.00    -0.0376  C
ATOM      8 C20  CHE L   1      -1.746   1.266  -1.465  1.00  0.00    -0.0139  A
ATOM      9 C21  CHE L   1      -0.551   0.931  -0.775  1.00  0.00    +0.1386  A
ATOM     10 N22  CHE L   1       0.714   1.158  -1.059  1.00  0.00    -0.2277 NA
ATOM     11 H33  CHE L   1       0.745  -0.386   1.893  1.00  0.00    +0.0835  H
ATOM     12 H34  CHE L   1      -1.884  -0.596   1.940  1.00  0.00    +0.0834  H
ATOM     13 H42  CHE L   1      -3.991   2.143  -2.422  1.00  0.00    +0.0278  H
ATOM     14 H43  CHE L   1      -4.895   1.879  -0.936  1.00  0.00    +0.0278  H
ATOM     15 H44  CHE L   1      -4.721   0.565  -2.132  1.00  0.00    +0.0278  H
ATOM     16 H45  CHE L   1      -1.649   1.823  -2.391  1.00  0.00    +0.0657  H
ENDROOT
BRANCH 1 20
ATOM     17  C3  CHE L   1       5.699   1.018   0.215  1.00  0.00    +0.1418  A
ATOM     18  C4  CHE L   1       5.071  -0.055   0.854  1.00  0.00    +0.0239  A
ATOM     19  C5  CHE L   1       3.679  -0.221   0.769  1.00  0.00    +0.1328  A
ATOM     20  C8  CHE L   1       2.881   0.707   0.081  1.00  0.00    +0.0451  A
ATOM     21 C23  CHE L   1       3.521   1.769  -0.576  1.00  0.00    -0.0271  A
ATOM     22 C24  CHE L   1       4.910   1.922  -0.512  1.00  0.00    +0.0834  A
ATOM     23 CL25 CHE L   1       5.615   3.270  -1.341  1.00  0.00    -0.0797 Cl
ATOM     24 H29  CHE L   1       5.635  -0.777   1.433  1.00  0.00    +0.0691  H
ATOM     25 H46  CHE L   1       2.928   2.491  -1.136  1.00  0.00    +0.0641  H
BRANCH 17 27
ATOM     26  C1  CHE L   1       7.854   0.425   1.071  1.00  0.00    +0.0789  C
ATOM     27  O2  CHE L   1       7.049   1.254   0.238  1.00  0.00    -0.4935 OA
ATOM     28 H26  CHE L   1       7.538   0.491   2.120  1.00  0.00    +0.0660  H
ATOM     29 H27  CHE L   1       7.847  -0.613   0.716  1.00  0.00    +0.0660  H
ATOM     30 H28  CHE L   1       8.886   0.789   1.012  1.00  0.00    +0.0660  H
ENDBRANCH 17 27
BRANCH 19 31
ATOM     31  O6  CHE L   1       3.105  -1.289   1.416  1.00  0.00    -0.4943 OA
ATOM     32  C7  CHE L   1       3.450  -2.527   0.777  1.00  0.00    +0.0788  C
ATOM     33 H30  CHE L   1       3.463  -2.444  -0.322  1.00  0.00    +0.0660  H
ATOM     34 H31  CHE L   1       2.688  -3.263   1.047  1.00  0.00    +0.0660  H
ATOM     35 H32  CHE L   1       4.417  -2.891   1.145  1.00  0.00    +0.0660  H
ENDBRANCH 19 31
ENDBRANCH 1 20
BRANCH 5 36
ATOM     36 N14  CHE L   1      -4.302  -0.152   0.843  1.00  0.00    -0.3819  N
ATOM     37 H35  CHE L   1      -4.235  -0.362   1.838  1.00  0.00    +0.1597 HD
BRANCH 36 38
ATOM     38 C15  CHE L   1      -5.162  -1.155   0.198  1.00  0.00    +0.0279  C
ATOM     39 H36  CHE L   1      -4.943  -1.253  -0.871  1.00  0.00    +0.0498  H
ATOM     40 H37  CHE L   1      -4.956  -2.133   0.654  1.00  0.00    +0.0498  H
BRANCH 38 41
ATOM     41 C16  CHE L   1      -6.641  -0.784   0.400  1.00  0.00    +0.0105  C
ATOM     42 N17  CHE L   1      -7.553  -1.790  -0.149  1.00  0.00    -0.3283 NA
ATOM     43 H38  CHE L   1      -6.850  -0.661   1.469  1.00  0.00    +0.0439  H
ATOM     44 H39  CHE L   1      -6.845   0.180  -0.079  1.00  0.00    +0.0439  H
ATOM     45 H40  CHE L   1      -8.514  -1.494   0.019  1.00  0.00    +0.1183 HD
ATOM     46 H41  CHE L   1      -7.438  -2.670   0.354  1.00  0.00    +0.1183 HD
ENDBRANCH 38 41
ENDBRANCH 36 38
ENDBRANCH 5 36
TORSDOF 6
