ROOT
ATOM      1  C1  CHE L   1      -0.064  -0.730  -4.183  1.00  0.00    -0.0541  C
ATOM      2  C2  CHE L   1       0.115  -0.769  -2.653  1.00  0.00    +0.0085  C
ATOM      3  C3  CHE L   1      -0.310  -2.164  -2.145  1.00  0.00    -0.0541  C
ATOM      4  C4  CHE L   1       1.606  -0.583  -2.281  1.00  0.00    +0.0307  C
ATOM      5  N5  CHE L   1       2.112   0.757  -2.558  1.00  0.00    -0.3349  N
ATOM      6 C19  CHE L   1       1.321   1.875  -2.322  1.00  0.00    +0.2550  C
ATOM      7 O20  CHE L   1       1.728   3.025  -2.451  1.00  0.00    -0.2674 OA
ATOM      8 C21  CHE L   1      -0.081   1.635  -1.877  1.00  0.00    +0.0429  A
ATOM      9 C22  CHE L   1      -0.798   2.715  -1.338  1.00  0.00    -0.0484  A
ATOM     10 C23  CHE L   1      -2.125   2.553  -0.947  1.00  0.00    -0.0487  A
ATOM     11 C24  CHE L   1      -2.732   1.307  -1.097  1.00  0.00    +0.0395  A
ATOM     12 C35  CHE L   1      -2.034   0.227  -1.653  1.00  0.00    -0.0449  A
ATOM     13 C36  CHE L   1      -0.686   0.369  -2.030  1.00  0.00    -0.0270  A
ATOM     14 H37  CHE L   1       0.240   0.232  -4.610  1.00  0.00    +0.0239  H
ATOM     15 H38  CHE L   1      -1.113  -0.890  -4.463  1.00  0.00    +0.0239  H
ATOM     16 H39  CHE L   1       0.532  -1.510  -4.669  1.00  0.00    +0.0239  H
ATOM     17 H40  CHE L   1       0.358  -2.941  -2.533  1.00  0.00    +0.0239  H
ATOM     18 H41  CHE L   1      -0.284  -2.217  -1.051  1.00  0.00    +0.0239  H
ATOM     19 H42  CHE L   1      -1.322  -2.429  -2.469  1.00  0.00    +0.0239  H
ATOM     20 H43  CHE L   1       1.756  -0.762  -1.209  1.00  0.00    +0.0497  H
ATOM     21 H44  CHE L   1       2.213  -1.317  -2.824  1.00  0.00    +0.0497  H
ATOM     22 H59  CHE L   1      -0.324   3.690  -1.235  1.00  0.00    +0.0625  H
ATOM     23 H60  CHE L   1      -2.684   3.392  -0.545  1.00  0.00    +0.0625  H
ATOM     24 H73  CHE L   1      -2.566  -0.710  -1.800  1.00  0.00    +0.0628  H
ENDROOT
BRANCH 5 25
ATOM     25  C6  CHE L   1       3.498   0.916  -3.017  1.00  0.00    +0.0490  C
ATOM     26 H45  CHE L   1       3.895  -0.075  -3.263  1.00  0.00    +0.0515  H
ATOM     27 H46  CHE L   1       3.439   1.478  -3.958  1.00  0.00    +0.0515  H
BRANCH 25 28
ATOM     28  C7  CHE L   1       4.504   1.641  -2.085  1.00  0.00    +0.0883  C
ATOM     29  O8  CHE L   1       4.353   3.063  -2.180  1.00  0.00    -0.3885 OA
ATOM     30 H47  CHE L   1       5.497   1.451  -2.511  1.00  0.00    +0.0627  H
ATOM     31 H48  CHE L   1       3.406   3.248  -1.982  1.00  0.00    +0.2099 HD
BRANCH 28 32
ATOM     32  C9  CHE L   1       4.577   1.221  -0.592  1.00  0.00    +0.0395  C
ATOM     33 C10  CHE L   1       4.921  -0.275  -0.442  1.00  0.00    -0.0095  C
ATOM     34 C11  CHE L   1       4.807  -0.767   0.982  1.00  0.00    -0.0414  A
ATOM     35 C12  CHE L   1       5.330  -2.019   1.332  1.00  0.00    -0.0582  A
ATOM     36 C13  CHE L   1       5.204  -2.495   2.638  1.00  0.00    -0.0615  A
ATOM     37 C14  CHE L   1       4.551  -1.727   3.599  1.00  0.00    -0.0614  A
ATOM     38 C15  CHE L   1       4.022  -0.482   3.257  1.00  0.00    -0.0571  A
ATOM     39 C16  CHE L   1       4.133   0.003   1.946  1.00  0.00    -0.0303  A
ATOM     40 C17  CHE L   1       3.597   1.374   1.608  1.00  0.00    +0.0218  C
ATOM     41 N18  CHE L   1       3.362   1.570   0.176  1.00  0.00    -0.3065 NA
ATOM     42 H49  CHE L   1       5.397   1.812  -0.157  1.00  0.00    +0.0490  H
ATOM     43 H50  CHE L   1       4.246  -0.890  -1.049  1.00  0.00    +0.0329  H
ATOM     44 H51  CHE L   1       5.943  -0.442  -0.804  1.00  0.00    +0.0329  H
ATOM     45 H52  CHE L   1       5.843  -2.628   0.591  1.00  0.00    +0.0620  H
ATOM     46 H53  CHE L   1       5.619  -3.463   2.907  1.00  0.00    +0.0618  H
ATOM     47 H54  CHE L   1       4.460  -2.095   4.618  1.00  0.00    +0.0618  H
ATOM     48 H55  CHE L   1       3.523   0.111   4.020  1.00  0.00    +0.0621  H
ATOM     49 H56  CHE L   1       2.644   1.532   2.128  1.00  0.00    +0.0474  H
ATOM     50 H57  CHE L   1       4.298   2.133   1.976  1.00  0.00    +0.0474  H
ATOM     51 H58  CHE L   1       2.598   0.966  -0.113  1.00  0.00    +0.1226 HD
ENDBRANCH 28 32
ENDBRANCH 25 28
ENDBRANCH 5 25
BRANCH 11 52
ATOM     52 C25  CHE L   1      -4.155   1.165  -0.736  1.00  0.00    +0.2546  C
ATOM     53 O26  CHE L   1      -4.973   1.706  -1.475  1.00  0.00    -0.2674 OA
ATOM     54 N27  CHE L   1      -4.489   0.452   0.413  1.00  0.00    -0.3382  N
ATOM     55 C28  CHE L   1      -5.907   0.169   0.651  1.00  0.00    +0.0220  C
ATOM     56 C29  CHE L   1      -6.276   0.271   2.132  1.00  0.00    -0.0295  C
ATOM     57 C30  CHE L   1      -5.335  -0.563   2.973  1.00  0.00    -0.0260  C
ATOM     58 C31  CHE L   1      -3.880  -0.226   2.732  1.00  0.00    -0.0295  C
ATOM     59 C32  CHE L   1      -3.538  -0.302   1.241  1.00  0.00    +0.0220  C
ATOM     60 C33  CHE L   1      -5.757  -0.922   4.380  1.00  0.00    -0.0468  C
ATOM     61 C34  CHE L   1      -5.721  -1.985   3.318  1.00  0.00    -0.0468  C
ATOM     62 H61  CHE L   1      -6.093  -0.848   0.283  1.00  0.00    +0.0489  H
ATOM     63 H62  CHE L   1      -6.542   0.848   0.072  1.00  0.00    +0.0489  H
ATOM     64 H63  CHE L   1      -6.203   1.316   2.457  1.00  0.00    +0.0288  H
ATOM     65 H64  CHE L   1      -7.319  -0.040   2.272  1.00  0.00    +0.0288  H
ATOM     66 H65  CHE L   1      -3.215  -0.891   3.295  1.00  0.00    +0.0288  H
ATOM     67 H66  CHE L   1      -3.697   0.793   3.093  1.00  0.00    +0.0288  H
ATOM     68 H67  CHE L   1      -3.573  -1.342   0.894  1.00  0.00    +0.0489  H
ATOM     69 H68  CHE L   1      -2.517   0.063   1.099  1.00  0.00    +0.0489  H
ATOM     70 H69  CHE L   1      -5.002  -0.959   5.159  1.00  0.00    +0.0271  H
ATOM     71 H70  CHE L   1      -6.726  -0.586   4.734  1.00  0.00    +0.0271  H
ATOM     72 H71  CHE L   1      -6.667  -2.370   2.955  1.00  0.00    +0.0271  H
ATOM     73 H72  CHE L   1      -4.942  -2.737   3.379  1.00  0.00    +0.0271  H
ENDBRANCH 11 52
TORSDOF 4
