ROOT
ATOM      1  C1  CHE L   1      -4.559  -1.944   0.173  1.00  0.00    +0.0130  C
ATOM      2  N2  CHE L   1      -3.603  -0.842   0.076  1.00  0.00    -0.3102  N
ATOM      3  C3  CHE L   1      -2.296  -1.132   0.446  1.00  0.00    +0.2312  C
ATOM      4  O4  CHE L   1      -1.951  -2.247   0.833  1.00  0.00    -0.2726 OA
ATOM      5  C5  CHE L   1      -1.289  -0.023   0.226  1.00  0.00    +0.0629  C
ATOM      6 C19  CHE L   1      -1.928   1.243   0.744  1.00  0.00    +0.0624  C
ATOM      7 O20  CHE L   1      -3.091   1.502  -0.024  1.00  0.00    -0.3462 OA
ATOM      8 C21  CHE L   1      -4.117   0.524   0.094  1.00  0.00    +0.1839  C
ATOM      9 C22  CHE L   1      -4.960   0.727  -1.137  1.00  0.00    -0.0243  C
ATOM     10 C23  CHE L   1      -6.255   1.077  -1.125  1.00  0.00    -0.0141  C
ATOM     11 C24  CHE L   1      -6.965   1.288   0.156  1.00  0.00    +0.1787  C
ATOM     12 O25  CHE L   1      -8.153   1.581   0.185  1.00  0.00    -0.2879 OA
ATOM     13 C26  CHE L   1      -6.185   1.121   1.404  1.00  0.00    -0.0141  C
ATOM     14 C27  CHE L   1      -4.889   0.776   1.364  1.00  0.00    -0.0243  C
ATOM     15 H28  CHE L   1      -4.914  -2.025   1.205  1.00  0.00    +0.0454  H
ATOM     16 H29  CHE L   1      -4.081  -2.890  -0.101  1.00  0.00    +0.0454  H
ATOM     17 H30  CHE L   1      -5.404  -1.789  -0.502  1.00  0.00    +0.0454  H
ATOM     18 H31  CHE L   1      -1.139   0.058  -0.859  1.00  0.00    +0.0419  H
ATOM     19 H43  CHE L   1      -1.255   2.097   0.604  1.00  0.00    +0.0568  H
ATOM     20 H44  CHE L   1      -2.168   1.192   1.812  1.00  0.00    +0.0568  H
ATOM     21 H45  CHE L   1      -4.460   0.593  -2.092  1.00  0.00    +0.0624  H
ATOM     22 H46  CHE L   1      -6.831   1.223  -2.030  1.00  0.00    +0.0654  H
ATOM     23 H47  CHE L   1      -6.717   1.294   2.332  1.00  0.00    +0.0654  H
ATOM     24 H48  CHE L   1      -4.358   0.663   2.304  1.00  0.00    +0.0624  H
ENDROOT
BRANCH 5 25
ATOM     25  C6  CHE L   1       0.055  -0.277   0.920  1.00  0.00    -0.0221  C
ATOM     26 H32  CHE L   1      -0.103  -0.559   1.970  1.00  0.00    +0.0290  H
ATOM     27 H33  CHE L   1       0.626   0.661   0.940  1.00  0.00    +0.0290  H
BRANCH 25 28
ATOM     28  C7  CHE L   1       0.891  -1.358   0.227  1.00  0.00    +0.0164  C
ATOM     29 H34  CHE L   1       0.436  -2.341   0.386  1.00  0.00    +0.0485  H
ATOM     30 H35  CHE L   1       0.926  -1.213  -0.859  1.00  0.00    +0.0485  H
BRANCH 28 31
ATOM     31  N8  CHE L   1       2.230  -1.396   0.809  1.00  0.00    -0.3832  N
ATOM     32 H36  CHE L   1       2.502  -2.330   1.109  1.00  0.00    +0.1597 HD
BRANCH 31 33
ATOM     33  C9  CHE L   1       3.289  -0.689   0.240  1.00  0.00    +0.0543  A
ATOM     34 C10  CHE L   1       3.165   0.388  -0.635  1.00  0.00    +0.0512  A
ATOM     35 N11  CHE L   1       4.192   1.120  -1.138  1.00  0.00    -0.2530 NA
ATOM     36 C12  CHE L   1       5.434   0.808  -0.740  1.00  0.00    +0.0711  A
ATOM     37 C13  CHE L   1       6.514   1.531  -1.229  1.00  0.00    -0.0357  A
ATOM     38 C14  CHE L   1       7.826   1.251  -0.836  1.00  0.00    -0.0597  A
ATOM     39 C15  CHE L   1       8.072   0.225   0.070  1.00  0.00    -0.0611  A
ATOM     40 C16  CHE L   1       7.006  -0.516   0.576  1.00  0.00    -0.0525  A
ATOM     41 C17  CHE L   1       5.688  -0.234   0.174  1.00  0.00    +0.0023  A
ATOM     42 C18  CHE L   1       4.591  -0.964   0.663  1.00  0.00    -0.0280  A
ATOM     43 H37  CHE L   1       2.194   0.723  -0.983  1.00  0.00    +0.0850  H
ATOM     44 H38  CHE L   1       6.327   2.337  -1.935  1.00  0.00    +0.0639  H
ATOM     45 H39  CHE L   1       8.648   1.837  -1.237  1.00  0.00    +0.0618  H
ATOM     46 H40  CHE L   1       9.089   0.004   0.381  1.00  0.00    +0.0618  H
ATOM     47 H41  CHE L   1       7.207  -1.317   1.284  1.00  0.00    +0.0624  H
ATOM     48 H42  CHE L   1       4.760  -1.757   1.387  1.00  0.00    +0.0645  H
ENDBRANCH 31 33
ENDBRANCH 28 31
ENDBRANCH 25 28
ENDBRANCH 5 25
TORSDOF 4
