ROOT
ATOM      1  C9  CHE L   1      -3.248  -0.153  -0.361  1.00  0.00    +0.0901  A
ATOM      2 C10  CHE L   1      -2.998   0.927  -1.179  1.00  0.00    +0.0371  A
ATOM      3 N11  CHE L   1      -1.633   0.994  -1.286  1.00  0.00    -0.3059  N
ATOM      4 C12  CHE L   1      -0.842   1.895  -1.983  1.00  0.00    +0.0131  A
ATOM      5 C13  CHE L   1       0.494   1.756  -1.946  1.00  0.00    -0.0218  A
ATOM      6 C14  CHE L   1       1.116   0.668  -1.170  1.00  0.00    +0.0428  A
ATOM      7 C29  CHE L   1       0.300  -0.199  -0.518  1.00  0.00    +0.0044  A
ATOM      8 C30  CHE L   1      -1.117  -0.060  -0.551  1.00  0.00    +0.1402  A
ATOM      9 N31  CHE L   1      -2.076  -0.772   0.005  1.00  0.00    -0.2277 NA
ATOM     10 H42  CHE L   1      -3.644   1.633  -1.680  1.00  0.00    +0.0835  H
ATOM     11 H43  CHE L   1      -1.342   2.673  -2.545  1.00  0.00    +0.0814  H
ATOM     12 H44  CHE L   1       1.120   2.432  -2.515  1.00  0.00    +0.0653  H
ATOM     13 H56  CHE L   1       0.692  -1.016   0.075  1.00  0.00    +0.0675  H
ENDROOT
BRANCH 1 17
ATOM     14  C3  CHE L   1      -7.057  -1.798   0.692  1.00  0.00    +0.1387  A
ATOM     15  C4  CHE L   1      -6.821  -0.432   0.880  1.00  0.00    -0.0125  A
ATOM     16  C5  CHE L   1      -5.572   0.152   0.568  1.00  0.00    -0.0094  A
ATOM     17  C8  CHE L   1      -4.554  -0.656   0.027  1.00  0.00    +0.0088  A
ATOM     18 C32  CHE L   1      -4.787  -2.029  -0.143  1.00  0.00    -0.0303  A
ATOM     19 C33  CHE L   1      -6.022  -2.592   0.182  1.00  0.00    +0.0831  A
ATOM     20 CL34 CHE L   1      -6.231  -4.290  -0.075  1.00  0.00    -0.0797 Cl
ATOM     21 H38  CHE L   1      -7.598   0.215   1.280  1.00  0.00    +0.0658  H
ATOM     22 H57  CHE L   1      -3.994  -2.662  -0.538  1.00  0.00    +0.0640  H
BRANCH 14 24
ATOM     23  C1  CHE L   1      -9.285  -1.656   1.550  1.00  0.00    +0.0789  C
ATOM     24  O2  CHE L   1      -8.241  -2.428   0.973  1.00  0.00    -0.4936 OA
ATOM     25 H35  CHE L   1      -9.619  -0.871   0.865  1.00  0.00    +0.0660  H
ATOM     26 H36  CHE L   1     -10.134  -2.323   1.730  1.00  0.00    +0.0660  H
ATOM     27 H37  CHE L   1      -8.981  -1.238   2.515  1.00  0.00    +0.0660  H
ENDBRANCH 14 24
BRANCH 16 28
ATOM     28  C6  CHE L   1      -5.404   1.629   0.830  1.00  0.00    +0.0700  C
ATOM     29  O7  CHE L   1      -5.873   2.397  -0.273  1.00  0.00    -0.3904 OA
ATOM     30 H39  CHE L   1      -4.366   1.901   1.044  1.00  0.00    +0.0607  H
ATOM     31 H40  CHE L   1      -5.980   1.923   1.714  1.00  0.00    +0.0607  H
ATOM     32 H41  CHE L   1      -6.299   1.792  -0.903  1.00  0.00    +0.2098 HD
ENDBRANCH 16 28
ENDBRANCH 1 17
BRANCH 6 33
ATOM     33 N15  CHE L   1       2.513   0.570  -1.156  1.00  0.00    -0.3671  N
ATOM     34 C16  CHE L   1       3.216  -0.706  -0.838  1.00  0.00    +0.0363  C
ATOM     35 C17  CHE L   1       4.637  -0.736  -1.437  1.00  0.00    +0.0376  C
ATOM     36 N18  CHE L   1       5.487   0.355  -0.907  1.00  0.00    -0.3525  N
ATOM     37 C27  CHE L   1       4.741   1.606  -0.617  1.00  0.00    +0.0376  C
ATOM     38 C28  CHE L   1       3.423   1.712  -1.419  1.00  0.00    +0.0363  C
ATOM     39 H45  CHE L   1       2.657  -1.550  -1.259  1.00  0.00    +0.0505  H
ATOM     40 H46  CHE L   1       3.255  -0.829   0.250  1.00  0.00    +0.0505  H
ATOM     41 H47  CHE L   1       4.563  -0.591  -2.523  1.00  0.00    +0.0506  H
ATOM     42 H48  CHE L   1       5.090  -1.727  -1.312  1.00  0.00    +0.0506  H
ATOM     43 H52  CHE L   1       4.488   1.668   0.451  1.00  0.00    +0.0506  H
ATOM     44 H53  CHE L   1       5.373   2.468  -0.863  1.00  0.00    +0.0506  H
ATOM     45 H54  CHE L   1       2.945   2.657  -1.135  1.00  0.00    +0.0505  H
ATOM     46 H55  CHE L   1       3.639   1.754  -2.494  1.00  0.00    +0.0505  H
BRANCH 36 47
ATOM     47 C19  CHE L   1       6.301  -0.022   0.177  1.00  0.00    +0.1297  A
ATOM     48 C20  CHE L   1       7.340   0.822   0.580  1.00  0.00    -0.0182  A
ATOM     49 C21  CHE L   1       8.159   0.464   1.652  1.00  0.00    -0.0394  A
ATOM     50 C22  CHE L   1       7.928  -0.739   2.308  1.00  0.00    +0.0700  A
ATOM     51 C25  CHE L   1       6.887  -1.528   1.853  1.00  0.00    +0.0472  A
ATOM     52 N26  CHE L   1       6.082  -1.195   0.813  1.00  0.00    -0.2370 NA
ATOM     53 H49  CHE L   1       7.528   1.748   0.046  1.00  0.00    +0.0654  H
ATOM     54 H50  CHE L   1       8.968   1.123   1.957  1.00  0.00    +0.0632  H
ATOM     55 H51  CHE L   1       6.652  -2.483   2.317  1.00  0.00    +0.0843  H
BRANCH 50 56
ATOM     56 C23  CHE L   1       8.734  -1.158   3.409  1.00  0.00    +0.1007  C
ATOM     57 N24  CHE L   1       9.389  -1.496   4.305  1.00  0.00    -0.1908 NA
ENDBRANCH 50 56
ENDBRANCH 36 47
ENDBRANCH 6 33
TORSDOF 6
