ROOT
ATOM      1 C21  CHE L   1       5.239  -0.739   0.146  1.00  0.00    +0.0157  C
ATOM      2 C22  CHE L   1       6.202  -1.847  -0.357  1.00  0.00    -0.0117  C
ATOM      3 C23  CHE L   1       7.434  -1.059  -0.679  1.00  0.00    -0.0427  A
ATOM      4 C24  CHE L   1       8.717  -1.533  -0.904  1.00  0.00    -0.0583  A
ATOM      5 C25  CHE L   1       9.710  -0.615  -1.258  1.00  0.00    -0.0615  A
ATOM      6 C26  CHE L   1       9.408   0.751  -1.389  1.00  0.00    -0.0615  A
ATOM      7 C27  CHE L   1       8.107   1.218  -1.170  1.00  0.00    -0.0583  A
ATOM      8 C28  CHE L   1       7.132   0.300  -0.817  1.00  0.00    -0.0427  A
ATOM      9 C29  CHE L   1       5.669   0.545  -0.609  1.00  0.00    -0.0117  C
ATOM     10 H52  CHE L   1       5.438  -0.593   1.217  1.00  0.00    +0.0467  H
ATOM     11 H53  CHE L   1       5.830  -2.330  -1.270  1.00  0.00    +0.0328  H
ATOM     12 H54  CHE L   1       6.374  -2.604   0.413  1.00  0.00    +0.0328  H
ATOM     13 H55  CHE L   1       8.946  -2.592  -0.823  1.00  0.00    +0.0620  H
ATOM     14 H56  CHE L   1      10.725  -0.961  -1.452  1.00  0.00    +0.0618  H
ATOM     15 H57  CHE L   1      10.192   1.448  -1.677  1.00  0.00    +0.0618  H
ATOM     16 H58  CHE L   1       7.870   2.270  -1.292  1.00  0.00    +0.0620  H
ATOM     17 H59  CHE L   1       5.483   1.442  -0.009  1.00  0.00    +0.0328  H
ATOM     18 H60  CHE L   1       5.167   0.635  -1.581  1.00  0.00    +0.0328  H
ENDROOT
BRANCH 1 19
ATOM     19 N20  CHE L   1       3.839  -1.129  -0.051  1.00  0.00    -0.3101 NA
ATOM     20 H51  CHE L   1       3.670  -1.996   0.471  1.00  0.00    +0.1223 HD
BRANCH 19 21
ATOM     21 C19  CHE L   1       2.862  -0.146   0.447  1.00  0.00    +0.0239  C
ATOM     22 H49  CHE L   1       3.105   0.872   0.125  1.00  0.00    +0.0450  H
ATOM     23 H50  CHE L   1       1.922  -0.406  -0.050  1.00  0.00    +0.0450  H
BRANCH 21 24
ATOM     24 C17  CHE L   1       2.664  -0.207   1.976  1.00  0.00    +0.0852  C
ATOM     25 O18  CHE L   1       2.444  -1.563   2.389  1.00  0.00    -0.3888 OA
ATOM     26 H47  CHE L   1       3.592   0.099   2.472  1.00  0.00    +0.0624  H
ATOM     27 H48  CHE L   1       1.537  -1.804   2.094  1.00  0.00    +0.2099 HD
BRANCH 24 28
ATOM     28 C16  CHE L   1       1.544   0.729   2.486  1.00  0.00    +0.0501  C
ATOM     29 H45  CHE L   1       1.914   1.760   2.450  1.00  0.00    +0.0515  H
ATOM     30 H46  CHE L   1       1.292   0.481   3.523  1.00  0.00    +0.0515  H
BRANCH 28 34
ATOM     31 N12  CHE L   1      -1.701  -0.050   0.993  1.00  0.00    -0.3170  N
ATOM     32 C13  CHE L   1      -1.711   1.377   0.769  1.00  0.00    +0.0409  C
ATOM     33 C14  CHE L   1      -0.562   1.865   1.640  1.00  0.00    +0.0406  C
ATOM     34 N15  CHE L   1       0.299   0.705   1.726  1.00  0.00    -0.3202  N
ATOM     35 C30  CHE L   1      -0.452  -0.446   1.472  1.00  0.00    +0.3218  C
ATOM     36 O31  CHE L   1      -0.061  -1.595   1.606  1.00  0.00    -0.2470 OA
ATOM     37 H41  CHE L   1      -2.667   1.824   1.048  1.00  0.00    +0.0507  H
ATOM     38 H42  CHE L   1      -1.503   1.565  -0.290  1.00  0.00    +0.0507  H
ATOM     39 H43  CHE L   1      -0.032   2.716   1.204  1.00  0.00    +0.0506  H
ATOM     40 H44  CHE L   1      -0.906   2.117   2.650  1.00  0.00    +0.0506  H
BRANCH 31 41
ATOM     41 C11  CHE L   1      -2.506  -0.977   0.219  1.00  0.00    +0.0650  C
ATOM     42 H39  CHE L   1      -2.016  -1.062  -0.758  1.00  0.00    +0.0554  H
ATOM     43 H40  CHE L   1      -2.458  -1.967   0.687  1.00  0.00    +0.0554  H
BRANCH 41 47
ATOM     44  C7  CHE L   1      -6.672  -0.017  -0.240  1.00  0.00    +0.0031  A
ATOM     45  C8  CHE L   1      -5.937  -0.507  -1.326  1.00  0.00    -0.0507  A
ATOM     46  C9  CHE L   1      -4.581  -0.806  -1.188  1.00  0.00    -0.0381  A
ATOM     47 C10  CHE L   1      -3.960  -0.595   0.041  1.00  0.00    +0.0607  A
ATOM     48 N32  CHE L   1      -4.644  -0.123   1.113  1.00  0.00    -0.2575 NA
ATOM     49 C33  CHE L   1      -5.962   0.146   0.951  1.00  0.00    +0.0357  A
ATOM     50 H37  CHE L   1      -6.406  -0.660  -2.296  1.00  0.00    +0.0625  H
ATOM     51 H38  CHE L   1      -4.024  -1.199  -2.035  1.00  0.00    +0.0636  H
ATOM     52 H61  CHE L   1      -6.449   0.496   1.861  1.00  0.00    +0.0836  H
BRANCH 44 56
ATOM     53  C3  CHE L   1     -10.764   0.857  -0.534  1.00  0.00    +0.2319  A
ATOM     54  N4  CHE L   1      -9.986   1.750   0.107  1.00  0.00    -0.2263 NA
ATOM     55  C5  CHE L   1      -8.673   1.439   0.182  1.00  0.00    +0.0398  A
ATOM     56  C6  CHE L   1      -8.101   0.290  -0.343  1.00  0.00    +0.0199  A
ATOM     57 C34  CHE L   1      -9.013  -0.541  -0.980  1.00  0.00    +0.0398  A
ATOM     58 N35  CHE L   1     -10.336  -0.290  -1.094  1.00  0.00    -0.2263 NA
ATOM     59 H36  CHE L   1      -8.070   2.186   0.696  1.00  0.00    +0.0837  H
ATOM     60 H62  CHE L   1      -8.701  -1.483  -1.428  1.00  0.00    +0.0837  H
BRANCH 53 62
ATOM     61  N1  CHE L   1     -13.305   1.405  -0.708  1.00  0.00    -0.1876 NA
ATOM     62  C2  CHE L   1     -12.170   1.157  -0.631  1.00  0.00    +0.1399  C
ENDBRANCH 53 62
ENDBRANCH 44 56
ENDBRANCH 41 47
ENDBRANCH 31 41
ENDBRANCH 28 34
ENDBRANCH 24 28
ENDBRANCH 21 24
ENDBRANCH 19 21
ENDBRANCH 1 19
TORSDOF 9
