ROOT
ATOM      1  C3  MCU L   1       6.387   1.322  -0.541  1.00  0.00    +0.1221  A
ATOM      2  C4  MCU L   1       5.704   1.592  -1.729  1.00  0.00    -0.0193  A
ATOM      3  C5  MCU L   1       4.307   1.516  -1.773  1.00  0.00    -0.0492  A
ATOM      4  C6  MCU L   1       3.587   1.169  -0.629  1.00  0.00    -0.0009  A
ATOM      5  C7  MCU L   1       2.130   1.054  -0.643  1.00  0.00    -0.0424  A
ATOM      6  C8  MCU L   1       1.437   0.692   0.456  1.00  0.00    +0.0421  A
ATOM      7 C30  MCU L   1       2.184   0.462   1.736  1.00  0.00    +0.2543  A
ATOM      8 O31  MCU L   1       1.605   0.177   2.781  1.00  0.00    -0.2675 OA
ATOM      9 N32  MCU L   1       3.548   0.572   1.704  1.00  0.00    -0.3217  N
ATOM     10 C33  MCU L   1       4.274   0.913   0.559  1.00  0.00    +0.0526  A
ATOM     11 C34  MCU L   1       5.665   0.992   0.609  1.00  0.00    +0.0040  A
ATOM     12 H38  MCU L   1       6.226   1.869  -2.639  1.00  0.00    +0.0654  H
ATOM     13 H39  MCU L   1       3.794   1.729  -2.707  1.00  0.00    +0.0625  H
ATOM     14 H40  MCU L   1       1.627   1.253  -1.584  1.00  0.00    +0.0629  H
ATOM     15 H63  MCU L   1       4.029   0.403   2.578  1.00  0.00    +0.1689 HD
ATOM     16 H64  MCU L   1       6.202   0.790   1.532  1.00  0.00    +0.0675  H
ENDROOT
BRANCH 1 18
ATOM     17  C1  MCU L   1       8.532   1.491  -1.551  1.00  0.00    +0.0788  C
ATOM     18  O2  MCU L   1       7.744   1.351  -0.374  1.00  0.00    -0.4950 OA
ATOM     19 H35  MCU L   1       8.403   2.483  -1.995  1.00  0.00    +0.0660  H
ATOM     20 H36  MCU L   1       9.581   1.386  -1.263  1.00  0.00    +0.0660  H
ATOM     21 H37  MCU L   1       8.309   0.701  -2.276  1.00  0.00    +0.0660  H
ENDBRANCH 1 18
BRANCH 6 22
ATOM     22  C9  MCU L   1      -0.081   0.539   0.534  1.00  0.00    +0.1027  C
ATOM     23 H41  MCU L   1      -0.342   0.614   1.596  1.00  0.00    +0.0596  H
BRANCH 22 24
ATOM     24 C10  MCU L   1      -0.889   1.660  -0.088  1.00  0.00    +0.1731  A
ATOM     25 N11  MCU L   1      -0.620   2.345  -1.185  1.00  0.00    -0.1114 NA
ATOM     26 N12  MCU L   1      -1.626   3.261  -1.333  1.00  0.00    -0.0230 NA
ATOM     27 N13  MCU L   1      -2.510   3.155  -0.357  1.00  0.00    -0.0438 NA
ATOM     28 N14  MCU L   1      -2.072   2.144   0.415  1.00  0.00    -0.2271  N
BRANCH 28 29
ATOM     29 C15  MCU L   1      -2.768   1.828   1.642  1.00  0.00    +0.0492  C
ATOM     30 H42  MCU L   1      -3.409   2.683   1.891  1.00  0.00    +0.0513  H
ATOM     31 H43  MCU L   1      -2.013   1.769   2.435  1.00  0.00    +0.0513  H
BRANCH 29 32
ATOM     32 C16  MCU L   1      -3.584   0.536   1.605  1.00  0.00    -0.0079  C
ATOM     33 H44  MCU L   1      -2.964  -0.318   1.316  1.00  0.00    +0.0331  H
ATOM     34 H45  MCU L   1      -3.927   0.311   2.624  1.00  0.00    +0.0331  H
BRANCH 32 35
ATOM     35 C17  MCU L   1      -4.789   0.608   0.702  1.00  0.00    -0.0456  A
ATOM     36 C18  MCU L   1      -4.704   0.174  -0.628  1.00  0.00    -0.0585  A
ATOM     37 C19  MCU L   1      -5.813   0.256  -1.470  1.00  0.00    -0.0615  A
ATOM     38 C20  MCU L   1      -7.016   0.773  -0.993  1.00  0.00    -0.0617  A
ATOM     39 C21  MCU L   1      -7.110   1.209   0.327  1.00  0.00    -0.0615  A
ATOM     40 C22  MCU L   1      -6.001   1.130   1.171  1.00  0.00    -0.0585  A
ATOM     41 H46  MCU L   1      -3.769  -0.223  -1.020  1.00  0.00    +0.0620  H
ATOM     42 H47  MCU L   1      -5.734  -0.077  -2.502  1.00  0.00    +0.0618  H
ATOM     43 H48  MCU L   1      -7.878   0.842  -1.650  1.00  0.00    +0.0618  H
ATOM     44 H49  MCU L   1      -8.047   1.618   0.699  1.00  0.00    +0.0618  H
ATOM     45 H50  MCU L   1      -6.094   1.480   2.196  1.00  0.00    +0.0620  H
ENDBRANCH 32 35
ENDBRANCH 29 32
ENDBRANCH 28 29
ENDBRANCH 22 24
BRANCH 22 46
ATOM     46 N23  MCU L   1      -0.619  -0.777   0.084  1.00  0.00    -0.2887 NA
ATOM     47 C24  MCU L   1      -0.326  -1.105  -1.318  1.00  0.00    -0.0001  C
ATOM     48 C25  MCU L   1      -1.080  -2.365  -1.748  1.00  0.00    -0.0399  C
ATOM     49 C26  MCU L   1      -0.749  -3.545  -0.841  1.00  0.00    -0.0481  C
ATOM     50 C27  MCU L   1      -0.980  -3.172   0.626  1.00  0.00    -0.0310  C
ATOM     51 C28  MCU L   1      -0.554  -4.313   1.548  1.00  0.00    -0.0613  C
ATOM     52 C29  MCU L   1      -0.231  -1.876   0.983  1.00  0.00    +0.0024  C
ATOM     53 H51  MCU L   1       0.749  -1.267  -1.471  1.00  0.00    +0.0427  H
ATOM     54 H52  MCU L   1      -0.635  -0.292  -1.985  1.00  0.00    +0.0427  H
ATOM     55 H53  MCU L   1      -0.822  -2.614  -2.784  1.00  0.00    +0.0278  H
ATOM     56 H54  MCU L   1      -2.160  -2.175  -1.724  1.00  0.00    +0.0278  H
ATOM     57 H55  MCU L   1      -1.368  -4.406  -1.117  1.00  0.00    +0.0269  H
ATOM     58 H56  MCU L   1       0.297  -3.839  -0.994  1.00  0.00    +0.0269  H
ATOM     59 H57  MCU L   1      -2.056  -3.003   0.774  1.00  0.00    +0.0310  H
ATOM     60 H58  MCU L   1       0.519  -4.518   1.462  1.00  0.00    +0.0233  H
ATOM     61 H59  MCU L   1      -1.095  -5.234   1.302  1.00  0.00    +0.0233  H
ATOM     62 H60  MCU L   1      -0.769  -4.067   2.593  1.00  0.00    +0.0233  H
ATOM     63 H61  MCU L   1       0.853  -2.051   0.945  1.00  0.00    +0.0429  H
ATOM     64 H62  MCU L   1      -0.487  -1.614   2.018  1.00  0.00    +0.0429  H
ENDBRANCH 22 46
ENDBRANCH 6 22
TORSDOF 7
