ROOT
ATOM      1 N16  WH0 L   1      -0.795  -0.635   1.533  1.00  0.00    -0.2837  N
ATOM      2 C17  WH0 L   1      -0.443  -1.284   2.727  1.00  0.00    +0.2395  C
ATOM      3 O18  WH0 L   1       0.663  -1.255   3.260  1.00  0.00    -0.2717 OA
ATOM      4 C19  WH0 L   1      -1.593  -2.058   3.335  1.00  0.00    +0.0758  C
ATOM      5 S20  WH0 L   1      -3.083  -1.316   2.656  1.00  0.00    -0.1088 SA
ATOM      6 C21  WH0 L   1      -2.192  -0.814   1.140  1.00  0.00    +0.2010  C
ATOM      7 C22  WH0 L   1      -2.349  -2.010   0.124  1.00  0.00    +0.2665  C
ATOM      8 O23  WH0 L   1      -1.864  -3.130   0.199  1.00  0.00    -0.2689 OA
ATOM      9 N24  WH0 L   1      -3.145  -1.558  -0.927  1.00  0.00    -0.3228  N
ATOM     10 C25  WH0 L   1      -3.464  -0.216  -0.774  1.00  0.00    +0.0486  A
ATOM     11 C26  WH0 L   1      -4.204   0.557  -1.644  1.00  0.00    -0.0379  A
ATOM     12 C27  WH0 L   1      -4.412   1.893  -1.298  1.00  0.00    -0.0598  A
ATOM     13 C28  WH0 L   1      -3.887   2.416  -0.103  1.00  0.00    -0.0613  A
ATOM     14 C29  WH0 L   1      -3.143   1.612   0.765  1.00  0.00    -0.0531  A
ATOM     15 C30  WH0 L   1      -2.922   0.288   0.413  1.00  0.00    +0.0211  A
ATOM     16 H42  WH0 L   1      -1.514  -3.113   3.061  1.00  0.00    +0.0474  H
ATOM     17 H43  WH0 L   1      -1.585  -1.948   4.422  1.00  0.00    +0.0474  H
ATOM     18 H44  WH0 L   1      -3.404  -2.140  -1.710  1.00  0.00    +0.1687 HD
ATOM     19 H45  WH0 L   1      -4.616   0.152  -2.562  1.00  0.00    +0.0638  H
ATOM     20 H46  WH0 L   1      -4.991   2.539  -1.955  1.00  0.00    +0.0618  H
ATOM     21 H47  WH0 L   1      -4.066   3.459   0.151  1.00  0.00    +0.0618  H
ATOM     22 H48  WH0 L   1      -2.751   2.023   1.691  1.00  0.00    +0.0622  H
ENDROOT
BRANCH 1 28
ATOM     23 C10  WH0 L   1       0.425   0.629  -0.235  1.00  0.00    -0.0221  A
ATOM     24 C11  WH0 L   1       1.060   1.832  -0.608  1.00  0.00    -0.0566  A
ATOM     25 C12  WH0 L   1       1.278   2.853   0.315  1.00  0.00    -0.0614  A
ATOM     26 C13  WH0 L   1       0.878   2.685   1.634  1.00  0.00    -0.0598  A
ATOM     27 C14  WH0 L   1       0.230   1.512   2.018  1.00  0.00    -0.0378  A
ATOM     28 C15  WH0 L   1      -0.036   0.488   1.089  1.00  0.00    +0.0500  A
ATOM     29 H38  WH0 L   1       1.431   1.966  -1.622  1.00  0.00    +0.0621  H
ATOM     30 H39  WH0 L   1       1.794   3.761   0.015  1.00  0.00    +0.0618  H
ATOM     31 H40  WH0 L   1       1.076   3.462   2.368  1.00  0.00    +0.0618  H
ATOM     32 H41  WH0 L   1      -0.078   1.411   3.056  1.00  0.00    +0.0638  H
BRANCH 23 33
ATOM     33  C9  WH0 L   1       0.426  -0.495  -1.246  1.00  0.00    -0.0082  C
ATOM     34 H36  WH0 L   1       0.457  -0.078  -2.262  1.00  0.00    +0.0331  H
ATOM     35 H37  WH0 L   1      -0.513  -1.037  -1.200  1.00  0.00    +0.0331  H
BRANCH 33 36
ATOM     36  C8  WH0 L   1       1.584  -1.486  -1.057  1.00  0.00    +0.0224  C
ATOM     37 H34  WH0 L   1       1.681  -1.796  -0.011  1.00  0.00    +0.0489  H
ATOM     38 H35  WH0 L   1       1.386  -2.381  -1.656  1.00  0.00    +0.0489  H
BRANCH 36 41
ATOM     39  C5  WH0 L   1       3.789  -0.413  -0.694  1.00  0.00    +0.2618  C
ATOM     40  O6  WH0 L   1       3.701  -0.408   0.526  1.00  0.00    -0.2669 OA
ATOM     41  N7  WH0 L   1       2.849  -0.957  -1.543  1.00  0.00    -0.3511  N
ATOM     42 H33  WH0 L   1       2.959  -0.849  -2.542  1.00  0.00    +0.1627 HD
BRANCH 39 44
ATOM     43  C1  WH0 L   1       5.576  -0.400  -2.386  1.00  0.00    -0.0760  C
ATOM     44  C2  WH0 L   1       4.943   0.230  -1.380  1.00  0.00    +0.1085  C
ATOM     45 H31  WH0 L   1       6.437   0.048  -2.875  1.00  0.00    +0.0549  H
ATOM     46 H32  WH0 L   1       5.282  -1.389  -2.721  1.00  0.00    +0.0549  H
BRANCH 44 47
ATOM     47  C3  WH0 L   1       5.383   1.495  -0.901  1.00  0.00    +0.1040  C
ATOM     48  N4  WH0 L   1       5.761   2.546  -0.584  1.00  0.00    -0.1907 NA
ENDBRANCH 44 47
ENDBRANCH 39 44
ENDBRANCH 36 41
ENDBRANCH 33 36
ENDBRANCH 23 33
ENDBRANCH 1 28
TORSDOF 6
