ROOT
ATOM      1  C3  CHE L   1      -0.596   4.054  -1.284  1.00  0.00    +0.1635  A
ATOM      2  C4  CHE L   1      -1.429   2.965  -1.004  1.00  0.00    +0.0099  A
ATOM      3  C5  CHE L   1      -0.926   1.748  -0.560  1.00  0.00    +0.0820  A
ATOM      4  N6  CHE L   1      -1.788   0.763  -0.302  1.00  0.00    -0.2123 NA
ATOM      5  C7  CHE L   1      -1.300  -0.395   0.148  1.00  0.00    +0.2264  A
ATOM      6 N14  CHE L   1      -0.001  -0.643   0.320  1.00  0.00    -0.1950 NA
ATOM      7 C15  CHE L   1       0.875   0.334   0.032  1.00  0.00    +0.1404  A
ATOM      8 C24  CHE L   1       0.452   1.603  -0.402  1.00  0.00    +0.0462  A
ATOM      9 C25  CHE L   1       1.306   2.704  -0.670  1.00  0.00    -0.0036  A
ATOM     10 C26  CHE L   1       0.790   3.925  -1.107  1.00  0.00    +0.1623  A
ATOM     11 H32  CHE L   1      -2.506   3.036  -1.119  1.00  0.00    +0.0677  H
ATOM     12 H58  CHE L   1       2.373   2.579  -0.515  1.00  0.00    +0.0663  H
ENDROOT
BRANCH 1 14
ATOM     13  C1  CHE L   1      -2.439   5.454  -1.884  1.00  0.00    +0.0790  C
ATOM     14  O2  CHE L   1      -1.038   5.277  -1.725  1.00  0.00    -0.4914 OA
ATOM     15 H29  CHE L   1      -2.964   5.331  -0.930  1.00  0.00    +0.0660  H
ATOM     16 H30  CHE L   1      -2.838   4.778  -2.647  1.00  0.00    +0.0660  H
ATOM     17 H31  CHE L   1      -2.609   6.480  -2.226  1.00  0.00    +0.0660  H
ENDBRANCH 1 14
BRANCH 5 18
ATOM     18  N8  CHE L   1      -2.152  -1.432   0.485  1.00  0.00    -0.3535  N
ATOM     19 H33  CHE L   1      -1.575  -2.259   0.588  1.00  0.00    +0.1625 HD
BRANCH 18 20
ATOM     20  C9  CHE L   1      -3.347  -1.599  -0.326  1.00  0.00    +0.0232  C
ATOM     21 H34  CHE L   1      -3.387  -0.903  -1.175  1.00  0.00    +0.0491  H
ATOM     22 H35  CHE L   1      -3.307  -2.601  -0.774  1.00  0.00    +0.0491  H
BRANCH 20 23
ATOM     23 C10  CHE L   1      -4.638  -1.477   0.523  1.00  0.00    -0.0203  C
ATOM     24 C11  CHE L   1      -4.652  -2.520   1.655  1.00  0.00    -0.0585  C
ATOM     25 C12  CHE L   1      -5.848  -1.734  -0.395  1.00  0.00    -0.0585  C
ATOM     26 C13  CHE L   1      -4.773  -0.069   1.128  1.00  0.00    -0.0585  C
ATOM     27 H36  CHE L   1      -4.540  -3.536   1.258  1.00  0.00    +0.0235  H
ATOM     28 H37  CHE L   1      -5.595  -2.484   2.213  1.00  0.00    +0.0235  H
ATOM     29 H38  CHE L   1      -3.842  -2.350   2.373  1.00  0.00    +0.0235  H
ATOM     30 H39  CHE L   1      -5.886  -1.006  -1.214  1.00  0.00    +0.0235  H
ATOM     31 H40  CHE L   1      -5.803  -2.735  -0.838  1.00  0.00    +0.0235  H
ATOM     32 H41  CHE L   1      -6.790  -1.658   0.160  1.00  0.00    +0.0235  H
ATOM     33 H42  CHE L   1      -4.758   0.700   0.347  1.00  0.00    +0.0235  H
ATOM     34 H43  CHE L   1      -3.962   0.148   1.831  1.00  0.00    +0.0235  H
ATOM     35 H44  CHE L   1      -5.715   0.035   1.678  1.00  0.00    +0.0235  H
ENDBRANCH 20 23
ENDBRANCH 18 20
ENDBRANCH 5 18
BRANCH 7 36
ATOM     36 N16  CHE L   1       2.254   0.088   0.199  1.00  0.00    -0.3662  N
ATOM     37 H45  CHE L   1       2.746   0.341  -0.654  1.00  0.00    +0.1613 HD
BRANCH 36 38
ATOM     38 C17  CHE L   1       2.645  -1.244   0.684  1.00  0.00    +0.0308  C
ATOM     39 C18  CHE L   1       2.651  -2.270  -0.454  1.00  0.00    -0.0198  C
ATOM     40 C19  CHE L   1       3.215  -3.606   0.026  1.00  0.00    +0.0005  C
ATOM     41 N20  CHE L   1       4.544  -3.509   0.641  1.00  0.00    -0.3052 NA
ATOM     42 C21  CHE L   1       5.601  -3.295  -0.344  1.00  0.00    -0.0128  C
ATOM     43 C22  CHE L   1       4.567  -2.508   1.714  1.00  0.00    +0.0005  C
ATOM     44 C23  CHE L   1       4.049  -1.134   1.291  1.00  0.00    -0.0198  C
ATOM     45 H46  CHE L   1       1.971  -1.577   1.486  1.00  0.00    +0.0523  H
ATOM     46 H47  CHE L   1       1.635  -2.429  -0.835  1.00  0.00    +0.0297  H
ATOM     47 H48  CHE L   1       3.237  -1.895  -1.304  1.00  0.00    +0.0297  H
ATOM     48 H49  CHE L   1       3.235  -4.320  -0.807  1.00  0.00    +0.0427  H
ATOM     49 H50  CHE L   1       2.526  -4.038   0.763  1.00  0.00    +0.0427  H
ATOM     50 H51  CHE L   1       5.607  -4.106  -1.081  1.00  0.00    +0.0391  H
ATOM     51 H52  CHE L   1       5.503  -2.347  -0.884  1.00  0.00    +0.0391  H
ATOM     52 H53  CHE L   1       6.584  -3.310   0.140  1.00  0.00    +0.0391  H
ATOM     53 H54  CHE L   1       5.580  -2.412   2.123  1.00  0.00    +0.0427  H
ATOM     54 H55  CHE L   1       3.952  -2.879   2.544  1.00  0.00    +0.0427  H
ATOM     55 H56  CHE L   1       4.741  -0.671   0.576  1.00  0.00    +0.0297  H
ATOM     56 H57  CHE L   1       4.023  -0.470   2.164  1.00  0.00    +0.0297  H
ENDBRANCH 36 38
ENDBRANCH 7 36
BRANCH 10 57
ATOM     57 O27  CHE L   1       1.547   5.032  -1.393  1.00  0.00    -0.4914 OA
ATOM     58 C28  CHE L   1       2.924   4.997  -1.045  1.00  0.00    +0.0790  C
ATOM     59 H59  CHE L   1       3.060   4.801   0.024  1.00  0.00    +0.0660  H
ATOM     60 H60  CHE L   1       3.464   4.265  -1.654  1.00  0.00    +0.0660  H
ATOM     61 H61  CHE L   1       3.348   5.983  -1.259  1.00  0.00    +0.0660  H
ENDBRANCH 10 57
TORSDOF 7
