ROOT
ATOM      1 C11  WH0 L   1      -0.088  -1.302   0.146  1.00  0.00    -0.0386  A
ATOM      2 C12  WH0 L   1       0.290  -2.658   0.199  1.00  0.00    -0.0581  A
ATOM      3 C13  WH0 L   1      -0.139  -3.511   1.232  1.00  0.00    -0.0595  A
ATOM      4 C14  WH0 L   1      -0.977  -3.043   2.239  1.00  0.00    -0.0379  A
ATOM      5 C15  WH0 L   1      -1.356  -1.720   2.178  1.00  0.00    +0.0488  A
ATOM      6 C16  WH0 L   1      -0.929  -0.841   1.162  1.00  0.00    +0.0243  A
ATOM      7 C17  WH0 L   1      -1.517   0.529   1.454  1.00  0.00    +0.2013  C
ATOM      8 S18  WH0 L   1      -0.177   1.588   2.127  1.00  0.00    -0.1088 SA
ATOM      9 C19  WH0 L   1      -0.925   3.070   1.488  1.00  0.00    +0.0758  C
ATOM     10 C20  WH0 L   1      -1.903   2.663   0.412  1.00  0.00    +0.2395  C
ATOM     11 O21  WH0 L   1      -2.360   3.538  -0.325  1.00  0.00    -0.2717 OA
ATOM     12 N22  WH0 L   1      -2.190   1.282   0.392  1.00  0.00    -0.2839  N
ATOM     13 C29  WH0 L   1      -2.462   0.234   2.676  1.00  0.00    +0.2665  C
ATOM     14 O30  WH0 L   1      -3.242   0.997   3.227  1.00  0.00    -0.2689 OA
ATOM     15 N31  WH0 L   1      -2.233  -1.088   3.052  1.00  0.00    -0.3228  N
ATOM     16 H41  WH0 L   1       0.938  -3.073  -0.572  1.00  0.00    +0.0620  H
ATOM     17 H42  WH0 L   1       0.189  -4.549   1.240  1.00  0.00    +0.0618  H
ATOM     18 H43  WH0 L   1      -1.317  -3.701   3.031  1.00  0.00    +0.0638  H
ATOM     19 H44  WH0 L   1      -0.150   3.711   1.053  1.00  0.00    +0.0474  H
ATOM     20 H45  WH0 L   1      -1.456   3.611   2.278  1.00  0.00    +0.0474  H
ATOM     21 H51  WH0 L   1      -2.706  -1.523   3.830  1.00  0.00    +0.1687 HD
ENDROOT
BRANCH 1 22
ATOM     22 C10  WH0 L   1       0.413  -0.435  -0.981  1.00  0.00    -0.0257  C
ATOM     23 H39  WH0 L   1      -0.306   0.372  -1.166  1.00  0.00    +0.0314  H
ATOM     24 H40  WH0 L   1       0.416  -1.021  -1.912  1.00  0.00    +0.0314  H
BRANCH 22 25
ATOM     25  C9  WH0 L   1       1.793   0.189  -0.747  1.00  0.00    -0.0315  C
ATOM     26 H37  WH0 L   1       1.899   1.033  -1.442  1.00  0.00    +0.0285  H
ATOM     27 H38  WH0 L   1       1.873   0.611   0.261  1.00  0.00    +0.0285  H
BRANCH 25 28
ATOM     28  C8  WH0 L   1       2.956  -0.778  -0.988  1.00  0.00    +0.0187  C
ATOM     29 H35  WH0 L   1       2.949  -1.592  -0.254  1.00  0.00    +0.0486  H
ATOM     30 H36  WH0 L   1       2.893  -1.215  -1.992  1.00  0.00    +0.0486  H
BRANCH 28 33
ATOM     31  C5  WH0 L   1       4.919   0.030   0.279  1.00  0.00    +0.2618  C
ATOM     32  O6  WH0 L   1       4.592  -0.545   1.310  1.00  0.00    -0.2669 OA
ATOM     33  N7  WH0 L   1       4.227  -0.079  -0.911  1.00  0.00    -0.3514  N
ATOM     34 H34  WH0 L   1       4.488   0.501  -1.695  1.00  0.00    +0.1626 HD
BRANCH 31 36
ATOM     35  C1  WH0 L   1       6.923   0.969  -0.831  1.00  0.00    -0.0760  C
ATOM     36  C2  WH0 L   1       6.110   0.929   0.242  1.00  0.00    +0.1085  C
ATOM     37 H32  WH0 L   1       6.764   0.350  -1.709  1.00  0.00    +0.0549  H
ATOM     38 H33  WH0 L   1       7.804   1.607  -0.841  1.00  0.00    +0.0549  H
BRANCH 36 39
ATOM     39  C3  WH0 L   1       6.397   1.695   1.412  1.00  0.00    +0.1040  C
ATOM     40  N4  WH0 L   1       6.665   2.354   2.332  1.00  0.00    -0.1907 NA
ENDBRANCH 36 39
ENDBRANCH 31 36
ENDBRANCH 28 33
ENDBRANCH 25 28
ENDBRANCH 22 25
ENDBRANCH 1 22
BRANCH 12 41
ATOM     41 C23  WH0 L   1      -3.225   0.711  -0.453  1.00  0.00    +0.0468  A
ATOM     42 C24  WH0 L   1      -3.716  -0.596  -0.269  1.00  0.00    -0.0380  A
ATOM     43 C25  WH0 L   1      -4.742  -1.129  -1.070  1.00  0.00    -0.0598  A
ATOM     44 C26  WH0 L   1      -5.322  -0.364  -2.080  1.00  0.00    -0.0616  A
ATOM     45 C27  WH0 L   1      -4.855   0.923  -2.300  1.00  0.00    -0.0598  A
ATOM     46 C28  WH0 L   1      -3.821   1.445  -1.504  1.00  0.00    -0.0380  A
ATOM     47 H46  WH0 L   1      -3.358  -1.260   0.504  1.00  0.00    +0.0638  H
ATOM     48 H47  WH0 L   1      -5.096  -2.142  -0.882  1.00  0.00    +0.0618  H
ATOM     49 H48  WH0 L   1      -6.127  -0.767  -2.691  1.00  0.00    +0.0618  H
ATOM     50 H49  WH0 L   1      -5.291   1.538  -3.088  1.00  0.00    +0.0618  H
ATOM     51 H50  WH0 L   1      -3.512   2.454  -1.768  1.00  0.00    +0.0638  H
ENDBRANCH 12 41
TORSDOF 7
