ROOT
ATOM      1  C9  EUB L   1       3.888  -0.290   0.344  1.00  0.00    -0.0130  A
ATOM      2 C10  EUB L   1       4.852  -1.118   0.947  1.00  0.00    -0.0538  A
ATOM      3 C11  EUB L   1       6.015  -0.581   1.508  1.00  0.00    -0.0577  A
ATOM      4 C12  EUB L   1       6.237   0.794   1.478  1.00  0.00    -0.0201  A
ATOM      5 C13  EUB L   1       5.290   1.620   0.885  1.00  0.00    +0.1174  A
ATOM      6 O14  EUB L   1       5.462   2.972   0.829  1.00  0.00    -0.5067 OA
ATOM      7 C15  EUB L   1       4.129   1.093   0.324  1.00  0.00    -0.0124  A
ATOM      8 H32  EUB L   1       4.697  -2.194   0.999  1.00  0.00    +0.0624  H
ATOM      9 H33  EUB L   1       6.745  -1.240   1.973  1.00  0.00    +0.0619  H
ATOM     10 H34  EUB L   1       7.144   1.197   1.918  1.00  0.00    +0.0654  H
ATOM     11 H35  EUB L   1       6.306   3.195   1.256  1.00  0.00    +0.2921 HD
ATOM     12 H36  EUB L   1       3.419   1.773  -0.140  1.00  0.00    +0.0660  H
ENDROOT
BRANCH 1 15
ATOM     13  C6  EUB L   1       0.228  -0.906  -0.493  1.00  0.00    +0.0247  A
ATOM     14  C7  EUB L   1       1.393  -0.357   0.074  1.00  0.00    -0.0414  A
ATOM     15  C8  EUB L   1       2.664  -0.853  -0.244  1.00  0.00    +0.0011  A
ATOM     16 C16  EUB L   1       2.695  -1.912  -1.146  1.00  0.00    +0.0376  A
ATOM     17 N17  EUB L   1       1.605  -2.477  -1.719  1.00  0.00    -0.2374 NA
ATOM     18 C18  EUB L   1       0.401  -1.969  -1.395  1.00  0.00    +0.1322  A
ATOM     19 N19  EUB L   1      -0.678  -2.608  -2.007  1.00  0.00    -0.3831  N
ATOM     20 H31  EUB L   1       1.303   0.454   0.795  1.00  0.00    +0.0631  H
ATOM     21 H37  EUB L   1       3.639  -2.354  -1.458  1.00  0.00    +0.0836  H
ATOM     22 H38  EUB L   1      -0.288  -3.282  -2.660  1.00  0.00    +0.1573 HD
ATOM     23 H39  EUB L   1      -1.291  -1.940  -2.462  1.00  0.00    +0.1573 HD
BRANCH 13 26
ATOM     24  C3  EUB L   1      -3.327  -0.677   0.813  1.00  0.00    +0.1657  A
ATOM     25  C4  EUB L   1      -2.074  -1.183   0.459  1.00  0.00    -0.0082  A
ATOM     26  C5  EUB L   1      -1.093  -0.362  -0.127  1.00  0.00    -0.0073  A
ATOM     27 C20  EUB L   1      -1.392   0.997  -0.346  1.00  0.00    -0.0082  A
ATOM     28 C21  EUB L   1      -2.636   1.528   0.005  1.00  0.00    +0.1657  A
ATOM     29 C24  EUB L   1      -3.603   0.677   0.565  1.00  0.00    +0.2035  A
ATOM     30 H30  EUB L   1      -1.827  -2.228   0.628  1.00  0.00    +0.0661  H
ATOM     31 H40  EUB L   1      -0.633   1.622  -0.806  1.00  0.00    +0.0661  H
BRANCH 24 33
ATOM     32  C1  EUB L   1      -4.057  -2.763   1.712  1.00  0.00    +0.0790  C
ATOM     33  O2  EUB L   1      -4.336  -1.409   1.384  1.00  0.00    -0.4913 OA
ATOM     34 H27  EUB L   1      -4.948  -3.182   2.189  1.00  0.00    +0.0660  H
ATOM     35 H28  EUB L   1      -3.855  -3.353   0.811  1.00  0.00    +0.0660  H
ATOM     36 H29  EUB L   1      -3.232  -2.836   2.428  1.00  0.00    +0.0660  H
ENDBRANCH 24 33
BRANCH 28 37
ATOM     37 O22  EUB L   1      -3.007   2.835  -0.177  1.00  0.00    -0.4913 OA
ATOM     38 C23  EUB L   1      -1.987   3.761  -0.527  1.00  0.00    +0.0790  C
ATOM     39 H41  EUB L   1      -1.170   3.749   0.202  1.00  0.00    +0.0660  H
ATOM     40 H42  EUB L   1      -2.427   4.763  -0.517  1.00  0.00    +0.0660  H
ATOM     41 H43  EUB L   1      -1.618   3.570  -1.540  1.00  0.00    +0.0660  H
ENDBRANCH 28 37
BRANCH 29 42
ATOM     42 O25  EUB L   1      -4.818   1.201   0.949  1.00  0.00    -0.4885 OA
ATOM     43 C26  EUB L   1      -5.754   1.084  -0.121  1.00  0.00    +0.0791  C
ATOM     44 H44  EUB L   1      -5.425   1.642  -1.003  1.00  0.00    +0.0660  H
ATOM     45 H45  EUB L   1      -5.934   0.035  -0.382  1.00  0.00    +0.0660  H
ATOM     46 H46  EUB L   1      -6.702   1.514   0.216  1.00  0.00    +0.0660  H
ENDBRANCH 29 42
ENDBRANCH 13 26
ENDBRANCH 1 15
TORSDOF 5
