ROOT
ATOM      1  C9  WH0 L   1       3.700  -0.632   0.908  1.00  0.00    -0.0467  A
ATOM      2 C10  WH0 L   1       4.399  -1.793   0.507  1.00  0.00    -0.0566  A
ATOM      3 C11  WH0 L   1       3.728  -2.886  -0.048  1.00  0.00    -0.0376  A
ATOM      4 C12  WH0 L   1       2.360  -2.789  -0.188  1.00  0.00    +0.0507  A
ATOM      5 C13  WH0 L   1       1.644  -1.658   0.203  1.00  0.00    +0.0444  A
ATOM      6 C14  WH0 L   1       2.304  -0.572   0.760  1.00  0.00    -0.0478  A
ATOM      7 C15  WH0 L   1       0.168  -1.855  -0.071  1.00  0.00    +0.2804  C
ATOM      8 O16  WH0 L   1      -0.536  -1.757   1.162  1.00  0.00    -0.3368 OA
ATOM      9 C17  WH0 L   1      -1.947  -1.765   0.947  1.00  0.00    +0.0637  C
ATOM     10 C18  WH0 L   1      -2.368  -0.538   0.116  1.00  0.00    +0.0644  C
ATOM     11 C19  WH0 L   1      -3.369  -0.978  -0.969  1.00  0.00    +0.0637  C
ATOM     12 O20  WH0 L   1      -4.433  -0.032  -1.072  1.00  0.00    -0.3368 OA
ATOM     13 C21  WH0 L   1      -5.182   0.024   0.136  1.00  0.00    +0.2804  C
ATOM     14 O22  WH0 L   1      -4.375   0.167   1.307  1.00  0.00    -0.3368 OA
ATOM     15 C23  WH0 L   1      -3.036   0.527   0.997  1.00  0.00    +0.0637  C
ATOM     16 C24  WH0 L   1      -6.201  -1.185   0.338  1.00  0.00    +0.2902  C
ATOM     17 O25  WH0 L   1      -5.935  -2.372   0.474  1.00  0.00    -0.2665 OA
ATOM     18 N26  WH0 L   1      -7.487  -0.655   0.345  1.00  0.00    -0.3210  N
ATOM     19 C27  WH0 L   1      -7.464   0.720   0.178  1.00  0.00    +0.0507  A
ATOM     20 C28  WH0 L   1      -8.557   1.561   0.136  1.00  0.00    -0.0378  A
ATOM     21 C29  WH0 L   1      -8.314   2.924  -0.050  1.00  0.00    -0.0598  A
ATOM     22 C30  WH0 L   1      -7.000   3.406  -0.190  1.00  0.00    -0.0612  A
ATOM     23 C31  WH0 L   1      -5.908   2.534  -0.142  1.00  0.00    -0.0510  A
ATOM     24 C32  WH0 L   1      -6.153   1.182   0.048  1.00  0.00    +0.0441  A
ATOM     25 C33  WH0 L   1      -1.112   0.087  -0.509  1.00  0.00    +0.0637  C
ATOM     26 O34  WH0 L   1      -0.258  -0.910  -1.053  1.00  0.00    -0.3368 OA
ATOM     27 C35  WH0 L   1       0.191  -3.316  -0.705  1.00  0.00    +0.2902  C
ATOM     28 O36  WH0 L   1      -0.757  -3.964  -1.127  1.00  0.00    -0.2665 OA
ATOM     29 N37  WH0 L   1       1.513  -3.752  -0.711  1.00  0.00    -0.3210  N
ATOM     30 H48  WH0 L   1       5.478  -1.848   0.634  1.00  0.00    +0.0621  H
ATOM     31 H49  WH0 L   1       4.270  -3.774  -0.350  1.00  0.00    +0.0638  H
ATOM     32 H50  WH0 L   1       1.746   0.303   1.079  1.00  0.00    +0.0625  H
ATOM     33 H51  WH0 L   1      -2.425  -1.757   1.933  1.00  0.00    +0.0569  H
ATOM     34 H52  WH0 L   1      -2.231  -2.716   0.487  1.00  0.00    +0.0569  H
ATOM     35 H53  WH0 L   1      -2.887  -1.035  -1.952  1.00  0.00    +0.0569  H
ATOM     36 H54  WH0 L   1      -3.793  -1.971  -0.788  1.00  0.00    +0.0569  H
ATOM     37 H55  WH0 L   1      -2.493   0.649   1.942  1.00  0.00    +0.0569  H
ATOM     38 H56  WH0 L   1      -3.036   1.512   0.513  1.00  0.00    +0.0569  H
ATOM     39 H57  WH0 L   1      -8.311  -1.225   0.463  1.00  0.00    +0.1688 HD
ATOM     40 H58  WH0 L   1      -9.569   1.188   0.240  1.00  0.00    +0.0638  H
ATOM     41 H59  WH0 L   1      -9.148   3.621  -0.091  1.00  0.00    +0.0618  H
ATOM     42 H60  WH0 L   1      -6.833   4.471  -0.339  1.00  0.00    +0.0618  H
ATOM     43 H61  WH0 L   1      -4.897   2.909  -0.259  1.00  0.00    +0.0623  H
ATOM     44 H62  WH0 L   1      -0.547   0.677   0.224  1.00  0.00    +0.0569  H
ATOM     45 H63  WH0 L   1      -1.380   0.776  -1.319  1.00  0.00    +0.0569  H
ATOM     46 H64  WH0 L   1       1.787  -4.654  -1.068  1.00  0.00    +0.1688 HD
ENDROOT
BRANCH 1 47
ATOM     47  C8  WH0 L   1       4.456   0.538   1.495  1.00  0.00    -0.0261  C
ATOM     48 H46  WH0 L   1       4.026   0.761   2.481  1.00  0.00    +0.0314  H
ATOM     49 H47  WH0 L   1       5.499   0.258   1.686  1.00  0.00    +0.0314  H
BRANCH 47 50
ATOM     50  C7  WH0 L   1       4.413   1.806   0.635  1.00  0.00    -0.0315  C
ATOM     51 H44  WH0 L   1       3.377   2.154   0.535  1.00  0.00    +0.0285  H
ATOM     52 H45  WH0 L   1       4.953   2.597   1.170  1.00  0.00    +0.0285  H
BRANCH 50 53
ATOM     53  C6  WH0 L   1       5.005   1.642  -0.766  1.00  0.00    +0.0187  C
ATOM     54 H42  WH0 L   1       4.434   0.915  -1.352  1.00  0.00    +0.0486  H
ATOM     55 H43  WH0 L   1       4.954   2.601  -1.296  1.00  0.00    +0.0486  H
BRANCH 53 58
ATOM     56  C3  WH0 L   1       7.416   2.053  -0.464  1.00  0.00    +0.2443  C
ATOM     57  O4  WH0 L   1       7.281   3.237  -0.180  1.00  0.00    -0.2683 OA
ATOM     58  N5  WH0 L   1       6.384   1.201  -0.757  1.00  0.00    -0.3525  N
ATOM     59 H41  WH0 L   1       6.588   0.280  -1.117  1.00  0.00    +0.1626 HD
BRANCH 56 61
ATOM     60  C1  WH0 L   1       9.081   0.175  -0.361  1.00  0.00    -0.0936  C
ATOM     61  C2  WH0 L   1       8.776   1.465  -0.560  1.00  0.00    -0.0047  C
ATOM     62 H38  WH0 L   1       8.340  -0.573  -0.106  1.00  0.00    +0.0536  H
ATOM     63 H39  WH0 L   1      10.114  -0.153  -0.419  1.00  0.00    +0.0536  H
ATOM     64 H40  WH0 L   1       9.559   2.193  -0.748  1.00  0.00    +0.0666  H
ENDBRANCH 56 61
ENDBRANCH 53 58
ENDBRANCH 50 53
ENDBRANCH 47 50
ENDBRANCH 1 47
TORSDOF 5
