ROOT
ATOM      1 C18  CHE L   1      -6.819   0.390   0.166  1.00  0.00    +0.0153  A
ATOM      2 C19  CHE L   1      -7.186   0.441  -1.193  1.00  0.00    -0.0377  A
ATOM      3 C20  CHE L   1      -8.285  -0.277  -1.667  1.00  0.00    +0.0205  A
ATOM      4 BR21 CHE L   1      -8.737  -0.174  -3.503  1.00  0.00    -0.0502 Br
ATOM      5 C22  CHE L   1      -9.062  -1.071  -0.823  1.00  0.00    -0.0223  A
ATOM      6 C23  CHE L   1      -8.687  -1.112   0.523  1.00  0.00    +0.0674  A
ATOM      7 N24  CHE L   1      -9.230  -1.783   1.588  1.00  0.00    -0.2769  N
ATOM      8 N25  CHE L   1      -8.586  -1.585   2.748  1.00  0.00    -0.1812 NA
ATOM      9 C26  CHE L   1      -7.598  -0.750   2.414  1.00  0.00    +0.0575  A
ATOM     10 C27  CHE L   1      -7.598  -0.409   1.037  1.00  0.00    +0.0288  A
ATOM     11 H52  CHE L   1      -6.616   1.051  -1.889  1.00  0.00    +0.0635  H
ATOM     12 H53  CHE L   1      -9.917  -1.629  -1.191  1.00  0.00    +0.0650  H
ATOM     13 H54  CHE L   1     -10.038  -2.394   1.588  1.00  0.00    +0.1889 HD
ATOM     14 H55  CHE L   1      -6.913  -0.422   3.186  1.00  0.00    +0.0854  H
ENDROOT
BRANCH 1 17
ATOM     15 N15  CHE L   1      -3.843   2.247   0.895  1.00  0.00    -0.2452  N
ATOM     16 C16  CHE L   1      -4.675   1.712  -0.048  1.00  0.00    +0.0538  A
ATOM     17 C17  CHE L   1      -5.681   1.123   0.686  1.00  0.00    +0.1133  A
ATOM     18 N28  CHE L   1      -5.436   1.338   2.020  1.00  0.00    -0.1295 NA
ATOM     19 N29  CHE L   1      -4.312   2.031   2.137  1.00  0.00    -0.0648 NA
ATOM     20 H51  CHE L   1      -4.461   1.782  -1.104  1.00  0.00    +0.0849  H
BRANCH 15 21
ATOM     21 C14  CHE L   1      -2.626   3.005   0.685  1.00  0.00    +0.0867  C
ATOM     22 H49  CHE L   1      -2.348   3.486   1.629  1.00  0.00    +0.0575  H
ATOM     23 H50  CHE L   1      -2.853   3.790  -0.044  1.00  0.00    +0.0575  H
BRANCH 21 29
ATOM     24  C8  CHE L   1       1.809  -0.725  -0.873  1.00  0.00    -0.0167  A
ATOM     25  C9  CHE L   1       1.453  -0.212  -2.199  1.00  0.00    -0.0525  A
ATOM     26 C10  CHE L   1       0.475   0.699  -2.371  1.00  0.00    -0.0185  A
ATOM     27 C11  CHE L   1      -0.247   1.183  -1.245  1.00  0.00    +0.1379  A
ATOM     28 N12  CHE L   1      -1.230   2.054  -1.147  1.00  0.00    -0.2309 NA
ATOM     29 C13  CHE L   1      -1.538   2.116   0.197  1.00  0.00    +0.0814  A
ATOM     30 C30  CHE L   1      -0.713   1.273   0.918  1.00  0.00    +0.0343  A
ATOM     31 N31  CHE L   1       0.107   0.673  -0.002  1.00  0.00    -0.3060  N
ATOM     32 C32  CHE L   1       1.112  -0.269   0.189  1.00  0.00    +0.0156  A
ATOM     33 H47  CHE L   1       2.004  -0.583  -3.058  1.00  0.00    +0.0622  H
ATOM     34 H48  CHE L   1       0.217   1.078  -3.353  1.00  0.00    +0.0654  H
ATOM     35 H56  CHE L   1      -0.652   1.049   1.974  1.00  0.00    +0.0832  H
ATOM     36 H57  CHE L   1       1.303  -0.594   1.204  1.00  0.00    +0.0816  H
BRANCH 24 37
ATOM     37  C7  CHE L   1       2.903  -1.760  -0.751  1.00  0.00    +0.0254  C
ATOM     38 H45  CHE L   1       3.011  -2.328  -1.685  1.00  0.00    +0.0476  H
ATOM     39 H46  CHE L   1       2.569  -2.493  -0.003  1.00  0.00    +0.0476  H
BRANCH 37 45
ATOM     40  C1  CHE L   1       6.366   0.908   1.049  1.00  0.00    -0.0597  C
ATOM     41  C2  CHE L   1       6.837  -0.287   0.194  1.00  0.00    -0.0326  C
ATOM     42  C3  CHE L   1       8.375  -0.273   0.169  1.00  0.00    -0.0597  C
ATOM     43  C4  CHE L   1       6.335  -1.618   0.813  1.00  0.00    -0.0350  C
ATOM     44  C5  CHE L   1       5.133  -2.232   0.078  1.00  0.00    -0.0003  C
ATOM     45  N6  CHE L   1       4.188  -1.192  -0.324  1.00  0.00    -0.2981 NA
ATOM     46 C33  CHE L   1       4.771  -0.290  -1.330  1.00  0.00    -0.0003  C
ATOM     47 C34  CHE L   1       6.300  -0.159  -1.244  1.00  0.00    -0.0350  C
ATOM     48 H35  CHE L   1       6.674   1.858   0.599  1.00  0.00    +0.0235  H
ATOM     49 H36  CHE L   1       6.798   0.864   2.056  1.00  0.00    +0.0235  H
ATOM     50 H37  CHE L   1       5.278   0.931   1.163  1.00  0.00    +0.0235  H
ATOM     51 H38  CHE L   1       8.770  -1.094  -0.440  1.00  0.00    +0.0235  H
ATOM     52 H39  CHE L   1       8.789  -0.378   1.178  1.00  0.00    +0.0235  H
ATOM     53 H40  CHE L   1       8.755   0.665  -0.254  1.00  0.00    +0.0235  H
ATOM     54 H41  CHE L   1       7.136  -2.368   0.817  1.00  0.00    +0.0283  H
ATOM     55 H42  CHE L   1       6.070  -1.461   1.867  1.00  0.00    +0.0283  H
ATOM     56 H43  CHE L   1       5.472  -2.808  -0.793  1.00  0.00    +0.0427  H
ATOM     57 H44  CHE L   1       4.660  -2.947   0.762  1.00  0.00    +0.0427  H
ATOM     58 H58  CHE L   1       4.534  -0.622  -2.350  1.00  0.00    +0.0427  H
ATOM     59 H59  CHE L   1       4.325   0.704  -1.206  1.00  0.00    +0.0427  H
ATOM     60 H60  CHE L   1       6.752  -0.945  -1.865  1.00  0.00    +0.0283  H
ATOM     61 H61  CHE L   1       6.607   0.795  -1.690  1.00  0.00    +0.0283  H
ENDBRANCH 37 45
ENDBRANCH 24 37
ENDBRANCH 21 29
ENDBRANCH 15 21
ENDBRANCH 1 17
TORSDOF 5
