ROOT
ATOM      1  C3  960 L   1      -2.114  -0.931   0.136  1.00  0.00    +0.1434  A
ATOM      2  C4  960 L   1      -3.467  -1.269   0.273  1.00  0.00    -0.0177  A
ATOM      3  C5  960 L   1      -4.437  -0.273   0.398  1.00  0.00    -0.0553  A
ATOM      4  C6  960 L   1      -4.067   1.073   0.411  1.00  0.00    -0.0483  A
ATOM      5  C7  960 L   1      -5.101   2.144   0.601  1.00  0.00    -0.0396  C
ATOM      6  C8  960 L   1      -2.709   1.407   0.307  1.00  0.00    -0.0318  A
ATOM      7  C9  960 L   1      -1.727   0.418   0.136  1.00  0.00    +0.0841  A
ATOM      8 H24  960 L   1      -3.774  -2.309   0.330  1.00  0.00    +0.0655  H
ATOM      9 H25  960 L   1      -5.481  -0.560   0.512  1.00  0.00    +0.0621  H
ATOM     10 H26  960 L   1      -4.809   3.064   0.084  1.00  0.00    +0.0278  H
ATOM     11 H27  960 L   1      -5.225   2.360   1.667  1.00  0.00    +0.0278  H
ATOM     12 H28  960 L   1      -6.067   1.833   0.189  1.00  0.00    +0.0278  H
ATOM     13 H29  960 L   1      -2.425   2.457   0.336  1.00  0.00    +0.0642  H
ENDROOT
BRANCH 1 15
ATOM     14  C1  960 L   1      -1.349  -2.913  -0.818  1.00  0.00    +0.0789  C
ATOM     15  O2  960 L   1      -1.161  -1.917   0.187  1.00  0.00    -0.4931 OA
ATOM     16 H21  960 L   1      -1.657  -2.480  -1.777  1.00  0.00    +0.0660  H
ATOM     17 H22  960 L   1      -0.391  -3.420  -0.969  1.00  0.00    +0.0660  H
ATOM     18 H23  960 L   1      -2.074  -3.661  -0.484  1.00  0.00    +0.0660  H
ENDBRANCH 1 15
BRANCH 7 19
ATOM     19 N10  960 L   1      -0.392   0.873   0.030  1.00  0.00    -0.3232  N
ATOM     20 C11  960 L   1       0.631   0.254  -0.668  1.00  0.00    +0.2259  C
ATOM     21 O12  960 L   1       0.517  -0.652  -1.486  1.00  0.00    -0.2729 OA
ATOM     22 H30  960 L   1      -0.225   1.831   0.309  1.00  0.00    +0.1687 HD
BRANCH 20 23
ATOM     23 C13  960 L   1       1.974   0.914  -0.394  1.00  0.00    +0.0336  C
ATOM     24 H31  960 L   1       1.998   1.839  -0.983  1.00  0.00    +0.0366  H
ATOM     25 H32  960 L   1       2.030   1.192   0.666  1.00  0.00    +0.0366  H
BRANCH 23 26
ATOM     26 C14  960 L   1       3.159   0.017  -0.785  1.00  0.00    +0.0004  C
ATOM     27 C15  960 L   1       3.310  -1.143   0.176  1.00  0.00    -0.0686  C
ATOM     28 C16  960 L   1       4.302  -1.052   1.072  1.00  0.00    +0.0266  C
ATOM     29 S17  960 L   1       5.182   0.425   0.881  1.00  0.00    +0.1728  S
ATOM     30 O18  960 L   1       6.595   0.148   0.737  1.00  0.00    -0.2226 OA
ATOM     31 O19  960 L   1       4.683   1.410   1.820  1.00  0.00    -0.2226 OA
ATOM     32 C20  960 L   1       4.488   0.783  -0.731  1.00  0.00    +0.0605  C
ATOM     33 H33  960 L   1       3.020  -0.362  -1.805  1.00  0.00    +0.0357  H
ATOM     34 H34  960 L   1       2.627  -1.986   0.140  1.00  0.00    +0.0582  H
ATOM     35 H35  960 L   1       4.555  -1.768   1.837  1.00  0.00    +0.0736  H
ATOM     36 H36  960 L   1       5.189   0.389  -1.475  1.00  0.00    +0.0435  H
ATOM     37 H37  960 L   1       4.392   1.864  -0.858  1.00  0.00    +0.0435  H
ENDBRANCH 23 26
ENDBRANCH 20 23
ENDBRANCH 7 19
TORSDOF 4
