ROOT
ATOM      1 C25  CHE L   1       6.124  -1.236   1.968  1.00  0.00    +0.1351  A
ATOM      2 C26  CHE L   1       7.260  -1.885   2.230  1.00  0.00    +0.0341  A
ATOM      3 C27  CHE L   1       8.421  -1.621   1.371  1.00  0.00    +0.2590  A
ATOM      4 O28  CHE L   1       9.451  -2.268   1.557  1.00  0.00    -0.2672 OA
ATOM      5 N29  CHE L   1       8.242  -0.652   0.390  1.00  0.00    -0.2682  N
ATOM      6 C30  CHE L   1       9.301  -0.343  -0.458  1.00  0.00    +0.0146  A
ATOM      7 C31  CHE L   1       9.179   0.554  -1.442  1.00  0.00    -0.0450  A
ATOM      8 C32  CHE L   1       7.926   1.235  -1.642  1.00  0.00    -0.0569  A
ATOM      9 C33  CHE L   1       6.877   0.970  -0.855  1.00  0.00    -0.0187  A
ATOM     10 C34  CHE L   1       7.003  -0.043   0.235  1.00  0.00    +0.1410  A
ATOM     11 N35  CHE L   1       5.961  -0.303   0.964  1.00  0.00    -0.2242 NA
ATOM     12 H57  CHE L   1       7.370  -2.622   3.018  1.00  0.00    +0.0695  H
ATOM     13 H58  CHE L   1      10.237  -0.876  -0.294  1.00  0.00    +0.0814  H
ATOM     14 H59  CHE L   1      10.009   0.778  -2.103  1.00  0.00    +0.0632  H
ATOM     15 H60  CHE L   1       7.846   1.950  -2.454  1.00  0.00    +0.0619  H
ATOM     16 H61  CHE L   1       5.915   1.450  -0.984  1.00  0.00    +0.0654  H
ENDROOT
BRANCH 1 18
ATOM     17  O1  CHE L   1       5.050  -2.212   3.886  1.00  0.00    -0.2659 OA
ATOM     18  C2  CHE L   1       4.947  -1.567   2.852  1.00  0.00    +0.2709  C
ATOM     19  N3  CHE L   1       3.771  -1.053   2.367  1.00  0.00    -0.3452  N
ATOM     20 H36  CHE L   1       3.815  -0.533   1.497  1.00  0.00    +0.1631 HD
BRANCH 19 21
ATOM     21  C4  CHE L   1       2.499  -1.322   2.988  1.00  0.00    +0.0623  C
ATOM     22 H37  CHE L   1       2.498  -2.332   3.411  1.00  0.00    +0.0552  H
ATOM     23 H38  CHE L   1       2.359  -0.607   3.804  1.00  0.00    +0.0552  H
BRANCH 21 24
ATOM     24  C5  CHE L   1       1.431  -1.180   1.956  1.00  0.00    +0.0791  A
ATOM     25  C6  CHE L   1       0.793  -0.039   1.508  1.00  0.00    +0.0342  A
ATOM     26  N7  CHE L   1      -0.060  -0.453   0.515  1.00  0.00    -0.3060  N
ATOM     27  C8  CHE L   1      -0.916   0.295  -0.290  1.00  0.00    +0.0156  A
ATOM     28  C9  CHE L   1      -1.664  -0.327  -1.224  1.00  0.00    -0.0170  A
ATOM     29 C21  CHE L   1      -1.530  -1.784  -1.357  1.00  0.00    -0.0525  A
ATOM     30 C22  CHE L   1      -0.698  -2.496  -0.572  1.00  0.00    -0.0185  A
ATOM     31 C23  CHE L   1       0.087  -1.831   0.410  1.00  0.00    +0.1379  A
ATOM     32 N24  CHE L   1       0.977  -2.285   1.264  1.00  0.00    -0.2310 NA
ATOM     33 H39  CHE L   1       0.884   0.999   1.790  1.00  0.00    +0.0832  H
ATOM     34 H40  CHE L   1      -0.934   1.367  -0.126  1.00  0.00    +0.0816  H
ATOM     35 H55  CHE L   1      -2.119  -2.292  -2.117  1.00  0.00    +0.0622  H
ATOM     36 H56  CHE L   1      -0.597  -3.573  -0.676  1.00  0.00    +0.0654  H
BRANCH 28 37
ATOM     37 C10  CHE L   1      -2.588   0.409  -2.160  1.00  0.00    +0.0226  C
ATOM     38 H41  CHE L   1      -2.456   1.491  -2.060  1.00  0.00    +0.0474  H
ATOM     39 H42  CHE L   1      -2.292   0.181  -3.189  1.00  0.00    +0.0474  H
BRANCH 37 40
ATOM     40 N11  CHE L   1      -4.001   0.072  -2.005  1.00  0.00    -0.3117 NA
ATOM     41 H43  CHE L   1      -4.129  -0.935  -2.064  1.00  0.00    +0.1223 HD
BRANCH 40 42
ATOM     42 C12  CHE L   1      -4.584   0.590  -0.771  1.00  0.00    -0.0010  C
ATOM     43 H44  CHE L   1      -4.089   0.144   0.100  1.00  0.00    +0.0427  H
ATOM     44 H45  CHE L   1      -4.426   1.671  -0.719  1.00  0.00    +0.0427  H
BRANCH 42 45
ATOM     45 C13  CHE L   1      -6.094   0.264  -0.688  1.00  0.00    -0.0281  C
ATOM     46 C14  CHE L   1      -6.905   0.788  -1.887  1.00  0.00    -0.0436  C
ATOM     47 C15  CHE L   1      -7.041   2.308  -1.891  1.00  0.00    +0.0110  C
ATOM     48 C16  CHE L   1      -7.620   2.812  -0.581  1.00  0.00    +0.2490  C
ATOM     49 F17  CHE L   1      -7.632   4.168  -0.583  1.00  0.00    -0.2057  F
ATOM     50 F18  CHE L   1      -8.915   2.416  -0.487  1.00  0.00    -0.2057  F
ATOM     51 C19  CHE L   1      -6.860   2.318   0.637  1.00  0.00    +0.0110  C
ATOM     52 C20  CHE L   1      -6.699   0.798   0.626  1.00  0.00    -0.0436  C
ATOM     53 H46  CHE L   1      -6.192  -0.831  -0.676  1.00  0.00    +0.0313  H
ATOM     54 H47  CHE L   1      -6.470   0.452  -2.835  1.00  0.00    +0.0270  H
ATOM     55 H48  CHE L   1      -7.910   0.347  -1.845  1.00  0.00    +0.0270  H
ATOM     56 H49  CHE L   1      -7.696   2.607  -2.713  1.00  0.00    +0.0323  H
ATOM     57 H50  CHE L   1      -6.072   2.780  -2.077  1.00  0.00    +0.0323  H
ATOM     58 H51  CHE L   1      -7.396   2.617   1.547  1.00  0.00    +0.0323  H
ATOM     59 H52  CHE L   1      -5.880   2.809   0.683  1.00  0.00    +0.0323  H
ATOM     60 H53  CHE L   1      -7.687   0.342   0.771  1.00  0.00    +0.0270  H
ATOM     61 H54  CHE L   1      -6.088   0.487   1.480  1.00  0.00    +0.0270  H
ENDBRANCH 42 45
ENDBRANCH 40 42
ENDBRANCH 37 40
ENDBRANCH 28 37
ENDBRANCH 21 24
ENDBRANCH 19 21
ENDBRANCH 1 18
TORSDOF 7
