ROOT
ATOM      1 C20  CHE L   1       5.956  -0.424  -0.292  1.00  0.00    +0.0389  A
ATOM      2 C21  CHE L   1       5.823   0.813   0.246  1.00  0.00    -0.0388  A
ATOM      3 C22  CHE L   1       5.513   2.065  -0.527  1.00  0.00    -0.0392  C
ATOM      4 C23  CHE L   1       5.983   1.011   1.681  1.00  0.00    -0.0393  A
ATOM      5 C24  CHE L   1       6.308  -0.008   2.489  1.00  0.00    +0.0162  A
ATOM      6 C25  CHE L   1       6.475   0.122   3.971  1.00  0.00    -0.0244  C
ATOM      7 N26  CHE L   1       6.500  -1.252   1.944  1.00  0.00    -0.3262  N
ATOM      8 C27  CHE L   1       6.378  -1.550   0.610  1.00  0.00    +0.2540  A
ATOM      9 O28  CHE L   1       6.632  -2.675   0.196  1.00  0.00    -0.2675 OA
ATOM     10 H54  CHE L   1       5.600   1.930  -1.607  1.00  0.00    +0.0278  H
ATOM     11 H55  CHE L   1       4.497   2.406  -0.307  1.00  0.00    +0.0278  H
ATOM     12 H56  CHE L   1       6.210   2.866  -0.258  1.00  0.00    +0.0278  H
ATOM     13 H57  CHE L   1       5.824   2.007   2.086  1.00  0.00    +0.0637  H
ATOM     14 H58  CHE L   1       5.847  -0.609   4.491  1.00  0.00    +0.0292  H
ATOM     15 H59  CHE L   1       7.517  -0.048   4.253  1.00  0.00    +0.0292  H
ATOM     16 H60  CHE L   1       6.186   1.116   4.327  1.00  0.00    +0.0292  H
ATOM     17 H61  CHE L   1       6.776  -2.032   2.530  1.00  0.00    +0.1686 HD
ENDROOT
BRANCH 1 18
ATOM     18 C19  CHE L   1       5.764  -0.795  -1.736  1.00  0.00    +0.0491  C
ATOM     19 H52  CHE L   1       6.379  -0.154  -2.377  1.00  0.00    +0.0538  H
ATOM     20 H53  CHE L   1       6.050  -1.826  -1.958  1.00  0.00    +0.0538  H
BRANCH 18 23
ATOM     21 C16  CHE L   1       3.542  -1.575  -2.525  1.00  0.00    +0.2531  C
ATOM     22 O17  CHE L   1       3.891  -2.739  -2.676  1.00  0.00    -0.2676 OA
ATOM     23 N18  CHE L   1       4.379  -0.569  -2.105  1.00  0.00    -0.3478  N
ATOM     24 H51  CHE L   1       4.031   0.375  -2.135  1.00  0.00    +0.1630 HD
BRANCH 21 28
ATOM     25 C12  CHE L   1       0.152   0.074  -2.781  1.00  0.00    -0.0035  A
ATOM     26 S13  CHE L   1       0.035  -0.856  -4.229  1.00  0.00    -0.1003  S
ATOM     27 C14  CHE L   1       1.545  -1.585  -3.975  1.00  0.00    -0.0115  A
ATOM     28 C15  CHE L   1       2.189  -1.114  -2.851  1.00  0.00    +0.0491  A
ATOM     29 C29  CHE L   1       1.341  -0.195  -2.102  1.00  0.00    -0.0277  A
ATOM     30 C30  CHE L   1       1.726   0.366  -0.765  1.00  0.00    -0.0382  C
ATOM     31 H50  CHE L   1       1.922  -2.309  -4.684  1.00  0.00    +0.0701  H
ATOM     32 H62  CHE L   1       2.189   1.349  -0.888  1.00  0.00    +0.0278  H
ATOM     33 H63  CHE L   1       2.430  -0.289  -0.243  1.00  0.00    +0.0278  H
ATOM     34 H64  CHE L   1       0.864   0.466  -0.103  1.00  0.00    +0.0278  H
BRANCH 25 35
ATOM     35 C10  CHE L   1      -1.023   1.002  -2.467  1.00  0.00    -0.0093  C
ATOM     36 C11  CHE L   1      -0.591   2.307  -1.794  1.00  0.00    -0.0576  C
ATOM     37 H46  CHE L   1      -1.419   1.326  -3.443  1.00  0.00    +0.0354  H
ATOM     38 H47  CHE L   1      -0.384   2.186  -0.730  1.00  0.00    +0.0236  H
ATOM     39 H48  CHE L   1       0.306   2.718  -2.269  1.00  0.00    +0.0236  H
ATOM     40 H49  CHE L   1      -1.376   3.067  -1.884  1.00  0.00    +0.0236  H
BRANCH 35 44
ATOM     41  C6  CHE L   1      -4.284  -0.202   0.346  1.00  0.00    +0.0106  C
ATOM     42  C7  CHE L   1      -3.030  -1.087   0.221  1.00  0.00    -0.0371  C
ATOM     43  C8  CHE L   1      -1.849  -0.324  -0.382  1.00  0.00    -0.0482  C
ATOM     44  C9  CHE L   1      -2.196   0.257  -1.761  1.00  0.00    -0.0339  C
ATOM     45 C31  CHE L   1      -3.449   1.146  -1.644  1.00  0.00    -0.0482  C
ATOM     46 C32  CHE L   1      -4.631   0.391  -1.034  1.00  0.00    -0.0371  C
ATOM     47 H40  CHE L   1      -4.056   0.626   1.035  1.00  0.00    +0.0462  H
ATOM     48 H41  CHE L   1      -2.729  -1.469   1.204  1.00  0.00    +0.0280  H
ATOM     49 H42  CHE L   1      -3.248  -1.962  -0.405  1.00  0.00    +0.0280  H
ATOM     50 H43  CHE L   1      -1.006  -1.018  -0.462  1.00  0.00    +0.0269  H
ATOM     51 H44  CHE L   1      -1.552   0.474   0.308  1.00  0.00    +0.0269  H
ATOM     52 H45  CHE L   1      -2.472  -0.592  -2.404  1.00  0.00    +0.0307  H
ATOM     53 H65  CHE L   1      -3.238   2.024  -1.019  1.00  0.00    +0.0269  H
ATOM     54 H66  CHE L   1      -3.736   1.519  -2.636  1.00  0.00    +0.0269  H
ATOM     55 H67  CHE L   1      -5.479   1.082  -0.952  1.00  0.00    +0.0280  H
ATOM     56 H68  CHE L   1      -4.939  -0.408  -1.721  1.00  0.00    +0.0280  H
BRANCH 41 59
ATOM     57  C3  CHE L   1      -6.722  -1.095   2.496  1.00  0.00    +0.0836  C
ATOM     58  C4  CHE L   1      -5.224  -1.404   2.260  1.00  0.00    +0.0268  C
ATOM     59  N5  CHE L   1      -5.416  -1.010   0.836  1.00  0.00    -0.2944 NA
ATOM     60 C33  CHE L   1      -6.552  -0.153   1.279  1.00  0.00    +0.0268  C
ATOM     61 H37  CHE L   1      -7.366  -1.965   2.293  1.00  0.00    +0.0621  H
ATOM     62 H38  CHE L   1      -4.937  -2.451   2.403  1.00  0.00    +0.0452  H
ATOM     63 H39  CHE L   1      -4.549  -0.770   2.853  1.00  0.00    +0.0452  H
ATOM     64 H69  CHE L   1      -6.306   0.884   1.552  1.00  0.00    +0.0452  H
ATOM     65 H70  CHE L   1      -7.399  -0.140   0.584  1.00  0.00    +0.0452  H
BRANCH 57 67
ATOM     66  C1  CHE L   1      -8.382  -0.053   3.926  1.00  0.00    +0.0369  C
ATOM     67  O2  CHE L   1      -7.042  -0.493   3.771  1.00  0.00    -0.3772 OA
ATOM     68 H34  CHE L   1      -8.547   0.184   4.978  1.00  0.00    +0.0524  H
ATOM     69 H35  CHE L   1      -9.082  -0.840   3.629  1.00  0.00    +0.0524  H
ATOM     70 H36  CHE L   1      -8.547   0.848   3.333  1.00  0.00    +0.0524  H
ENDBRANCH 57 67
ENDBRANCH 41 59
ENDBRANCH 35 44
ENDBRANCH 25 35
ENDBRANCH 21 28
ENDBRANCH 18 23
ENDBRANCH 1 18
TORSDOF 7
