ROOT
ATOM      1  C8  187 L   1       0.768  -0.179   0.808  1.00  0.00    -0.0429  A
ATOM      2  C9  187 L   1       0.033   1.003   0.709  1.00  0.00    -0.0564  A
ATOM      3 C10  187 L   1      -1.335   0.972   0.394  1.00  0.00    -0.0354  A
ATOM      4 C11  187 L   1      -2.026  -0.231   0.166  1.00  0.00    +0.0737  A
ATOM      5 C18  187 L   1      -1.252  -1.405   0.262  1.00  0.00    +0.1467  A
ATOM      6 F19  187 L   1      -1.812  -2.612   0.079  1.00  0.00    -0.2033  F
ATOM      7 C20  187 L   1       0.112  -1.387   0.575  1.00  0.00    -0.0212  A
ATOM      8 H29  187 L   1       0.515   1.967   0.866  1.00  0.00    +0.0621  H
ATOM      9 H30  187 L   1      -1.847   1.926   0.302  1.00  0.00    +0.0639  H
ATOM     10 H39  187 L   1       0.639  -2.335   0.634  1.00  0.00    +0.0650  H
ENDROOT
BRANCH 1 11
ATOM     11  C7  187 L   1       2.240  -0.147   1.128  1.00  0.00    -0.0101  C
ATOM     12 H27  187 L   1       2.429   0.616   1.895  1.00  0.00    +0.0330  H
ATOM     13 H28  187 L   1       2.539  -1.100   1.585  1.00  0.00    +0.0330  H
BRANCH 11 14
ATOM     14  C6  187 L   1       3.093   0.131  -0.109  1.00  0.00    +0.0223  C
ATOM     15 H25  187 L   1       2.928  -0.635  -0.875  1.00  0.00    +0.0489  H
ATOM     16 H26  187 L   1       2.828   1.098  -0.552  1.00  0.00    +0.0489  H
BRANCH 14 19
ATOM     17  C3  187 L   1       5.407   0.868  -0.512  1.00  0.00    +0.2443  C
ATOM     18  O4  187 L   1       5.096   1.684  -1.368  1.00  0.00    -0.2683 OA
ATOM     19  N5  187 L   1       4.511   0.113   0.208  1.00  0.00    -0.3522  N
ATOM     20 H24  187 L   1       4.861  -0.654   0.765  1.00  0.00    +0.1626 HD
BRANCH 17 22
ATOM     21  C1  187 L   1       7.822   1.187  -0.800  1.00  0.00    -0.0936  C
ATOM     22  C2  187 L   1       6.819   0.582  -0.151  1.00  0.00    -0.0047  C
ATOM     23 H21  187 L   1       8.856   0.988  -0.540  1.00  0.00    +0.0536  H
ATOM     24 H22  187 L   1       7.632   1.894  -1.604  1.00  0.00    +0.0536  H
ATOM     25 H23  187 L   1       7.023  -0.116   0.651  1.00  0.00    +0.0666  H
ENDBRANCH 17 22
ENDBRANCH 14 19
ENDBRANCH 11 14
ENDBRANCH 1 11
BRANCH 4 26
ATOM     26 N12  187 L   1      -3.377  -0.225  -0.153  1.00  0.00    -0.3640  N
ATOM     27 C13  187 L   1      -4.270   0.866   0.274  1.00  0.00    +0.0422  C
ATOM     28 C14  187 L   1      -5.677   0.319   0.571  1.00  0.00    +0.0653  C
ATOM     29 O15  187 L   1      -6.295  -0.340  -0.542  1.00  0.00    -0.3763 OA
ATOM     30 C16  187 L   1      -5.353  -0.984  -1.413  1.00  0.00    +0.0653  C
ATOM     31 C17  187 L   1      -4.043  -1.406  -0.725  1.00  0.00    +0.0422  C
ATOM     32 H31  187 L   1      -4.322   1.609  -0.530  1.00  0.00    +0.0510  H
ATOM     33 H32  187 L   1      -3.903   1.355   1.183  1.00  0.00    +0.0510  H
ATOM     34 H33  187 L   1      -6.339   1.135   0.879  1.00  0.00    +0.0577  H
ATOM     35 H34  187 L   1      -5.637  -0.398   1.401  1.00  0.00    +0.0577  H
ATOM     36 H35  187 L   1      -5.141  -0.291  -2.235  1.00  0.00    +0.0577  H
ATOM     37 H36  187 L   1      -5.851  -1.859  -1.845  1.00  0.00    +0.0577  H
ATOM     38 H37  187 L   1      -3.410  -1.886  -1.480  1.00  0.00    +0.0510  H
ATOM     39 H38  187 L   1      -4.260  -2.124   0.075  1.00  0.00    +0.0510  H
ENDBRANCH 4 26
TORSDOF 5
