ROOT
ATOM      1  O1  408 L   1      -2.839  -0.728   2.135  1.00  0.00    -0.3915 OA
ATOM      2  C2  408 L   1      -3.386  -0.865   0.829  1.00  0.00    +0.0596  C
ATOM      3  C3  408 L   1      -3.915  -2.279   0.642  1.00  0.00    -0.0265  C
ATOM      4  C4  408 L   1      -2.674  -3.111   0.341  1.00  0.00    -0.0503  C
ATOM      5  C5  408 L   1      -1.590  -2.120  -0.096  1.00  0.00    -0.0463  C
ATOM      6  C6  408 L   1      -2.280  -0.750  -0.239  1.00  0.00    +0.0028  C
ATOM      7 H22  408 L   1      -3.553  -0.899   2.774  1.00  0.00    +0.2098 HD
ATOM      8 H23  408 L   1      -4.179  -0.122   0.697  1.00  0.00    +0.0596  H
ATOM      9 H24  408 L   1      -4.443  -2.660   1.521  1.00  0.00    +0.0290  H
ATOM     10 H25  408 L   1      -4.596  -2.317  -0.216  1.00  0.00    +0.0290  H
ATOM     11 H26  408 L   1      -2.344  -3.660   1.231  1.00  0.00    +0.0266  H
ATOM     12 H27  408 L   1      -2.882  -3.850  -0.440  1.00  0.00    +0.0266  H
ATOM     13 H28  408 L   1      -0.810  -2.084   0.673  1.00  0.00    +0.0269  H
ATOM     14 H29  408 L   1      -1.135  -2.471  -1.024  1.00  0.00    +0.0269  H
ATOM     15 H30  408 L   1      -2.775  -0.713  -1.221  1.00  0.00    +0.0342  H
ENDROOT
BRANCH 6 16
ATOM     16  C7  408 L   1      -1.335   0.492  -0.114  1.00  0.00    +0.0395  C
ATOM     17  C8  408 L   1      -2.176   1.738   0.329  1.00  0.00    +0.0636  C
ATOM     18  O9  408 L   1      -1.414   2.949   0.425  1.00  0.00    -0.3770 OA
ATOM     19 C10  408 L   1      -0.811   3.246  -0.832  1.00  0.00    +0.0605  C
ATOM     20 C11  408 L   1       0.122   2.108  -1.236  1.00  0.00    +0.0232  C
ATOM     21 N12  408 L   1      -0.612   0.831  -1.385  1.00  0.00    -0.2862 NA
ATOM     22 H31  408 L   1      -0.589   0.310   0.671  1.00  0.00    +0.0489  H
ATOM     23 H32  408 L   1      -3.014   1.907  -0.360  1.00  0.00    +0.0575  H
ATOM     24 H33  408 L   1      -2.597   1.590   1.326  1.00  0.00    +0.0575  H
ATOM     25 H34  408 L   1      -0.242   4.174  -0.718  1.00  0.00    +0.0572  H
ATOM     26 H35  408 L   1      -1.589   3.421  -1.586  1.00  0.00    +0.0572  H
ATOM     27 H36  408 L   1       0.898   2.014  -0.466  1.00  0.00    +0.0449  H
ATOM     28 H37  408 L   1       0.605   2.380  -2.182  1.00  0.00    +0.0449  H
BRANCH 21 29
ATOM     29 C13  408 L   1       0.280  -0.203  -1.951  1.00  0.00    +0.0761  C
ATOM     30 H38  408 L   1       0.690   0.179  -2.896  1.00  0.00    +0.0523  H
ATOM     31 H39  408 L   1      -0.313  -1.064  -2.269  1.00  0.00    +0.0523  H
BRANCH 29 32
ATOM     32 C14  408 L   1       1.435  -0.664  -1.112  1.00  0.00    +0.2098  A
ATOM     33 N15  408 L   1       1.595  -1.804  -0.467  1.00  0.00    -0.2204 NA
ATOM     34 C16  408 L   1       2.837  -1.689   0.104  1.00  0.00    +0.0694  A
ATOM     35 C17  408 L   1       3.400  -0.484  -0.240  1.00  0.00    +0.1283  A
ATOM     36 O21  408 L   1       2.518   0.177  -1.042  1.00  0.00    -0.4430 OA
ATOM     37 H40  408 L   1       3.255  -2.471   0.722  1.00  0.00    +0.0865  H
BRANCH 35 38
ATOM     38 C18  408 L   1       4.788   0.048   0.180  1.00  0.00    +0.0188  C
ATOM     39 C19  408 L   1       4.889   1.458   0.701  1.00  0.00    -0.0426  C
ATOM     40 C20  408 L   1       5.071   0.299   1.638  1.00  0.00    -0.0426  C
ATOM     41 H41  408 L   1       5.608  -0.308  -0.435  1.00  0.00    +0.0380  H
ATOM     42 H42  408 L   1       3.981   2.045   0.792  1.00  0.00    +0.0272  H
ATOM     43 H43  408 L   1       5.764   2.036   0.428  1.00  0.00    +0.0272  H
ATOM     44 H44  408 L   1       6.070   0.092   2.004  1.00  0.00    +0.0272  H
ATOM     45 H45  408 L   1       4.288   0.111   2.364  1.00  0.00    +0.0272  H
ENDBRANCH 35 38
ENDBRANCH 29 32
ENDBRANCH 21 29
ENDBRANCH 6 16
TORSDOF 4
