ROOT
ATOM      1  C1  CHE L   1       0.583   1.634  -1.540  1.00  0.00    -0.0438  C
ATOM      2  C2  CHE L   1       0.662   0.108  -1.589  1.00  0.00    +0.0410  C
ATOM      3  C3  CHE L   1       2.104  -0.415  -1.507  1.00  0.00    -0.0115  C
ATOM      4  C4  CHE L   1       2.527  -0.902  -0.111  1.00  0.00    +0.0335  C
ATOM      5 C16  CHE L   1       1.782  -0.161   0.991  1.00  0.00    -0.0141  C
ATOM      6 C17  CHE L   1       0.280  -0.400   0.874  1.00  0.00    +0.0329  C
ATOM      7 N18  CHE L   1      -0.159  -0.498  -0.525  1.00  0.00    -0.2815 NA
ATOM      8 H33  CHE L   1      -0.441   1.977  -1.717  1.00  0.00    +0.0250  H
ATOM      9 H34  CHE L   1       1.214   2.079  -2.318  1.00  0.00    +0.0250  H
ATOM     10 H35  CHE L   1       0.898   2.045  -0.577  1.00  0.00    +0.0250  H
ATOM     11 H36  CHE L   1       0.279  -0.184  -2.574  1.00  0.00    +0.0529  H
ATOM     12 H37  CHE L   1       2.798   0.347  -1.883  1.00  0.00    +0.0305  H
ATOM     13 H38  CHE L   1       2.208  -1.264  -2.199  1.00  0.00    +0.0305  H
ATOM     14 H39  CHE L   1       2.279  -1.970  -0.030  1.00  0.00    +0.0524  H
ATOM     15 H47  CHE L   1       2.125  -0.489   1.979  1.00  0.00    +0.0302  H
ATOM     16 H48  CHE L   1       2.008   0.910   0.944  1.00  0.00    +0.0302  H
ATOM     17 H49  CHE L   1      -0.257   0.400   1.390  1.00  0.00    +0.0496  H
ATOM     18 H50  CHE L   1       0.054  -1.343   1.382  1.00  0.00    +0.0496  H
ENDROOT
BRANCH 4 19
ATOM     19  N5  CHE L   1       3.971  -0.782   0.068  1.00  0.00    -0.3478  N
ATOM     20  C6  CHE L   1       4.841  -1.726  -0.466  1.00  0.00    +0.2739  C
ATOM     21  O7  CHE L   1       4.428  -2.731  -1.036  1.00  0.00    -0.2658 OA
ATOM     22 H40  CHE L   1       4.341   0.108   0.370  1.00  0.00    +0.1629 HD
BRANCH 20 23
ATOM     23  C8  CHE L   1       6.273  -1.421  -0.320  1.00  0.00    +0.1701  A
ATOM     24  C9  CHE L   1       6.908  -0.224   0.119  1.00  0.00    +0.0132  A
ATOM     25 C10  CHE L   1       8.251  -0.497   0.052  1.00  0.00    +0.1411  A
ATOM     26 O14  CHE L   1       8.428  -1.765  -0.395  1.00  0.00    -0.3586 OA
ATOM     27 N15  CHE L   1       7.200  -2.346  -0.630  1.00  0.00    -0.0732 NA
ATOM     28 H41  CHE L   1       6.463   0.710   0.427  1.00  0.00    +0.0676  H
BRANCH 25 29
ATOM     29 C11  CHE L   1       9.396   0.478   0.417  1.00  0.00    +0.0199  C
ATOM     30 C12  CHE L   1       9.672   0.775   1.869  1.00  0.00    -0.0426  C
ATOM     31 C13  CHE L   1      10.630  -0.075   1.083  1.00  0.00    -0.0426  C
ATOM     32 H42  CHE L   1       9.553   1.275  -0.301  1.00  0.00    +0.0380  H
ATOM     33 H43  CHE L   1       9.073   0.285   2.627  1.00  0.00    +0.0272  H
ATOM     34 H44  CHE L   1       9.984   1.780   2.128  1.00  0.00    +0.0272  H
ATOM     35 H45  CHE L   1      10.672  -1.135   1.310  1.00  0.00    +0.0272  H
ATOM     36 H46  CHE L   1      11.588   0.355   0.814  1.00  0.00    +0.0272  H
ENDBRANCH 25 29
ENDBRANCH 20 23
ENDBRANCH 4 19
BRANCH 7 37
ATOM     37 S19  CHE L   1      -1.665  -1.134  -0.889  1.00  0.00    +0.3197  S
ATOM     38 O20  CHE L   1      -2.192  -1.821   0.267  1.00  0.00    -0.1824 OA
ATOM     39 O21  CHE L   1      -1.574  -1.785  -2.175  1.00  0.00    -0.1824 OA
BRANCH 37 40
ATOM     40 N22  CHE L   1      -2.565   0.291  -1.087  1.00  0.00    -0.2843 NA
ATOM     41 C23  CHE L   1      -2.787   1.107   0.137  1.00  0.00    +0.0321  C
ATOM     42 C24  CHE L   1      -4.206   1.662   0.225  1.00  0.00    -0.0188  C
ATOM     43 C25  CHE L   1      -5.236   0.515   0.140  1.00  0.00    +0.0134  C
ATOM     44 C31  CHE L   1      -4.966  -0.334  -1.127  1.00  0.00    -0.0188  C
ATOM     45 C32  CHE L   1      -3.774   0.151  -1.939  1.00  0.00    +0.0321  C
ATOM     46 H51  CHE L   1      -2.593   0.521   1.042  1.00  0.00    +0.0496  H
ATOM     47 H52  CHE L   1      -2.073   1.937   0.133  1.00  0.00    +0.0496  H
ATOM     48 H53  CHE L   1      -4.369   2.399  -0.571  1.00  0.00    +0.0298  H
ATOM     49 H54  CHE L   1      -4.302   2.196   1.178  1.00  0.00    +0.0298  H
ATOM     50 H55  CHE L   1      -5.039  -0.118   1.019  1.00  0.00    +0.0463  H
ATOM     51 H64  CHE L   1      -5.843  -0.365  -1.789  1.00  0.00    +0.0298  H
ATOM     52 H65  CHE L   1      -4.790  -1.375  -0.820  1.00  0.00    +0.0298  H
ATOM     53 H66  CHE L   1      -3.591  -0.527  -2.780  1.00  0.00    +0.0496  H
ATOM     54 H67  CHE L   1      -3.986   1.122  -2.404  1.00  0.00    +0.0496  H
BRANCH 43 55
ATOM     55 N26  CHE L   1      -6.672   0.910   0.169  1.00  0.00    -0.3001 NA
ATOM     56 C27  CHE L   1      -6.924   2.232   0.751  1.00  0.00    -0.0124  C
ATOM     57 H56  CHE L   1      -7.996   2.466   0.730  1.00  0.00    +0.0391  H
ATOM     58 H57  CHE L   1      -6.446   3.023   0.164  1.00  0.00    +0.0391  H
ATOM     59 H58  CHE L   1      -6.583   2.300   1.790  1.00  0.00    +0.0391  H
BRANCH 55 60
ATOM     60 C28  CHE L   1      -7.518  -0.078   0.888  1.00  0.00    +0.0221  C
ATOM     61 H59  CHE L   1      -7.213  -0.145   1.942  1.00  0.00    +0.0449  H
ATOM     62 H60  CHE L   1      -8.554   0.291   0.912  1.00  0.00    +0.0449  H
BRANCH 60 63
ATOM     63 C29  CHE L   1      -7.578  -1.493   0.298  1.00  0.00    +0.0569  C
ATOM     64 O30  CHE L   1      -8.541  -2.265   1.014  1.00  0.00    -0.3937 OA
ATOM     65 H61  CHE L   1      -7.880  -1.464  -0.754  1.00  0.00    +0.0570  H
ATOM     66 H62  CHE L   1      -6.616  -2.004   0.390  1.00  0.00    +0.0570  H
ATOM     67 H63  CHE L   1      -8.541  -3.152   0.616  1.00  0.00    +0.2095 HD
ENDBRANCH 60 63
ENDBRANCH 55 60
ENDBRANCH 43 55
ENDBRANCH 37 40
ENDBRANCH 7 37
TORSDOF 8
