ROOT
ATOM      1 C13  MCU L   1       1.974  -0.946  -0.083  1.00  0.00    +0.1621  A
ATOM      2 C14  MCU L   1       1.883  -0.430   1.214  1.00  0.00    -0.0156  A
ATOM      3 C15  MCU L   1       0.778   0.337   1.599  1.00  0.00    -0.0457  A
ATOM      4 C16  MCU L   1      -0.231   0.618   0.679  1.00  0.00    +0.0427  A
ATOM      5 C17  MCU L   1      -0.144   0.127  -0.624  1.00  0.00    -0.0040  A
ATOM      6 C18  MCU L   1       0.934  -0.682  -0.993  1.00  0.00    +0.1633  A
ATOM      7 O19  MCU L   1       0.915  -1.101  -2.302  1.00  0.00    -0.4789 OA
ATOM      8 C20  MCU L   1       1.058  -2.508  -2.486  1.00  0.00    +0.1674  C
ATOM      9 C21  MCU L   1      -0.043  -3.370  -1.866  1.00  0.00    +0.2588  C
ATOM     10 O22  MCU L   1       0.196  -4.313  -1.113  1.00  0.00    -0.2695 OA
ATOM     11 N23  MCU L   1      -1.312  -3.017  -2.273  1.00  0.00    -0.3492  N
ATOM     12 C24  MCU L   1      -2.488  -3.657  -1.733  1.00  0.00    +0.0436  C
ATOM     13 C25  MCU L   1      -3.172  -2.735  -0.756  1.00  0.00    -0.0246  A
ATOM     14 C26  MCU L   1      -2.789  -2.737   0.592  1.00  0.00    -0.0532  A
ATOM     15 C27  MCU L   1      -3.387  -1.858   1.490  1.00  0.00    -0.0160  A
ATOM     16 C28  MCU L   1      -4.337  -0.943   1.036  1.00  0.00    +0.1625  A
ATOM     17 C29  MCU L   1      -4.769  -0.949  -0.301  1.00  0.00    +0.1618  A
ATOM     18 C32  MCU L   1      -4.164  -1.840  -1.193  1.00  0.00    -0.0114  A
ATOM     19 O33  MCU L   1      -4.848  -0.071   1.967  1.00  0.00    -0.4813 OA
ATOM     20 C34  MCU L   1      -4.441   1.280   1.697  1.00  0.00    +0.1395  C
ATOM     21 C35  MCU L   1      -5.548   2.264   2.086  1.00  0.00    +0.0605  C
ATOM     22 N36  MCU L   1      -4.867   3.447   2.602  1.00  0.00    -0.3326  N
ATOM     23 C37  MCU L   1      -5.510   4.670   2.636  1.00  0.00    +0.2548  C
ATOM     24 O38  MCU L   1      -6.679   4.838   2.309  1.00  0.00    -0.2674 OA
ATOM     25 C45  MCU L   1      -3.430   3.213   2.712  1.00  0.00    +0.0454  C
ATOM     26 C46  MCU L   1      -3.290   1.688   2.641  1.00  0.00    +0.0860  C
ATOM     27 N47  MCU L   1      -1.973   1.176   2.264  1.00  0.00    -0.3440  N
ATOM     28 C48  MCU L   1      -1.395   1.456   1.045  1.00  0.00    +0.2525  C
ATOM     29 O49  MCU L   1      -1.796   2.313   0.269  1.00  0.00    -0.2676 OA
ATOM     30 H65  MCU L   1       2.672  -0.571   1.943  1.00  0.00    +0.0655  H
ATOM     31 H66  MCU L   1       0.737   0.752   2.604  1.00  0.00    +0.0626  H
ATOM     32 H67  MCU L   1      -0.920   0.368  -1.348  1.00  0.00    +0.0663  H
ATOM     33 H68  MCU L   1       1.018  -2.685  -3.568  1.00  0.00    +0.0797  H
ATOM     34 H69  MCU L   1       2.030  -2.883  -2.166  1.00  0.00    +0.0797  H
ATOM     35 H70  MCU L   1      -1.423  -2.116  -2.726  1.00  0.00    +0.1627 HD
ATOM     36 H71  MCU L   1      -2.228  -4.599  -1.244  1.00  0.00    +0.0536  H
ATOM     37 H72  MCU L   1      -3.153  -3.899  -2.567  1.00  0.00    +0.0536  H
ATOM     38 H73  MCU L   1      -2.021  -3.429   0.938  1.00  0.00    +0.0622  H
ATOM     39 H74  MCU L   1      -3.104  -1.873   2.536  1.00  0.00    +0.0655  H
ATOM     40 H78  MCU L   1      -4.453  -1.867  -2.240  1.00  0.00    +0.0659  H
ATOM     41 H79  MCU L   1      -4.166   1.455   0.650  1.00  0.00    +0.0772  H
ATOM     42 H80  MCU L   1      -6.199   1.871   2.876  1.00  0.00    +0.0526  H
ATOM     43 H81  MCU L   1      -6.175   2.523   1.224  1.00  0.00    +0.0526  H
ATOM     44 H86  MCU L   1      -2.943   3.734   1.884  1.00  0.00    +0.0510  H
ATOM     45 H87  MCU L   1      -3.033   3.609   3.651  1.00  0.00    +0.0510  H
ATOM     46 H88  MCU L   1      -3.486   1.266   3.636  1.00  0.00    +0.0577  H
ATOM     47 H89  MCU L   1      -1.701   0.301   2.700  1.00  0.00    +0.1631 HD
ENDROOT
BRANCH 1 48
ATOM     48 O12  MCU L   1       3.061  -1.619  -0.565  1.00  0.00    -0.4857 OA
BRANCH 48 49
ATOM     49 C11  MCU L   1       4.009  -2.178   0.341  1.00  0.00    +0.1181  C
ATOM     50 H63  MCU L   1       4.250  -3.186  -0.007  1.00  0.00    +0.0723  H
ATOM     51 H64  MCU L   1       3.602  -2.355   1.344  1.00  0.00    +0.0723  H
BRANCH 49 52
ATOM     52  C9  MCU L   1       5.281  -1.332   0.396  1.00  0.00    +0.1173  C
ATOM     53 O10  MCU L   1       6.219  -1.976   1.263  1.00  0.00    -0.3858 OA
ATOM     54 H61  MCU L   1       5.009  -0.386   0.881  1.00  0.00    +0.0654  H
ATOM     55 H62  MCU L   1       6.684  -2.652   0.728  1.00  0.00    +0.2100 HD
BRANCH 52 56
ATOM     56  C7  MCU L   1       5.923  -0.949  -0.970  1.00  0.00    +0.1110  C
ATOM     57  O8  MCU L   1       5.107  -0.075  -1.745  1.00  0.00    -0.3865 OA
ATOM     58 H59  MCU L   1       6.792  -0.336  -0.688  1.00  0.00    +0.0646  H
ATOM     59 H60  MCU L   1       4.168  -0.233  -1.516  1.00  0.00    +0.2100 HD
BRANCH 56 60
ATOM     60  C4  MCU L   1       6.516  -2.088  -1.844  1.00  0.00    +0.0957  C
ATOM     61 H55  MCU L   1       7.157  -1.613  -2.598  1.00  0.00    +0.0631  H
BRANCH 60 62
ATOM     62  O3  MCU L   1       7.322  -2.953  -1.011  1.00  0.00    -0.3734 OA
BRANCH 62 64
ATOM     63  C1  MCU L   1       9.440  -3.171  -2.182  1.00  0.00    -0.0416  C
ATOM     64  C2  MCU L   1       8.709  -2.592  -0.985  1.00  0.00    +0.0453  C
ATOM     65 H50  MCU L   1      10.506  -2.937  -2.129  1.00  0.00    +0.0252  H
ATOM     66 H51  MCU L   1       9.047  -2.776  -3.122  1.00  0.00    +0.0252  H
ATOM     67 H52  MCU L   1       9.322  -4.259  -2.218  1.00  0.00    +0.0252  H
ATOM     68 H53  MCU L   1       9.132  -3.017  -0.071  1.00  0.00    +0.0557  H
ATOM     69 H54  MCU L   1       8.827  -1.505  -0.932  1.00  0.00    +0.0557  H
ENDBRANCH 62 64
ENDBRANCH 60 62
BRANCH 60 70
ATOM     70  C5  MCU L   1       5.547  -2.992  -2.623  1.00  0.00    +0.0195  C
ATOM     71  S6  MCU L   1       4.573  -2.201  -3.941  1.00  0.00    -0.1756 SA
ATOM     72 H56  MCU L   1       4.866  -3.530  -1.965  1.00  0.00    +0.0400  H
ATOM     73 H57  MCU L   1       6.139  -3.776  -3.110  1.00  0.00    +0.0400  H
ATOM     74 H58  MCU L   1       5.491  -1.298  -4.308  1.00  0.00    +0.1017 HD
ENDBRANCH 60 70
ENDBRANCH 56 60
ENDBRANCH 52 56
ENDBRANCH 49 52
ENDBRANCH 48 49
ENDBRANCH 1 48
BRANCH 17 75
ATOM     75 O30  MCU L   1      -5.765  -0.067  -0.624  1.00  0.00    -0.4914 OA
ATOM     76 C31  MCU L   1      -6.184  -0.022  -1.980  1.00  0.00    +0.0790  C
ATOM     77 H75  MCU L   1      -6.627  -0.977  -2.289  1.00  0.00    +0.0660  H
ATOM     78 H76  MCU L   1      -5.363   0.264  -2.644  1.00  0.00    +0.0660  H
ATOM     79 H77  MCU L   1      -6.961   0.744  -2.070  1.00  0.00    +0.0660  H
ENDBRANCH 17 75
BRANCH 23 80
ATOM     80 C39  MCU L   1      -4.738   5.846   3.078  1.00  0.00    +0.0420  A
ATOM     81 C40  MCU L   1      -4.311   5.953   4.400  1.00  0.00    -0.0313  A
ATOM     82 C41  MCU L   1      -3.604   7.090   4.747  1.00  0.00    +0.0283  A
ATOM     83 N42  MCU L   1      -3.310   8.083   3.880  1.00  0.00    -0.2632 NA
ATOM     84 C43  MCU L   1      -3.769   7.956   2.614  1.00  0.00    +0.0283  A
ATOM     85 C44  MCU L   1      -4.492   6.868   2.166  1.00  0.00    -0.0313  A
ATOM     86 H82  MCU L   1      -4.531   5.185   5.132  1.00  0.00    +0.0640  H
ATOM     87 H83  MCU L   1      -3.238   7.236   5.758  1.00  0.00    +0.0830  H
ATOM     88 H84  MCU L   1      -3.535   8.786   1.952  1.00  0.00    +0.0830  H
ATOM     89 H85  MCU L   1      -4.848   6.816   1.145  1.00  0.00    +0.0640  H
ENDBRANCH 23 80
TORSDOF 10
