ROOT
ATOM      1 N22  CHE L   1       6.491   0.537   1.323  1.00  0.00    -0.2953 NA
ATOM      2 C23  CHE L   1       6.634  -0.715   0.535  1.00  0.00    +0.0033  C
ATOM      3 C24  CHE L   1       8.041  -1.018  -0.009  1.00  0.00    -0.0146  C
ATOM      4 C25  CHE L   1       8.516   0.177  -0.789  1.00  0.00    -0.0418  A
ATOM      5 C26  CHE L   1       9.184   0.073  -2.010  1.00  0.00    -0.0582  A
ATOM      6 C27  CHE L   1       9.579   1.231  -2.681  1.00  0.00    -0.0615  A
ATOM      7 C28  CHE L   1       9.318   2.486  -2.128  1.00  0.00    -0.0614  A
ATOM      8 C29  CHE L   1       8.668   2.592  -0.897  1.00  0.00    -0.0571  A
ATOM      9 C30  CHE L   1       8.260   1.438  -0.225  1.00  0.00    -0.0302  A
ATOM     10 C31  CHE L   1       7.622   1.474   1.142  1.00  0.00    +0.0244  C
ATOM     11 H60  CHE L   1       6.310  -1.554   1.161  1.00  0.00    +0.0430  H
ATOM     12 H61  CHE L   1       5.958  -0.694  -0.332  1.00  0.00    +0.0430  H
ATOM     13 H62  CHE L   1       7.998  -1.908  -0.648  1.00  0.00    +0.0326  H
ATOM     14 H63  CHE L   1       8.742  -1.225   0.809  1.00  0.00    +0.0326  H
ATOM     15 H64  CHE L   1       9.388  -0.901  -2.448  1.00  0.00    +0.0620  H
ATOM     16 H65  CHE L   1      10.089   1.154  -3.637  1.00  0.00    +0.0618  H
ATOM     17 H66  CHE L   1       9.632   3.384  -2.654  1.00  0.00    +0.0618  H
ATOM     18 H67  CHE L   1       8.489   3.574  -0.467  1.00  0.00    +0.0621  H
ATOM     19 H68  CHE L   1       7.331   2.499   1.405  1.00  0.00    +0.0476  H
ATOM     20 H69  CHE L   1       8.398   1.203   1.870  1.00  0.00    +0.0476  H
ENDROOT
BRANCH 1 21
ATOM     21 C21  CHE L   1       5.199   1.210   1.037  1.00  0.00    +0.0269  C
ATOM     22 H58  CHE L   1       5.170   2.149   1.605  1.00  0.00    +0.0452  H
ATOM     23 H59  CHE L   1       5.109   1.464  -0.027  1.00  0.00    +0.0452  H
BRANCH 21 24
ATOM     24 C19  CHE L   1       3.993   0.361   1.502  1.00  0.00    +0.0855  C
ATOM     25 O20  CHE L   1       4.199   0.007   2.882  1.00  0.00    -0.3888 OA
ATOM     26 H56  CHE L   1       3.937  -0.572   0.931  1.00  0.00    +0.0624  H
ATOM     27 H57  CHE L   1       5.163  -0.163   2.946  1.00  0.00    +0.2099 HD
BRANCH 24 28
ATOM     28 C18  CHE L   1       2.682   1.152   1.362  1.00  0.00    +0.0501  C
ATOM     29 H54  CHE L   1       2.659   1.653   0.389  1.00  0.00    +0.0515  H
ATOM     30 H55  CHE L   1       2.592   1.908   2.147  1.00  0.00    +0.0515  H
BRANCH 28 34
ATOM     31 N14  CHE L   1       0.158  -1.403   0.864  1.00  0.00    -0.3170  N
ATOM     32 C15  CHE L   1      -0.157  -1.108   2.243  1.00  0.00    +0.0409  C
ATOM     33 C16  CHE L   1       0.994  -0.213   2.682  1.00  0.00    +0.0406  C
ATOM     34 N17  CHE L   1       1.499   0.309   1.431  1.00  0.00    -0.3202  N
ATOM     35 C32  CHE L   1       1.105  -0.510   0.366  1.00  0.00    +0.3218  C
ATOM     36 O33  CHE L   1       1.549  -0.458  -0.767  1.00  0.00    -0.2470 OA
ATOM     37 H50  CHE L   1      -1.107  -0.565   2.283  1.00  0.00    +0.0507  H
ATOM     38 H51  CHE L   1      -0.226  -2.025   2.833  1.00  0.00    +0.0507  H
ATOM     39 H52  CHE L   1       0.677   0.600   3.342  1.00  0.00    +0.0506  H
ATOM     40 H53  CHE L   1       1.776  -0.808   3.166  1.00  0.00    +0.0506  H
BRANCH 31 41
ATOM     41 C13  CHE L   1      -0.587  -2.340   0.039  1.00  0.00    +0.0650  C
ATOM     42 H48  CHE L   1      -0.007  -2.540  -0.869  1.00  0.00    +0.0554  H
ATOM     43 H49  CHE L   1      -0.665  -3.288   0.586  1.00  0.00    +0.0554  H
BRANCH 41 47
ATOM     44  C9  CHE L   1      -4.473  -0.964  -1.147  1.00  0.00    -0.0260  A
ATOM     45 C10  CHE L   1      -4.270  -1.401   0.164  1.00  0.00    -0.0551  A
ATOM     46 C11  CHE L   1      -3.015  -1.864   0.558  1.00  0.00    -0.0384  A
ATOM     47 C12  CHE L   1      -1.968  -1.861  -0.360  1.00  0.00    +0.0607  A
ATOM     48 N34  CHE L   1      -2.141  -1.440  -1.635  1.00  0.00    -0.2578 NA
ATOM     49 C35  CHE L   1      -3.369  -1.004  -1.995  1.00  0.00    +0.0314  A
ATOM     50 H46  CHE L   1      -5.075  -1.386   0.895  1.00  0.00    +0.0621  H
ATOM     51 H47  CHE L   1      -2.863  -2.216   1.573  1.00  0.00    +0.0636  H
ATOM     52 H70  CHE L   1      -3.434  -0.669  -3.027  1.00  0.00    +0.0832  H
BRANCH 44 56
ATOM     53  N5  CHE L   1      -8.420   0.563  -0.636  1.00  0.00    -0.3010 NA
ATOM     54  C6  CHE L   1      -8.305  -0.628  -1.525  1.00  0.00    +0.0296  C
ATOM     55  C7  CHE L   1      -6.982  -1.355  -1.332  1.00  0.00    -0.0277  C
ATOM     56  C8  CHE L   1      -5.798  -0.427  -1.648  1.00  0.00    -0.0112  C
ATOM     57 C36  CHE L   1      -6.047   1.012  -1.159  1.00  0.00    -0.0277  C
ATOM     58 C37  CHE L   1      -7.132   1.075  -0.093  1.00  0.00    +0.0296  C
ATOM     59 H41  CHE L   1      -8.405  -0.284  -2.562  1.00  0.00    +0.0495  H
ATOM     60 H42  CHE L   1      -9.125  -1.334  -1.353  1.00  0.00    +0.0495  H
ATOM     61 H43  CHE L   1      -6.942  -1.735  -0.304  1.00  0.00    +0.0288  H
ATOM     62 H44  CHE L   1      -6.941  -2.237  -1.983  1.00  0.00    +0.0288  H
ATOM     63 H45  CHE L   1      -5.730  -0.373  -2.745  1.00  0.00    +0.0350  H
ATOM     64 H71  CHE L   1      -5.127   1.479  -0.786  1.00  0.00    +0.0288  H
ATOM     65 H72  CHE L   1      -6.370   1.619  -2.015  1.00  0.00    +0.0288  H
ATOM     66 H73  CHE L   1      -6.838   0.500   0.793  1.00  0.00    +0.0495  H
ATOM     67 H74  CHE L   1      -7.260   2.122   0.204  1.00  0.00    +0.0495  H
BRANCH 53 69
ATOM     68  C1  CHE L   1     -11.124   0.633  -0.544  1.00  0.00    +0.0573  C
ATOM     69  S2  CHE L   1      -9.686   0.546   0.506  1.00  0.00    +0.2293  S
ATOM     70  O3  CHE L   1      -9.618   1.780   1.259  1.00  0.00    -0.2056 OA
ATOM     71  O4  CHE L   1      -9.658  -0.741   1.169  1.00  0.00    -0.2056 OA
ATOM     72 H38  CHE L   1     -12.004   0.710   0.101  1.00  0.00    +0.0407  H
ATOM     73 H39  CHE L   1     -11.049   1.524  -1.172  1.00  0.00    +0.0407  H
ATOM     74 H40  CHE L   1     -11.191  -0.271  -1.151  1.00  0.00    +0.0407  H
ENDBRANCH 53 69
ENDBRANCH 44 56
ENDBRANCH 41 47
ENDBRANCH 31 41
ENDBRANCH 28 34
ENDBRANCH 24 28
ENDBRANCH 21 24
ENDBRANCH 1 21
TORSDOF 8
