ROOT
ATOM      1 C10  970 L   1      -0.694  -0.502  -0.071  1.00  0.00    +0.0977  C
ATOM      2 C11  970 L   1      -1.709  -1.463   0.495  1.00  0.00    +0.0784  C
ATOM      3 O12  970 L   1      -2.821  -0.621   0.804  1.00  0.00    -0.3458 OA
ATOM      4 C13  970 L   1      -2.768   0.435  -0.176  1.00  0.00    +0.1747  C
ATOM      5 C14  970 L   1      -2.891   1.778   0.537  1.00  0.00    +0.0249  C
ATOM      6 C15  970 L   1      -4.296   1.959   1.088  1.00  0.00    +0.0525  C
ATOM      7 O16  970 L   1      -5.264   1.823   0.046  1.00  0.00    -0.3794 OA
ATOM      8 C17  970 L   1      -5.241   0.519  -0.537  1.00  0.00    +0.0525  C
ATOM      9 C18  970 L   1      -3.895   0.251  -1.189  1.00  0.00    +0.0249  C
ATOM     10 O19  970 L   1      -1.508   0.370  -0.867  1.00  0.00    -0.3417 OA
ATOM     11 H32  970 L   1      -0.254   0.111   0.724  1.00  0.00    +0.0633  H
ATOM     12 H33  970 L   1      -1.365  -1.980   1.395  1.00  0.00    +0.0587  H
ATOM     13 H34  970 L   1      -2.040  -2.204  -0.242  1.00  0.00    +0.0587  H
ATOM     14 H35  970 L   1      -2.162   1.856   1.351  1.00  0.00    +0.0339  H
ATOM     15 H36  970 L   1      -2.667   2.584  -0.174  1.00  0.00    +0.0339  H
ATOM     16 H37  970 L   1      -4.403   2.963   1.510  1.00  0.00    +0.0561  H
ATOM     17 H38  970 L   1      -4.516   1.243   1.888  1.00  0.00    +0.0561  H
ATOM     18 H39  970 L   1      -5.480  -0.229   0.228  1.00  0.00    +0.0561  H
ATOM     19 H40  970 L   1      -6.033   0.480  -1.291  1.00  0.00    +0.0561  H
ATOM     20 H41  970 L   1      -3.744   0.946  -2.024  1.00  0.00    +0.0339  H
ATOM     21 H42  970 L   1      -3.881  -0.762  -1.607  1.00  0.00    +0.0339  H
ENDROOT
BRANCH 1 22
ATOM     22  C9  970 L   1       0.396  -1.158  -0.927  1.00  0.00    +0.0248  C
ATOM     23 H30  970 L   1      -0.084  -1.643  -1.787  1.00  0.00    +0.0450  H
ATOM     24 H31  970 L   1       1.016  -0.376  -1.383  1.00  0.00    +0.0450  H
BRANCH 22 25
ATOM     25  N8  970 L   1       1.242  -2.167  -0.274  1.00  0.00    -0.3089 NA
ATOM     26 H29  970 L   1       0.671  -2.945   0.050  1.00  0.00    +0.1224 HD
BRANCH 25 27
ATOM     27  C7  970 L   1       2.040  -1.659   0.846  1.00  0.00    +0.0293  C
ATOM     28 H27  970 L   1       2.573  -2.511   1.285  1.00  0.00    +0.0479  H
ATOM     29 H28  970 L   1       1.388  -1.281   1.641  1.00  0.00    +0.0479  H
BRANCH 27 35
ATOM     30  C1  970 L   1       5.024   2.694   0.247  1.00  0.00    -0.0159  C
ATOM     31  C2  970 L   1       4.435   1.331   0.164  1.00  0.00    +0.0758  A
ATOM     32  N3  970 L   1       4.903   0.364  -0.592  1.00  0.00    -0.2492 NA
ATOM     33  C4  970 L   1       4.126  -0.775  -0.449  1.00  0.00    +0.0501  A
ATOM     34  C5  970 L   1       4.489  -1.980  -1.240  1.00  0.00    -0.0215  C
ATOM     35  C6  970 L   1       3.064  -0.650   0.434  1.00  0.00    +0.0262  A
ATOM     36 S20  970 L   1       3.051   0.934   1.097  1.00  0.00    -0.0758  S
ATOM     37 H21  970 L   1       5.351   2.915   1.268  1.00  0.00    +0.0298  H
ATOM     38 H22  970 L   1       5.896   2.774  -0.410  1.00  0.00    +0.0298  H
ATOM     39 H23  970 L   1       4.298   3.452  -0.063  1.00  0.00    +0.0298  H
ATOM     40 H24  970 L   1       4.460  -2.880  -0.618  1.00  0.00    +0.0293  H
ATOM     41 H25  970 L   1       3.794  -2.109  -2.076  1.00  0.00    +0.0293  H
ATOM     42 H26  970 L   1       5.500  -1.888  -1.649  1.00  0.00    +0.0293  H
ENDBRANCH 27 35
ENDBRANCH 25 27
ENDBRANCH 22 25
ENDBRANCH 1 22
TORSDOF 4
