ROOT
ATOM      1  O1  CHE L   1      -6.564   0.332  -1.242  1.00  0.00    -0.2839 OA
ATOM      2  C2  CHE L   1      -5.425   0.163  -0.817  1.00  0.00    +0.2229  A
ATOM      3  C3  CHE L   1      -4.285  -0.123  -1.716  1.00  0.00    +0.0053  A
ATOM      4  C4  CHE L   1      -3.071  -0.274  -1.168  1.00  0.00    +0.0150  A
ATOM      5  N5  CHE L   1      -2.795  -0.174   0.195  1.00  0.00    -0.3043  N
ATOM      6 C22  CHE L   1      -3.881   0.055   1.047  1.00  0.00    +0.0564  A
ATOM      7 C23  CHE L   1      -5.147   0.229   0.646  1.00  0.00    +0.1805  A
ATOM      8 O24  CHE L   1      -6.189   0.469   1.515  1.00  0.00    -0.5022 OA
ATOM      9 H25  CHE L   1      -4.485  -0.217  -2.774  1.00  0.00    +0.0672  H
ATOM     10 H26  CHE L   1      -2.237  -0.529  -1.811  1.00  0.00    +0.0814  H
ATOM     11 H33  CHE L   1      -3.641   0.104   2.106  1.00  0.00    +0.0852  H
ATOM     12 H34  CHE L   1      -6.979   0.556   0.941  1.00  0.00    +0.2923 HD
ENDROOT
BRANCH 5 13
ATOM     13  C6  CHE L   1      -1.482  -0.344   0.760  1.00  0.00    +0.1381  A
ATOM     14  C7  CHE L   1      -0.326  -0.165  -0.013  1.00  0.00    -0.0096  A
ATOM     15  C8  CHE L   1       0.958  -0.335   0.539  1.00  0.00    +0.0052  A
ATOM     16 C19  CHE L   1       1.029  -0.665   1.894  1.00  0.00    -0.0343  A
ATOM     17 C20  CHE L   1      -0.141  -0.813   2.609  1.00  0.00    +0.0305  A
ATOM     18 N21  CHE L   1      -1.369  -0.662   2.074  1.00  0.00    -0.2375 NA
ATOM     19 H27  CHE L   1      -0.409   0.164  -1.042  1.00  0.00    +0.0661  H
ATOM     20 H31  CHE L   1       1.985  -0.799   2.392  1.00  0.00    +0.0639  H
ATOM     21 H32  CHE L   1      -0.124  -1.063   3.666  1.00  0.00    +0.0830  H
BRANCH 15 22
ATOM     22  C9  CHE L   1       2.190  -0.154  -0.255  1.00  0.00    +0.0718  A
ATOM     23 C10  CHE L   1       2.270  -0.439  -1.617  1.00  0.00    -0.0357  A
ATOM     24 C11  CHE L   1       3.472  -0.233  -2.289  1.00  0.00    -0.0578  A
ATOM     25 C12  CHE L   1       4.573   0.247  -1.590  1.00  0.00    -0.0316  A
ATOM     26 C13  CHE L   1       4.446   0.500  -0.225  1.00  0.00    +0.1442  A
ATOM     27 N18  CHE L   1       3.266   0.305   0.434  1.00  0.00    -0.2427 NA
ATOM     28 H28  CHE L   1       1.419  -0.833  -2.162  1.00  0.00    +0.0639  H
ATOM     29 H29  CHE L   1       3.550  -0.451  -3.351  1.00  0.00    +0.0619  H
ATOM     30 H30  CHE L   1       5.517   0.414  -2.101  1.00  0.00    +0.0638  H
BRANCH 26 31
ATOM     31 C14  CHE L   1       5.647   1.041   0.540  1.00  0.00    +0.4342  C
ATOM     32 F15  CHE L   1       6.816   0.433   0.176  1.00  0.00    -0.1644  F
ATOM     33 F16  CHE L   1       5.563   0.889   1.892  1.00  0.00    -0.1644  F
ATOM     34 F17  CHE L   1       5.848   2.373   0.323  1.00  0.00    -0.1644  F
ENDBRANCH 26 31
ENDBRANCH 15 22
ENDBRANCH 5 13
TORSDOF 3
