ROOT
ATOM      1  C8  CHE L   1      -1.095   0.277   1.105  1.00  0.00    +0.1434  A
ATOM      2  N9  CHE L   1      -0.229  -0.726   0.809  1.00  0.00    -0.1948 NA
ATOM      3 C10  CHE L   1       0.978  -0.783   1.401  1.00  0.00    +0.2278  A
ATOM      4 N21  CHE L   1       1.463   0.101   2.283  1.00  0.00    -0.1929 NA
ATOM      5 C22  CHE L   1       0.594   1.085   2.560  1.00  0.00    +0.1653  A
ATOM      6 C23  CHE L   1      -0.668   1.242   2.022  1.00  0.00    +0.0806  A
ATOM      7 C24  CHE L   1      -1.157   2.424   2.614  1.00  0.00    +0.0622  A
ATOM      8 N25  CHE L   1      -0.289   2.974   3.471  1.00  0.00    -0.1773 NA
ATOM      9 N26  CHE L   1       0.769   2.131   3.423  1.00  0.00    -0.2493  N
ATOM     10 C27  CHE L   1       1.926   2.397   4.241  1.00  0.00    +0.0324  C
ATOM     11 H50  CHE L   1      -2.111   2.910   2.455  1.00  0.00    +0.0856  H
ATOM     12 H51  CHE L   1       1.609   2.418   5.287  1.00  0.00    +0.0473  H
ATOM     13 H52  CHE L   1       2.340   3.364   3.946  1.00  0.00    +0.0473  H
ATOM     14 H53  CHE L   1       2.674   1.614   4.097  1.00  0.00    +0.0473  H
ENDROOT
BRANCH 1 15
ATOM     15  N7  CHE L   1      -2.344   0.335   0.488  1.00  0.00    -0.3650  N
ATOM     16 H38  CHE L   1      -3.027   0.852   1.032  1.00  0.00    +0.1614 HD
BRANCH 15 17
ATOM     17  C6  CHE L   1      -2.837  -0.931  -0.030  1.00  0.00    +0.0423  C
ATOM     18 H36  CHE L   1      -2.851  -1.697   0.756  1.00  0.00    +0.0536  H
ATOM     19 H37  CHE L   1      -2.201  -1.302  -0.844  1.00  0.00    +0.0536  H
BRANCH 17 24
ATOM     20  C1  CHE L   1      -8.229  -0.054  -2.099  1.00  0.00    -0.0383  C
ATOM     21  C2  CHE L   1      -6.852  -0.297  -1.549  1.00  0.00    -0.0321  A
ATOM     22  C3  CHE L   1      -5.731   0.119  -2.283  1.00  0.00    -0.0571  A
ATOM     23  C4  CHE L   1      -4.439  -0.090  -1.794  1.00  0.00    -0.0566  A
ATOM     24  C5  CHE L   1      -4.236  -0.725  -0.563  1.00  0.00    -0.0269  A
ATOM     25 C28  CHE L   1      -5.353  -1.132   0.180  1.00  0.00    -0.0383  A
ATOM     26 C29  CHE L   1      -6.646  -0.921  -0.309  1.00  0.00    +0.0442  A
ATOM     27 CL30 CHE L   1      -7.971  -1.450   0.666  1.00  0.00    -0.0833 Cl
ATOM     28 H31  CHE L   1      -8.188   0.409  -3.091  1.00  0.00    +0.0278  H
ATOM     29 H32  CHE L   1      -8.772  -0.999  -2.203  1.00  0.00    +0.0278  H
ATOM     30 H33  CHE L   1      -8.788   0.621  -1.443  1.00  0.00    +0.0278  H
ATOM     31 H34  CHE L   1      -5.855   0.615  -3.244  1.00  0.00    +0.0621  H
ATOM     32 H35  CHE L   1      -3.585   0.252  -2.377  1.00  0.00    +0.0621  H
ATOM     33 H54  CHE L   1      -5.216  -1.616   1.145  1.00  0.00    +0.0635  H
ENDBRANCH 17 24
ENDBRANCH 15 17
ENDBRANCH 1 15
BRANCH 3 34
ATOM     34 N11  CHE L   1       1.767  -1.851   0.997  1.00  0.00    -0.3521  N
ATOM     35 H39  CHE L   1       1.304  -2.258   0.189  1.00  0.00    +0.1626 HD
BRANCH 34 36
ATOM     36 C12  CHE L   1       3.164  -1.507   0.710  1.00  0.00    +0.0376  C
ATOM     37 H40  CHE L   1       3.664  -1.111   1.604  1.00  0.00    +0.0505  H
ATOM     38 H41  CHE L   1       3.677  -2.447   0.472  1.00  0.00    +0.0505  H
BRANCH 36 39
ATOM     39 C13  CHE L   1       3.310  -0.515  -0.485  1.00  0.00    +0.0480  C
ATOM     40 N14  CHE L   1       2.473  -0.909  -1.639  1.00  0.00    -0.3222 NA
ATOM     41 H42  CHE L   1       2.944   0.471  -0.169  1.00  0.00    +0.0525  H
ATOM     42 H43  CHE L   1       2.649  -0.244  -2.393  1.00  0.00    +0.1188 HD
ATOM     43 H44  CHE L   1       1.495  -0.766  -1.379  1.00  0.00    +0.1188 HD
BRANCH 39 44
ATOM     44 C15  CHE L   1       4.768  -0.369  -0.885  1.00  0.00    -0.0290  A
ATOM     45 C16  CHE L   1       5.420  -1.353  -1.646  1.00  0.00    -0.0570  A
ATOM     46 C17  CHE L   1       6.766  -1.214  -1.988  1.00  0.00    -0.0615  A
ATOM     47 C18  CHE L   1       7.479  -0.091  -1.573  1.00  0.00    -0.0617  A
ATOM     48 C19  CHE L   1       6.847   0.892  -0.813  1.00  0.00    -0.0615  A
ATOM     49 C20  CHE L   1       5.501   0.754  -0.469  1.00  0.00    -0.0570  A
ATOM     50 H45  CHE L   1       4.875  -2.234  -1.980  1.00  0.00    +0.0621  H
ATOM     51 H46  CHE L   1       7.256  -1.982  -2.581  1.00  0.00    +0.0618  H
ATOM     52 H47  CHE L   1       8.526   0.017  -1.841  1.00  0.00    +0.0618  H
ATOM     53 H48  CHE L   1       7.404   1.767  -0.489  1.00  0.00    +0.0618  H
ATOM     54 H49  CHE L   1       5.028   1.531   0.127  1.00  0.00    +0.0621  H
ENDBRANCH 39 44
ENDBRANCH 36 39
ENDBRANCH 34 36
ENDBRANCH 3 34
TORSDOF 7
