ROOT
ATOM      1 C31  WH0 L   1      -0.173  -2.895  -0.261  1.00  0.00    -0.0133  A
ATOM      2 C32  WH0 L   1      -0.274  -3.855   0.775  1.00  0.00    -0.0519  A
ATOM      3 C33  WH0 L   1       0.318  -5.120   0.638  1.00  0.00    -0.0374  A
ATOM      4 C34  WH0 L   1       1.007  -5.402  -0.539  1.00  0.00    +0.0454  A
ATOM      5 C35  WH0 L   1       1.116  -4.475  -1.553  1.00  0.00    -0.0145  A
ATOM      6 C36  WH0 L   1       0.535  -3.214  -1.439  1.00  0.00    -0.0483  A
ATOM      7 C37  WH0 L   1       1.888  -5.035  -2.704  1.00  0.00    +0.0535  C
ATOM      8 C38  WH0 L   1       2.176  -6.407  -2.172  1.00  0.00    +0.2296  C
ATOM      9 O39  WH0 L   1       2.807  -7.293  -2.808  1.00  0.00    -0.2725 OA
ATOM     10 N40  WH0 L   1       1.648  -6.620  -0.867  1.00  0.00    -0.3256  N
ATOM     11 H64  WH0 L   1      -0.792  -3.615   1.695  1.00  0.00    +0.0624  H
ATOM     12 H65  WH0 L   1       0.244  -5.856   1.428  1.00  0.00    +0.0638  H
ATOM     13 H66  WH0 L   1       0.616  -2.509  -2.256  1.00  0.00    +0.0627  H
ATOM     14 H67  WH0 L   1       2.826  -4.465  -2.870  1.00  0.00    +0.0410  H
ATOM     15 H68  WH0 L   1       1.261  -5.084  -3.619  1.00  0.00    +0.0410  H
ATOM     16 H69  WH0 L   1       1.699  -7.490  -0.290  1.00  0.00    +0.1686 HD
ENDROOT
BRANCH 1 25
ATOM     17 C15  WH0 L   1      -0.250  -0.318  -0.445  1.00  0.00    +0.1018  A
ATOM     18 N16  WH0 L   1      -1.171   0.655  -0.264  1.00  0.00    -0.1627 NA
ATOM     19 N17  WH0 L   1      -2.262   0.070   0.200  1.00  0.00    -0.1987  N
ATOM     20 C18  WH0 L   1      -3.461   0.658   0.458  1.00  0.00    +0.2282  A
ATOM     21 N26  WH0 L   1      -4.506  -0.142   0.820  1.00  0.00    -0.2207 NA
ATOM     22 C27  WH0 L   1      -4.361  -1.496   0.929  1.00  0.00    +0.0334  A
ATOM     23 C28  WH0 L   1      -3.125  -2.100   0.662  1.00  0.00    -0.0173  A
ATOM     24 C29  WH0 L   1      -2.077  -1.257   0.300  1.00  0.00    +0.0803  A
ATOM     25 C30  WH0 L   1      -0.789  -1.560  -0.103  1.00  0.00    +0.0353  A
ATOM     26 H62  WH0 L   1      -5.209  -2.105   1.210  1.00  0.00    +0.0831  H
ATOM     27 H63  WH0 L   1      -3.012  -3.174   0.710  1.00  0.00    +0.0654  H
BRANCH 17 34
ATOM     28  C8  WH0 L   1       2.275  -0.290  -0.261  1.00  0.00    -0.0338  A
ATOM     29  C9  WH0 L   1       3.519  -0.055  -0.876  1.00  0.00    -0.0226  A
ATOM     30 C10  WH0 L   1       3.589   0.400  -2.194  1.00  0.00    +0.1237  A
ATOM     31 F11  WH0 L   1       4.796   0.619  -2.772  1.00  0.00    -0.2055  F
ATOM     32 C12  WH0 L   1       2.419   0.646  -2.911  1.00  0.00    -0.0258  A
ATOM     33 C13  WH0 L   1       1.175   0.424  -2.318  1.00  0.00    -0.0495  A
ATOM     34 C14  WH0 L   1       1.089  -0.060  -1.003  1.00  0.00    +0.0061  A
ATOM     35 H49  WH0 L   1       4.440  -0.212  -0.328  1.00  0.00    +0.0649  H
ATOM     36 H50  WH0 L   1       2.474   1.007  -3.930  1.00  0.00    +0.0646  H
ATOM     37 H51  WH0 L   1       0.276   0.611  -2.893  1.00  0.00    +0.0625  H
BRANCH 28 38
ATOM     38  C7  WH0 L   1       2.252  -0.674   1.204  1.00  0.00    -0.0095  C
ATOM     39 H47  WH0 L   1       1.527  -1.491   1.380  1.00  0.00    +0.0330  H
ATOM     40 H48  WH0 L   1       3.239  -1.079   1.514  1.00  0.00    +0.0330  H
BRANCH 38 41
ATOM     41  C6  WH0 L   1       1.888   0.517   2.102  1.00  0.00    +0.0224  C
ATOM     42 H45  WH0 L   1       0.825   0.794   1.932  1.00  0.00    +0.0489  H
ATOM     43 H46  WH0 L   1       1.987   0.227   3.171  1.00  0.00    +0.0489  H
BRANCH 41 46
ATOM     44  C3  WH0 L   1       4.132   1.715   2.154  1.00  0.00    +0.2443  C
ATOM     45  O4  WH0 L   1       4.655   0.772   2.809  1.00  0.00    -0.2683 OA
ATOM     46  N5  WH0 L   1       2.736   1.677   1.826  1.00  0.00    -0.3522  N
ATOM     47 H44  WH0 L   1       2.299   2.508   1.367  1.00  0.00    +0.1626 HD
BRANCH 44 49
ATOM     48  C1  WH0 L   1       6.260   2.932   1.938  1.00  0.00    -0.0936  C
ATOM     49  C2  WH0 L   1       4.948   2.863   1.720  1.00  0.00    -0.0047  C
ATOM     50 H41  WH0 L   1       6.790   2.138   2.449  1.00  0.00    +0.0536  H
ATOM     51 H42  WH0 L   1       6.819   3.792   1.595  1.00  0.00    +0.0536  H
ATOM     52 H43  WH0 L   1       4.464   3.677   1.194  1.00  0.00    +0.0666  H
ENDBRANCH 44 49
ENDBRANCH 41 46
ENDBRANCH 38 41
ENDBRANCH 28 38
ENDBRANCH 17 34
BRANCH 20 53
ATOM     53 N19  WH0 L   1      -3.647   2.081   0.340  1.00  0.00    -0.3401  N
ATOM     54 C20  WH0 L   1      -2.643   2.996   0.911  1.00  0.00    +0.0237  C
ATOM     55 C21  WH0 L   1      -3.249   4.372   1.206  1.00  0.00    -0.0090  C
ATOM     56 C22  WH0 L   1      -3.913   4.963  -0.049  1.00  0.00    +0.0585  C
ATOM     57 O23  WH0 L   1      -4.678   6.078   0.330  1.00  0.00    -0.3917 OA
ATOM     58 C24  WH0 L   1      -4.797   3.938  -0.811  1.00  0.00    -0.0090  C
ATOM     59 C25  WH0 L   1      -4.956   2.598  -0.081  1.00  0.00    +0.0237  C
ATOM     60 H52  WH0 L   1      -1.800   3.117   0.197  1.00  0.00    +0.0489  H
ATOM     61 H53  WH0 L   1      -2.247   2.576   1.862  1.00  0.00    +0.0489  H
ATOM     62 H54  WH0 L   1      -4.004   4.272   2.018  1.00  0.00    +0.0307  H
ATOM     63 H55  WH0 L   1      -2.452   5.058   1.568  1.00  0.00    +0.0307  H
ATOM     64 H56  WH0 L   1      -3.094   5.298  -0.730  1.00  0.00    +0.0594  H
ATOM     65 H57  WH0 L   1      -4.861   6.595  -0.498  1.00  0.00    +0.2098 HD
ATOM     66 H58  WH0 L   1      -5.809   4.358  -0.999  1.00  0.00    +0.0307  H
ATOM     67 H59  WH0 L   1      -4.343   3.740  -1.807  1.00  0.00    +0.0307  H
ATOM     68 H60  WH0 L   1      -5.607   2.727   0.811  1.00  0.00    +0.0489  H
ATOM     69 H61  WH0 L   1      -5.451   1.879  -0.771  1.00  0.00    +0.0489  H
ENDBRANCH 20 53
ENDBRANCH 1 25
TORSDOF 7
