ROOT
ATOM      1  C3  CHE L   1       0.860  -0.968   0.614  1.00  0.00    +0.1623  A
ATOM      2  C4  CHE L   1      -0.537  -0.954   0.553  1.00  0.00    -0.0052  A
ATOM      3  C5  CHE L   1      -1.262   0.231   0.264  1.00  0.00    +0.0271  A
ATOM      4  C6  CHE L   1      -2.686   0.290   0.172  1.00  0.00    +0.0466  A
ATOM      5 C15  CHE L   1      -3.263   1.543  -0.025  1.00  0.00    -0.0170  A
ATOM      6 C16  CHE L   1      -2.460   2.662  -0.199  1.00  0.00    +0.0409  A
ATOM      7 C17  CHE L   1      -3.085   4.006  -0.429  1.00  0.00    -0.0223  C
ATOM      8 N18  CHE L   1      -1.115   2.605  -0.167  1.00  0.00    -0.2516 NA
ATOM      9 C19  CHE L   1      -0.532   1.423   0.068  1.00  0.00    +0.0769  A
ATOM     10 C20  CHE L   1       0.854   1.396   0.126  1.00  0.00    +0.0097  A
ATOM     11 C21  CHE L   1       1.564   0.222   0.388  1.00  0.00    +0.1639  A
ATOM     12 H34  CHE L   1      -1.092  -1.864   0.748  1.00  0.00    +0.0662  H
ATOM     13 H48  CHE L   1      -4.334   1.675  -0.070  1.00  0.00    +0.0656  H
ATOM     14 H49  CHE L   1      -3.676   4.302   0.444  1.00  0.00    +0.0292  H
ATOM     15 H50  CHE L   1      -3.734   3.976  -1.310  1.00  0.00    +0.0292  H
ATOM     16 H51  CHE L   1      -2.318   4.769  -0.599  1.00  0.00    +0.0292  H
ATOM     17 H52  CHE L   1       1.366   2.339  -0.036  1.00  0.00    +0.0677  H
ENDROOT
BRANCH 1 19
ATOM     18  C1  CHE L   1       0.940  -3.289   1.186  1.00  0.00    +0.0790  C
ATOM     19  O2  CHE L   1       1.619  -2.079   0.882  1.00  0.00    -0.4914 OA
ATOM     20 H31  CHE L   1       1.696  -4.052   1.398  1.00  0.00    +0.0660  H
ATOM     21 H32  CHE L   1       0.350  -3.636   0.331  1.00  0.00    +0.0660  H
ATOM     22 H33  CHE L   1       0.318  -3.180   2.080  1.00  0.00    +0.0660  H
ENDBRANCH 1 19
BRANCH 4 23
ATOM     23  N7  CHE L   1      -3.439  -0.873   0.356  1.00  0.00    -0.3811  N
ATOM     24 H35  CHE L   1      -2.993  -1.662  -0.108  1.00  0.00    +0.1599 HD
BRANCH 23 25
ATOM     25  C8  CHE L   1      -4.899  -1.021   0.361  1.00  0.00    +0.0294  C
ATOM     26  C9  CHE L   1      -5.579  -0.341   1.548  1.00  0.00    -0.0198  C
ATOM     27 C10  CHE L   1      -7.081  -0.616   1.471  1.00  0.00    +0.0005  C
ATOM     28 N11  CHE L   1      -7.708  -0.172   0.219  1.00  0.00    -0.3052 NA
ATOM     29 C12  CHE L   1      -8.730  -1.112  -0.233  1.00  0.00    -0.0128  C
ATOM     30 C13  CHE L   1      -6.773   0.197  -0.845  1.00  0.00    +0.0005  C
ATOM     31 C14  CHE L   1      -5.562  -0.724  -0.988  1.00  0.00    -0.0198  C
ATOM     32 H36  CHE L   1      -5.051  -2.098   0.525  1.00  0.00    +0.0522  H
ATOM     33 H37  CHE L   1      -5.178  -0.741   2.487  1.00  0.00    +0.0297  H
ATOM     34 H38  CHE L   1      -5.402   0.738   1.576  1.00  0.00    +0.0297  H
ATOM     35 H39  CHE L   1      -7.230  -1.694   1.622  1.00  0.00    +0.0427  H
ATOM     36 H40  CHE L   1      -7.583  -0.116   2.307  1.00  0.00    +0.0427  H
ATOM     37 H41  CHE L   1      -9.285  -0.702  -1.085  1.00  0.00    +0.0391  H
ATOM     38 H42  CHE L   1      -8.300  -2.074  -0.532  1.00  0.00    +0.0391  H
ATOM     39 H43  CHE L   1      -9.466  -1.292   0.559  1.00  0.00    +0.0391  H
ATOM     40 H44  CHE L   1      -6.426   1.216  -0.637  1.00  0.00    +0.0427  H
ATOM     41 H45  CHE L   1      -7.289   0.277  -1.811  1.00  0.00    +0.0427  H
ATOM     42 H46  CHE L   1      -5.888  -1.672  -1.436  1.00  0.00    +0.0297  H
ATOM     43 H47  CHE L   1      -4.857  -0.288  -1.704  1.00  0.00    +0.0297  H
ENDBRANCH 23 25
ENDBRANCH 4 23
BRANCH 11 44
ATOM     44 O22  CHE L   1       2.932   0.137   0.455  1.00  0.00    -0.4882 OA
BRANCH 44 45
ATOM     45 C23  CHE L   1       3.688   1.319   0.205  1.00  0.00    +0.0909  C
ATOM     46 H53  CHE L   1       3.454   2.074   0.964  1.00  0.00    +0.0697  H
ATOM     47 H54  CHE L   1       3.464   1.716  -0.793  1.00  0.00    +0.0697  H
BRANCH 45 48
ATOM     48 C24  CHE L   1       5.177   0.982   0.298  1.00  0.00    -0.0058  C
ATOM     49 H55  CHE L   1       5.376   0.537   1.279  1.00  0.00    +0.0310  H
ATOM     50 H56  CHE L   1       5.743   1.917   0.228  1.00  0.00    +0.0310  H
BRANCH 48 51
ATOM     51 C25  CHE L   1       5.605   0.010  -0.812  1.00  0.00    +0.0020  C
ATOM     52 H57  CHE L   1       5.345   0.449  -1.784  1.00  0.00    +0.0428  H
ATOM     53 H58  CHE L   1       5.008  -0.909  -0.742  1.00  0.00    +0.0428  H
BRANCH 51 54
ATOM     54 N26  CHE L   1       7.015  -0.373  -0.858  1.00  0.00    -0.3022 NA
ATOM     55 C27  CHE L   1       7.493  -1.125   0.298  1.00  0.00    -0.0011  C
ATOM     56 C28  CHE L   1       8.992  -1.189   0.047  1.00  0.00    -0.0390  C
ATOM     57 C29  CHE L   1       9.306   0.031  -0.817  1.00  0.00    -0.0390  C
ATOM     58 C30  CHE L   1       7.966   0.716  -1.046  1.00  0.00    -0.0011  C
ATOM     59 H59  CHE L   1       7.053  -2.125   0.355  1.00  0.00    +0.0426  H
ATOM     60 H60  CHE L   1       7.304  -0.603   1.243  1.00  0.00    +0.0426  H
ATOM     61 H61  CHE L   1       9.255  -2.104  -0.497  1.00  0.00    +0.0278  H
ATOM     62 H62  CHE L   1       9.559  -1.181   0.983  1.00  0.00    +0.0278  H
ATOM     63 H63  CHE L   1       9.749  -0.290  -1.767  1.00  0.00    +0.0278  H
ATOM     64 H64  CHE L   1      10.018   0.701  -0.324  1.00  0.00    +0.0278  H
ATOM     65 H65  CHE L   1       7.841   1.515  -0.307  1.00  0.00    +0.0426  H
ATOM     66 H66  CHE L   1       7.904   1.152  -2.048  1.00  0.00    +0.0426  H
ENDBRANCH 51 54
ENDBRANCH 48 51
ENDBRANCH 45 48
ENDBRANCH 44 45
ENDBRANCH 11 44
TORSDOF 8
