ROOT
ATOM      1 C11  CHE L   1      -1.668   0.123  -0.356  1.00  0.00    +0.0082  C
ATOM      2 C17  CHE L   1      -1.522  -1.416  -0.519  1.00  0.00    -0.0191  C
ATOM      3 C18  CHE L   1      -2.847  -2.174  -0.591  1.00  0.00    +0.0492  C
ATOM      4 O19  CHE L   1      -3.914  -1.448  -0.004  1.00  0.00    -0.3738 OA
ATOM      5 C20  CHE L   1      -4.233  -0.219  -0.671  1.00  0.00    +0.0648  C
ATOM      6 C21  CHE L   1      -5.125  -0.516  -1.889  1.00  0.00    -0.0361  C
ATOM      7 C22  CHE L   1      -5.070   0.602   0.321  1.00  0.00    -0.0361  C
ATOM      8 C23  CHE L   1      -2.960   0.547  -1.109  1.00  0.00    -0.0140  C
ATOM      9 H39  CHE L   1      -0.977  -1.657  -1.442  1.00  0.00    +0.0296  H
ATOM     10 H40  CHE L   1      -0.902  -1.840   0.281  1.00  0.00    +0.0296  H
ATOM     11 H41  CHE L   1      -3.093  -2.426  -1.628  1.00  0.00    +0.0560  H
ATOM     12 H42  CHE L   1      -2.754  -3.125  -0.057  1.00  0.00    +0.0560  H
ATOM     13 H43  CHE L   1      -5.472   0.407  -2.364  1.00  0.00    +0.0257  H
ATOM     14 H44  CHE L   1      -4.595  -1.105  -2.645  1.00  0.00    +0.0257  H
ATOM     15 H45  CHE L   1      -5.999  -1.109  -1.596  1.00  0.00    +0.0257  H
ATOM     16 H46  CHE L   1      -4.541   0.764   1.264  1.00  0.00    +0.0257  H
ATOM     17 H47  CHE L   1      -5.349   1.577  -0.093  1.00  0.00    +0.0257  H
ATOM     18 H48  CHE L   1      -5.990   0.067   0.586  1.00  0.00    +0.0257  H
ATOM     19 H49  CHE L   1      -3.127   1.631  -1.052  1.00  0.00    +0.0301  H
ATOM     20 H50  CHE L   1      -2.791   0.351  -2.179  1.00  0.00    +0.0301  H
ENDROOT
BRANCH 1 21
ATOM     21 C10  CHE L   1      -0.444   0.803  -1.057  1.00  0.00    -0.0253  C
ATOM     22 H34  CHE L   1      -0.568   1.894  -1.072  1.00  0.00    +0.0291  H
ATOM     23 H35  CHE L   1      -0.430   0.509  -2.117  1.00  0.00    +0.0291  H
BRANCH 21 24
ATOM     24  C9  CHE L   1       0.924   0.460  -0.445  1.00  0.00    +0.0164  C
ATOM     25 H32  CHE L   1       1.064  -0.626  -0.459  1.00  0.00    +0.0485  H
ATOM     26 H33  CHE L   1       0.982   0.809   0.592  1.00  0.00    +0.0485  H
BRANCH 24 27
ATOM     27  N8  CHE L   1       1.972   1.100  -1.239  1.00  0.00    -0.3843  N
ATOM     28 H31  CHE L   1       1.760   2.070  -1.460  1.00  0.00    +0.1596 HD
BRANCH 27 33
ATOM     29  C3  CHE L   1       5.144  -0.188   0.299  1.00  0.00    +0.1220  A
ATOM     30  C4  CHE L   1       6.063   0.697  -0.262  1.00  0.00    -0.0198  A
ATOM     31  C5  CHE L   1       5.621   1.694  -1.130  1.00  0.00    -0.0564  A
ATOM     32  C6  CHE L   1       4.261   1.814  -1.426  1.00  0.00    -0.0385  A
ATOM     33  C7  CHE L   1       3.311   0.964  -0.844  1.00  0.00    +0.0388  A
ATOM     34 C24  CHE L   1       3.782  -0.055  -0.008  1.00  0.00    +0.0031  A
ATOM     35 H28  CHE L   1       7.125   0.631  -0.055  1.00  0.00    +0.0654  H
ATOM     36 H29  CHE L   1       6.335   2.374  -1.586  1.00  0.00    +0.0619  H
ATOM     37 H30  CHE L   1       3.946   2.585  -2.125  1.00  0.00    +0.0638  H
ATOM     38 H51  CHE L   1       3.098  -0.774   0.432  1.00  0.00    +0.0675  H
BRANCH 29 40
ATOM     39  C1  CHE L   1       6.808  -1.403   1.486  1.00  0.00    +0.0788  C
ATOM     40  O2  CHE L   1       5.439  -1.220   1.149  1.00  0.00    -0.4950 OA
ATOM     41 H25  CHE L   1       6.874  -2.260   2.164  1.00  0.00    +0.0660  H
ATOM     42 H26  CHE L   1       7.406  -1.636   0.599  1.00  0.00    +0.0660  H
ATOM     43 H27  CHE L   1       7.205  -0.530   2.014  1.00  0.00    +0.0660  H
ENDBRANCH 29 40
ENDBRANCH 27 33
ENDBRANCH 24 27
ENDBRANCH 21 24
ENDBRANCH 1 21
BRANCH 1 44
ATOM     44 C12  CHE L   1      -1.740   0.555   1.124  1.00  0.00    -0.0038  A
ATOM     45 C13  CHE L   1      -1.866  -0.226   2.263  1.00  0.00    -0.0510  A
ATOM     46 C14  CHE L   1      -1.896   0.535   3.467  1.00  0.00    -0.0545  A
ATOM     47 C15  CHE L   1      -1.805   1.884   3.225  1.00  0.00    -0.0240  A
ATOM     48 S16  CHE L   1      -1.697   2.229   1.559  1.00  0.00    -0.1010  S
ATOM     49 H36  CHE L   1      -1.950  -1.306   2.247  1.00  0.00    +0.0626  H
ATOM     50 H37  CHE L   1      -1.988   0.111   4.459  1.00  0.00    +0.0623  H
ATOM     51 H38  CHE L   1      -1.807   2.688   3.948  1.00  0.00    +0.0693  H
ENDBRANCH 1 44
TORSDOF 6
