ROOT
ATOM      1  C4  188 L   1      -2.834   0.188  -1.301  1.00  0.00    +0.1361  A
ATOM      2  N5  188 L   1      -2.219   0.010  -2.458  1.00  0.00    -0.1340 NA
ATOM      3  N6  188 L   1      -0.911  -0.341  -2.218  1.00  0.00    -0.1322 NA
ATOM      4  C7  188 L   1      -0.744  -0.372  -0.917  1.00  0.00    +0.1560  A
ATOM      5  N8  188 L   1      -1.924  -0.037  -0.308  1.00  0.00    -0.3112  N
ATOM      6  C9  188 L   1      -2.012   0.037   1.128  1.00  0.00    +0.0438  C
ATOM      7 C10  188 L   1      -0.716   0.620   1.685  1.00  0.00    +0.0402  C
ATOM      8 N11  188 L   1       0.526   0.055   1.129  1.00  0.00    -0.3271  N
ATOM      9 C12  188 L   1       1.700   0.509   1.717  1.00  0.00    +0.2541  C
ATOM     10 O13  188 L   1       1.716   1.253   2.695  1.00  0.00    -0.2676 OA
ATOM     11 C20  188 L   1       0.473  -0.733  -0.130  1.00  0.00    +0.0898  C
ATOM     12 C21  188 L   1       0.471  -2.236   0.161  1.00  0.00    -0.0373  C
ATOM     13 H29  188 L   1      -2.859   0.656   1.423  1.00  0.00    +0.0510  H
ATOM     14 H30  188 L   1      -2.175  -0.984   1.491  1.00  0.00    +0.0510  H
ATOM     15 H31  188 L   1      -0.686   1.697   1.472  1.00  0.00    +0.0506  H
ATOM     16 H32  188 L   1      -0.699   0.511   2.775  1.00  0.00    +0.0506  H
ATOM     17 H40  188 L   1       1.351  -0.496  -0.739  1.00  0.00    +0.0603  H
ATOM     18 H41  188 L   1       0.431  -2.814  -0.770  1.00  0.00    +0.0254  H
ATOM     19 H42  188 L   1      -0.392  -2.530   0.769  1.00  0.00    +0.0254  H
ATOM     20 H43  188 L   1       1.366  -2.546   0.705  1.00  0.00    +0.0254  H
ENDROOT
BRANCH 1 22
ATOM     21  C1  188 L   1      -4.447   2.004  -0.671  1.00  0.00    -0.0557  C
ATOM     22  C2  188 L   1      -4.276   0.567  -1.158  1.00  0.00    +0.0135  C
ATOM     23  C3  188 L   1      -5.068  -0.425  -0.308  1.00  0.00    -0.0557  C
ATOM     24 H22  188 L   1      -3.901   2.703  -1.315  1.00  0.00    +0.0236  H
ATOM     25 H23  188 L   1      -5.504   2.292  -0.687  1.00  0.00    +0.0236  H
ATOM     26 H24  188 L   1      -4.083   2.144   0.351  1.00  0.00    +0.0236  H
ATOM     27 H25  188 L   1      -4.710   0.525  -2.167  1.00  0.00    +0.0374  H
ATOM     28 H26  188 L   1      -4.928  -1.450  -0.669  1.00  0.00    +0.0236  H
ATOM     29 H27  188 L   1      -4.774  -0.399   0.745  1.00  0.00    +0.0236  H
ATOM     30 H28  188 L   1      -6.139  -0.197  -0.354  1.00  0.00    +0.0236  H
ENDBRANCH 1 22
BRANCH 9 31
ATOM     31 C14  188 L   1       2.986   0.094   1.116  1.00  0.00    +0.0510  C
ATOM     32 C15  188 L   1       3.543  -1.057   1.512  1.00  0.00    +0.0928  C
ATOM     33 O16  188 L   1       4.752  -1.539   1.078  1.00  0.00    -0.4990 OA
ATOM     34 C17  188 L   1       5.319  -0.822  -0.029  1.00  0.00    +0.0891  C
ATOM     35 C18  188 L   1       5.173   0.689   0.115  1.00  0.00    -0.0144  C
ATOM     36 C19  188 L   1       3.696   1.062   0.227  1.00  0.00    -0.0166  C
ATOM     37 H33  188 L   1       3.109  -1.725   2.247  1.00  0.00    +0.1028  H
ATOM     38 H34  188 L   1       4.844  -1.176  -0.952  1.00  0.00    +0.0696  H
ATOM     39 H35  188 L   1       6.379  -1.090  -0.083  1.00  0.00    +0.0696  H
ATOM     40 H36  188 L   1       5.693   1.017   1.025  1.00  0.00    +0.0301  H
ATOM     41 H37  188 L   1       5.633   1.206  -0.734  1.00  0.00    +0.0301  H
ATOM     42 H38  188 L   1       3.608   2.085   0.609  1.00  0.00    +0.0317  H
ATOM     43 H39  188 L   1       3.235   1.043  -0.768  1.00  0.00    +0.0317  H
ENDBRANCH 9 31
TORSDOF 2
