ROOT
ATOM      1 C13  CHE L   1       2.770  -0.675   1.187  1.00  0.00    +0.0439  A
ATOM      2 C14  CHE L   1       3.468  -1.267   2.246  1.00  0.00    -0.0376  A
ATOM      3 C15  CHE L   1       4.864  -1.330   2.233  1.00  0.00    -0.0506  A
ATOM      4 C16  CHE L   1       5.588  -0.798   1.156  1.00  0.00    +0.0005  A
ATOM      5 C17  CHE L   1       6.984  -0.831   1.084  1.00  0.00    +0.0383  A
ATOM      6 N18  CHE L   1       7.712  -0.326   0.064  1.00  0.00    -0.2270 NA
ATOM      7 C19  CHE L   1       7.016   0.241  -0.941  1.00  0.00    +0.2138  A
ATOM      8 F20  CHE L   1       7.715   0.749  -1.966  1.00  0.00    -0.1839  F
ATOM      9 C21  CHE L   1       5.635   0.331  -0.979  1.00  0.00    +0.0005  A
ATOM     10 C22  CHE L   1       4.897  -0.196   0.087  1.00  0.00    -0.0103  A
ATOM     11 C23  CHE L   1       3.491  -0.140   0.116  1.00  0.00    -0.0303  A
ATOM     12 H36  CHE L   1       2.937  -1.688   3.096  1.00  0.00    +0.0638  H
ATOM     13 H37  CHE L   1       5.381  -1.798   3.069  1.00  0.00    +0.0625  H
ATOM     14 H38  CHE L   1       7.576  -1.281   1.877  1.00  0.00    +0.0837  H
ATOM     15 H39  CHE L   1       5.157   0.805  -1.829  1.00  0.00    +0.0668  H
ATOM     16 H40  CHE L   1       2.975   0.334  -0.715  1.00  0.00    +0.0644  H
ENDROOT
BRANCH 1 20
ATOM     17  O1  CHE L   1       0.712   0.161  -0.805  1.00  0.00    -0.2471 OA
ATOM     18  C2  CHE L   1       0.464  -0.218   0.333  1.00  0.00    +0.3209  C
ATOM     19  N3  CHE L   1      -0.823  -0.287   0.812  1.00  0.00    -0.3293  N
ATOM     20 N12  CHE L   1       1.365  -0.646   1.281  1.00  0.00    -0.3082  N
ATOM     21 H24  CHE L   1      -0.963  -0.192   1.811  1.00  0.00    +0.1646 HD
ATOM     22 H35  CHE L   1       0.953  -1.084   2.091  1.00  0.00    +0.1704 HD
BRANCH 19 23
ATOM     23  C4  CHE L   1      -1.927   0.190  -0.001  1.00  0.00    +0.0986  C
ATOM     24 H25  CHE L   1      -1.706   1.208  -0.336  1.00  0.00    +0.0585  H
ATOM     25 H26  CHE L   1      -2.027  -0.477  -0.862  1.00  0.00    +0.0585  H
BRANCH 23 26
ATOM     26  C5  CHE L   1      -3.210   0.200   0.832  1.00  0.00    +0.2428  C
ATOM     27  O6  CHE L   1      -3.177   0.026   2.054  1.00  0.00    -0.2711 OA
ATOM     28  N7  CHE L   1      -4.383   0.443   0.154  1.00  0.00    -0.3408  N
ATOM     29  C8  CHE L   1      -4.530   0.694  -1.271  1.00  0.00    +0.0213  C
ATOM     30  C9  CHE L   1      -5.967   1.175  -1.420  1.00  0.00    -0.0337  C
ATOM     31 C10  CHE L   1      -6.689   0.451  -0.291  1.00  0.00    -0.0337  C
ATOM     32 C11  CHE L   1      -5.665   0.470   0.835  1.00  0.00    +0.0213  C
ATOM     33 H27  CHE L   1      -4.369  -0.252  -1.798  1.00  0.00    +0.0488  H
ATOM     34 H28  CHE L   1      -3.800   1.430  -1.620  1.00  0.00    +0.0488  H
ATOM     35 H29  CHE L   1      -6.384   0.956  -2.407  1.00  0.00    +0.0283  H
ATOM     36 H30  CHE L   1      -6.019   2.259  -1.257  1.00  0.00    +0.0283  H
ATOM     37 H31  CHE L   1      -7.633   0.927  -0.011  1.00  0.00    +0.0283  H
ATOM     38 H32  CHE L   1      -6.900  -0.583  -0.590  1.00  0.00    +0.0283  H
ATOM     39 H33  CHE L   1      -5.766  -0.379   1.518  1.00  0.00    +0.0488  H
ATOM     40 H34  CHE L   1      -5.720   1.400   1.411  1.00  0.00    +0.0488  H
ENDBRANCH 23 26
ENDBRANCH 19 23
ENDBRANCH 1 20
TORSDOF 3
