ROOT
ATOM      1  C3  CHE L   1       3.168   0.346   3.351  1.00  0.00    +0.1222  A
ATOM      2  C4  CHE L   1       1.829  -0.026   3.295  1.00  0.00    -0.0192  A
ATOM      3  C5  CHE L   1       1.247  -0.351   2.072  1.00  0.00    -0.0456  A
ATOM      4  C6  CHE L   1       2.002  -0.303   0.877  1.00  0.00    +0.0427  A
ATOM      5  C7  CHE L   1       1.502  -0.601  -0.407  1.00  0.00    +0.1395  A
ATOM      6 N18  CHE L   1       2.288  -0.581  -1.496  1.00  0.00    -0.2010 NA
ATOM      7 C19  CHE L   1       3.567  -0.226  -1.310  1.00  0.00    +0.2343  A
ATOM      8 N22  CHE L   1       4.137   0.108  -0.142  1.00  0.00    -0.2183 NA
ATOM      9 C23  CHE L   1       3.355   0.061   0.939  1.00  0.00    +0.0810  A
ATOM     10 C24  CHE L   1       3.913   0.383   2.171  1.00  0.00    +0.0062  A
ATOM     11 H28  CHE L   1       1.237  -0.068   4.206  1.00  0.00    +0.0654  H
ATOM     12 H29  CHE L   1       0.202  -0.654   2.056  1.00  0.00    +0.0626  H
ATOM     13 H47  CHE L   1       4.962   0.664   2.181  1.00  0.00    +0.0676  H
ENDROOT
BRANCH 1 15
ATOM     14  C1  CHE L   1       4.996   1.005   4.723  1.00  0.00    +0.0788  C
ATOM     15  O2  CHE L   1       3.625   0.643   4.603  1.00  0.00    -0.4950 OA
ATOM     16 H25  CHE L   1       5.649   0.188   4.400  1.00  0.00    +0.0660  H
ATOM     17 H26  CHE L   1       5.210   1.925   4.170  1.00  0.00    +0.0660  H
ATOM     18 H27  CHE L   1       5.201   1.197   5.780  1.00  0.00    +0.0660  H
ENDBRANCH 1 15
BRANCH 5 19
ATOM     19  N8  CHE L   1       0.156  -0.979  -0.551  1.00  0.00    -0.3663  N
ATOM     20 H30  CHE L   1      -0.445  -0.298  -0.081  1.00  0.00    +0.1613 HD
BRANCH 19 21
ATOM     21  C9  CHE L   1      -0.352  -1.213  -1.914  1.00  0.00    +0.0308  C
ATOM     22 C10  CHE L   1      -1.641  -2.030  -1.813  1.00  0.00    -0.0198  C
ATOM     23 C11  CHE L   1      -2.756  -1.258  -1.094  1.00  0.00    +0.0010  C
ATOM     24 N12  CHE L   1      -2.661   0.214  -1.222  1.00  0.00    -0.2998 NA
ATOM     25 C16  CHE L   1      -2.102   0.562  -2.534  1.00  0.00    +0.0010  C
ATOM     26 C17  CHE L   1      -0.639   0.111  -2.641  1.00  0.00    -0.0198  C
ATOM     27 H31  CHE L   1       0.373  -1.806  -2.486  1.00  0.00    +0.0523  H
ATOM     28 H32  CHE L   1      -1.976  -2.287  -2.827  1.00  0.00    +0.0297  H
ATOM     29 H33  CHE L   1      -1.459  -2.977  -1.292  1.00  0.00    +0.0297  H
ATOM     30 H34  CHE L   1      -3.716  -1.628  -1.478  1.00  0.00    +0.0427  H
ATOM     31 H35  CHE L   1      -2.712  -1.514  -0.029  1.00  0.00    +0.0427  H
ATOM     32 H43  CHE L   1      -2.700   0.116  -3.339  1.00  0.00    +0.0427  H
ATOM     33 H44  CHE L   1      -2.100   1.641  -2.713  1.00  0.00    +0.0427  H
ATOM     34 H45  CHE L   1      -0.406  -0.011  -3.706  1.00  0.00    +0.0297  H
ATOM     35 H46  CHE L   1       0.016   0.910  -2.274  1.00  0.00    +0.0297  H
BRANCH 24 36
ATOM     36 C13  CHE L   1      -3.958   0.879  -0.933  1.00  0.00    +0.0048  C
ATOM     37 C14  CHE L   1      -4.513   0.479   0.446  1.00  0.00    -0.0497  C
ATOM     38 C15  CHE L   1      -3.841   2.411  -0.949  1.00  0.00    -0.0497  C
ATOM     39 H36  CHE L   1      -4.696   0.587  -1.691  1.00  0.00    +0.0457  H
ATOM     40 H37  CHE L   1      -3.793   0.701   1.243  1.00  0.00    +0.0245  H
ATOM     41 H38  CHE L   1      -4.765  -0.585   0.496  1.00  0.00    +0.0245  H
ATOM     42 H39  CHE L   1      -5.436   1.027   0.666  1.00  0.00    +0.0245  H
ATOM     43 H40  CHE L   1      -3.681   2.800  -1.959  1.00  0.00    +0.0245  H
ATOM     44 H41  CHE L   1      -4.763   2.877  -0.583  1.00  0.00    +0.0245  H
ATOM     45 H42  CHE L   1      -3.020   2.754  -0.312  1.00  0.00    +0.0245  H
ENDBRANCH 24 36
ENDBRANCH 19 21
ENDBRANCH 5 19
BRANCH 7 46
ATOM     46 C20  CHE L   1       4.408  -0.196  -2.477  1.00  0.00    +0.1400  C
ATOM     47 N21  CHE L   1       5.089  -0.171  -3.422  1.00  0.00    -0.1876 NA
ENDBRANCH 7 46
TORSDOF 5
