ROOT
ATOM      1 C14  WH0 L   1      -2.297   1.564  -0.532  1.00  0.00    -0.0133  A
ATOM      2 C15  WH0 L   1      -2.784   1.857  -1.826  1.00  0.00    -0.0519  A
ATOM      3 C16  WH0 L   1      -3.346   3.104  -2.116  1.00  0.00    -0.0374  A
ATOM      4 C17  WH0 L   1      -3.404   4.024  -1.092  1.00  0.00    +0.0454  A
ATOM      5 C18  WH0 L   1      -2.931   3.753   0.189  1.00  0.00    -0.0145  A
ATOM      6 C19  WH0 L   1      -2.371   2.524   0.490  1.00  0.00    -0.0483  A
ATOM      7 C20  WH0 L   1      -3.146   4.952   1.063  1.00  0.00    +0.0535  C
ATOM      8 C21  WH0 L   1      -3.815   5.939   0.097  1.00  0.00    +0.2296  C
ATOM      9 O22  WH0 L   1      -4.190   7.070   0.354  1.00  0.00    -0.2725 OA
ATOM     10 N23  WH0 L   1      -3.917   5.309  -1.138  1.00  0.00    -0.3256  N
ATOM     11 H50  WH0 L   1      -2.725   1.109  -2.615  1.00  0.00    +0.0624  H
ATOM     12 H51  WH0 L   1      -3.720   3.327  -3.109  1.00  0.00    +0.0638  H
ATOM     13 H52  WH0 L   1      -2.011   2.310   1.492  1.00  0.00    +0.0627  H
ATOM     14 H53  WH0 L   1      -3.826   4.726   1.890  1.00  0.00    +0.0410  H
ATOM     15 H54  WH0 L   1      -2.195   5.367   1.412  1.00  0.00    +0.0410  H
ATOM     16 H55  WH0 L   1      -4.333   5.753  -1.945  1.00  0.00    +0.1686 HD
ENDROOT
BRANCH 1 20
ATOM     17 C10  WH0 L   1       1.924   0.214   0.500  1.00  0.00    +0.0488  A
ATOM     18 C11  WH0 L   1       0.763   0.832   0.203  1.00  0.00    -0.0140  A
ATOM     19 C12  WH0 L   1      -0.399   0.047   0.030  1.00  0.00    +0.0806  A
ATOM     20 C13  WH0 L   1      -1.729   0.257  -0.262  1.00  0.00    +0.0353  A
ATOM     21 C24  WH0 L   1      -2.311  -1.051  -0.302  1.00  0.00    +0.1015  A
ATOM     22 N32  WH0 L   1      -1.396  -1.993  -0.021  1.00  0.00    -0.1627 NA
ATOM     23 N33  WH0 L   1      -0.235  -1.313   0.150  1.00  0.00    -0.1987  N
ATOM     24 C34  WH0 L   1       1.012  -1.928   0.472  1.00  0.00    +0.2286  A
ATOM     25 N41  WH0 L   1       2.056  -1.151   0.671  1.00  0.00    -0.2172 NA
ATOM     26 H49  WH0 L   1       0.711   1.909   0.078  1.00  0.00    +0.0657  H
BRANCH 17 27
ATOM     27  C9  WH0 L   1       3.205   1.005   0.657  1.00  0.00    +0.0073  C
ATOM     28 H47  WH0 L   1       3.677   0.754   1.616  1.00  0.00    +0.0345  H
ATOM     29 H48  WH0 L   1       2.991   2.082   0.698  1.00  0.00    +0.0345  H
BRANCH 27 30
ATOM     30  C8  WH0 L   1       4.176   0.724  -0.494  1.00  0.00    +0.0238  C
ATOM     31 H45  WH0 L   1       3.679   0.850  -1.464  1.00  0.00    +0.0490  H
ATOM     32 H46  WH0 L   1       4.546  -0.307  -0.439  1.00  0.00    +0.0490  H
BRANCH 30 35
ATOM     33  C5  WH0 L   1       6.472   1.354   0.187  1.00  0.00    +0.2618  C
ATOM     34  O6  WH0 L   1       6.644   0.304   0.802  1.00  0.00    -0.2669 OA
ATOM     35  N7  WH0 L   1       5.307   1.640  -0.488  1.00  0.00    -0.3511  N
ATOM     36 H44  WH0 L   1       5.179   2.526  -0.965  1.00  0.00    +0.1627 HD
BRANCH 33 38
ATOM     37  C1  WH0 L   1       8.782   2.075   0.525  1.00  0.00    -0.0760  C
ATOM     38  C2  WH0 L   1       7.541   2.401   0.120  1.00  0.00    +0.1085  C
ATOM     39 H42  WH0 L   1       9.599   2.790   0.496  1.00  0.00    +0.0549  H
ATOM     40 H43  WH0 L   1       9.015   1.078   0.896  1.00  0.00    +0.0549  H
BRANCH 38 41
ATOM     41  C3  WH0 L   1       7.252   3.705  -0.364  1.00  0.00    +0.1040  C
ATOM     42  N4  WH0 L   1       6.981   4.757  -0.773  1.00  0.00    -0.1907 NA
ENDBRANCH 38 41
ENDBRANCH 33 38
ENDBRANCH 30 35
ENDBRANCH 27 30
ENDBRANCH 17 27
BRANCH 21 43
ATOM     43 C25  WH0 L   1      -3.692  -1.435  -0.610  1.00  0.00    +0.0029  A
ATOM     44 C26  WH0 L   1      -4.781  -0.664  -0.175  1.00  0.00    -0.0498  A
ATOM     45 C27  WH0 L   1      -6.088  -1.033  -0.508  1.00  0.00    -0.0258  A
ATOM     46 C28  WH0 L   1      -6.307  -2.177  -1.270  1.00  0.00    +0.1234  A
ATOM     47 F29  WH0 L   1      -7.557  -2.523  -1.599  1.00  0.00    -0.2055  F
ATOM     48 C30  WH0 L   1      -5.246  -2.965  -1.697  1.00  0.00    -0.0258  A
ATOM     49 C31  WH0 L   1      -3.940  -2.595  -1.367  1.00  0.00    -0.0498  A
ATOM     50 H56  WH0 L   1      -4.630   0.225   0.435  1.00  0.00    +0.0625  H
ATOM     51 H57  WH0 L   1      -6.933  -0.436  -0.179  1.00  0.00    +0.0646  H
ATOM     52 H58  WH0 L   1      -5.439  -3.857  -2.287  1.00  0.00    +0.0646  H
ATOM     53 H59  WH0 L   1      -3.110  -3.211  -1.709  1.00  0.00    +0.0625  H
ENDBRANCH 21 43
BRANCH 24 54
ATOM     54 N35  WH0 L   1       1.158  -3.307   0.613  1.00  0.00    -0.3359  N
ATOM     55 C36  WH0 L   1       1.945  -3.810   1.753  1.00  0.00    +0.0449  C
ATOM     56 C37  WH0 L   1       1.845  -5.338   1.880  1.00  0.00    +0.0653  C
ATOM     57 O38  WH0 L   1       0.487  -5.799   1.947  1.00  0.00    -0.3763 OA
ATOM     58 C39  WH0 L   1      -0.381  -5.180   0.978  1.00  0.00    +0.0653  C
ATOM     59 C40  WH0 L   1       0.352  -4.324  -0.064  1.00  0.00    +0.0449  C
ATOM     60 H60  WH0 L   1       1.547  -3.359   2.672  1.00  0.00    +0.0511  H
ATOM     61 H61  WH0 L   1       2.996  -3.515   1.650  1.00  0.00    +0.0511  H
ATOM     62 H62  WH0 L   1       2.351  -5.672   2.793  1.00  0.00    +0.0577  H
ATOM     63 H63  WH0 L   1       2.334  -5.840   1.038  1.00  0.00    +0.0577  H
ATOM     64 H64  WH0 L   1      -0.936  -5.982   0.476  1.00  0.00    +0.0577  H
ATOM     65 H65  WH0 L   1      -1.106  -4.572   1.533  1.00  0.00    +0.0577  H
ATOM     66 H66  WH0 L   1       1.037  -4.963  -0.639  1.00  0.00    +0.0511  H
ATOM     67 H67  WH0 L   1      -0.339  -3.919  -0.807  1.00  0.00    +0.0511  H
ENDBRANCH 24 54
ENDBRANCH 1 20
TORSDOF 8
