ROOT
ATOM      1  C4  CHE L   1       2.989   0.675   0.752  1.00  0.00    +0.0019  A
ATOM      2  C5  CHE L   1       2.995  -0.384   1.684  1.00  0.00    -0.0360  A
ATOM      3  C6  CHE L   1       1.827  -0.817   2.309  1.00  0.00    +0.0453  A
ATOM      4 CL7  CHE L   1       1.966  -2.120   3.434  1.00  0.00    -0.0832 Cl
ATOM      5  C8  CHE L   1       0.604  -0.203   2.025  1.00  0.00    -0.0137  A
ATOM      6  C9  CHE L   1       0.580   0.899   1.136  1.00  0.00    +0.0624  A
ATOM      7 C10  CHE L   1       1.761   1.319   0.476  1.00  0.00    +0.0592  A
ATOM      8 CL11 CHE L   1       1.705   2.568  -0.728  1.00  0.00    -0.0824 Cl
ATOM      9 C12  CHE L   1      -0.729   1.614   0.958  1.00  0.00    +0.2566  C
ATOM     10 O13  CHE L   1      -0.764   2.817   0.725  1.00  0.00    -0.2673 OA
ATOM     11 N14  CHE L   1      -1.890   0.866   1.151  1.00  0.00    -0.3335  N
ATOM     12 C27  CHE L   1      -1.831  -0.489   1.674  1.00  0.00    +0.0259  C
ATOM     13 C28  CHE L   1      -0.686  -0.648   2.666  1.00  0.00    -0.0078  C
ATOM     14 H38  CHE L   1       3.933  -0.889   1.917  1.00  0.00    +0.0636  H
ATOM     15 H48  CHE L   1      -2.771  -0.724   2.185  1.00  0.00    +0.0492  H
ATOM     16 H49  CHE L   1      -1.714  -1.171   0.823  1.00  0.00    +0.0492  H
ATOM     17 H50  CHE L   1      -0.860  -0.037   3.560  1.00  0.00    +0.0331  H
ATOM     18 H51  CHE L   1      -0.656  -1.697   2.973  1.00  0.00    +0.0331  H
ENDROOT
BRANCH 1 19
ATOM     19  C3  CHE L   1       4.334   1.026   0.118  1.00  0.00    +0.0898  C
ATOM     20 H37  CHE L   1       5.138   0.538   0.688  1.00  0.00    +0.0650  H
BRANCH 19 22
ATOM     21  C1  CHE L   1       5.078   2.902   1.383  1.00  0.00    +0.0372  C
ATOM     22  O2  CHE L   1       4.587   2.435   0.135  1.00  0.00    -0.3748 OA
ATOM     23 H34  CHE L   1       4.363   2.703   2.186  1.00  0.00    +0.0524  H
ATOM     24 H35  CHE L   1       6.042   2.438   1.613  1.00  0.00    +0.0524  H
ATOM     25 H36  CHE L   1       5.223   3.984   1.310  1.00  0.00    +0.0524  H
ENDBRANCH 19 22
BRANCH 19 26
ATOM     26 C29  CHE L   1       4.394   0.538  -1.333  1.00  0.00    +0.0149  C
ATOM     27 C30  CHE L   1       5.824   0.503  -1.930  1.00  0.00    +0.0053  C
ATOM     28 N31  CHE L   1       5.899  -0.926  -1.526  1.00  0.00    -0.3045 NA
ATOM     29 C32  CHE L   1       6.494  -1.726  -2.590  1.00  0.00    -0.0127  C
ATOM     30 C33  CHE L   1       4.419  -0.992  -1.586  1.00  0.00    +0.0053  C
ATOM     31 H52  CHE L   1       3.689   1.063  -1.987  1.00  0.00    +0.0354  H
ATOM     32 H53  CHE L   1       6.566   1.147  -1.449  1.00  0.00    +0.0430  H
ATOM     33 H54  CHE L   1       5.847   0.697  -3.010  1.00  0.00    +0.0430  H
ATOM     34 H55  CHE L   1       6.379  -2.792  -2.363  1.00  0.00    +0.0391  H
ATOM     35 H56  CHE L   1       6.057  -1.544  -3.580  1.00  0.00    +0.0391  H
ATOM     36 H57  CHE L   1       7.569  -1.522  -2.653  1.00  0.00    +0.0391  H
ATOM     37 H58  CHE L   1       3.966  -1.627  -0.820  1.00  0.00    +0.0430  H
ATOM     38 H59  CHE L   1       3.992  -1.274  -2.558  1.00  0.00    +0.0430  H
ENDBRANCH 19 26
ENDBRANCH 1 19
BRANCH 11 39
ATOM     39 C15  CHE L   1      -3.179   1.459   0.796  1.00  0.00    +0.0523  C
ATOM     40 H39  CHE L   1      -3.040   2.394   0.241  1.00  0.00    +0.0540  H
ATOM     41 H40  CHE L   1      -3.659   1.734   1.741  1.00  0.00    +0.0540  H
BRANCH 39 42
ATOM     42 C16  CHE L   1      -4.034   0.528  -0.008  1.00  0.00    +0.0453  A
ATOM     43 C17  CHE L   1      -3.618   0.261  -1.425  1.00  0.00    +0.2545  A
ATOM     44 O18  CHE L   1      -2.597   0.735  -1.911  1.00  0.00    -0.2675 OA
ATOM     45 N19  CHE L   1      -4.434  -0.556  -2.178  1.00  0.00    -0.3243  N
ATOM     46 C20  CHE L   1      -5.592  -1.156  -1.727  1.00  0.00    +0.0398  A
ATOM     47 C21  CHE L   1      -6.333  -2.019  -2.698  1.00  0.00    -0.0224  C
ATOM     48 C22  CHE L   1      -5.963  -0.933  -0.462  1.00  0.00    +0.0662  A
ATOM     49 N23  CHE L   1      -7.013  -1.336   0.321  1.00  0.00    -0.3593  N
ATOM     50 C24  CHE L   1      -6.962  -0.734   1.559  1.00  0.00    +0.0028  A
ATOM     51 C25  CHE L   1      -5.865   0.037   1.685  1.00  0.00    -0.0361  A
ATOM     52 C26  CHE L   1      -5.172  -0.054   0.404  1.00  0.00    +0.0113  A
ATOM     53 H41  CHE L   1      -4.123  -0.706  -3.130  1.00  0.00    +0.1687 HD
ATOM     54 H42  CHE L   1      -5.694  -2.835  -3.049  1.00  0.00    +0.0292  H
ATOM     55 H43  CHE L   1      -6.650  -1.430  -3.565  1.00  0.00    +0.0292  H
ATOM     56 H44  CHE L   1      -7.228  -2.466  -2.254  1.00  0.00    +0.0292  H
ATOM     57 H45  CHE L   1      -7.837  -1.789  -0.046  1.00  0.00    +0.1654 HD
ATOM     58 H46  CHE L   1      -7.746  -0.905   2.282  1.00  0.00    +0.0807  H
ATOM     59 H47  CHE L   1      -5.579   0.622   2.542  1.00  0.00    +0.0639  H
ENDBRANCH 39 42
ENDBRANCH 11 39
TORSDOF 5
