ROOT
ATOM      1  C4  CHE L   1      -4.048  -0.373  -0.085  1.00  0.00    -0.0058  A
ATOM      2  C5  CHE L   1      -2.802  -0.573   0.551  1.00  0.00    -0.0117  A
ATOM      3  C6  CHE L   1      -1.916   0.491   0.737  1.00  0.00    +0.1446  A
ATOM      4 C24  CHE L   1      -2.291   1.767   0.341  1.00  0.00    +0.0836  A
ATOM      5 C25  CHE L   1      -3.509   1.972  -0.296  1.00  0.00    +0.0163  A
ATOM      6 C26  CHE L   1      -4.383   0.922  -0.511  1.00  0.00    +0.1322  A
ATOM      7 F27  CHE L   1      -5.558   1.160  -1.116  1.00  0.00    -0.2048  F
ATOM      8 C28  CHE L   1      -3.640   3.405  -0.670  1.00  0.00    -0.0055  C
ATOM      9 C29  CHE L   1      -2.491   4.011   0.158  1.00  0.00    +0.0198  C
ATOM     10 N30  CHE L   1      -1.502   2.950   0.430  1.00  0.00    -0.3810  N
ATOM     11 H38  CHE L   1      -2.505  -1.564   0.884  1.00  0.00    +0.0658  H
ATOM     12 H51  CHE L   1      -3.468   3.537  -1.744  1.00  0.00    +0.0332  H
ATOM     13 H52  CHE L   1      -4.606   3.833  -0.387  1.00  0.00    +0.0332  H
ATOM     14 H53  CHE L   1      -2.876   4.394   1.111  1.00  0.00    +0.0488  H
ATOM     15 H54  CHE L   1      -2.021   4.847  -0.367  1.00  0.00    +0.0488  H
ATOM     16 H55  CHE L   1      -1.079   2.995   1.354  1.00  0.00    +0.1597 HD
ENDROOT
BRANCH 1 18
ATOM     17  C1  CHE L   1      -5.521  -2.091   1.013  1.00  0.00    -0.0586  C
ATOM     18  C2  CHE L   1      -5.011  -1.523  -0.312  1.00  0.00    -0.0187  C
ATOM     19  C3  CHE L   1      -4.385  -2.625  -1.173  1.00  0.00    -0.0586  C
ATOM     20 H31  CHE L   1      -4.714  -2.530   1.609  1.00  0.00    +0.0235  H
ATOM     21 H32  CHE L   1      -5.992  -1.309   1.616  1.00  0.00    +0.0235  H
ATOM     22 H33  CHE L   1      -6.268  -2.870   0.835  1.00  0.00    +0.0235  H
ATOM     23 H34  CHE L   1      -5.886  -1.152  -0.860  1.00  0.00    +0.0344  H
ATOM     24 H35  CHE L   1      -5.114  -3.416  -1.377  1.00  0.00    +0.0235  H
ATOM     25 H36  CHE L   1      -3.522  -3.089  -0.681  1.00  0.00    +0.0235  H
ATOM     26 H37  CHE L   1      -4.045  -2.224  -2.134  1.00  0.00    +0.0235  H
ENDBRANCH 1 18
BRANCH 3 27
ATOM     27  O7  CHE L   1      -0.718   0.270   1.354  1.00  0.00    -0.4840 OA
BRANCH 27 28
ATOM     28  C8  CHE L   1       0.321   0.100   0.380  1.00  0.00    +0.1304  C
ATOM     29  C9  CHE L   1       1.593   0.766   0.903  1.00  0.00    +0.0102  C
ATOM     30 C10  CHE L   1       2.686   0.136   0.036  1.00  0.00    +0.0677  C
ATOM     31 C20  CHE L   1       2.190  -1.295  -0.272  1.00  0.00    +0.1053  C
ATOM     32 O21  CHE L   1       2.178  -1.512  -1.693  1.00  0.00    -0.3870 OA
ATOM     33 C22  CHE L   1       0.756  -1.369   0.275  1.00  0.00    +0.1197  C
ATOM     34 O23  CHE L   1      -0.082  -2.144  -0.577  1.00  0.00    -0.3855 OA
ATOM     35 H39  CHE L   1       0.055   0.504  -0.608  1.00  0.00    +0.0761  H
ATOM     36 H40  CHE L   1       1.711   0.560   1.972  1.00  0.00    +0.0323  H
ATOM     37 H41  CHE L   1       1.554   1.856   0.787  1.00  0.00    +0.0323  H
ATOM     38 H42  CHE L   1       2.731   0.722  -0.897  1.00  0.00    +0.0556  H
ATOM     39 H47  CHE L   1       2.803  -2.086   0.176  1.00  0.00    +0.0641  H
ATOM     40 H48  CHE L   1       3.111  -1.419  -1.987  1.00  0.00    +0.2100 HD
ATOM     41 H49  CHE L   1       0.743  -1.828   1.272  1.00  0.00    +0.0657  H
ATOM     42 H50  CHE L   1       0.328  -2.076  -1.464  1.00  0.00    +0.2101 HD
BRANCH 30 43
ATOM     43 N11  CHE L   1       4.046   0.135   0.545  1.00  0.00    -0.3261  N
ATOM     44 C12  CHE L   1       4.477   0.401   1.821  1.00  0.00    +0.0076  A
ATOM     45 C13  CHE L   1       5.853   0.283   1.838  1.00  0.00    -0.0334  A
ATOM     46 C14  CHE L   1       6.273  -0.085   0.531  1.00  0.00    +0.0370  A
ATOM     47 C15  CHE L   1       7.484  -0.353  -0.109  1.00  0.00    +0.0400  A
ATOM     48 N16  CHE L   1       7.491  -0.695  -1.418  1.00  0.00    -0.2430 NA
ATOM     49 C17  CHE L   1       6.301  -0.783  -2.047  1.00  0.00    +0.1182  A
ATOM     50 N18  CHE L   1       5.067  -0.577  -1.538  1.00  0.00    -0.2177 NA
ATOM     51 C19  CHE L   1       5.127  -0.203  -0.243  1.00  0.00    +0.1442  A
ATOM     52 H43  CHE L   1       3.796   0.663   2.622  1.00  0.00    +0.0810  H
ATOM     53 H44  CHE L   1       6.486   0.444   2.702  1.00  0.00    +0.0640  H
ATOM     54 H45  CHE L   1       8.448  -0.298   0.386  1.00  0.00    +0.0837  H
ATOM     55 H46  CHE L   1       6.345  -1.058  -3.098  1.00  0.00    +0.1047  H
ENDBRANCH 30 43
ENDBRANCH 27 28
ENDBRANCH 3 27
TORSDOF 4
