ROOT
ATOM      1 C11  185 L   1      -0.350  -1.185   0.533  1.00  0.00    +0.0152  C
ATOM      2 C12  185 L   1      -0.696  -2.426  -0.298  1.00  0.00    -0.0137  C
ATOM      3 C13  185 L   1      -2.183  -2.439  -0.616  1.00  0.00    +0.0498  C
ATOM      4 O14  185 L   1      -2.601  -1.242  -1.266  1.00  0.00    -0.3732 OA
ATOM      5 C15  185 L   1      -2.334  -0.007  -0.571  1.00  0.00    +0.0733  C
ATOM      6 C16  185 L   1      -3.214   0.137   0.697  1.00  0.00    -0.0111  C
ATOM      7 C17  185 L   1      -4.485   0.934   0.415  1.00  0.00    -0.0015  C
ATOM      8 N18  185 L   1      -4.184   2.307   0.007  1.00  0.00    -0.3158 NA
ATOM      9 C19  185 L   1      -3.042   2.417  -0.901  1.00  0.00    -0.0015  C
ATOM     10 C20  185 L   1      -2.688   1.105  -1.588  1.00  0.00    -0.0111  C
ATOM     11 C21  185 L   1      -0.829   0.069  -0.222  1.00  0.00    -0.0079  C
ATOM     12 H34  185 L   1      -0.942  -1.226   1.458  1.00  0.00    +0.0464  H
ATOM     13 H35  185 L   1      -0.144  -2.411  -1.245  1.00  0.00    +0.0302  H
ATOM     14 H36  185 L   1      -0.428  -3.348   0.229  1.00  0.00    +0.0302  H
ATOM     15 H37  185 L   1      -2.401  -3.269  -1.298  1.00  0.00    +0.0560  H
ATOM     16 H38  185 L   1      -2.780  -2.614   0.284  1.00  0.00    +0.0560  H
ATOM     17 H39  185 L   1      -3.506  -0.834   1.108  1.00  0.00    +0.0305  H
ATOM     18 H40  185 L   1      -2.659   0.656   1.489  1.00  0.00    +0.0305  H
ATOM     19 H41  185 L   1      -5.083   0.433  -0.356  1.00  0.00    +0.0425  H
ATOM     20 H42  185 L   1      -5.103   0.971   1.319  1.00  0.00    +0.0425  H
ATOM     21 H43  185 L   1      -5.014   2.713  -0.426  1.00  0.00    +0.1219 HD
ATOM     22 H44  185 L   1      -2.179   2.783  -0.332  1.00  0.00    +0.0425  H
ATOM     23 H45  185 L   1      -3.259   3.181  -1.656  1.00  0.00    +0.0425  H
ATOM     24 H46  185 L   1      -3.532   0.786  -2.216  1.00  0.00    +0.0305  H
ATOM     25 H47  185 L   1      -1.862   1.264  -2.292  1.00  0.00    +0.0305  H
ATOM     26 H48  185 L   1      -0.261   0.159  -1.156  1.00  0.00    +0.0308  H
ATOM     27 H49  185 L   1      -0.617   0.972   0.365  1.00  0.00    +0.0308  H
ENDROOT
BRANCH 1 28
ATOM     28  N9  185 L   1       1.068  -1.050   0.939  1.00  0.00    -0.2952 NA
ATOM     29 C10  185 L   1       1.394  -1.974   2.036  1.00  0.00    -0.0120  C
ATOM     30 H31  185 L   1       0.696  -1.843   2.870  1.00  0.00    +0.0391  H
ATOM     31 H32  185 L   1       2.388  -1.768   2.447  1.00  0.00    +0.0391  H
ATOM     32 H33  185 L   1       1.361  -3.023   1.723  1.00  0.00    +0.0391  H
BRANCH 28 33
ATOM     33  C8  185 L   1       2.034  -1.215  -0.168  1.00  0.00    +0.0571  C
ATOM     34 H29  185 L   1       1.724  -0.643  -1.048  1.00  0.00    +0.0506  H
ATOM     35 H30  185 L   1       2.086  -2.265  -0.486  1.00  0.00    +0.0506  H
BRANCH 33 40
ATOM     36  N3  185 L   1       3.773   0.559   0.414  1.00  0.00    -0.3335  N
ATOM     37  C4  185 L   1       5.114   0.588   0.694  1.00  0.00    +0.0243  A
ATOM     38  C5  185 L   1       5.525  -0.720   0.625  1.00  0.00    +0.0458  A
ATOM     39  N6  185 L   1       4.477  -1.540   0.309  1.00  0.00    -0.2393 NA
ATOM     40  C7  185 L   1       3.421  -0.754   0.187  1.00  0.00    +0.1237  A
ATOM     41 H27  185 L   1       5.645   1.503   0.915  1.00  0.00    +0.0825  H
ATOM     42 H28  185 L   1       6.520  -1.114   0.786  1.00  0.00    +0.0845  H
BRANCH 36 44
ATOM     43  C1  185 L   1       2.768   2.317  -0.999  1.00  0.00    -0.0471  C
ATOM     44  C2  185 L   1       2.911   1.724   0.392  1.00  0.00    +0.0216  C
ATOM     45 H22  185 L   1       2.125   3.202  -0.969  1.00  0.00    +0.0247  H
ATOM     46 H23  185 L   1       3.741   2.615  -1.402  1.00  0.00    +0.0247  H
ATOM     47 H24  185 L   1       2.325   1.599  -1.696  1.00  0.00    +0.0247  H
ATOM     48 H25  185 L   1       1.936   1.449   0.801  1.00  0.00    +0.0489  H
ATOM     49 H26  185 L   1       3.344   2.467   1.072  1.00  0.00    +0.0489  H
ENDBRANCH 36 44
ENDBRANCH 33 40
ENDBRANCH 28 33
ENDBRANCH 1 28
TORSDOF 4
