ROOT
ATOM      1  C3  CHE L   1       4.102   0.212   1.031  1.00  0.00    +0.1635  A
ATOM      2  C4  CHE L   1       3.928  -0.136  -0.312  1.00  0.00    +0.0097  A
ATOM      3  C5  CHE L   1       2.688  -0.078  -0.933  1.00  0.00    +0.0769  A
ATOM      4  N6  CHE L   1       2.625  -0.419  -2.227  1.00  0.00    -0.2511 NA
ATOM      5  C7  CHE L   1       1.417  -0.354  -2.802  1.00  0.00    +0.0471  A
ATOM      6  C8  CHE L   1       0.235   0.034  -2.173  1.00  0.00    -0.0025  A
ATOM      7  C9  CHE L   1       0.282   0.401  -0.835  1.00  0.00    +0.0498  A
ATOM      8 C18  CHE L   1       1.559   0.349  -0.192  1.00  0.00    +0.0273  A
ATOM      9 C19  CHE L   1       1.741   0.696   1.168  1.00  0.00    -0.0052  A
ATOM     10 C20  CHE L   1       2.994   0.629   1.783  1.00  0.00    +0.1622  A
ATOM     11 C23  CHE L   1      -0.879   0.044  -3.172  1.00  0.00    -0.0237  C
ATOM     12 C24  CHE L   1      -0.299  -0.789  -4.324  1.00  0.00    -0.0435  C
ATOM     13 C25  CHE L   1       1.214  -0.604  -4.269  1.00  0.00    -0.0098  C
ATOM     14 H29  CHE L   1       4.764  -0.463  -0.921  1.00  0.00    +0.0677  H
ATOM     15 H43  CHE L   1       0.869   1.008   1.733  1.00  0.00    +0.0662  H
ATOM     16 H47  CHE L   1      -1.789  -0.441  -2.815  1.00  0.00    +0.0314  H
ATOM     17 H48  CHE L   1      -1.092   1.069  -3.493  1.00  0.00    +0.0314  H
ATOM     18 H49  CHE L   1      -0.539  -1.849  -4.157  1.00  0.00    +0.0272  H
ATOM     19 H50  CHE L   1      -0.722  -0.513  -5.295  1.00  0.00    +0.0272  H
ATOM     20 H51  CHE L   1       1.750  -1.491  -4.617  1.00  0.00    +0.0328  H
ATOM     21 H52  CHE L   1       1.530   0.274  -4.841  1.00  0.00    +0.0328  H
ENDROOT
BRANCH 1 23
ATOM     22  C1  CHE L   1       6.445  -0.254   0.965  1.00  0.00    +0.0790  C
ATOM     23  O2  CHE L   1       5.304   0.174   1.694  1.00  0.00    -0.4914 OA
ATOM     24 H26  CHE L   1       6.658   0.424   0.131  1.00  0.00    +0.0660  H
ATOM     25 H27  CHE L   1       7.305  -0.226   1.642  1.00  0.00    +0.0660  H
ATOM     26 H28  CHE L   1       6.330  -1.286   0.618  1.00  0.00    +0.0660  H
ENDBRANCH 1 23
BRANCH 7 27
ATOM     27 N10  CHE L   1      -0.783   0.971  -0.119  1.00  0.00    -0.3808  N
ATOM     28 H30  CHE L   1      -0.687   1.987  -0.177  1.00  0.00    +0.1599 HD
BRANCH 27 29
ATOM     29 C11  CHE L   1      -2.186   0.567  -0.273  1.00  0.00    +0.0294  C
ATOM     30 C12  CHE L   1      -2.389  -0.934  -0.008  1.00  0.00    -0.0198  C
ATOM     31 C13  CHE L   1      -2.772  -1.199   1.445  1.00  0.00    +0.0005  C
ATOM     32 N14  CHE L   1      -4.014  -0.528   1.855  1.00  0.00    -0.3052 NA
ATOM     33 C15  CHE L   1      -5.159  -1.434   1.853  1.00  0.00    -0.0128  C
ATOM     34 C16  CHE L   1      -4.306   0.692   1.093  1.00  0.00    +0.0005  C
ATOM     35 C17  CHE L   1      -3.030   1.423   0.692  1.00  0.00    -0.0198  C
ATOM     36 H31  CHE L   1      -2.524   0.809  -1.285  1.00  0.00    +0.0522  H
ATOM     37 H32  CHE L   1      -3.195  -1.303  -0.657  1.00  0.00    +0.0297  H
ATOM     38 H33  CHE L   1      -1.504  -1.525  -0.265  1.00  0.00    +0.0297  H
ATOM     39 H34  CHE L   1      -2.827  -2.281   1.622  1.00  0.00    +0.0427  H
ATOM     40 H35  CHE L   1      -1.964  -0.840   2.095  1.00  0.00    +0.0427  H
ATOM     41 H36  CHE L   1      -6.058  -0.921   2.215  1.00  0.00    +0.0391  H
ATOM     42 H37  CHE L   1      -5.368  -1.832   0.854  1.00  0.00    +0.0391  H
ATOM     43 H38  CHE L   1      -4.986  -2.277   2.532  1.00  0.00    +0.0391  H
ATOM     44 H39  CHE L   1      -4.926   1.355   1.708  1.00  0.00    +0.0427  H
ATOM     45 H40  CHE L   1      -4.881   0.466   0.184  1.00  0.00    +0.0427  H
ATOM     46 H41  CHE L   1      -2.458   1.681   1.594  1.00  0.00    +0.0297  H
ATOM     47 H42  CHE L   1      -3.279   2.377   0.210  1.00  0.00    +0.0297  H
ENDBRANCH 27 29
ENDBRANCH 7 27
BRANCH 10 48
ATOM     48 O21  CHE L   1       3.235   0.950   3.095  1.00  0.00    -0.4914 OA
ATOM     49 C22  CHE L   1       2.117   1.279   3.908  1.00  0.00    +0.0790  C
ATOM     50 H44  CHE L   1       1.636   2.200   3.563  1.00  0.00    +0.0660  H
ATOM     51 H45  CHE L   1       1.403   0.451   3.956  1.00  0.00    +0.0660  H
ATOM     52 H46  CHE L   1       2.484   1.458   4.924  1.00  0.00    +0.0660  H
ENDBRANCH 10 48
TORSDOF 4
