ROOT
ATOM      1 C11  187 L   1      -1.496  -0.402  -0.165  1.00  0.00    +0.0449  A
ATOM      2 C12  187 L   1      -1.822   0.653   0.705  1.00  0.00    +0.0035  A
ATOM      3 C13  187 L   1      -3.120   0.834   1.199  1.00  0.00    +0.1255  A
ATOM      4 C16  187 L   1      -4.134  -0.043   0.814  1.00  0.00    +0.0219  A
ATOM      5 C17  187 L   1      -3.854  -1.091  -0.056  1.00  0.00    +0.1255  A
ATOM      6 C20  187 L   1      -2.548  -1.255  -0.535  1.00  0.00    +0.0035  A
ATOM      7 H33  187 L   1      -1.042   1.350   0.989  1.00  0.00    +0.0675  H
ATOM      8 H37  187 L   1      -5.129   0.123   1.210  1.00  0.00    +0.0691  H
ATOM      9 H41  187 L   1      -2.371  -2.085  -1.213  1.00  0.00    +0.0675  H
ENDROOT
BRANCH 1 13
ATOM     10  C7  187 L   1       2.165  -0.753  -0.558  1.00  0.00    +0.0515  C
ATOM     11  C8  187 L   1       1.637  -1.376  -1.851  1.00  0.00    -0.0131  C
ATOM     12  C9  187 L   1       0.186  -1.690  -1.499  1.00  0.00    +0.0206  C
ATOM     13 N10  187 L   1      -0.215  -0.567  -0.655  1.00  0.00    -0.3684  N
ATOM     14 C21  187 L   1       0.961   0.075  -0.050  1.00  0.00    +0.0392  C
ATOM     15 H28  187 L   1       2.330  -1.571   0.158  1.00  0.00    +0.0543  H
ATOM     16 H29  187 L   1       2.198  -2.266  -2.149  1.00  0.00    +0.0303  H
ATOM     17 H30  187 L   1       1.655  -0.669  -2.688  1.00  0.00    +0.0303  H
ATOM     18 H31  187 L   1       0.122  -2.632  -0.941  1.00  0.00    +0.0488  H
ATOM     19 H32  187 L   1      -0.415  -1.765  -2.411  1.00  0.00    +0.0488  H
ATOM     20 H42  187 L   1       1.025   1.118  -0.381  1.00  0.00    +0.0508  H
ATOM     21 H43  187 L   1       0.931   0.051   1.045  1.00  0.00    +0.0508  H
BRANCH 10 24
ATOM     22  C3  187 L   1       4.105   0.219   0.537  1.00  0.00    +0.2469  C
ATOM     23  O4  187 L   1       3.649  -0.103   1.632  1.00  0.00    -0.2681 OA
ATOM     24  N5  187 L   1       3.422   0.006  -0.656  1.00  0.00    -0.3371  N
ATOM     25  C6  187 L   1       3.687   0.750  -1.885  1.00  0.00    +0.0104  C
ATOM     26 H25  187 L   1       3.941   0.041  -2.677  1.00  0.00    +0.0453  H
ATOM     27 H26  187 L   1       4.498   1.472  -1.780  1.00  0.00    +0.0453  H
ATOM     28 H27  187 L   1       2.789   1.312  -2.162  1.00  0.00    +0.0453  H
BRANCH 22 30
ATOM     29  C1  187 L   1       5.994   1.461   1.494  1.00  0.00    -0.0936  C
ATOM     30  C2  187 L   1       5.458   0.830   0.441  1.00  0.00    -0.0045  C
ATOM     31 H22  187 L   1       5.451   1.561   2.430  1.00  0.00    +0.0536  H
ATOM     32 H23  187 L   1       6.992   1.880   1.443  1.00  0.00    +0.0536  H
ATOM     33 H24  187 L   1       6.020   0.705  -0.474  1.00  0.00    +0.0666  H
ENDBRANCH 22 30
ENDBRANCH 10 24
ENDBRANCH 1 13
BRANCH 3 34
ATOM     34 O14  187 L   1      -3.524   1.827   2.053  1.00  0.00    -0.4949 OA
ATOM     35 C15  187 L   1      -2.519   2.708   2.538  1.00  0.00    +0.0788  C
ATOM     36 H34  187 L   1      -1.748   2.164   3.093  1.00  0.00    +0.0660  H
ATOM     37 H35  187 L   1      -2.083   3.294   1.722  1.00  0.00    +0.0660  H
ATOM     38 H36  187 L   1      -2.996   3.408   3.231  1.00  0.00    +0.0660  H
ENDBRANCH 3 34
BRANCH 5 39
ATOM     39 O18  187 L   1      -4.753  -2.017  -0.516  1.00  0.00    -0.4949 OA
ATOM     40 C19  187 L   1      -6.092  -1.895  -0.052  1.00  0.00    +0.0788  C
ATOM     41 H38  187 L   1      -6.145  -2.014   1.036  1.00  0.00    +0.0660  H
ATOM     42 H39  187 L   1      -6.535  -0.946  -0.369  1.00  0.00    +0.0660  H
ATOM     43 H40  187 L   1      -6.676  -2.703  -0.503  1.00  0.00    +0.0660  H
ENDBRANCH 5 39
TORSDOF 5
