ROOT
ATOM      1 C11  WH0 L   1       3.283   1.837  -0.094  1.00  0.00    -0.0467  A
ATOM      2 C12  WH0 L   1       3.883   2.533  -1.168  1.00  0.00    -0.0566  A
ATOM      3 C13  WH0 L   1       3.160   2.841  -2.323  1.00  0.00    -0.0376  A
ATOM      4 C14  WH0 L   1       1.841   2.441  -2.374  1.00  0.00    +0.0507  A
ATOM      5 C15  WH0 L   1       1.222   1.755  -1.329  1.00  0.00    +0.0444  A
ATOM      6 C16  WH0 L   1       1.938   1.440  -0.182  1.00  0.00    -0.0478  A
ATOM      7 C17  WH0 L   1      -0.220   1.458  -1.684  1.00  0.00    +0.2804  C
ATOM      8 O18  WH0 L   1      -0.423   0.049  -1.661  1.00  0.00    -0.3368 OA
ATOM      9 C19  WH0 L   1      -1.812  -0.259  -1.756  1.00  0.00    +0.0637  C
ATOM     10 C20  WH0 L   1      -2.553   0.250  -0.508  1.00  0.00    +0.0644  C
ATOM     11 C21  WH0 L   1      -3.919   0.799  -0.948  1.00  0.00    +0.0637  C
ATOM     12 O22  WH0 L   1      -4.837   0.813   0.139  1.00  0.00    -0.3368 OA
ATOM     13 C23  WH0 L   1      -5.086  -0.496   0.656  1.00  0.00    +0.2804  C
ATOM     14 O24  WH0 L   1      -4.076  -1.445   0.326  1.00  0.00    -0.3368 OA
ATOM     15 C25  WH0 L   1      -2.781  -0.879   0.509  1.00  0.00    +0.0637  C
ATOM     16 C26  WH0 L   1      -5.370  -0.397   2.220  1.00  0.00    +0.2902  C
ATOM     17 O27  WH0 L   1      -4.594  -0.053   3.102  1.00  0.00    -0.2665 OA
ATOM     18 N28  WH0 L   1      -6.690  -0.781   2.434  1.00  0.00    -0.3210  N
ATOM     19 C29  WH0 L   1      -7.307  -1.136   1.246  1.00  0.00    +0.0507  A
ATOM     20 C30  WH0 L   1      -8.606  -1.579   1.096  1.00  0.00    -0.0378  A
ATOM     21 C31  WH0 L   1      -9.032  -1.902  -0.194  1.00  0.00    -0.0598  A
ATOM     22 C32  WH0 L   1      -8.159  -1.779  -1.289  1.00  0.00    -0.0612  A
ATOM     23 C33  WH0 L   1      -6.846  -1.329  -1.112  1.00  0.00    -0.0510  A
ATOM     24 C34  WH0 L   1      -6.428  -1.002   0.169  1.00  0.00    +0.0441  A
ATOM     25 C35  WH0 L   1      -1.701   1.338   0.161  1.00  0.00    +0.0637  C
ATOM     26 O36  WH0 L   1      -1.091   2.178  -0.811  1.00  0.00    -0.3368 OA
ATOM     27 C37  WH0 L   1      -0.288   2.093  -3.144  1.00  0.00    +0.2902  C
ATOM     28 O38  WH0 L   1      -1.246   2.117  -3.905  1.00  0.00    -0.2665 OA
ATOM     29 N39  WH0 L   1       0.961   2.636  -3.426  1.00  0.00    -0.3210  N
ATOM     30 H49  WH0 L   1       4.928   2.832  -1.103  1.00  0.00    +0.0621  H
ATOM     31 H50  WH0 L   1       3.629   3.372  -3.144  1.00  0.00    +0.0638  H
ATOM     32 H51  WH0 L   1       1.465   0.893   0.627  1.00  0.00    +0.0625  H
ATOM     33 H52  WH0 L   1      -2.214   0.164  -2.683  1.00  0.00    +0.0569  H
ATOM     34 H53  WH0 L   1      -1.906  -1.345  -1.860  1.00  0.00    +0.0569  H
ATOM     35 H54  WH0 L   1      -3.828   1.825  -1.324  1.00  0.00    +0.0569  H
ATOM     36 H55  WH0 L   1      -4.351   0.209  -1.765  1.00  0.00    +0.0569  H
ATOM     37 H56  WH0 L   1      -2.679  -0.533   1.543  1.00  0.00    +0.0569  H
ATOM     38 H57  WH0 L   1      -2.044  -1.680   0.388  1.00  0.00    +0.0569  H
ATOM     39 H58  WH0 L   1      -7.113  -0.799   3.349  1.00  0.00    +0.1688 HD
ATOM     40 H59  WH0 L   1      -9.278  -1.678   1.941  1.00  0.00    +0.0638  H
ATOM     41 H60  WH0 L   1     -10.048  -2.255  -0.356  1.00  0.00    +0.0618  H
ATOM     42 H61  WH0 L   1      -8.508  -2.039  -2.286  1.00  0.00    +0.0618  H
ATOM     43 H62  WH0 L   1      -6.177  -1.245  -1.961  1.00  0.00    +0.0623  H
ATOM     44 H63  WH0 L   1      -0.917   0.906   0.795  1.00  0.00    +0.0569  H
ATOM     45 H64  WH0 L   1      -2.314   1.970   0.813  1.00  0.00    +0.0569  H
ATOM     46 H65  WH0 L   1       1.173   3.102  -4.295  1.00  0.00    +0.1688 HD
ENDROOT
BRANCH 1 47
ATOM     47 C10  WH0 L   1       4.097   1.502   1.132  1.00  0.00    -0.0261  C
ATOM     48 H47  WH0 L   1       4.726   2.363   1.391  1.00  0.00    +0.0314  H
ATOM     49 H48  WH0 L   1       3.427   1.350   1.989  1.00  0.00    +0.0314  H
BRANCH 47 50
ATOM     50  C9  WH0 L   1       4.960   0.260   0.915  1.00  0.00    -0.0315  C
ATOM     51 H45  WH0 L   1       5.643   0.420   0.071  1.00  0.00    +0.0285  H
ATOM     52 H46  WH0 L   1       4.330  -0.597   0.640  1.00  0.00    +0.0285  H
BRANCH 50 53
ATOM     53  C8  WH0 L   1       5.759  -0.078   2.171  1.00  0.00    +0.0187  C
ATOM     54 H43  WH0 L   1       6.379   0.773   2.472  1.00  0.00    +0.0486  H
ATOM     55 H44  WH0 L   1       5.086  -0.320   3.001  1.00  0.00    +0.0486  H
BRANCH 53 58
ATOM     56  C5  WH0 L   1       7.847  -1.111   1.365  1.00  0.00    +0.2618  C
ATOM     57  O6  WH0 L   1       8.318  -0.038   1.004  1.00  0.00    -0.2669 OA
ATOM     58  N7  WH0 L   1       6.613  -1.232   1.968  1.00  0.00    -0.3514  N
ATOM     59 H42  WH0 L   1       6.207  -2.149   2.099  1.00  0.00    +0.1626 HD
BRANCH 56 61
ATOM     60  C1  WH0 L   1       8.537  -3.388   2.033  1.00  0.00    -0.0760  C
ATOM     61  C2  WH0 L   1       8.571  -2.392   1.129  1.00  0.00    +0.1085  C
ATOM     62 H40  WH0 L   1       9.093  -4.309   1.872  1.00  0.00    +0.0549  H
ATOM     63 H41  WH0 L   1       7.994  -3.306   2.968  1.00  0.00    +0.0549  H
BRANCH 61 64
ATOM     64  C3  WH0 L   1       9.365  -2.500  -0.049  1.00  0.00    +0.1040  C
ATOM     65  N4  WH0 L   1      10.007  -2.653  -1.004  1.00  0.00    -0.1907 NA
ENDBRANCH 61 64
ENDBRANCH 56 61
ENDBRANCH 53 58
ENDBRANCH 50 53
ENDBRANCH 47 50
ENDBRANCH 1 47
TORSDOF 6
