ROOT
ATOM      1 N11  MCU L   1      -0.499  -0.743   0.640  1.00  0.00    -0.3346  N
ATOM      2 C12  MCU L   1      -0.063  -0.123   1.806  1.00  0.00    +0.0261  A
ATOM      3 C13  MCU L   1      -0.813  -0.098   3.094  1.00  0.00    -0.0236  C
ATOM      4 C14  MCU L   1       1.166   0.441   1.524  1.00  0.00    +0.0279  A
ATOM      5 C15  MCU L   1       2.072   1.171   2.356  1.00  0.00    +0.0580  A
ATOM      6 N16  MCU L   1       3.184   1.632   1.872  1.00  0.00    -0.1710 NA
ATOM      7 N17  MCU L   1       3.531   1.432   0.514  1.00  0.00    -0.1962  N
ATOM      8 C24  MCU L   1       2.717   0.706  -0.407  1.00  0.00    +0.2813  A
ATOM      9 O25  MCU L   1       2.979   0.449  -1.578  1.00  0.00    -0.2651 OA
ATOM     10 C26  MCU L   1       1.473   0.222   0.179  1.00  0.00    +0.0709  A
ATOM     11 C27  MCU L   1       0.410  -0.465  -0.385  1.00  0.00    +0.0349  A
ATOM     12 H45  MCU L   1      -0.516   0.766   3.698  1.00  0.00    +0.0292  H
ATOM     13 H46  MCU L   1      -0.596  -0.998   3.677  1.00  0.00    +0.0292  H
ATOM     14 H47  MCU L   1      -1.891  -0.018   2.947  1.00  0.00    +0.0292  H
ATOM     15 H48  MCU L   1       1.825   1.341   3.415  1.00  0.00    +0.0854  H
ENDROOT
BRANCH 1 16
ATOM     16  C3  MCU L   1      -1.696  -1.579   0.460  1.00  0.00    +0.1121  C
ATOM     17 H36  MCU L   1      -1.521  -2.137  -0.468  1.00  0.00    +0.0626  H
BRANCH 16 19
ATOM     18  C1  MCU L   1      -0.786  -3.636   1.676  1.00  0.00    -0.0629  C
ATOM     19  C2  MCU L   1      -1.952  -2.669   1.517  1.00  0.00    -0.0262  C
ATOM     20 H31  MCU L   1      -1.049  -4.427   2.385  1.00  0.00    +0.0231  H
ATOM     21 H32  MCU L   1      -0.538  -4.110   0.721  1.00  0.00    +0.0231  H
ATOM     22 H33  MCU L   1       0.108  -3.133   2.054  1.00  0.00    +0.0231  H
ATOM     23 H34  MCU L   1      -2.835  -3.249   1.219  1.00  0.00    +0.0287  H
ATOM     24 H35  MCU L   1      -2.209  -2.239   2.489  1.00  0.00    +0.0287  H
ENDBRANCH 16 19
BRANCH 16 25
ATOM     25  C4  MCU L   1      -2.956  -0.737   0.233  1.00  0.00    +0.2439  C
ATOM     26  O5  MCU L   1      -3.200   0.311   0.824  1.00  0.00    -0.2710 OA
ATOM     27  N6  MCU L   1      -3.847  -1.285  -0.676  1.00  0.00    -0.3521  N
ATOM     28 H37  MCU L   1      -3.546  -2.044  -1.278  1.00  0.00    +0.1624 HD
BRANCH 27 29
ATOM     29  C7  MCU L   1      -5.065  -0.584  -1.042  1.00  0.00    +0.0415  C
ATOM     30 H38  MCU L   1      -5.554  -0.231  -0.127  1.00  0.00    +0.0509  H
ATOM     31 H39  MCU L   1      -5.740  -1.313  -1.503  1.00  0.00    +0.0509  H
BRANCH 29 32
ATOM     32  C8  MCU L   1      -4.817   0.585  -2.001  1.00  0.00    +0.0647  C
ATOM     33 H40  MCU L   1      -4.178   1.356  -1.555  1.00  0.00    +0.0577  H
ATOM     34 H41  MCU L   1      -4.287   0.211  -2.886  1.00  0.00    +0.0577  H
BRANCH 32 35
ATOM     35  O9  MCU L   1      -6.045   1.149  -2.465  1.00  0.00    -0.3812 OA
ATOM     36 C10  MCU L   1      -6.591   2.094  -1.552  1.00  0.00    +0.0365  C
ATOM     37 H42  MCU L   1      -6.836   1.621  -0.597  1.00  0.00    +0.0523  H
ATOM     38 H43  MCU L   1      -5.893   2.923  -1.396  1.00  0.00    +0.0523  H
ATOM     39 H44  MCU L   1      -7.512   2.494  -1.985  1.00  0.00    +0.0523  H
ENDBRANCH 32 35
ENDBRANCH 29 32
ENDBRANCH 27 29
ENDBRANCH 16 25
ENDBRANCH 1 16
BRANCH 7 40
ATOM     40 C18  MCU L   1       4.799   2.031   0.165  1.00  0.00    +0.0692  A
ATOM     41 C19  MCU L   1       5.318   2.034  -1.139  1.00  0.00    -0.0361  A
ATOM     42 C20  MCU L   1       6.554   2.627  -1.436  1.00  0.00    -0.0598  A
ATOM     43 C21  MCU L   1       7.302   3.235  -0.435  1.00  0.00    -0.0616  A
ATOM     44 C22  MCU L   1       6.813   3.253   0.865  1.00  0.00    -0.0598  A
ATOM     45 C23  MCU L   1       5.579   2.660   1.157  1.00  0.00    -0.0361  A
ATOM     46 H49  MCU L   1       4.787   1.592  -1.974  1.00  0.00    +0.0639  H
ATOM     47 H50  MCU L   1       6.924   2.612  -2.458  1.00  0.00    +0.0618  H
ATOM     48 H51  MCU L   1       8.258   3.695  -0.668  1.00  0.00    +0.0618  H
ATOM     49 H52  MCU L   1       7.386   3.728   1.657  1.00  0.00    +0.0618  H
ATOM     50 H53  MCU L   1       5.239   2.698   2.190  1.00  0.00    +0.0639  H
ENDBRANCH 7 40
BRANCH 11 51
ATOM     51 C28  MCU L   1       0.208  -0.861  -1.821  1.00  0.00    +0.0117  C
ATOM     52 H54  MCU L   1       0.609  -0.084  -2.484  1.00  0.00    +0.0350  H
ATOM     53 H55  MCU L   1      -0.859  -0.890  -2.070  1.00  0.00    +0.0350  H
BRANCH 51 54
ATOM     54 C29  MCU L   1       0.876  -2.193  -2.153  1.00  0.00    +0.0496  C
ATOM     55 O30  MCU L   1       0.221  -2.784  -3.272  1.00  0.00    -0.3946 OA
ATOM     56 H56  MCU L   1       0.808  -2.901  -1.320  1.00  0.00    +0.0561  H
ATOM     57 H57  MCU L   1       1.934  -2.046  -2.395  1.00  0.00    +0.0561  H
ATOM     58 H58  MCU L   1       0.809  -3.488  -3.598  1.00  0.00    +0.2094 HD
ENDBRANCH 51 54
ENDBRANCH 11 51
TORSDOF 9
