ROOT
ATOM      1 C36  WH0 L   1      -0.538   2.470   1.605  1.00  0.00    -0.0133  A
ATOM      2 C37  WH0 L   1      -0.245   2.533   2.987  1.00  0.00    -0.0519  A
ATOM      3 C38  WH0 L   1       0.148   3.734   3.587  1.00  0.00    -0.0374  A
ATOM      4 C39  WH0 L   1       0.235   4.844   2.776  1.00  0.00    +0.0454  A
ATOM      5 C40  WH0 L   1      -0.049   4.801   1.414  1.00  0.00    -0.0145  A
ATOM      6 C41  WH0 L   1      -0.436   3.620   0.807  1.00  0.00    -0.0483  A
ATOM      7 C42  WH0 L   1       0.140   6.167   0.823  1.00  0.00    +0.0535  C
ATOM      8 C43  WH0 L   1       0.571   6.988   2.045  1.00  0.00    +0.2296  C
ATOM      9 O44  WH0 L   1       0.840   8.177   2.065  1.00  0.00    -0.2725 OA
ATOM     10 N45  WH0 L   1       0.598   6.130   3.137  1.00  0.00    -0.3256  N
ATOM     11 H68  WH0 L   1      -0.311   1.636   3.600  1.00  0.00    +0.0624  H
ATOM     12 H69  WH0 L   1       0.376   3.780   4.645  1.00  0.00    +0.0638  H
ATOM     13 H70  WH0 L   1      -0.658   3.594  -0.255  1.00  0.00    +0.0627  H
ATOM     14 H71  WH0 L   1       0.938   6.172   0.076  1.00  0.00    +0.0410  H
ATOM     15 H72  WH0 L   1      -0.798   6.562   0.427  1.00  0.00    +0.0410  H
ATOM     16 H73  WH0 L   1       0.856   6.436   4.063  1.00  0.00    +0.1686 HD
ENDROOT
BRANCH 1 25
ATOM     17 C20  WH0 L   1      -0.311   0.455  -0.045  1.00  0.00    +0.1018  A
ATOM     18 N21  WH0 L   1      -0.989  -0.671  -0.312  1.00  0.00    -0.1627 NA
ATOM     19 N22  WH0 L   1      -2.046  -0.637   0.540  1.00  0.00    -0.1987  N
ATOM     20 C23  WH0 L   1      -3.038  -1.664   0.617  1.00  0.00    +0.2282  A
ATOM     21 N31  WH0 L   1      -3.985  -1.552   1.522  1.00  0.00    -0.2207 NA
ATOM     22 C32  WH0 L   1      -3.991  -0.432   2.324  1.00  0.00    +0.0334  A
ATOM     23 C33  WH0 L   1      -3.091   0.564   2.287  1.00  0.00    -0.0173  A
ATOM     24 C34  WH0 L   1      -2.031   0.471   1.359  1.00  0.00    +0.0803  A
ATOM     25 C35  WH0 L   1      -0.923   1.208   1.002  1.00  0.00    +0.0353  A
ATOM     26 H66  WH0 L   1      -4.814  -0.380   3.035  1.00  0.00    +0.0831  H
ATOM     27 H67  WH0 L   1      -3.174   1.418   2.952  1.00  0.00    +0.0654  H
BRANCH 17 33
ATOM     28 C10  WH0 L   1       2.188   0.573  -0.269  1.00  0.00    -0.0359  A
ATOM     29 C11  WH0 L   1       3.302   0.923  -1.058  1.00  0.00    -0.0463  A
ATOM     30 C12  WH0 L   1       3.151   1.447  -2.352  1.00  0.00    +0.0551  A
ATOM     31 C17  WH0 L   1       1.859   1.636  -2.858  1.00  0.00    -0.0495  A
ATOM     32 C18  WH0 L   1       0.745   1.299  -2.089  1.00  0.00    -0.0517  A
ATOM     33 C19  WH0 L   1       0.898   0.775  -0.795  1.00  0.00    +0.0060  A
ATOM     34 H53  WH0 L   1       4.308   0.775  -0.660  1.00  0.00    +0.0626  H
ATOM     35 H54  WH0 L   1       1.716   2.042  -3.858  1.00  0.00    +0.0623  H
ATOM     36 H55  WH0 L   1      -0.252   1.442  -2.503  1.00  0.00    +0.0624  H
BRANCH 28 37
ATOM     37  C9  WH0 L   1       2.437  -0.051   1.092  1.00  0.00    -0.0095  C
ATOM     38 H51  WH0 L   1       3.450   0.206   1.427  1.00  0.00    +0.0330  H
ATOM     39 H52  WH0 L   1       1.770   0.399   1.835  1.00  0.00    +0.0330  H
BRANCH 37 40
ATOM     40  C8  WH0 L   1       2.264  -1.575   1.104  1.00  0.00    +0.0224  C
ATOM     41 H49  WH0 L   1       2.457  -1.950   2.116  1.00  0.00    +0.0489  H
ATOM     42 H50  WH0 L   1       1.246  -1.869   0.834  1.00  0.00    +0.0489  H
BRANCH 40 45
ATOM     43  C5  WH0 L   1       4.482  -2.466   0.487  1.00  0.00    +0.2618  C
ATOM     44  O6  WH0 L   1       4.978  -2.148   1.562  1.00  0.00    -0.2669 OA
ATOM     45  N7  WH0 L   1       3.156  -2.257   0.183  1.00  0.00    -0.3511  N
ATOM     46 H48  WH0 L   1       2.832  -2.355  -0.771  1.00  0.00    +0.1627 HD
BRANCH 43 48
ATOM     47  C1  WH0 L   1       4.799  -3.934  -1.488  1.00  0.00    -0.0760  C
ATOM     48  C2  WH0 L   1       5.311  -3.058  -0.604  1.00  0.00    +0.1085  C
ATOM     49 H46  WH0 L   1       3.766  -4.263  -1.453  1.00  0.00    +0.0549  H
ATOM     50 H47  WH0 L   1       5.422  -4.378  -2.260  1.00  0.00    +0.0549  H
BRANCH 48 51
ATOM     51  C3  WH0 L   1       6.695  -2.720  -0.638  1.00  0.00    +0.1040  C
ATOM     52  N4  WH0 L   1       7.826  -2.469  -0.722  1.00  0.00    -0.1907 NA
ENDBRANCH 48 51
ENDBRANCH 43 48
ENDBRANCH 40 45
ENDBRANCH 37 40
ENDBRANCH 28 37
BRANCH 30 53
ATOM     53 C13  WH0 L   1       4.355   1.823  -3.181  1.00  0.00    +0.4174  C
ATOM     54 F14  WH0 L   1       4.192   1.536  -4.504  1.00  0.00    -0.1659  F
ATOM     55 F15  WH0 L   1       4.635   3.154  -3.117  1.00  0.00    -0.1659  F
ATOM     56 F16  WH0 L   1       5.491   1.176  -2.801  1.00  0.00    -0.1659  F
ENDBRANCH 30 53
ENDBRANCH 17 33
BRANCH 20 57
ATOM     57 N24  WH0 L   1      -2.981  -2.770  -0.240  1.00  0.00    -0.3401  N
ATOM     58 C25  WH0 L   1      -2.951  -2.570  -1.692  1.00  0.00    +0.0237  C
ATOM     59 C26  WH0 L   1      -4.377  -2.519  -2.240  1.00  0.00    -0.0090  C
ATOM     60 C27  WH0 L   1      -5.312  -3.505  -1.536  1.00  0.00    +0.0585  C
ATOM     61 O28  WH0 L   1      -6.203  -4.059  -2.501  1.00  0.00    -0.3917 OA
ATOM     62 C29  WH0 L   1      -4.535  -4.620  -0.849  1.00  0.00    -0.0090  C
ATOM     63 C30  WH0 L   1      -3.571  -4.048   0.188  1.00  0.00    +0.0237  C
ATOM     64 H56  WH0 L   1      -2.430  -1.659  -1.996  1.00  0.00    +0.0489  H
ATOM     65 H57  WH0 L   1      -2.401  -3.400  -2.154  1.00  0.00    +0.0489  H
ATOM     66 H58  WH0 L   1      -4.783  -1.508  -2.106  1.00  0.00    +0.0307  H
ATOM     67 H59  WH0 L   1      -4.356  -2.690  -3.323  1.00  0.00    +0.0307  H
ATOM     68 H60  WH0 L   1      -5.919  -2.966  -0.798  1.00  0.00    +0.0594  H
ATOM     69 H61  WH0 L   1      -6.874  -4.573  -2.021  1.00  0.00    +0.2098 HD
ATOM     70 H62  WH0 L   1      -3.982  -5.198  -1.602  1.00  0.00    +0.0307  H
ATOM     71 H63  WH0 L   1      -5.215  -5.339  -0.378  1.00  0.00    +0.0307  H
ATOM     72 H64  WH0 L   1      -2.763  -4.766   0.367  1.00  0.00    +0.0489  H
ATOM     73 H65  WH0 L   1      -4.101  -3.947   1.141  1.00  0.00    +0.0489  H
ENDBRANCH 20 57
ENDBRANCH 1 25
TORSDOF 9
