ROOT
ATOM      1  N9  EUB L   1      -1.531  -1.252   0.195  1.00  0.00    -0.3267  N
ATOM      2 C10  EUB L   1      -1.293  -2.447  -0.437  1.00  0.00    +0.3195  C
ATOM      3 O11  EUB L   1      -0.709  -2.509  -1.517  1.00  0.00    -0.2473 OA
ATOM      4 N12  EUB L   1      -1.748  -3.554   0.242  1.00  0.00    -0.3202  N
ATOM      5 C13  EUB L   1      -2.643  -3.529   1.404  1.00  0.00    +0.0463  C
ATOM      6 C14  EUB L   1      -3.489  -4.804   1.474  1.00  0.00    +0.0654  C
ATOM      7 O15  EUB L   1      -2.708  -6.005   1.540  1.00  0.00    -0.3763 OA
ATOM      8 C16  EUB L   1      -1.447  -5.920   0.859  1.00  0.00    +0.0654  C
ATOM      9 C17  EUB L   1      -1.421  -4.884  -0.268  1.00  0.00    +0.0463  C
ATOM     10 H46  EUB L   1      -1.400  -1.313   1.195  1.00  0.00    +0.1649 HD
ATOM     11 H47  EUB L   1      -2.002  -3.453   2.290  1.00  0.00    +0.0512  H
ATOM     12 H48  EUB L   1      -3.291  -2.647   1.364  1.00  0.00    +0.0512  H
ATOM     13 H49  EUB L   1      -4.138  -4.879   0.594  1.00  0.00    +0.0577  H
ATOM     14 H50  EUB L   1      -4.136  -4.782   2.357  1.00  0.00    +0.0577  H
ATOM     15 H51  EUB L   1      -0.689  -5.677   1.612  1.00  0.00    +0.0577  H
ATOM     16 H52  EUB L   1      -1.215  -6.915   0.469  1.00  0.00    +0.0577  H
ATOM     17 H53  EUB L   1      -0.439  -4.869  -0.751  1.00  0.00    +0.0512  H
ATOM     18 H54  EUB L   1      -2.174  -5.127  -1.027  1.00  0.00    +0.0512  H
ENDROOT
BRANCH 1 19
ATOM     19  C8  EUB L   1      -0.983  -0.033  -0.394  1.00  0.00    +0.1096  C
ATOM     20 H45  EUB L   1      -1.101  -0.083  -1.483  1.00  0.00    +0.0622  H
BRANCH 19 21
ATOM     21  C7  EUB L   1      -1.713   1.200   0.156  1.00  0.00    -0.0233  C
ATOM     22 H43  EUB L   1      -1.530   1.281   1.236  1.00  0.00    +0.0290  H
ATOM     23 H44  EUB L   1      -2.790   1.051   0.036  1.00  0.00    +0.0290  H
BRANCH 21 24
ATOM     24  C6  EUB L   1      -1.262   2.500  -0.532  1.00  0.00    -0.0456  C
ATOM     25 H41  EUB L   1      -1.240   2.350  -1.620  1.00  0.00    +0.0271  H
ATOM     26 H42  EUB L   1      -0.219   2.675  -0.236  1.00  0.00    +0.0271  H
BRANCH 24 27
ATOM     27  C3  EUB L   1      -2.089   3.782  -0.216  1.00  0.00    -0.0350  C
ATOM     28  C4  EUB L   1      -2.594   3.811   1.237  1.00  0.00    -0.0598  C
ATOM     29  C5  EUB L   1      -1.148   4.998  -0.403  1.00  0.00    -0.0598  C
ATOM     30 H35  EUB L   1      -3.109   4.754   1.455  1.00  0.00    +0.0235  H
ATOM     31 H36  EUB L   1      -3.298   3.001   1.450  1.00  0.00    +0.0235  H
ATOM     32 H37  EUB L   1      -1.760   3.722   1.944  1.00  0.00    +0.0235  H
ATOM     33 H38  EUB L   1      -0.734   5.027  -1.417  1.00  0.00    +0.0235  H
ATOM     34 H39  EUB L   1      -1.680   5.942  -0.232  1.00  0.00    +0.0235  H
ATOM     35 H40  EUB L   1      -0.308   4.963   0.300  1.00  0.00    +0.0235  H
BRANCH 27 37
ATOM     36  C1  EUB L   1      -4.301   2.866  -1.286  1.00  0.00    -0.0648  C
ATOM     37  C2  EUB L   1      -3.268   3.979  -1.211  1.00  0.00    -0.0507  C
ATOM     38 H30  EUB L   1      -4.734   2.642  -0.308  1.00  0.00    +0.0230  H
ATOM     39 H31  EUB L   1      -3.872   1.952  -1.706  1.00  0.00    +0.0230  H
ATOM     40 H32  EUB L   1      -5.120   3.169  -1.947  1.00  0.00    +0.0230  H
ATOM     41 H33  EUB L   1      -3.794   4.910  -0.959  1.00  0.00    +0.0268  H
ATOM     42 H34  EUB L   1      -2.865   4.128  -2.222  1.00  0.00    +0.0268  H
ENDBRANCH 27 37
ENDBRANCH 24 27
ENDBRANCH 21 24
ENDBRANCH 19 21
BRANCH 19 43
ATOM     43 C18  EUB L   1       0.510   0.004  -0.008  1.00  0.00    +0.2446  C
ATOM     44 O19  EUB L   1       0.888  -0.202   1.143  1.00  0.00    -0.2709 OA
ATOM     45 N20  EUB L   1       1.360   0.305  -1.049  1.00  0.00    -0.3363  N
ATOM     46 H55  EUB L   1       0.977   0.172  -1.981  1.00  0.00    +0.1639 HD
BRANCH 45 47
ATOM     47 C21  EUB L   1       2.836   0.261  -0.950  1.00  0.00    +0.1299  C
ATOM     48 C24  EUB L   1       3.317  -1.198  -0.786  1.00  0.00    -0.0035  C
ATOM     49 C25  EUB L   1       4.803  -1.235  -0.424  1.00  0.00    +0.0017  C
ATOM     50 N26  EUB L   1       5.110  -0.524   0.819  1.00  0.00    -0.3051 NA
ATOM     51 C27  EUB L   1       6.423   0.113   0.768  1.00  0.00    -0.0128  C
ATOM     52 C28  EUB L   1       4.058   0.377   1.292  1.00  0.00    +0.0017  C
ATOM     53 C29  EUB L   1       3.380   1.174   0.179  1.00  0.00    -0.0035  C
ATOM     54 H56  EUB L   1       2.744  -1.718  -0.008  1.00  0.00    +0.0310  H
ATOM     55 H57  EUB L   1       3.151  -1.768  -1.710  1.00  0.00    +0.0310  H
ATOM     56 H58  EUB L   1       5.380  -0.829  -1.266  1.00  0.00    +0.0427  H
ATOM     57 H59  EUB L   1       5.118  -2.280  -0.313  1.00  0.00    +0.0427  H
ATOM     58 H60  EUB L   1       6.452   0.938   0.047  1.00  0.00    +0.0391  H
ATOM     59 H61  EUB L   1       7.194  -0.614   0.492  1.00  0.00    +0.0391  H
ATOM     60 H62  EUB L   1       6.702   0.504   1.753  1.00  0.00    +0.0391  H
ATOM     61 H63  EUB L   1       4.446   1.065   2.054  1.00  0.00    +0.0427  H
ATOM     62 H64  EUB L   1       3.311  -0.226   1.820  1.00  0.00    +0.0427  H
ATOM     63 H65  EUB L   1       4.112   1.894  -0.214  1.00  0.00    +0.0310  H
ATOM     64 H66  EUB L   1       2.580   1.789   0.612  1.00  0.00    +0.0310  H
BRANCH 47 65
ATOM     65 C22  EUB L   1       3.370   0.785  -2.246  1.00  0.00    +0.0907  C
ATOM     66 N23  EUB L   1       3.762   1.189  -3.263  1.00  0.00    -0.1941 NA
ENDBRANCH 47 65
ENDBRANCH 45 47
ENDBRANCH 19 43
ENDBRANCH 1 19
TORSDOF 8
