ROOT
ATOM      1  N8  448 L   1      -3.217   0.380   0.622  1.00  0.00    -0.3559  N
ATOM      2  C9  448 L   1      -3.868   1.469  -0.114  1.00  0.00    +0.0200  C
ATOM      3 C10  448 L   1      -5.086   0.975  -0.893  1.00  0.00    -0.0352  C
ATOM      4 C11  448 L   1      -6.082   0.234  -0.005  1.00  0.00    -0.0499  C
ATOM      5 C12  448 L   1      -5.401  -0.618   1.065  1.00  0.00    -0.0352  C
ATOM      6 C13  448 L   1      -3.934  -0.893   0.738  1.00  0.00    +0.0200  C
ATOM      7 H25  448 L   1      -4.177   2.238   0.604  1.00  0.00    +0.0488  H
ATOM      8 H26  448 L   1      -3.191   1.947  -0.832  1.00  0.00    +0.0488  H
ATOM      9 H27  448 L   1      -5.585   1.817  -1.387  1.00  0.00    +0.0282  H
ATOM     10 H28  448 L   1      -4.750   0.301  -1.692  1.00  0.00    +0.0282  H
ATOM     11 H29  448 L   1      -6.719  -0.397  -0.636  1.00  0.00    +0.0266  H
ATOM     12 H30  448 L   1      -6.751   0.952   0.485  1.00  0.00    +0.0266  H
ATOM     13 H31  448 L   1      -5.945  -1.561   1.191  1.00  0.00    +0.0282  H
ATOM     14 H32  448 L   1      -5.461  -0.093   2.027  1.00  0.00    +0.0282  H
ATOM     15 H33  448 L   1      -3.516  -1.498   1.553  1.00  0.00    +0.0488  H
ATOM     16 H34  448 L   1      -3.856  -1.474  -0.190  1.00  0.00    +0.0488  H
ENDROOT
BRANCH 1 20
ATOM     17  C4  448 L   1       0.954   0.042   0.419  1.00  0.00    +0.0605  A
ATOM     18  C5  448 L   1       0.371   1.296   0.561  1.00  0.00    -0.0334  A
ATOM     19  C6  448 L   1      -1.021   1.411   0.626  1.00  0.00    -0.0175  A
ATOM     20  C7  448 L   1      -1.828   0.276   0.540  1.00  0.00    +0.1296  A
ATOM     21 N14  448 L   1      -1.264  -0.944   0.420  1.00  0.00    -0.2362 NA
ATOM     22 C15  448 L   1       0.091  -1.042   0.356  1.00  0.00    +0.0532  A
ATOM     23 H23  448 L   1       0.976   2.194   0.632  1.00  0.00    +0.0640  H
ATOM     24 H24  448 L   1      -1.463   2.391   0.768  1.00  0.00    +0.0655  H
ATOM     25 H35  448 L   1       0.443  -2.062   0.253  1.00  0.00    +0.0851  H
BRANCH 17 28
ATOM     26  O1  448 L   1       2.726  -2.316   0.110  1.00  0.00    -0.2638 OA
ATOM     27  C2  448 L   1       3.129  -1.165   0.213  1.00  0.00    +0.2941  C
ATOM     28  N3  448 L   1       2.358  -0.030   0.357  1.00  0.00    -0.3182  N
ATOM     29 H22  448 L   1       2.873   0.841   0.422  1.00  0.00    +0.1691 HD
BRANCH 27 30
ATOM     30 C16  448 L   1       4.596  -0.832   0.195  1.00  0.00    +0.2194  C
ATOM     31 C17  448 L   1       5.481  -1.833   0.052  1.00  0.00    +0.1316  C
ATOM     32 O18  448 L   1       6.845  -1.679  -0.028  1.00  0.00    -0.4923 OA
ATOM     33 C19  448 L   1       7.212  -0.304  -0.211  1.00  0.00    +0.1228  C
ATOM     34 C20  448 L   1       6.368   0.607   0.672  1.00  0.00    +0.1238  C
ATOM     35 O21  448 L   1       4.974   0.500   0.339  1.00  0.00    -0.4810 OA
ATOM     36 H36  448 L   1       5.209  -2.880  -0.012  1.00  0.00    +0.1063  H
ATOM     37 H37  448 L   1       8.273  -0.204   0.038  1.00  0.00    +0.0731  H
ATOM     38 H38  448 L   1       7.082  -0.054  -1.271  1.00  0.00    +0.0731  H
ATOM     39 H39  448 L   1       6.664   1.652   0.534  1.00  0.00    +0.0731  H
ATOM     40 H40  448 L   1       6.489   0.354   1.732  1.00  0.00    +0.0731  H
ENDBRANCH 27 30
ENDBRANCH 17 28
ENDBRANCH 1 20
TORSDOF 3
