ROOT
ATOM      1  C1  583 L   1       2.602  -1.143   1.254  1.00  0.00    +0.0143  C
ATOM      2  N2  583 L   1       3.171  -1.044  -0.069  1.00  0.00    -0.3209  N
ATOM      3  C3  583 L   1       4.482  -1.175  -0.423  1.00  0.00    +0.1286  A
ATOM      4 CL4  583 L   1       5.708  -1.491   0.707  1.00  0.00    -0.0622 Cl
ATOM      5  C5  583 L   1       4.541  -0.989  -1.776  1.00  0.00    +0.0647  A
ATOM      6  N6  583 L   1       3.289  -0.729  -2.272  1.00  0.00    -0.2378 NA
ATOM      7  C7  583 L   1       2.473  -0.754  -1.229  1.00  0.00    +0.1246  A
ATOM      8 H21  583 L   1       2.523  -0.137   1.671  1.00  0.00    +0.0456  H
ATOM      9 H22  583 L   1       1.620  -1.615   1.189  1.00  0.00    +0.0456  H
ATOM     10 H23  583 L   1       3.233  -1.767   1.891  1.00  0.00    +0.0456  H
ATOM     11 H24  583 L   1       5.409  -1.019  -2.420  1.00  0.00    +0.0860  H
ENDROOT
BRANCH 7 12
ATOM     12  C8  583 L   1       0.991  -0.489  -1.287  1.00  0.00    +0.0576  C
ATOM     13 H25  583 L   1       0.697  -0.337  -2.333  1.00  0.00    +0.0506  H
ATOM     14 H26  583 L   1       0.511  -1.414  -0.950  1.00  0.00    +0.0506  H
BRANCH 12 15
ATOM     15  N9  583 L   1       0.555   0.655  -0.454  1.00  0.00    -0.2876 NA
ATOM     16 C10  583 L   1       1.254   1.893  -0.907  1.00  0.00    +0.0232  C
ATOM     17 C11  583 L   1       0.809   3.133  -0.125  1.00  0.00    +0.0605  C
ATOM     18 O12  583 L   1      -0.601   3.329  -0.250  1.00  0.00    -0.3770 OA
ATOM     19 C13  583 L   1      -1.292   2.180   0.264  1.00  0.00    +0.0636  C
ATOM     20 C14  583 L   1      -0.928   0.899  -0.538  1.00  0.00    +0.0394  C
ATOM     21 H27  583 L   1       2.337   1.798  -0.773  1.00  0.00    +0.0449  H
ATOM     22 H28  583 L   1       1.057   2.058  -1.974  1.00  0.00    +0.0449  H
ATOM     23 H29  583 L   1       1.304   4.023  -0.528  1.00  0.00    +0.0572  H
ATOM     24 H30  583 L   1       1.077   3.055   0.936  1.00  0.00    +0.0572  H
ATOM     25 H31  583 L   1      -2.355   2.412   0.174  1.00  0.00    +0.0575  H
ATOM     26 H32  583 L   1      -1.057   2.089   1.329  1.00  0.00    +0.0575  H
ATOM     27 H33  583 L   1      -1.154   1.124  -1.592  1.00  0.00    +0.0489  H
BRANCH 20 28
ATOM     28 C15  583 L   1      -1.795  -0.334  -0.162  1.00  0.00    +0.0028  C
ATOM     29 C16  583 L   1      -3.313  -0.138  -0.279  1.00  0.00    -0.0463  C
ATOM     30 C17  583 L   1      -3.907  -1.367   0.413  1.00  0.00    -0.0503  C
ATOM     31 C18  583 L   1      -2.796  -1.947   1.298  1.00  0.00    -0.0265  C
ATOM     32 C19  583 L   1      -1.656  -0.928   1.243  1.00  0.00    +0.0596  C
ATOM     33 O20  583 L   1      -1.827   0.033   2.275  1.00  0.00    -0.3915 OA
ATOM     34 H34  583 L   1      -1.559  -1.131  -0.881  1.00  0.00    +0.0342  H
ATOM     35 H35  583 L   1      -3.660   0.758   0.244  1.00  0.00    +0.0269  H
ATOM     36 H36  583 L   1      -3.639  -0.063  -1.321  1.00  0.00    +0.0269  H
ATOM     37 H37  583 L   1      -4.787  -1.092   1.005  1.00  0.00    +0.0266  H
ATOM     38 H38  583 L   1      -4.228  -2.112  -0.323  1.00  0.00    +0.0266  H
ATOM     39 H39  583 L   1      -3.155  -2.128   2.317  1.00  0.00    +0.0290  H
ATOM     40 H40  583 L   1      -2.466  -2.903   0.875  1.00  0.00    +0.0290  H
ATOM     41 H41  583 L   1      -0.688  -1.412   1.395  1.00  0.00    +0.0596  H
ATOM     42 H42  583 L   1      -2.775   0.220   2.385  1.00  0.00    +0.2098 HD
ENDBRANCH 20 28
ENDBRANCH 12 15
ENDBRANCH 7 12
TORSDOF 3
