ROOT
ATOM      1  O1  CHE L   1       2.734   2.957  -0.757  1.00  0.00    -0.2923 OA
ATOM      2  C2  CHE L   1       1.533   2.725  -0.625  1.00  0.00    +0.1619  C
ATOM      3  C3  CHE L   1       0.553   3.852  -0.394  1.00  0.00    +0.0105  C
ATOM      4  C4  CHE L   1      -0.852   3.449  -0.800  1.00  0.00    -0.0420  C
ATOM      5  C5  CHE L   1      -1.260   2.160  -0.090  1.00  0.00    -0.0262  C
ATOM      6  C6  CHE L   1      -0.259   1.057  -0.311  1.00  0.00    -0.0288  C
ATOM      7  C7  CHE L   1       1.030   1.323  -0.620  1.00  0.00    +0.0283  C
ATOM      8  C8  CHE L   1       2.018   0.268  -1.043  1.00  0.00    +0.1142  C
ATOM      9 N14  CHE L   1       1.283  -0.764  -1.810  1.00  0.00    -0.3707  N
ATOM     10 C15  CHE L   1       0.107  -1.230  -1.174  1.00  0.00    +0.0442  A
ATOM     11 C16  CHE L   1      -0.333  -2.518  -1.483  1.00  0.00    -0.0375  A
ATOM     12 C17  CHE L   1      -1.491  -3.024  -0.908  1.00  0.00    -0.0521  A
ATOM     13 C18  CHE L   1      -2.225  -2.265   0.007  1.00  0.00    -0.0172  A
ATOM     14 C19  CHE L   1      -3.355  -2.845   0.609  1.00  0.00    -0.0540  A
ATOM     15 C20  CHE L   1      -4.100  -2.155   1.559  1.00  0.00    -0.0612  A
ATOM     16 C21  CHE L   1      -3.710  -0.879   1.929  1.00  0.00    -0.0611  A
ATOM     17 C22  CHE L   1      -2.592  -0.290   1.329  1.00  0.00    -0.0534  A
ATOM     18 C23  CHE L   1      -1.827  -0.938   0.324  1.00  0.00    -0.0085  A
ATOM     19 C24  CHE L   1      -0.686  -0.382  -0.353  1.00  0.00    +0.0093  A
ATOM     20 H25  CHE L   1       0.591   4.125   0.667  1.00  0.00    +0.0345  H
ATOM     21 H26  CHE L   1       0.868   4.716  -0.988  1.00  0.00    +0.0345  H
ATOM     22 H27  CHE L   1      -0.898   3.301  -1.887  1.00  0.00    +0.0272  H
ATOM     23 H28  CHE L   1      -1.558   4.250  -0.554  1.00  0.00    +0.0272  H
ATOM     24 H29  CHE L   1      -2.248   1.875  -0.469  1.00  0.00    +0.0314  H
ATOM     25 H30  CHE L   1      -1.346   2.372   0.982  1.00  0.00    +0.0314  H
ATOM     26 H31  CHE L   1       2.710   0.705  -1.775  1.00  0.00    +0.0655  H
ATOM     27 H35  CHE L   1       1.915  -1.540  -2.001  1.00  0.00    +0.1607 HD
ATOM     28 H36  CHE L   1       0.230  -3.140  -2.173  1.00  0.00    +0.0638  H
ATOM     29 H37  CHE L   1      -1.798  -4.036  -1.164  1.00  0.00    +0.0624  H
ATOM     30 H38  CHE L   1      -3.661  -3.857   0.347  1.00  0.00    +0.0624  H
ATOM     31 H39  CHE L   1      -4.966  -2.620   2.019  1.00  0.00    +0.0618  H
ATOM     32 H40  CHE L   1      -4.264  -0.340   2.693  1.00  0.00    +0.0618  H
ATOM     33 H41  CHE L   1      -2.308   0.686   1.703  1.00  0.00    +0.0624  H
ENDROOT
BRANCH 8 34
ATOM     34  C9  CHE L   1       2.883  -0.302   0.055  1.00  0.00    +0.1316  A
ATOM     35 C10  CHE L   1       3.221   0.111   1.329  1.00  0.00    -0.0183  A
ATOM     36 C11  CHE L   1       4.088  -0.875   1.858  1.00  0.00    -0.0236  A
ATOM     37 C12  CHE L   1       4.233  -1.825   0.875  1.00  0.00    +0.0922  A
ATOM     38 O13  CHE L   1       3.512  -1.487  -0.224  1.00  0.00    -0.4654 OA
ATOM     39 H32  CHE L   1       2.887   1.017   1.816  1.00  0.00    +0.0653  H
ATOM     40 H33  CHE L   1       4.554  -0.890   2.832  1.00  0.00    +0.0649  H
ATOM     41 H34  CHE L   1       4.787  -2.750   0.804  1.00  0.00    +0.1029  H
ENDBRANCH 8 34
TORSDOF 1
