ROOT
ATOM      1 C10  MCU L   1      -2.669  -0.374   0.485  1.00  0.00    +0.0559  C
ATOM      2 C11  MCU L   1      -3.337   0.288   1.693  1.00  0.00    +0.1005  C
ATOM      3 C14  MCU L   1      -4.142   1.381   1.587  1.00  0.00    +0.2088  C
ATOM      4 N15  MCU L   1      -4.773   2.011   2.637  1.00  0.00    -0.3688  N
ATOM      5 O16  MCU L   1      -4.417   1.989   0.349  1.00  0.00    -0.4216 OA
ATOM      6 C17  MCU L   1      -3.901   1.400  -0.724  1.00  0.00    +0.2227  A
ATOM      7 N18  MCU L   1      -4.113   1.795  -2.004  1.00  0.00    -0.2460  N
ATOM      8 N19  MCU L   1      -3.484   1.010  -2.901  1.00  0.00    -0.1758 NA
ATOM      9 C20  MCU L   1      -2.857   0.085  -2.153  1.00  0.00    +0.0675  A
ATOM     10 C21  MCU L   1      -2.050  -0.973  -2.807  1.00  0.00    -0.0202  C
ATOM     11 C22  MCU L   1      -3.081   0.303  -0.774  1.00  0.00    +0.0492  A
ATOM     12 H36  MCU L   1      -3.000  -1.422   0.437  1.00  0.00    +0.0457  H
ATOM     13 H37  MCU L   1      -4.995   2.980   2.420  1.00  0.00    +0.1588 HD
ATOM     14 H38  MCU L   1      -4.327   1.902   3.544  1.00  0.00    +0.1588 HD
ATOM     15 H39  MCU L   1      -4.673   2.571  -2.339  1.00  0.00    +0.1920 HD
ATOM     16 H40  MCU L   1      -1.049  -0.593  -3.049  1.00  0.00    +0.0293  H
ATOM     17 H41  MCU L   1      -1.940  -1.848  -2.154  1.00  0.00    +0.0293  H
ATOM     18 H42  MCU L   1      -2.530  -1.311  -3.735  1.00  0.00    +0.0293  H
ENDROOT
BRANCH 1 22
ATOM     19  C6  MCU L   1       1.675  -0.235   0.650  1.00  0.00    +0.1620  A
ATOM     20  C7  MCU L   1       0.947   0.953   0.586  1.00  0.00    -0.0160  A
ATOM     21  C8  MCU L   1      -0.450   0.920   0.533  1.00  0.00    -0.0540  A
ATOM     22  C9  MCU L   1      -1.148  -0.302   0.533  1.00  0.00    -0.0309  A
ATOM     23 C23  MCU L   1      -0.405  -1.492   0.622  1.00  0.00    -0.0122  A
ATOM     24 C24  MCU L   1       0.990  -1.454   0.704  1.00  0.00    +0.1618  A
ATOM     25 H34  MCU L   1       1.445   1.917   0.597  1.00  0.00    +0.0655  H
ATOM     26 H35  MCU L   1      -0.990   1.865   0.484  1.00  0.00    +0.0622  H
ATOM     27 H43  MCU L   1      -0.907  -2.456   0.622  1.00  0.00    +0.0658  H
BRANCH 19 28
ATOM     28  O5  MCU L   1       3.041  -0.276   0.732  1.00  0.00    -0.4860 OA
BRANCH 28 29
ATOM     29  C4  MCU L   1       3.715   0.665  -0.105  1.00  0.00    +0.1130  C
ATOM     30 H32  MCU L   1       3.224   0.746  -1.083  1.00  0.00    +0.0720  H
ATOM     31 H33  MCU L   1       3.714   1.656   0.364  1.00  0.00    +0.0720  H
BRANCH 29 32
ATOM     32  C3  MCU L   1       5.160   0.201  -0.287  1.00  0.00    +0.0814  C
ATOM     33 H30  MCU L   1       5.646   0.161   0.696  1.00  0.00    +0.0593  H
ATOM     34 H31  MCU L   1       5.203  -0.819  -0.689  1.00  0.00    +0.0593  H
BRANCH 32 36
ATOM     35  C1  MCU L   1       5.771   0.841  -2.488  1.00  0.00    +0.0366  C
ATOM     36  O2  MCU L   1       5.909   1.107  -1.097  1.00  0.00    -0.3796 OA
ATOM     37 H27  MCU L   1       6.370   1.574  -3.036  1.00  0.00    +0.0524  H
ATOM     38 H28  MCU L   1       6.149  -0.160  -2.725  1.00  0.00    +0.0524  H
ATOM     39 H29  MCU L   1       4.729   0.937  -2.807  1.00  0.00    +0.0524  H
ENDBRANCH 32 36
ENDBRANCH 29 32
ENDBRANCH 28 29
ENDBRANCH 19 28
BRANCH 24 40
ATOM     40 O25  MCU L   1       1.711  -2.621   0.761  1.00  0.00    -0.4914 OA
ATOM     41 C26  MCU L   1       1.500  -3.289   2.004  1.00  0.00    +0.0790  C
ATOM     42 H44  MCU L   1       1.523  -2.597   2.855  1.00  0.00    +0.0660  H
ATOM     43 H45  MCU L   1       2.310  -4.013   2.137  1.00  0.00    +0.0660  H
ATOM     44 H46  MCU L   1       0.553  -3.840   1.986  1.00  0.00    +0.0660  H
ENDBRANCH 24 40
ENDBRANCH 1 22
BRANCH 2 45
ATOM     45 C12  MCU L   1      -3.117  -0.334   2.958  1.00  0.00    +0.1010  C
ATOM     46 N13  MCU L   1      -2.931  -0.848   3.981  1.00  0.00    -0.1910 NA
ENDBRANCH 2 45
TORSDOF 7
