ROOT
ATOM      1  C5  CHE L   1       0.230  -0.080   0.712  1.00  0.00    -0.0396  C
ATOM      2  C6  CHE L   1      -0.215   1.185  -0.051  1.00  0.00    -0.0502  C
ATOM      3  C7  CHE L   1      -1.443   1.902   0.522  1.00  0.00    -0.0528  C
ATOM      4  C8  CHE L   1      -2.643   1.059   0.939  1.00  0.00    -0.0530  C
ATOM      5  C9  CHE L   1      -3.344   0.293  -0.178  1.00  0.00    -0.0531  C
ATOM      6 C10  CHE L   1      -2.548  -0.799  -0.891  1.00  0.00    -0.0530  C
ATOM      7 C11  CHE L   1      -1.716  -1.699   0.023  1.00  0.00    -0.0528  C
ATOM      8 C12  CHE L   1      -0.215  -1.391   0.029  1.00  0.00    -0.0502  C
ATOM      9 H21  CHE L   1      -0.210  -0.055   1.717  1.00  0.00    +0.0301  H
ATOM     10 H22  CHE L   1      -0.371   0.966  -1.112  1.00  0.00    +0.0268  H
ATOM     11 H23  CHE L   1       0.589   1.932  -0.034  1.00  0.00    +0.0268  H
ATOM     12 H24  CHE L   1      -1.116   2.461   1.409  1.00  0.00    +0.0265  H
ATOM     13 H25  CHE L   1      -1.769   2.659  -0.202  1.00  0.00    +0.0265  H
ATOM     14 H26  CHE L   1      -2.374   0.385   1.758  1.00  0.00    +0.0265  H
ATOM     15 H27  CHE L   1      -3.383   1.744   1.374  1.00  0.00    +0.0265  H
ATOM     16 H28  CHE L   1      -4.236  -0.174   0.259  1.00  0.00    +0.0265  H
ATOM     17 H29  CHE L   1      -3.716   1.002  -0.928  1.00  0.00    +0.0265  H
ATOM     18 H30  CHE L   1      -1.935  -0.370  -1.689  1.00  0.00    +0.0265  H
ATOM     19 H31  CHE L   1      -3.281  -1.430  -1.413  1.00  0.00    +0.0265  H
ATOM     20 H32  CHE L   1      -1.819  -2.726  -0.354  1.00  0.00    +0.0265  H
ATOM     21 H33  CHE L   1      -2.113  -1.724   1.044  1.00  0.00    +0.0265  H
ATOM     22 H34  CHE L   1       0.148  -1.417  -1.006  1.00  0.00    +0.0268  H
ATOM     23 H35  CHE L   1       0.276  -2.227   0.545  1.00  0.00    +0.0268  H
ENDROOT
BRANCH 1 24
ATOM     24  C4  CHE L   1       1.767  -0.088   0.956  1.00  0.00    -0.0352  C
ATOM     25 H19  CHE L   1       2.063   0.878   1.388  1.00  0.00    +0.0283  H
ATOM     26 H20  CHE L   1       1.963  -0.830   1.744  1.00  0.00    +0.0283  H
BRANCH 24 28
ATOM     27  C1  CHE L   1       4.149  -0.460   0.220  1.00  0.00    -0.0499  C
ATOM     28  C2  CHE L   1       2.687  -0.428  -0.236  1.00  0.00    +0.0023  C
ATOM     29  N3  CHE L   1       2.550   0.527  -1.332  1.00  0.00    -0.3275 NA
ATOM     30 H13  CHE L   1       4.813  -0.734  -0.607  1.00  0.00    +0.0245  H
ATOM     31 H14  CHE L   1       4.471   0.514   0.606  1.00  0.00    +0.0245  H
ATOM     32 H15  CHE L   1       4.289  -1.200   1.015  1.00  0.00    +0.0245  H
ATOM     33 H16  CHE L   1       2.438  -1.425  -0.616  1.00  0.00    +0.0455  H
ATOM     34 H17  CHE L   1       3.201   0.291  -2.080  1.00  0.00    +0.1185 HD
ATOM     35 H18  CHE L   1       2.813   1.459  -1.013  1.00  0.00    +0.1185 HD
ENDBRANCH 24 28
ENDBRANCH 1 24
TORSDOF 2
