ROOT
ATOM      1  C3  238 L   1      -3.176   0.032   0.748  1.00  0.00    +0.0615  C
ATOM      2  C4  238 L   1      -3.785   0.006  -0.650  1.00  0.00    -0.0004  C
ATOM      3  C5  238 L   1      -3.550   1.338  -1.358  1.00  0.00    +0.0602  C
ATOM      4  O6  238 L   1      -3.375   1.093  -2.752  1.00  0.00    -0.3916 OA
ATOM      5  C7  238 L   1      -2.359   2.106  -0.790  1.00  0.00    +0.0025  C
ATOM      6  C8  238 L   1      -1.251   1.180  -0.251  1.00  0.00    +0.0746  C
ATOM      7  C9  238 L   1      -0.215   2.030   0.508  1.00  0.00    -0.0108  C
ATOM      8 C10  238 L   1       1.003   1.211   0.936  1.00  0.00    +0.0016  C
ATOM      9 N11  238 L   1       1.657   0.579  -0.225  1.00  0.00    -0.3005 NA
ATOM     10 C19  238 L   1       0.704  -0.323  -0.894  1.00  0.00    +0.0016  C
ATOM     11 C20  238 L   1      -0.530   0.436  -1.389  1.00  0.00    -0.0108  C
ATOM     12 O21  238 L   1      -1.755   0.207   0.681  1.00  0.00    -0.3699 OA
ATOM     13 H27  238 L   1      -3.590   0.866   1.329  1.00  0.00    +0.0597  H
ATOM     14 H28  238 L   1      -3.352  -0.816  -1.233  1.00  0.00    +0.0315  H
ATOM     15 H29  238 L   1      -4.864  -0.183  -0.613  1.00  0.00    +0.0315  H
ATOM     16 H30  238 L   1      -4.447   1.961  -1.262  1.00  0.00    +0.0595  H
ATOM     17 H31  238 L   1      -3.329   1.955  -3.201  1.00  0.00    +0.2098 HD
ATOM     18 H32  238 L   1      -2.731   2.718   0.044  1.00  0.00    +0.0318  H
ATOM     19 H33  238 L   1      -1.952   2.800  -1.536  1.00  0.00    +0.0318  H
ATOM     20 H34  238 L   1      -0.672   2.459   1.409  1.00  0.00    +0.0305  H
ATOM     21 H35  238 L   1       0.118   2.868  -0.119  1.00  0.00    +0.0305  H
ATOM     22 H36  238 L   1       1.707   1.895   1.427  1.00  0.00    +0.0427  H
ATOM     23 H37  238 L   1       0.713   0.460   1.682  1.00  0.00    +0.0427  H
ATOM     24 H45  238 L   1       1.171  -0.782  -1.772  1.00  0.00    +0.0427  H
ATOM     25 H46  238 L   1       0.401  -1.141  -0.227  1.00  0.00    +0.0427  H
ATOM     26 H47  238 L   1      -0.225   1.147  -2.168  1.00  0.00    +0.0305  H
ATOM     27 H48  238 L   1      -1.195  -0.294  -1.861  1.00  0.00    +0.0305  H
ENDROOT
BRANCH 1 29
ATOM     28  C1  238 L   1      -4.875  -1.542   1.841  1.00  0.00    -0.0629  C
ATOM     29  C2  238 L   1      -3.413  -1.267   1.529  1.00  0.00    -0.0293  C
ATOM     30 H22  238 L   1      -5.449  -1.745   0.933  1.00  0.00    +0.0231  H
ATOM     31 H23  238 L   1      -4.961  -2.421   2.488  1.00  0.00    +0.0231  H
ATOM     32 H24  238 L   1      -5.332  -0.694   2.360  1.00  0.00    +0.0231  H
ATOM     33 H25  238 L   1      -2.853  -1.220   2.471  1.00  0.00    +0.0287  H
ATOM     34 H26  238 L   1      -2.987  -2.115   0.978  1.00  0.00    +0.0287  H
ENDBRANCH 1 29
BRANCH 9 35
ATOM     35 C12  238 L   1       2.868  -0.141   0.224  1.00  0.00    +0.0169  C
ATOM     36 H38  238 L   1       2.598  -1.005   0.847  1.00  0.00    +0.0444  H
ATOM     37 H39  238 L   1       3.458   0.527   0.866  1.00  0.00    +0.0444  H
BRANCH 35 38
ATOM     38 C13  238 L   1       3.778  -0.584  -0.930  1.00  0.00    +0.0369  C
ATOM     39 H40  238 L   1       4.052   0.269  -1.562  1.00  0.00    +0.0505  H
ATOM     40 H41  238 L   1       3.296  -1.333  -1.568  1.00  0.00    +0.0505  H
BRANCH 38 41
ATOM     41 N14  238 L   1       5.010  -1.178  -0.444  1.00  0.00    -0.3356  N
ATOM     42 C15  238 L   1       6.196  -0.531  -0.238  1.00  0.00    +0.0240  A
ATOM     43 C16  238 L   1       7.053  -1.506   0.216  1.00  0.00    +0.0454  A
ATOM     44 N17  238 L   1       6.418  -2.720   0.284  1.00  0.00    -0.2441 NA
ATOM     45 C18  238 L   1       5.191  -2.493  -0.126  1.00  0.00    +0.0959  A
ATOM     46 H42  238 L   1       6.330   0.526  -0.421  1.00  0.00    +0.0825  H
ATOM     47 H43  238 L   1       8.093  -1.399   0.497  1.00  0.00    +0.0845  H
ATOM     48 H44  238 L   1       4.407  -3.234  -0.207  1.00  0.00    +0.1029  H
ENDBRANCH 38 41
ENDBRANCH 35 38
ENDBRANCH 9 35
TORSDOF 4
