ROOT
ATOM      1  N9  953 L   1      -0.038   1.373  -0.231  1.00  0.00    -0.2937 NA
ATOM      2 C10  953 L   1       0.225  -0.031  -0.522  1.00  0.00    +0.0021  C
ATOM      3 C11  953 L   1      -1.001  -0.903  -0.210  1.00  0.00    -0.0084  C
ATOM      4 C12  953 L   1      -2.341  -0.309  -0.707  1.00  0.00    +0.0975  C
ATOM      5 C13  953 L   1      -2.059   0.862  -1.666  1.00  0.00    -0.0084  C
ATOM      6 C14  953 L   1      -1.137   1.917  -1.040  1.00  0.00    +0.0021  C
ATOM      7 O15  953 L   1      -3.042   0.293   0.413  1.00  0.00    -0.3707 OA
ATOM      8 C16  953 L   1      -3.931  -0.589   1.086  1.00  0.00    +0.0486  C
ATOM      9 C17  953 L   1      -5.118  -0.913   0.185  1.00  0.00    -0.0270  C
ATOM     10 C18  953 L   1      -4.718  -1.012  -1.289  1.00  0.00    -0.0221  C
ATOM     11 C19  953 L   1      -3.239  -1.373  -1.429  1.00  0.00    +0.0843  C
ATOM     12 O20  953 L   1      -3.063  -2.684  -0.874  1.00  0.00    -0.3889 OA
ATOM     13 H31  953 L   1       1.051  -0.417   0.086  1.00  0.00    +0.0428  H
ATOM     14 H32  953 L   1       0.524  -0.161  -1.571  1.00  0.00    +0.0428  H
ATOM     15 H33  953 L   1      -1.047  -1.071   0.874  1.00  0.00    +0.0306  H
ATOM     16 H34  953 L   1      -0.805  -1.876  -0.674  1.00  0.00    +0.0306  H
ATOM     17 H35  953 L   1      -1.599   0.484  -2.588  1.00  0.00    +0.0306  H
ATOM     18 H36  953 L   1      -2.993   1.359  -1.955  1.00  0.00    +0.0306  H
ATOM     19 H37  953 L   1      -1.727   2.584  -0.400  1.00  0.00    +0.0428  H
ATOM     20 H38  953 L   1      -0.756   2.536  -1.864  1.00  0.00    +0.0428  H
ATOM     21 H39  953 L   1      -4.284  -0.091   1.996  1.00  0.00    +0.0560  H
ATOM     22 H40  953 L   1      -3.400  -1.493   1.405  1.00  0.00    +0.0560  H
ATOM     23 H41  953 L   1      -5.586  -1.844   0.525  1.00  0.00    +0.0288  H
ATOM     24 H42  953 L   1      -5.881  -0.131   0.281  1.00  0.00    +0.0288  H
ATOM     25 H43  953 L   1      -5.350  -1.761  -1.779  1.00  0.00    +0.0292  H
ATOM     26 H44  953 L   1      -4.915  -0.055  -1.787  1.00  0.00    +0.0292  H
ATOM     27 H45  953 L   1      -2.958  -1.448  -2.486  1.00  0.00    +0.0622  H
ATOM     28 H46  953 L   1      -3.638  -3.293  -1.369  1.00  0.00    +0.2099 HD
ENDROOT
BRANCH 1 29
ATOM     29  C8  953 L   1       1.156   2.236  -0.314  1.00  0.00    +0.0773  C
ATOM     30 H29  953 L   1       1.616   2.159  -1.308  1.00  0.00    +0.0524  H
ATOM     31 H30  953 L   1       0.849   3.283  -0.191  1.00  0.00    +0.0524  H
BRANCH 29 35
ATOM     32  C4  953 L   1       3.917   1.085   1.589  1.00  0.00    +0.2199  A
ATOM     33  N5  953 L   1       3.482   1.965   2.465  1.00  0.00    -0.1121 NA
ATOM     34  N6  953 L   1       2.361   2.547   1.909  1.00  0.00    -0.1110 NA
ATOM     35  C7  953 L   1       2.187   1.976   0.734  1.00  0.00    +0.2312  A
ATOM     36 O21  953 L   1       3.156   1.046   0.450  1.00  0.00    -0.4230 OA
BRANCH 32 38
ATOM     37  C1  953 L   1       4.640  -1.293   1.616  1.00  0.00    -0.0542  C
ATOM     38  C2  953 L   1       5.085   0.168   1.678  1.00  0.00    +0.0315  C
ATOM     39  C3  953 L   1       6.108   0.474   0.587  1.00  0.00    -0.0542  C
ATOM     40 H22  953 L   1       3.919  -1.517   2.409  1.00  0.00    +0.0237  H
ATOM     41 H23  953 L   1       5.496  -1.964   1.740  1.00  0.00    +0.0237  H
ATOM     42 H24  953 L   1       4.163  -1.529   0.658  1.00  0.00    +0.0237  H
ATOM     43 H25  953 L   1       5.569   0.331   2.649  1.00  0.00    +0.0391  H
ATOM     44 H26  953 L   1       6.991  -0.165   0.692  1.00  0.00    +0.0237  H
ATOM     45 H27  953 L   1       5.693   0.312  -0.415  1.00  0.00    +0.0237  H
ATOM     46 H28  953 L   1       6.440   1.517   0.642  1.00  0.00    +0.0237  H
ENDBRANCH 32 38
ENDBRANCH 29 35
ENDBRANCH 1 29
TORSDOF 3
