ROOT
ATOM      1  C1  CHE L   1      -2.259  -0.106   4.855  1.00  0.00    +0.0324  C
ATOM      2  N2  CHE L   1      -2.523   0.295   3.497  1.00  0.00    -0.2493  N
ATOM      3  N3  CHE L   1      -3.635   1.016   3.220  1.00  0.00    -0.1773 NA
ATOM      4  C4  CHE L   1      -3.553   1.205   1.897  1.00  0.00    +0.0622  A
ATOM      5  C5  CHE L   1      -2.411   0.606   1.327  1.00  0.00    +0.0809  A
ATOM      6  C6  CHE L   1      -1.814   0.466   0.073  1.00  0.00    +0.1474  A
ATOM      7 N15  CHE L   1      -0.621  -0.174   0.008  1.00  0.00    -0.1945 NA
ATOM      8 C16  CHE L   1      -0.070  -0.697   1.123  1.00  0.00    +0.2278  A
ATOM      9 N27  CHE L   1      -0.588  -0.630   2.356  1.00  0.00    -0.1929 NA
ATOM     10 C28  CHE L   1      -1.751   0.037   2.397  1.00  0.00    +0.1653  A
ATOM     11 H29  CHE L   1      -1.374  -0.746   4.892  1.00  0.00    +0.0473  H
ATOM     12 H30  CHE L   1      -3.126  -0.657   5.228  1.00  0.00    +0.0473  H
ATOM     13 H31  CHE L   1      -2.092   0.794   5.452  1.00  0.00    +0.0473  H
ATOM     14 H32  CHE L   1      -4.330   1.773   1.400  1.00  0.00    +0.0856  H
ENDROOT
BRANCH 6 15
ATOM     15  N7  CHE L   1      -2.322   0.985  -1.129  1.00  0.00    -0.3393  N
ATOM     16 H33  CHE L   1      -1.665   0.709  -1.857  1.00  0.00    +0.1673 HD
BRANCH 15 17
ATOM     17  C8  CHE L   1      -3.648   0.920  -1.606  1.00  0.00    +0.0409  A
ATOM     18  C9  CHE L   1      -4.038   1.822  -2.607  1.00  0.00    -0.0356  A
ATOM     19 C10  CHE L   1      -5.325   1.780  -3.146  1.00  0.00    -0.0245  A
ATOM     20 C11  CHE L   1      -6.222   0.821  -2.696  1.00  0.00    +0.1235  A
ATOM     21 F12  CHE L   1      -7.457   0.777  -3.214  1.00  0.00    -0.2055  F
ATOM     22 C13  CHE L   1      -5.853  -0.099  -1.724  1.00  0.00    -0.0245  A
ATOM     23 C14  CHE L   1      -4.564  -0.055  -1.186  1.00  0.00    -0.0356  A
ATOM     24 H34  CHE L   1      -3.338   2.576  -2.961  1.00  0.00    +0.0639  H
ATOM     25 H35  CHE L   1      -5.630   2.486  -3.912  1.00  0.00    +0.0647  H
ATOM     26 H36  CHE L   1      -6.565  -0.850  -1.396  1.00  0.00    +0.0647  H
ATOM     27 H37  CHE L   1      -4.285  -0.804  -0.449  1.00  0.00    +0.0639  H
ENDBRANCH 15 17
ENDBRANCH 6 15
BRANCH 8 28
ATOM     28 N17  CHE L   1       1.135  -1.375   1.026  1.00  0.00    -0.3521  N
ATOM     29 H38  CHE L   1       1.528  -1.436   1.964  1.00  0.00    +0.1626 HD
BRANCH 28 30
ATOM     30 C18  CHE L   1       2.079  -0.806   0.067  1.00  0.00    +0.0376  C
ATOM     31 H39  CHE L   1       1.775  -1.059  -0.957  1.00  0.00    +0.0505  H
ATOM     32 H40  CHE L   1       2.095   0.288   0.154  1.00  0.00    +0.0505  H
BRANCH 30 33
ATOM     33 C19  CHE L   1       3.501  -1.376   0.342  1.00  0.00    +0.0480  C
ATOM     34 N20  CHE L   1       3.912  -1.144   1.745  1.00  0.00    -0.3222 NA
ATOM     35 H41  CHE L   1       3.435  -2.466   0.222  1.00  0.00    +0.0525  H
ATOM     36 H42  CHE L   1       4.029  -0.143   1.892  1.00  0.00    +0.1188 HD
ATOM     37 H43  CHE L   1       4.840  -1.549   1.870  1.00  0.00    +0.1188 HD
BRANCH 33 38
ATOM     38 C21  CHE L   1       4.548  -0.840  -0.618  1.00  0.00    -0.0290  A
ATOM     39 C22  CHE L   1       4.789   0.537  -0.759  1.00  0.00    -0.0570  A
ATOM     40 C23  CHE L   1       5.765   1.003  -1.642  1.00  0.00    -0.0615  A
ATOM     41 C24  CHE L   1       6.517   0.102  -2.391  1.00  0.00    -0.0617  A
ATOM     42 C25  CHE L   1       6.296  -1.267  -2.257  1.00  0.00    -0.0615  A
ATOM     43 C26  CHE L   1       5.320  -1.735  -1.375  1.00  0.00    -0.0570  A
ATOM     44 H44  CHE L   1       4.222   1.263  -0.180  1.00  0.00    +0.0621  H
ATOM     45 H45  CHE L   1       5.942   2.071  -1.742  1.00  0.00    +0.0618  H
ATOM     46 H46  CHE L   1       7.278   0.465  -3.077  1.00  0.00    +0.0618  H
ATOM     47 H47  CHE L   1       6.885  -1.972  -2.840  1.00  0.00    +0.0618  H
ATOM     48 H48  CHE L   1       5.168  -2.809  -1.284  1.00  0.00    +0.0621  H
ENDBRANCH 33 38
ENDBRANCH 30 33
ENDBRANCH 28 30
ENDBRANCH 8 28
TORSDOF 6
