ROOT
ATOM      1  N4  LIG L   1      -4.093   1.246 -12.017  1.00  0.00    -0.2805  N
ATOM      2  C5  LIG L   1      -2.925   1.505 -12.681  1.00  0.00    +0.3353  A
ATOM      3  O6  LIG L   1      -1.909   0.757 -12.472  1.00  0.00    -0.2461 OA
ATOM      4  N7  LIG L   1      -2.790   2.516 -13.550  1.00  0.00    -0.2266  N
ATOM      5 C18  LIG L   1      -3.817   3.352 -13.826  1.00  0.00    +0.3020  A
ATOM      6 O19  LIG L   1      -3.696   4.298 -14.638  1.00  0.00    -0.2634 OA
ATOM      7 C20  LIG L   1      -4.997   3.117 -13.175  1.00  0.00    +0.2169  A
ATOM      8 O21  LIG L   1      -6.137   3.726 -13.221  1.00  0.00    -0.4478 OA
ATOM      9 C22  LIG L   1      -7.013   3.162 -12.422  1.00  0.00    +0.1380  A
ATOM     10 C23  LIG L   1      -8.323   3.491 -12.173  1.00  0.00    -0.0187  A
ATOM     11 C24  LIG L   1      -9.022   2.730 -11.281  1.00  0.00    -0.0582  A
ATOM     12 C25  LIG L   1      -8.405   1.668 -10.662  1.00  0.00    -0.0609  A
ATOM     13 C26  LIG L   1      -7.080   1.326 -10.906  1.00  0.00    -0.0490  A
ATOM     14 C27  LIG L   1      -6.397   2.097 -11.801  1.00  0.00    +0.0447  A
ATOM     15 C28  LIG L   1      -5.113   2.058 -12.274  1.00  0.00    +0.1051  A
ATOM     16 H51  LIG L   1      -8.785   4.335 -12.673  1.00  0.00    +0.0654  H
ATOM     17 H52  LIG L   1     -10.059   2.964 -11.056  1.00  0.00    +0.0619  H
ATOM     18 H53  LIG L   1      -8.971   1.076  -9.942  1.00  0.00    +0.0618  H
ATOM     19 H54  LIG L   1      -6.668   0.494 -10.349  1.00  0.00    +0.0625  H
ENDROOT
BRANCH 1 20
ATOM     20  C3  LIG L   1      -4.073   0.131 -11.128  1.00  0.00    +0.1068  C
ATOM     21 H43  LIG L   1      -3.362  -0.632 -11.473  1.00  0.00    +0.0591  H
ATOM     22 H44  LIG L   1      -5.024  -0.406 -11.164  1.00  0.00    +0.0591  H
BRANCH 20 24
ATOM     23  O1  LIG L   1      -4.539   0.624  -8.794  1.00  0.00    -0.2709 OA
ATOM     24  C2  LIG L   1      -3.727   0.448  -9.726  1.00  0.00    +0.2452  C
ATOM     25 N29  LIG L   1      -2.336   0.565  -9.410  1.00  0.00    -0.3241  N
ATOM     26 H55  LIG L   1      -1.803   1.011 -10.157  1.00  0.00    +0.1686 HD
BRANCH 25 27
ATOM     27 C30  LIG L   1      -1.902   0.864  -8.080  1.00  0.00    +0.0534  A
ATOM     28 C31  LIG L   1      -1.786   2.187  -7.676  1.00  0.00    -0.0377  A
ATOM     29 C32  LIG L   1      -1.367   2.537  -6.406  1.00  0.00    -0.0598  A
ATOM     30 C33  LIG L   1      -1.055   1.536  -5.515  1.00  0.00    -0.0611  A
ATOM     31 C34  LIG L   1      -1.167   0.221  -5.907  1.00  0.00    -0.0481  A
ATOM     32 C35  LIG L   1      -1.587  -0.150  -7.181  1.00  0.00    +0.0781  A
ATOM     33 H56  LIG L   1      -2.045   2.983  -8.372  1.00  0.00    +0.0638  H
ATOM     34 H57  LIG L   1      -1.295   3.582  -6.117  1.00  0.00    +0.0618  H
ATOM     35 H58  LIG L   1      -0.729   1.782  -4.507  1.00  0.00    +0.0618  H
ATOM     36 H59  LIG L   1      -0.917  -0.549  -5.176  1.00  0.00    +0.0624  H
BRANCH 32 37
ATOM     37 C36  LIG L   1      -1.694  -1.584  -7.578  1.00  0.00    +0.4193  C
ATOM     38 F37  LIG L   1      -0.871  -1.871  -8.651  1.00  0.00    -0.1658  F
ATOM     39 F38  LIG L   1      -2.999  -1.840  -7.892  1.00  0.00    -0.1658  F
ATOM     40 F39  LIG L   1      -1.246  -2.350  -6.523  1.00  0.00    -0.1658  F
ENDBRANCH 32 37
ENDBRANCH 25 27
ENDBRANCH 20 24
ENDBRANCH 1 20
BRANCH 4 41
ATOM     41  C8  LIG L   1      -1.504   2.695 -14.202  1.00  0.00    +0.1686  C
ATOM     42 H45  LIG L   1      -1.525   3.587 -14.843  1.00  0.00    +0.0894  H
BRANCH 41 43
ATOM     43  C9  LIG L   1      -0.454   2.966 -13.190  1.00  0.00    +0.0056  A
ATOM     44 C10  LIG L   1       0.896   2.902 -13.517  1.00  0.00    -0.0506  A
ATOM     45 C11  LIG L   1       1.888   3.149 -12.593  1.00  0.00    -0.0157  A
ATOM     46 C12  LIG L   1       1.584   3.473 -11.294  1.00  0.00    +0.1662  A
ATOM     47 C13  LIG L   1       0.244   3.543 -10.944  1.00  0.00    +0.1666  A
ATOM     48 C14  LIG L   1      -0.750   3.295 -11.871  1.00  0.00    -0.0087  A
ATOM     49 O15  LIG L   1       0.251   3.886  -9.589  1.00  0.00    -0.4526 OA
ATOM     50 C16  LIG L   1       1.562   4.183  -9.158  1.00  0.00    +0.2332  C
ATOM     51 O17  LIG L   1       2.396   3.755 -10.222  1.00  0.00    -0.4526 OA
ATOM     52 H46  LIG L   1       1.189   2.633 -14.532  1.00  0.00    +0.0623  H
ATOM     53 H47  LIG L   1       2.932   3.080 -12.887  1.00  0.00    +0.0655  H
ATOM     54 H48  LIG L   1      -1.762   3.441 -11.507  1.00  0.00    +0.0659  H
ATOM     55 H49  LIG L   1       1.797   3.623  -8.249  1.00  0.00    +0.1166  H
ATOM     56 H50  LIG L   1       1.678   5.258  -8.990  1.00  0.00    +0.1166  H
ENDBRANCH 41 43
BRANCH 41 57
ATOM     57 O40  LIG L   1      -1.193   1.560 -15.014  1.00  0.00    -0.3524 OA
BRANCH 57 58
ATOM     58 C41  LIG L   1      -1.762   1.641 -16.318  1.00  0.00    +0.0477  C
ATOM     59 C42  LIG L   1      -1.398   0.378 -17.073  1.00  0.00    -0.0415  C
ATOM     60 H60  LIG L   1      -2.851   1.729 -16.249  1.00  0.00    +0.0558  H
ATOM     61 H61  LIG L   1      -1.361   2.514 -16.844  1.00  0.00    +0.0558  H
ATOM     62 H62  LIG L   1      -1.781  -0.506 -16.553  1.00  0.00    +0.0252  H
ATOM     63 H63  LIG L   1      -0.310   0.264 -17.134  1.00  0.00    +0.0252  H
ATOM     64 H64  LIG L   1      -1.808   0.397 -18.087  1.00  0.00    +0.0252  H
ENDBRANCH 57 58
ENDBRANCH 41 57
ENDBRANCH 4 41
TORSDOF 8
