ROOT
ATOM      1 C12  329 L   1      -2.044   1.216   0.235  1.00  0.00    +0.0542  C
ATOM      2 C13  329 L   1      -2.577   0.200  -0.457  1.00  0.00    -0.0395  C
ATOM      3 C14  329 L   1      -4.020   0.014  -0.368  1.00  0.00    +0.0172  A
ATOM      4 C15  329 L   1      -4.671  -0.935  -1.163  1.00  0.00    -0.0511  A
ATOM      5 C16  329 L   1      -6.050  -1.123  -1.046  1.00  0.00    -0.0610  A
ATOM      6 C17  329 L   1      -6.783  -0.370  -0.128  1.00  0.00    -0.0583  A
ATOM      7 C18  329 L   1      -6.137   0.574   0.670  1.00  0.00    -0.0193  A
ATOM      8 C19  329 L   1      -4.762   0.773   0.544  1.00  0.00    +0.1281  A
ATOM      9 O20  329 L   1      -4.204   1.700   1.380  1.00  0.00    -0.4866 OA
ATOM     10 C21  329 L   1      -2.882   2.161   1.045  1.00  0.00    +0.1197  C
ATOM     11 H33  329 L   1      -2.000  -0.462  -1.093  1.00  0.00    +0.0630  H
ATOM     12 H34  329 L   1      -4.114  -1.537  -1.877  1.00  0.00    +0.0625  H
ATOM     13 H35  329 L   1      -6.552  -1.861  -1.666  1.00  0.00    +0.0618  H
ATOM     14 H36  329 L   1      -7.855  -0.520  -0.032  1.00  0.00    +0.0619  H
ATOM     15 H37  329 L   1      -6.704   1.157   1.390  1.00  0.00    +0.0654  H
ATOM     16 H38  329 L   1      -2.988   3.115   0.516  1.00  0.00    +0.0749  H
ATOM     17 H39  329 L   1      -2.386   2.368   2.000  1.00  0.00    +0.0749  H
ENDROOT
BRANCH 1 19
ATOM     18  O1  329 L   1      -0.196   2.687   0.304  1.00  0.00    -0.2678 OA
ATOM     19  C2  329 L   1      -0.594   1.533   0.194  1.00  0.00    +0.2517  C
ATOM     20  N3  329 L   1       0.241   0.456   0.091  1.00  0.00    -0.3435  N
ATOM     21 H22  329 L   1      -0.112  -0.495   0.123  1.00  0.00    +0.1631 HD
BRANCH 20 22
ATOM     22  C4  329 L   1       1.682   0.613   0.100  1.00  0.00    +0.0972  C
ATOM     23 H23  329 L   1       1.962   1.250  -0.745  1.00  0.00    +0.0585  H
ATOM     24 H24  329 L   1       1.972   1.088   1.041  1.00  0.00    +0.0585  H
BRANCH 22 25
ATOM     25  C5  329 L   1       2.355  -0.756  -0.026  1.00  0.00    +0.2428  C
ATOM     26  O6  329 L   1       1.688  -1.789  -0.132  1.00  0.00    -0.2711 OA
ATOM     27  N7  329 L   1       3.731  -0.768  -0.006  1.00  0.00    -0.3408  N
ATOM     28  C8  329 L   1       4.483  -2.007  -0.088  1.00  0.00    +0.0213  C
ATOM     29  C9  329 L   1       5.901  -1.614   0.301  1.00  0.00    -0.0337  C
ATOM     30 C10  329 L   1       5.999  -0.172  -0.180  1.00  0.00    -0.0337  C
ATOM     31 C11  329 L   1       4.612   0.383   0.117  1.00  0.00    +0.0213  C
ATOM     32 H25  329 L   1       4.435  -2.361  -1.124  1.00  0.00    +0.0488  H
ATOM     33 H26  329 L   1       4.058  -2.772   0.570  1.00  0.00    +0.0488  H
ATOM     34 H27  329 L   1       6.014  -1.648   1.392  1.00  0.00    +0.0283  H
ATOM     35 H28  329 L   1       6.657  -2.267  -0.143  1.00  0.00    +0.0283  H
ATOM     36 H29  329 L   1       6.185  -0.155  -1.261  1.00  0.00    +0.0283  H
ATOM     37 H30  329 L   1       6.793   0.393   0.314  1.00  0.00    +0.0283  H
ATOM     38 H31  329 L   1       4.321   1.179  -0.573  1.00  0.00    +0.0488  H
ATOM     39 H32  329 L   1       4.540   0.753   1.145  1.00  0.00    +0.0488  H
ENDBRANCH 22 25
ENDBRANCH 20 22
ENDBRANCH 1 19
TORSDOF 3
