ROOT
ATOM      1  C4  CHE L   1       0.576  -0.959  -0.282  1.00  0.00    -0.0140  A
ATOM      2  C5  CHE L   1       0.336  -2.124  -1.021  1.00  0.00    -0.0532  A
ATOM      3  C6  CHE L   1      -0.971  -2.504  -1.328  1.00  0.00    -0.0482  A
ATOM      4  C7  CHE L   1      -2.044  -1.715  -0.898  1.00  0.00    +0.0497  A
ATOM      5  C8  CHE L   1      -3.426  -2.117  -1.201  1.00  0.00    +0.2725  A
ATOM      6  O9  CHE L   1      -3.670  -3.130  -1.847  1.00  0.00    -0.2658 OA
ATOM      7 N10  CHE L   1      -4.415  -1.297  -0.717  1.00  0.00    -0.2424  N
ATOM      8 N11  CHE L   1      -4.231  -0.144  -0.019  1.00  0.00    -0.1740 NA
ATOM      9 C12  CHE L   1      -3.012   0.232   0.242  1.00  0.00    +0.0828  A
ATOM     10 C15  CHE L   1      -1.819  -0.551  -0.167  1.00  0.00    +0.0121  A
ATOM     11 C16  CHE L   1      -0.507  -0.179   0.152  1.00  0.00    -0.0442  A
ATOM     12 H24  CHE L   1       1.163  -2.742  -1.365  1.00  0.00    +0.0624  H
ATOM     13 H25  CHE L   1      -1.152  -3.412  -1.900  1.00  0.00    +0.0625  H
ATOM     14 H26  CHE L   1      -5.376  -1.561  -0.913  1.00  0.00    +0.1921 HD
ATOM     15 H31  CHE L   1      -0.309   0.700   0.761  1.00  0.00    +0.0630  H
ENDROOT
BRANCH 1 18
ATOM     16  C1  CHE L   1       2.013   1.876  -0.854  1.00  0.00    -0.0221  C
ATOM     17  C2  CHE L   1       2.525   0.644  -0.200  1.00  0.00    +0.0435  A
ATOM     18  C3  CHE L   1       1.936  -0.585   0.052  1.00  0.00    +0.0225  A
ATOM     19 C17  CHE L   1       2.956  -1.356   0.651  1.00  0.00    +0.0573  A
ATOM     20 N18  CHE L   1       4.093  -0.675   0.795  1.00  0.00    -0.1790 NA
ATOM     21 N19  CHE L   1       3.805   0.539   0.292  1.00  0.00    -0.2710  N
ATOM     22 C20  CHE L   1       4.830   1.559   0.299  1.00  0.00    +0.0305  C
ATOM     23 H21  CHE L   1       1.166   1.657  -1.510  1.00  0.00    +0.0293  H
ATOM     24 H22  CHE L   1       2.783   2.349  -1.471  1.00  0.00    +0.0293  H
ATOM     25 H23  CHE L   1       1.684   2.597  -0.098  1.00  0.00    +0.0293  H
ATOM     26 H32  CHE L   1       2.914  -2.382   0.992  1.00  0.00    +0.0854  H
ATOM     27 H33  CHE L   1       4.383   2.506   0.610  1.00  0.00    +0.0473  H
ATOM     28 H34  CHE L   1       5.238   1.636  -0.711  1.00  0.00    +0.0473  H
ATOM     29 H35  CHE L   1       5.616   1.278   1.004  1.00  0.00    +0.0473  H
ENDBRANCH 1 18
BRANCH 9 30
ATOM     30 C13  CHE L   1      -2.839   1.541   1.008  1.00  0.00    +0.0383  C
ATOM     31 N14  CHE L   1      -2.556   1.243   2.413  1.00  0.00    -0.3248 NA
ATOM     32 H27  CHE L   1      -3.762   2.127   0.934  1.00  0.00    +0.0487  H
ATOM     33 H28  CHE L   1      -2.036   2.140   0.568  1.00  0.00    +0.0487  H
ATOM     34 H29  CHE L   1      -3.334   0.695   2.786  1.00  0.00    +0.1186 HD
ATOM     35 H30  CHE L   1      -2.561   2.114   2.943  1.00  0.00    +0.1186 HD
ENDBRANCH 9 30
TORSDOF 2
