ROOT
ATOM      1  C1  MCU L   1      -4.588  -6.037   1.153  1.00  0.00    -0.0397  C
ATOM      2  C2  MCU L   1      -4.346  -4.665   0.596  1.00  0.00    -0.0498  A
ATOM      3  C3  MCU L   1      -5.164  -4.160  -0.424  1.00  0.00    -0.0569  A
ATOM      4  C4  MCU L   1      -4.925  -2.895  -0.965  1.00  0.00    -0.0375  A
ATOM      5  C5  MCU L   1      -3.857  -2.137  -0.490  1.00  0.00    +0.0492  A
ATOM      6  N6  MCU L   1      -3.607  -0.869  -1.021  1.00  0.00    -0.3218  N
ATOM      7  C7  MCU L   1      -2.580  -0.058  -0.614  1.00  0.00    +0.2543  A
ATOM      8  O8  MCU L   1      -2.433   1.045  -1.129  1.00  0.00    -0.2675 OA
ATOM      9  C9  MCU L   1      -1.671  -0.577   0.453  1.00  0.00    +0.0421  A
ATOM     10 C33  MCU L   1      -1.912  -1.797   0.978  1.00  0.00    -0.0424  A
ATOM     11 C34  MCU L   1      -3.022  -2.628   0.515  1.00  0.00    -0.0009  A
ATOM     12 C35  MCU L   1      -3.266  -3.895   1.053  1.00  0.00    -0.0497  A
ATOM     13 H36  MCU L   1      -4.006  -6.776   0.593  1.00  0.00    +0.0278  H
ATOM     14 H37  MCU L   1      -4.302  -6.085   2.209  1.00  0.00    +0.0278  H
ATOM     15 H38  MCU L   1      -5.649  -6.303   1.092  1.00  0.00    +0.0278  H
ATOM     16 H39  MCU L   1      -5.997  -4.750  -0.802  1.00  0.00    +0.0621  H
ATOM     17 H40  MCU L   1      -5.575  -2.517  -1.749  1.00  0.00    +0.0638  H
ATOM     18 H41  MCU L   1      -4.207  -0.491  -1.741  1.00  0.00    +0.1689 HD
ATOM     19 H65  MCU L   1      -1.288  -2.200   1.769  1.00  0.00    +0.0629  H
ATOM     20 H66  MCU L   1      -2.620  -4.290   1.835  1.00  0.00    +0.0627  H
ENDROOT
BRANCH 9 21
ATOM     21 C10  MCU L   1      -0.522   0.301   0.949  1.00  0.00    +0.1028  C
ATOM     22 H42  MCU L   1      -0.040  -0.291   1.746  1.00  0.00    +0.0596  H
BRANCH 21 23
ATOM     23 C11  MCU L   1      -1.016   1.531   1.676  1.00  0.00    +0.1733  A
ATOM     24 N12  MCU L   1      -1.359   1.543   2.955  1.00  0.00    -0.1114 NA
ATOM     25 N13  MCU L   1      -1.739   2.821   3.249  1.00  0.00    -0.0230 NA
ATOM     26 N14  MCU L   1      -1.630   3.601   2.189  1.00  0.00    -0.0436 NA
ATOM     27 N15  MCU L   1      -1.182   2.809   1.190  1.00  0.00    -0.2244  N
BRANCH 27 28
ATOM     28 C16  MCU L   1      -0.893   3.383  -0.109  1.00  0.00    +0.0564  C
ATOM     29 C17  MCU L   1       0.253   4.398  -0.087  1.00  0.00    -0.0304  C
ATOM     30 C18  MCU L   1      -0.399   5.747   0.196  1.00  0.00    -0.0511  C
ATOM     31 C19  MCU L   1      -1.851   5.628  -0.259  1.00  0.00    -0.0511  C
ATOM     32 C20  MCU L   1      -2.054   4.183  -0.710  1.00  0.00    -0.0304  C
ATOM     33 H43  MCU L   1      -0.632   2.570  -0.785  1.00  0.00    +0.0546  H
ATOM     34 H44  MCU L   1       0.725   4.433  -1.077  1.00  0.00    +0.0286  H
ATOM     35 H45  MCU L   1       1.032   4.162   0.644  1.00  0.00    +0.0286  H
ATOM     36 H46  MCU L   1       0.123   6.558  -0.321  1.00  0.00    +0.0266  H
ATOM     37 H47  MCU L   1      -0.361   5.973   1.268  1.00  0.00    +0.0266  H
ATOM     38 H48  MCU L   1      -2.074   6.325  -1.074  1.00  0.00    +0.0266  H
ATOM     39 H49  MCU L   1      -2.527   5.875   0.568  1.00  0.00    +0.0266  H
ATOM     40 H50  MCU L   1      -3.040   3.801  -0.426  1.00  0.00    +0.0286  H
ATOM     41 H51  MCU L   1      -1.990   4.144  -1.804  1.00  0.00    +0.0286  H
ENDBRANCH 27 28
ENDBRANCH 21 23
BRANCH 21 42
ATOM     42 N21  MCU L   1       0.579   0.569  -0.017  1.00  0.00    -0.2856 NA
ATOM     43 C22  MCU L   1       0.913  -0.616  -0.845  1.00  0.00    +0.0175  C
ATOM     44 C23  MCU L   1       2.335  -0.594  -1.452  1.00  0.00    +0.0314  C
ATOM     45 N24  MCU L   1       3.341  -0.576  -0.381  1.00  0.00    -0.3681  N
ATOM     46 C31  MCU L   1       2.947   0.075   0.877  1.00  0.00    +0.0314  C
ATOM     47 C32  MCU L   1       1.805   1.093   0.643  1.00  0.00    +0.0175  C
ATOM     48 H52  MCU L   1       0.190  -0.692  -1.665  1.00  0.00    +0.0444  H
ATOM     49 H53  MCU L   1       0.837  -1.533  -0.245  1.00  0.00    +0.0444  H
ATOM     50 H54  MCU L   1       2.440  -1.494  -2.069  1.00  0.00    +0.0500  H
ATOM     51 H55  MCU L   1       2.459   0.283  -2.100  1.00  0.00    +0.0500  H
ATOM     52 H61  MCU L   1       2.627  -0.687   1.598  1.00  0.00    +0.0500  H
ATOM     53 H62  MCU L   1       3.788   0.628   1.313  1.00  0.00    +0.0500  H
ATOM     54 H63  MCU L   1       1.584   1.596   1.590  1.00  0.00    +0.0444  H
ATOM     55 H64  MCU L   1       2.195   1.881  -0.016  1.00  0.00    +0.0444  H
BRANCH 45 56
ATOM     56 C25  MCU L   1       4.636  -1.026  -0.585  1.00  0.00    +0.0379  A
ATOM     57 C26  MCU L   1       5.487  -1.336   0.489  1.00  0.00    -0.0385  A
ATOM     58 C27  MCU L   1       6.796  -1.796   0.294  1.00  0.00    -0.0598  A
ATOM     59 C28  MCU L   1       7.292  -1.960  -0.993  1.00  0.00    -0.0616  A
ATOM     60 C29  MCU L   1       6.476  -1.666  -2.079  1.00  0.00    -0.0598  A
ATOM     61 C30  MCU L   1       5.168  -1.208  -1.872  1.00  0.00    -0.0385  A
ATOM     62 H56  MCU L   1       5.137  -1.247   1.514  1.00  0.00    +0.0638  H
ATOM     63 H57  MCU L   1       7.421  -2.028   1.152  1.00  0.00    +0.0618  H
ATOM     64 H58  MCU L   1       8.306  -2.315  -1.150  1.00  0.00    +0.0618  H
ATOM     65 H59  MCU L   1       6.852  -1.786  -3.091  1.00  0.00    +0.0618  H
ATOM     66 H60  MCU L   1       4.578  -0.973  -2.753  1.00  0.00    +0.0638  H
ENDBRANCH 45 56
ENDBRANCH 21 42
ENDBRANCH 9 21
TORSDOF 5
