ROOT
ATOM      1  O1  SEL L   1      -7.704  -2.547   1.692  1.00  0.00    -0.2725 OA
ATOM      2  C2  SEL L   1      -6.695  -2.021   1.248  1.00  0.00    +0.2312  C
ATOM      3  C3  SEL L   1      -5.261  -2.530   1.401  1.00  0.00    +0.0707  C
ATOM      4  C4  SEL L   1      -4.479  -1.464   0.678  1.00  0.00    +0.0742  A
ATOM      5  N5  SEL L   1      -3.143  -1.419   0.545  1.00  0.00    -0.2489 NA
ATOM      6  C6  SEL L   1      -2.674  -0.338  -0.133  1.00  0.00    +0.0756  A
ATOM      7 C30  SEL L   1      -3.502   0.663  -0.678  1.00  0.00    -0.0336  A
ATOM      8 C31  SEL L   1      -4.887   0.575  -0.517  1.00  0.00    -0.0345  A
ATOM      9 C32  SEL L   1      -5.354  -0.512   0.180  1.00  0.00    +0.0637  A
ATOM     10 N33  SEL L   1      -6.656  -0.842   0.509  1.00  0.00    -0.3243  N
ATOM     11 H34  SEL L   1      -4.991  -2.570   2.459  1.00  0.00    +0.0425  H
ATOM     12 H35  SEL L   1      -5.154  -3.498   0.909  1.00  0.00    +0.0425  H
ATOM     13 H52  SEL L   1      -3.071   1.506  -1.216  1.00  0.00    +0.0640  H
ATOM     14 H53  SEL L   1      -5.546   1.334  -0.917  1.00  0.00    +0.0639  H
ATOM     15 H54  SEL L   1      -7.478  -0.308   0.287  1.00  0.00    +0.1686 HD
ENDROOT
BRANCH 6 16
ATOM     16  C7  SEL L   1      -1.233  -0.227  -0.230  1.00  0.00    +0.0535  A
ATOM     17  C8  SEL L   1      -0.358   0.830   0.156  1.00  0.00    +0.1030  A
ATOM     18 N16  SEL L   1       0.915   0.555  -0.163  1.00  0.00    -0.1626 NA
ATOM     19 N17  SEL L   1       0.879  -0.691  -0.700  1.00  0.00    -0.1986  N
ATOM     20 C18  SEL L   1       2.034  -1.409  -1.164  1.00  0.00    +0.2282  A
ATOM     21 N26  SEL L   1       1.838  -2.601  -1.690  1.00  0.00    -0.2207 NA
ATOM     22 C27  SEL L   1       0.557  -3.101  -1.750  1.00  0.00    +0.0334  A
ATOM     23 C28  SEL L   1      -0.549  -2.475  -1.321  1.00  0.00    -0.0172  A
ATOM     24 C29  SEL L   1      -0.405  -1.189  -0.762  1.00  0.00    +0.0818  A
ATOM     25 H50  SEL L   1       0.473  -4.096  -2.177  1.00  0.00    +0.0831  H
ATOM     26 H51  SEL L   1      -1.526  -2.942  -1.387  1.00  0.00    +0.0654  H
BRANCH 17 27
ATOM     27  C9  SEL L   1      -0.696   2.092   0.813  1.00  0.00    +0.0029  A
ATOM     28 C10  SEL L   1      -0.155   3.298   0.337  1.00  0.00    -0.0498  A
ATOM     29 C11  SEL L   1      -0.492   4.508   0.944  1.00  0.00    -0.0258  A
ATOM     30 C12  SEL L   1      -1.361   4.511   2.029  1.00  0.00    +0.1234  A
ATOM     31 F13  SEL L   1      -1.690   5.675   2.605  1.00  0.00    -0.2055  F
ATOM     32 C14  SEL L   1      -1.897   3.326   2.522  1.00  0.00    -0.0258  A
ATOM     33 C15  SEL L   1      -1.560   2.114   1.919  1.00  0.00    -0.0498  A
ATOM     34 H36  SEL L   1       0.530   3.293  -0.508  1.00  0.00    +0.0625  H
ATOM     35 H37  SEL L   1      -0.082   5.445   0.581  1.00  0.00    +0.0646  H
ATOM     36 H38  SEL L   1      -2.564   3.353   3.377  1.00  0.00    +0.0646  H
ATOM     37 H39  SEL L   1      -1.967   1.190   2.325  1.00  0.00    +0.0625  H
ENDBRANCH 17 27
BRANCH 20 38
ATOM     38 N19  SEL L   1       3.344  -0.896  -1.077  1.00  0.00    -0.3401  N
ATOM     39 C20  SEL L   1       4.480  -1.804  -1.300  1.00  0.00    +0.0237  C
ATOM     40 C21  SEL L   1       5.472  -1.693  -0.154  1.00  0.00    -0.0090  C
ATOM     41 C22  SEL L   1       6.063  -0.288  -0.079  1.00  0.00    +0.0585  C
ATOM     42 O23  SEL L   1       6.334   0.011   1.286  1.00  0.00    -0.3917 OA
ATOM     43 C24  SEL L   1       5.140   0.770  -0.667  1.00  0.00    -0.0090  C
ATOM     44 C25  SEL L   1       3.668   0.405  -0.479  1.00  0.00    +0.0237  C
ATOM     45 H40  SEL L   1       4.961  -1.561  -2.257  1.00  0.00    +0.0489  H
ATOM     46 H41  SEL L   1       4.166  -2.849  -1.368  1.00  0.00    +0.0489  H
ATOM     47 H42  SEL L   1       4.978  -1.958   0.793  1.00  0.00    +0.0307  H
ATOM     48 H43  SEL L   1       6.280  -2.422  -0.282  1.00  0.00    +0.0307  H
ATOM     49 H44  SEL L   1       7.024  -0.264  -0.604  1.00  0.00    +0.0594  H
ATOM     50 H45  SEL L   1       6.797   0.867   1.322  1.00  0.00    +0.2098 HD
ATOM     51 H46  SEL L   1       5.330   1.739  -0.207  1.00  0.00    +0.0307  H
ATOM     52 H47  SEL L   1       5.347   0.865  -1.741  1.00  0.00    +0.0307  H
ATOM     53 H48  SEL L   1       3.085   1.196  -0.962  1.00  0.00    +0.0489  H
ATOM     54 H49  SEL L   1       3.431   0.392   0.589  1.00  0.00    +0.0489  H
ENDBRANCH 20 38
ENDBRANCH 6 16
TORSDOF 3
