ROOT
ATOM      1 C19  CHE L   1      -4.772  -0.478   0.561  1.00  0.00    +0.0394  A
ATOM      2 C20  CHE L   1      -5.701  -0.629   1.616  1.00  0.00    -0.0475  A
ATOM      3 C21  CHE L   1      -7.047  -0.298   1.444  1.00  0.00    -0.0373  A
ATOM      4 C22  CHE L   1      -7.425   0.166   0.204  1.00  0.00    +0.0454  A
ATOM      5 C23  CHE L   1      -6.525   0.311  -0.852  1.00  0.00    -0.0143  A
ATOM      6 C24  CHE L   1      -5.188  -0.009  -0.696  1.00  0.00    -0.0438  A
ATOM      7 C25  CHE L   1      -7.257   0.826  -2.057  1.00  0.00    +0.0535  C
ATOM      8 C26  CHE L   1      -8.689   0.967  -1.530  1.00  0.00    +0.2296  C
ATOM      9 O27  CHE L   1      -9.657   1.375  -2.150  1.00  0.00    -0.2725 OA
ATOM     10 N28  CHE L   1      -8.690   0.553  -0.205  1.00  0.00    -0.3256  N
ATOM     11 H50  CHE L   1      -5.360  -1.006   2.581  1.00  0.00    +0.0626  H
ATOM     12 H51  CHE L   1      -7.755  -0.410   2.257  1.00  0.00    +0.0638  H
ATOM     13 H52  CHE L   1      -4.497   0.079  -1.528  1.00  0.00    +0.0629  H
ATOM     14 H53  CHE L   1      -7.231   0.100  -2.873  1.00  0.00    +0.0410  H
ATOM     15 H54  CHE L   1      -6.877   1.805  -2.358  1.00  0.00    +0.0410  H
ATOM     16 H55  CHE L   1      -9.524   0.555   0.363  1.00  0.00    +0.1686 HD
ENDROOT
BRANCH 1 18
ATOM     17 N16  CHE L   1      -2.397  -0.136   0.104  1.00  0.00    -0.3491  N
ATOM     18 C17  CHE L   1      -3.352  -0.842   0.826  1.00  0.00    +0.2523  C
ATOM     19 O18  CHE L   1      -3.096  -1.680   1.680  1.00  0.00    -0.2676 OA
ATOM     20 H49  CHE L   1      -2.730   0.763  -0.208  1.00  0.00    +0.1629 HD
BRANCH 17 27
ATOM     21  N9  CHE L   1       1.730  -0.600  -0.382  1.00  0.00    -0.2944 NA
ATOM     22 C10  CHE L   1       0.800  -1.753  -0.418  1.00  0.00    +0.0426  C
ATOM     23 C11  CHE L   1       0.306  -1.725  -1.871  1.00  0.00    -0.0298  C
ATOM     24 C12  CHE L   1       0.458  -0.271  -2.310  1.00  0.00    -0.0298  C
ATOM     25 C13  CHE L   1       0.974   0.466  -1.063  1.00  0.00    +0.0426  C
ATOM     26 C14  CHE L   1      -0.195   0.962  -0.208  1.00  0.00    -0.0113  C
ATOM     27 C15  CHE L   1      -0.990  -0.134   0.544  1.00  0.00    +0.0337  C
ATOM     28 C29  CHE L   1      -0.345  -1.540   0.571  1.00  0.00    -0.0113  C
ATOM     29 H40  CHE L   1       1.314  -2.699  -0.218  1.00  0.00    +0.0532  H
ATOM     30 H41  CHE L   1      -0.719  -2.095  -1.989  1.00  0.00    +0.0286  H
ATOM     31 H42  CHE L   1       0.951  -2.356  -2.497  1.00  0.00    +0.0286  H
ATOM     32 H43  CHE L   1      -0.475   0.147  -2.702  1.00  0.00    +0.0286  H
ATOM     33 H44  CHE L   1       1.205  -0.221  -3.114  1.00  0.00    +0.0286  H
ATOM     34 H45  CHE L   1       1.616   1.296  -1.372  1.00  0.00    +0.0532  H
ATOM     35 H46  CHE L   1      -0.862   1.569  -0.840  1.00  0.00    +0.0305  H
ATOM     36 H47  CHE L   1       0.190   1.675   0.536  1.00  0.00    +0.0305  H
ATOM     37 H48  CHE L   1      -1.055   0.192   1.595  1.00  0.00    +0.0524  H
ATOM     38 H56  CHE L   1      -1.086  -2.333   0.420  1.00  0.00    +0.0305  H
ATOM     39 H57  CHE L   1       0.053  -1.696   1.583  1.00  0.00    +0.0305  H
BRANCH 21 40
ATOM     40  S6  CHE L   1       2.633  -0.325   1.009  1.00  0.00    +0.2356  S
ATOM     41  O7  CHE L   1       1.832   0.471   1.915  1.00  0.00    -0.2051 OA
ATOM     42  O8  CHE L   1       3.175  -1.600   1.428  1.00  0.00    -0.2051 OA
BRANCH 40 47
ATOM     43  N1  CHE L   1       8.121   0.973   0.552  1.00  0.00    -0.3272 NA
ATOM     44  C2  CHE L   1       6.968   0.083   0.402  1.00  0.00    +0.0049  C
ATOM     45  C3  CHE L   1       6.100   0.109   1.674  1.00  0.00    -0.0365  C
ATOM     46  C4  CHE L   1       4.935   1.089   1.548  1.00  0.00    -0.0334  C
ATOM     47  C5  CHE L   1       3.991   0.702   0.395  1.00  0.00    +0.0801  C
ATOM     48 C30  CHE L   1       4.722   0.024  -0.775  1.00  0.00    -0.0334  C
ATOM     49 C31  CHE L   1       6.181   0.467  -0.865  1.00  0.00    -0.0365  C
ATOM     50 H32  CHE L   1       8.638   1.038  -0.324  1.00  0.00    +0.1185 HD
ATOM     51 H33  CHE L   1       7.805   1.914   0.776  1.00  0.00    +0.1185 HD
ATOM     52 H34  CHE L   1       7.358  -0.936   0.283  1.00  0.00    +0.0458  H
ATOM     53 H35  CHE L   1       5.718  -0.900   1.857  1.00  0.00    +0.0281  H
ATOM     54 H36  CHE L   1       6.702   0.360   2.556  1.00  0.00    +0.0281  H
ATOM     55 H37  CHE L   1       4.396   1.162   2.501  1.00  0.00    +0.0278  H
ATOM     56 H38  CHE L   1       5.351   2.088   1.350  1.00  0.00    +0.0278  H
ATOM     57 H39  CHE L   1       3.506   1.621   0.044  1.00  0.00    +0.0479  H
ATOM     58 H58  CHE L   1       4.211   0.266  -1.715  1.00  0.00    +0.0278  H
ATOM     59 H59  CHE L   1       4.693  -1.068  -0.682  1.00  0.00    +0.0278  H
ATOM     60 H60  CHE L   1       6.208   1.553  -1.030  1.00  0.00    +0.0281  H
ATOM     61 H61  CHE L   1       6.657   0.013  -1.745  1.00  0.00    +0.0281  H
ENDBRANCH 40 47
ENDBRANCH 21 40
ENDBRANCH 17 27
ENDBRANCH 1 18
TORSDOF 4
