ROOT
ATOM      1  C1  CHE L   1      -3.250   0.294   0.374  1.00  0.00    -0.0444  C
ATOM      2  C2  CHE L   1      -2.470  -0.693  -0.496  1.00  0.00    +0.0297  C
ATOM      3  C3  CHE L   1      -1.313  -1.382   0.276  1.00  0.00    -0.0041  C
ATOM      4  C4  CHE L   1      -0.165  -0.517  -0.119  1.00  0.00    -0.0028  A
ATOM      5  C5  CHE L   1       1.104  -0.413   0.423  1.00  0.00    -0.0413  A
ATOM      6  C6  CHE L   1       1.960   0.537  -0.139  1.00  0.00    +0.0572  A
ATOM      7 C10  CHE L   1       1.480   1.331  -1.187  1.00  0.00    +0.0422  A
ATOM      8 N11  CHE L   1       0.236   1.225  -1.730  1.00  0.00    -0.2374 NA
ATOM      9 C12  CHE L   1      -0.542   0.288  -1.188  1.00  0.00    +0.1305  A
ATOM     10 N13  CHE L   1      -1.854   0.001  -1.630  1.00  0.00    -0.3667  N
ATOM     11 H14  CHE L   1      -3.720  -0.224   1.216  1.00  0.00    +0.0249  H
ATOM     12 H15  CHE L   1      -4.039   0.780  -0.209  1.00  0.00    +0.0249  H
ATOM     13 H16  CHE L   1      -2.606   1.083   0.779  1.00  0.00    +0.0249  H
ATOM     14 H17  CHE L   1      -3.170  -1.451  -0.865  1.00  0.00    +0.0522  H
ATOM     15 H18  CHE L   1      -1.481  -1.399   1.357  1.00  0.00    +0.0334  H
ATOM     16 H19  CHE L   1      -1.150  -2.400  -0.094  1.00  0.00    +0.0334  H
ATOM     17 H20  CHE L   1       1.392  -1.025   1.268  1.00  0.00    +0.0629  H
ATOM     18 H23  CHE L   1       2.106   2.098  -1.640  1.00  0.00    +0.0838  H
ATOM     19 H24  CHE L   1      -2.274   0.825  -2.046  1.00  0.00    +0.1613 HD
ENDROOT
BRANCH 6 20
ATOM     20  C7  CHE L   1       3.341   0.766   0.340  1.00  0.00    +0.2510  C
ATOM     21  N8  CHE L   1       3.942  -0.237   1.052  1.00  0.00    -0.3658  N
ATOM     22  O9  CHE L   1       3.943   1.802   0.090  1.00  0.00    -0.2678 OA
ATOM     23 H21  CHE L   1       3.604  -1.188   1.036  1.00  0.00    +0.1589 HD
ATOM     24 H22  CHE L   1       4.924  -0.101   1.257  1.00  0.00    +0.1589 HD
ENDBRANCH 6 20
TORSDOF 1
