ROOT
ATOM      1 N14  SEL L   1       2.436  -0.229  -0.166  1.00  0.00    -0.2974 NA
ATOM      2 C15  SEL L   1       3.704   0.092   0.527  1.00  0.00    +0.0118  C
ATOM      3 C16  SEL L   1       4.337   1.440   0.123  1.00  0.00    +0.0120  C
ATOM      4 N17  SEL L   1       4.614   1.569  -1.321  1.00  0.00    -0.2970 NA
ATOM      5 C21  SEL L   1       3.725   0.700  -2.120  1.00  0.00    +0.0120  C
ATOM      6 C22  SEL L   1       2.347   0.490  -1.458  1.00  0.00    +0.0118  C
ATOM      7 H45  SEL L   1       4.417  -0.710   0.293  1.00  0.00    +0.0439  H
ATOM      8 H46  SEL L   1       3.584   0.060   1.617  1.00  0.00    +0.0439  H
ATOM      9 H47  SEL L   1       3.650   2.248   0.403  1.00  0.00    +0.0439  H
ATOM     10 H48  SEL L   1       5.246   1.608   0.715  1.00  0.00    +0.0439  H
ATOM     11 H54  SEL L   1       3.585   1.153  -3.108  1.00  0.00    +0.0439  H
ATOM     12 H55  SEL L   1       4.186  -0.283  -2.281  1.00  0.00    +0.0439  H
ATOM     13 H56  SEL L   1       1.881   1.476  -1.331  1.00  0.00    +0.0439  H
ATOM     14 H57  SEL L   1       1.718  -0.090  -2.143  1.00  0.00    +0.0439  H
ENDROOT
BRANCH 1 15
ATOM     15 C13  SEL L   1       1.264   0.041   0.696  1.00  0.00    +0.0267  C
ATOM     16 H43  SEL L   1       1.416  -0.503   1.636  1.00  0.00    +0.0452  H
ATOM     17 H44  SEL L   1       1.220   1.112   0.935  1.00  0.00    +0.0452  H
BRANCH 15 18
ATOM     18 C11  SEL L   1      -0.095  -0.420   0.113  1.00  0.00    +0.0865  C
ATOM     19 O12  SEL L   1      -0.539   0.488  -0.908  1.00  0.00    -0.3887 OA
ATOM     20 H41  SEL L   1       0.012  -1.412  -0.340  1.00  0.00    +0.0624  H
ATOM     21 H42  SEL L   1      -1.454   0.223  -1.111  1.00  0.00    +0.2099 HD
BRANCH 18 22
ATOM     22 C10  SEL L   1      -1.164  -0.451   1.225  1.00  0.00    +0.0621  C
ATOM     23 H39  SEL L   1      -0.857  -1.119   2.035  1.00  0.00    +0.0525  H
ATOM     24 H40  SEL L   1      -1.245   0.559   1.643  1.00  0.00    +0.0525  H
BRANCH 22 25
ATOM     25  N9  SEL L   1      -2.489  -0.861   0.644  1.00  0.00    -0.2601  N
BRANCH 25 31
ATOM     26  C3  SEL L   1      -2.656  -3.265   1.376  1.00  0.00    +0.1441  A
ATOM     27  C4  SEL L   1      -2.790  -4.613   1.027  1.00  0.00    -0.0179  A
ATOM     28  C5  SEL L   1      -2.953  -4.976  -0.311  1.00  0.00    -0.0582  A
ATOM     29  C6  SEL L   1      -2.969  -3.996  -1.303  1.00  0.00    -0.0596  A
ATOM     30  C7  SEL L   1      -2.813  -2.652  -0.960  1.00  0.00    -0.0340  A
ATOM     31  C8  SEL L   1      -2.642  -2.278   0.378  1.00  0.00    +0.0942  A
ATOM     32 H35  SEL L   1      -2.756  -5.387   1.788  1.00  0.00    +0.0655  H
ATOM     33 H36  SEL L   1      -3.064  -6.023  -0.580  1.00  0.00    +0.0619  H
ATOM     34 H37  SEL L   1      -3.101  -4.280  -2.344  1.00  0.00    +0.0618  H
ATOM     35 H38  SEL L   1      -2.828  -1.898  -1.742  1.00  0.00    +0.0639  H
BRANCH 26 37
ATOM     36  C1  SEL L   1      -3.555  -3.293   3.514  1.00  0.00    +0.0789  C
ATOM     37  O2  SEL L   1      -2.460  -2.905   2.684  1.00  0.00    -0.4930 OA
ATOM     38 H32  SEL L   1      -3.502  -2.702   4.433  1.00  0.00    +0.0660  H
ATOM     39 H33  SEL L   1      -4.523  -3.094   3.038  1.00  0.00    +0.0660  H
ATOM     40 H34  SEL L   1      -3.474  -4.349   3.790  1.00  0.00    +0.0660  H
ENDBRANCH 26 37
ENDBRANCH 25 31
BRANCH 25 41
ATOM     41 S23  SEL L   1      -3.862  -0.163   1.412  1.00  0.00    +0.2656  S
ATOM     42 O24  SEL L   1      -5.071  -0.718   0.838  1.00  0.00    -0.1998 OA
ATOM     43 O25  SEL L   1      -3.650  -0.143   2.845  1.00  0.00    -0.1998 OA
BRANCH 41 44
ATOM     44 C26  SEL L   1      -3.762   1.520   0.831  1.00  0.00    +0.0870  A
ATOM     45 C27  SEL L   1      -4.091   1.792  -0.500  1.00  0.00    -0.0418  A
ATOM     46 C28  SEL L   1      -4.029   3.105  -0.966  1.00  0.00    -0.0605  A
ATOM     47 C29  SEL L   1      -3.646   4.134  -0.103  1.00  0.00    -0.0617  A
ATOM     48 C30  SEL L   1      -3.330   3.857   1.229  1.00  0.00    -0.0605  A
ATOM     49 C31  SEL L   1      -3.394   2.548   1.704  1.00  0.00    -0.0418  A
ATOM     50 H58  SEL L   1      -4.402   0.993  -1.169  1.00  0.00    +0.0631  H
ATOM     51 H59  SEL L   1      -4.284   3.329  -1.998  1.00  0.00    +0.0618  H
ATOM     52 H60  SEL L   1      -3.599   5.157  -0.469  1.00  0.00    +0.0618  H
ATOM     53 H61  SEL L   1      -3.040   4.664   1.896  1.00  0.00    +0.0618  H
ATOM     54 H62  SEL L   1      -3.157   2.341   2.745  1.00  0.00    +0.0631  H
ENDBRANCH 41 44
ENDBRANCH 25 41
ENDBRANCH 22 25
ENDBRANCH 18 22
ENDBRANCH 15 18
ENDBRANCH 1 15
BRANCH 4 55
ATOM     55 C18  SEL L   1       6.031   1.358  -1.657  1.00  0.00    +0.0106  C
ATOM     56 C19  SEL L   1       6.597   2.011  -2.888  1.00  0.00    -0.0359  C
ATOM     57 C20  SEL L   1       6.988   2.511  -1.529  1.00  0.00    -0.0359  C
ATOM     58 H49  SEL L   1       6.423   0.372  -1.412  1.00  0.00    +0.0462  H
ATOM     59 H50  SEL L   1       7.333   1.461  -3.461  1.00  0.00    +0.0281  H
ATOM     60 H51  SEL L   1       5.945   2.636  -3.488  1.00  0.00    +0.0281  H
ATOM     61 H52  SEL L   1       7.988   2.299  -1.173  1.00  0.00    +0.0281  H
ATOM     62 H53  SEL L   1       6.597   3.470  -1.212  1.00  0.00    +0.0281  H
ENDBRANCH 4 55
TORSDOF 9
