ROOT
ATOM      1  C4  CHE L   1      -2.234   0.074  -0.725  1.00  0.00    +0.0589  A
ATOM      2  C5  CHE L   1      -2.535  -1.270  -0.975  1.00  0.00    -0.0167  A
ATOM      3  C6  CHE L   1      -1.799  -2.299  -0.381  1.00  0.00    +0.0669  A
ATOM      4 CL7  CHE L   1      -2.261  -3.925  -0.771  1.00  0.00    -0.0813 Cl
ATOM      5  C8  CHE L   1      -0.714  -2.031   0.480  1.00  0.00    +0.0702  A
ATOM      6  C9  CHE L   1      -0.402  -0.681   0.726  1.00  0.00    +0.0839  A
ATOM      7 C10  CHE L   1      -1.138   0.360   0.122  1.00  0.00    +0.0785  A
ATOM      8 CL11 CHE L   1      -0.657   2.025   0.330  1.00  0.00    -0.0806 Cl
ATOM      9 C12  CHE L   1       0.674  -0.332   1.678  1.00  0.00    +0.2584  C
ATOM     10 O13  CHE L   1       0.399   0.298   2.694  1.00  0.00    -0.2673 OA
ATOM     11 N14  CHE L   1       1.978  -0.691   1.308  1.00  0.00    -0.3320  N
ATOM     12 C26  CHE L   1       2.298  -2.114   1.483  1.00  0.00    +0.0394  C
ATOM     13 C27  CHE L   1       1.441  -3.095   0.678  1.00  0.00    +0.0360  C
ATOM     14 N28  CHE L   1       0.013  -3.108   1.025  1.00  0.00    -0.3702  N
ATOM     15 C29  CHE L   1      -0.352  -3.430   2.405  1.00  0.00    +0.0073  C
ATOM     16 H41  CHE L   1      -3.345  -1.524  -1.652  1.00  0.00    +0.0654  H
ATOM     17 H52  CHE L   1       3.332  -2.277   1.168  1.00  0.00    +0.0506  H
ATOM     18 H53  CHE L   1       2.233  -2.342   2.554  1.00  0.00    +0.0506  H
ATOM     19 H54  CHE L   1       1.559  -2.895  -0.395  1.00  0.00    +0.0505  H
ATOM     20 H55  CHE L   1       1.832  -4.107   0.838  1.00  0.00    +0.0505  H
ATOM     21 H56  CHE L   1       0.204  -4.312   2.745  1.00  0.00    +0.0452  H
ATOM     22 H57  CHE L   1      -1.418  -3.674   2.474  1.00  0.00    +0.0452  H
ATOM     23 H58  CHE L   1      -0.141  -2.607   3.095  1.00  0.00    +0.0452  H
ENDROOT
BRANCH 1 24
ATOM     24  N3  CHE L   1      -2.968   1.102  -1.343  1.00  0.00    -0.3666  N
BRANCH 24 26
ATOM     25  C1  CHE L   1      -2.709   2.603  -3.281  1.00  0.00    -0.0475  C
ATOM     26  C2  CHE L   1      -2.782   1.159  -2.803  1.00  0.00    +0.0161  C
ATOM     27 H36  CHE L   1      -3.685   3.095  -3.228  1.00  0.00    +0.0247  H
ATOM     28 H37  CHE L   1      -2.374   2.641  -4.324  1.00  0.00    +0.0247  H
ATOM     29 H38  CHE L   1      -2.003   3.184  -2.679  1.00  0.00    +0.0247  H
ATOM     30 H39  CHE L   1      -1.839   0.676  -3.092  1.00  0.00    +0.0485  H
ATOM     31 H40  CHE L   1      -3.587   0.628  -3.323  1.00  0.00    +0.0485  H
ENDBRANCH 24 26
BRANCH 24 32
ATOM     32 C30  CHE L   1      -4.317   1.441  -0.812  1.00  0.00    +0.0341  C
ATOM     33 C31  CHE L   1      -5.355   0.329  -0.950  1.00  0.00    -0.0089  C
ATOM     34 C32  CHE L   1      -6.734   0.849  -0.545  1.00  0.00    +0.0495  C
ATOM     35 O33  CHE L   1      -6.678   1.948   0.366  1.00  0.00    -0.3796 OA
ATOM     36 C34  CHE L   1      -5.630   1.815   1.320  1.00  0.00    +0.0495  C
ATOM     37 C35  CHE L   1      -4.270   1.941   0.640  1.00  0.00    -0.0089  C
ATOM     38 H59  CHE L   1      -4.689   2.286  -1.407  1.00  0.00    +0.0525  H
ATOM     39 H60  CHE L   1      -5.398  -0.082  -1.964  1.00  0.00    +0.0307  H
ATOM     40 H61  CHE L   1      -5.099  -0.507  -0.287  1.00  0.00    +0.0307  H
ATOM     41 H62  CHE L   1      -7.334   0.046  -0.102  1.00  0.00    +0.0560  H
ATOM     42 H63  CHE L   1      -7.272   1.203  -1.432  1.00  0.00    +0.0560  H
ATOM     43 H64  CHE L   1      -5.728   0.851   1.836  1.00  0.00    +0.0560  H
ATOM     44 H65  CHE L   1      -5.746   2.600   2.076  1.00  0.00    +0.0560  H
ATOM     45 H66  CHE L   1      -3.960   2.993   0.632  1.00  0.00    +0.0307  H
ATOM     46 H67  CHE L   1      -3.536   1.415   1.256  1.00  0.00    +0.0307  H
ENDBRANCH 24 32
ENDBRANCH 1 24
BRANCH 11 47
ATOM     47 C15  CHE L   1       2.998   0.236   1.814  1.00  0.00    +0.0553  C
ATOM     48 H42  CHE L   1       3.243  -0.032   2.848  1.00  0.00    +0.0541  H
ATOM     49 H43  CHE L   1       2.571   1.247   1.861  1.00  0.00    +0.0541  H
BRANCH 47 50
ATOM     50 C16  CHE L   1       4.195   0.264   0.912  1.00  0.00    +0.0776  A
ATOM     51 C17  CHE L   1       4.281   0.970  -0.232  1.00  0.00    +0.1317  A
ATOM     52 C20  CHE L   1       5.502   1.025  -1.006  1.00  0.00    -0.0005  A
ATOM     53 C21  CHE L   1       6.581   0.329  -0.618  1.00  0.00    +0.0195  A
ATOM     54 C22  CHE L   1       7.881   0.323  -1.360  1.00  0.00    -0.0242  C
ATOM     55 N23  CHE L   1       6.509  -0.420   0.533  1.00  0.00    -0.3260  N
ATOM     56 C24  CHE L   1       5.403  -0.498   1.347  1.00  0.00    +0.2573  A
ATOM     57 O25  CHE L   1       5.414  -1.182   2.366  1.00  0.00    -0.2674 OA
ATOM     58 H47  CHE L   1       5.518   1.651  -1.892  1.00  0.00    +0.0671  H
ATOM     59 H48  CHE L   1       7.839   0.945  -2.261  1.00  0.00    +0.0292  H
ATOM     60 H49  CHE L   1       8.686   0.706  -0.724  1.00  0.00    +0.0292  H
ATOM     61 H50  CHE L   1       8.137  -0.696  -1.669  1.00  0.00    +0.0292  H
ATOM     62 H51  CHE L   1       7.317  -0.941   0.851  1.00  0.00    +0.1686 HD
BRANCH 51 63
ATOM     63 O18  CHE L   1       3.257   1.772  -0.691  1.00  0.00    -0.4945 OA
ATOM     64 C19  CHE L   1       2.507   1.125  -1.717  1.00  0.00    +0.0788  C
ATOM     65 H44  CHE L   1       3.117   0.971  -2.614  1.00  0.00    +0.0660  H
ATOM     66 H45  CHE L   1       2.100   0.169  -1.373  1.00  0.00    +0.0660  H
ATOM     67 H46  CHE L   1       1.670   1.777  -1.984  1.00  0.00    +0.0660  H
ENDBRANCH 51 63
ENDBRANCH 47 50
ENDBRANCH 11 47
TORSDOF 6
