ROOT
ATOM      1  C1  238 L   1      -3.553  -0.310  -1.376  1.00  0.00    -0.0335  C
ATOM      2  C2  238 L   1      -3.374  -0.685   0.099  1.00  0.00    +0.0938  C
ATOM      3  O3  238 L   1      -4.197  -1.854   0.290  1.00  0.00    -0.3861 OA
ATOM      4  C4  238 L   1      -3.871   0.447   1.011  1.00  0.00    +0.0018  C
ATOM      5  C5  238 L   1      -2.729   1.296   1.559  1.00  0.00    +0.0512  C
ATOM      6  O6  238 L   1      -1.651   1.374   0.633  1.00  0.00    -0.3705 OA
ATOM      7  C7  238 L   1      -0.936   0.132   0.416  1.00  0.00    +0.1011  C
ATOM      8  C8  238 L   1       0.134  -0.027   1.524  1.00  0.00    -0.0035  C
ATOM      9  C9  238 L   1       1.425   0.715   1.179  1.00  0.00    +0.0214  C
ATOM     10 N10  238 L   1       2.021   0.123  -0.021  1.00  0.00    -0.3681  N
ATOM     11 C18  238 L   1       1.108  -0.428  -1.029  1.00  0.00    +0.0214  C
ATOM     12 C19  238 L   1      -0.243   0.280  -0.960  1.00  0.00    -0.0035  C
ATOM     13 C20  238 L   1      -1.922  -1.074   0.472  1.00  0.00    +0.1125  C
ATOM     14 O21  238 L   1      -1.475  -2.185  -0.311  1.00  0.00    -0.3861 OA
ATOM     15 H22  238 L   1      -4.617  -0.199  -1.618  1.00  0.00    +0.0258  H
ATOM     16 H23  238 L   1      -3.176  -1.098  -2.037  1.00  0.00    +0.0258  H
ATOM     17 H24  238 L   1      -3.055   0.631  -1.630  1.00  0.00    +0.0258  H
ATOM     18 H25  238 L   1      -4.243  -2.048   1.243  1.00  0.00    +0.2103 HD
ATOM     19 H26  238 L   1      -4.557   1.095   0.451  1.00  0.00    +0.0316  H
ATOM     20 H27  238 L   1      -4.463   0.063   1.850  1.00  0.00    +0.0316  H
ATOM     21 H28  238 L   1      -2.376   0.898   2.517  1.00  0.00    +0.0561  H
ATOM     22 H29  238 L   1      -3.085   2.313   1.753  1.00  0.00    +0.0561  H
ATOM     23 H30  238 L   1      -0.235   0.349   2.485  1.00  0.00    +0.0311  H
ATOM     24 H31  238 L   1       0.377  -1.088   1.666  1.00  0.00    +0.0311  H
ATOM     25 H32  238 L   1       2.099   0.608   2.037  1.00  0.00    +0.0489  H
ATOM     26 H33  238 L   1       1.230   1.783   1.025  1.00  0.00    +0.0489  H
ATOM     27 H37  238 L   1       1.000  -1.507  -0.875  1.00  0.00    +0.0489  H
ATOM     28 H38  238 L   1       1.500  -0.276  -2.042  1.00  0.00    +0.0489  H
ATOM     29 H39  238 L   1      -0.093   1.346  -1.184  1.00  0.00    +0.0311  H
ATOM     30 H40  238 L   1      -0.879  -0.094  -1.769  1.00  0.00    +0.0311  H
ATOM     31 H41  238 L   1      -1.956  -1.455   1.502  1.00  0.00    +0.0651  H
ATOM     32 H42  238 L   1      -2.263  -2.749  -0.447  1.00  0.00    +0.2100 HD
ENDROOT
BRANCH 10 33
ATOM     33 C11  238 L   1       3.383   0.250  -0.281  1.00  0.00    +0.0765  A
ATOM     34 C12  238 L   1       4.028  -0.610  -1.185  1.00  0.00    -0.0175  A
ATOM     35 C13  238 L   1       5.392  -0.482  -1.429  1.00  0.00    +0.0297  A
ATOM     36 N14  238 L   1       6.181   0.440  -0.843  1.00  0.00    -0.2603 NA
ATOM     37 C15  238 L   1       5.563   1.264   0.030  1.00  0.00    +0.0648  A
ATOM     38 C16  238 L   1       4.209   1.205   0.336  1.00  0.00    +0.1644  A
ATOM     39 F17  238 L   1       3.719   2.102   1.207  1.00  0.00    -0.2017  F
ATOM     40 H34  238 L   1       3.488  -1.404  -1.689  1.00  0.00    +0.0654  H
ATOM     41 H35  238 L   1       5.896  -1.149  -2.123  1.00  0.00    +0.0830  H
ATOM     42 H36  238 L   1       6.195   2.010   0.501  1.00  0.00    +0.0859  H
ENDBRANCH 10 33
TORSDOF 1
