ROOT
ATOM      1  N5  LIG L   1      -2.677   3.545 -10.855  1.00  0.00    -0.3067  N
ATOM      2  C6  LIG L   1      -2.900   3.028  -9.656  1.00  0.00    +0.1566  A
ATOM      3  N7  LIG L   1      -3.936   2.261  -9.474  1.00  0.00    -0.1898 NA
ATOM      4  C8  LIG L   1      -4.227   1.693  -8.214  1.00  0.00    +0.2794  C
ATOM      5  O9  LIG L   1      -4.798   2.483  -7.379  1.00  0.00    -0.2652 OA
ATOM      6 C19  LIG L   1      -2.014   3.295  -8.652  1.00  0.00    +0.0951  A
ATOM      7 C22  LIG L   1      -0.905   4.114  -8.945  1.00  0.00    -0.0249  A
ATOM      8 C23  LIG L   1      -0.728   4.625 -10.227  1.00  0.00    +0.0837  A
ATOM      9 C24  LIG L   1       0.371   5.413 -10.558  1.00  0.00    +0.2676  A
ATOM     10 O25  LIG L   1       1.176   5.668  -9.659  1.00  0.00    -0.2665 OA
ATOM     11 N26  LIG L   1       0.481   5.844 -11.847  1.00  0.00    -0.2674  N
ATOM     12 C27  LIG L   1       1.555   6.594 -12.129  1.00  0.00    +0.0146  A
ATOM     13 C28  LIG L   1       1.825   7.109 -13.390  1.00  0.00    -0.0447  A
ATOM     14 C29  LIG L   1       0.860   6.768 -14.359  1.00  0.00    -0.0536  A
ATOM     15 C30  LIG L   1      -0.223   6.009 -14.063  1.00  0.00    -0.0022  A
ATOM     16 C32  LIG L   1      -0.447   5.518 -12.770  1.00  0.00    +0.1458  A
ATOM     17 N33  LIG L   1      -1.533   4.754 -12.483  1.00  0.00    -0.2110 NA
ATOM     18 C34  LIG L   1      -1.646   4.326 -11.210  1.00  0.00    +0.1499  A
ATOM     19 H49  LIG L   1      -0.178   4.339  -8.166  1.00  0.00    +0.0640  H
ATOM     20 H50  LIG L   1       2.263   6.818 -11.331  1.00  0.00    +0.0814  H
ATOM     21 H51  LIG L   1       2.697   7.712 -13.607  1.00  0.00    +0.0632  H
ATOM     22 H52  LIG L   1       1.028   7.127 -15.372  1.00  0.00    +0.0622  H
ENDROOT
BRANCH 1 23
ATOM     23  C4  LIG L   1      -3.690   3.264 -11.880  1.00  0.00    +0.0500  C
ATOM     24 H42  LIG L   1      -4.132   2.264 -11.803  1.00  0.00    +0.0515  H
ATOM     25 H43  LIG L   1      -3.309   3.334 -12.905  1.00  0.00    +0.0515  H
BRANCH 23 26
ATOM     26  C3  LIG L   1      -4.753   4.363 -11.625  1.00  0.00    +0.0653  C
ATOM     27 H40  LIG L   1      -5.203   4.259 -10.631  1.00  0.00    +0.0577  H
ATOM     28 H41  LIG L   1      -5.554   4.244 -12.364  1.00  0.00    +0.0577  H
BRANCH 26 30
ATOM     29  C1  LIG L   1      -5.030   6.669 -11.471  1.00  0.00    +0.0365  C
ATOM     30  O2  LIG L   1      -4.168   5.617 -11.766  1.00  0.00    -0.3812 OA
ATOM     31 H37  LIG L   1      -4.501   7.614 -11.624  1.00  0.00    +0.0523  H
ATOM     32 H38  LIG L   1      -5.357   6.629 -10.427  1.00  0.00    +0.0523  H
ATOM     33 H39  LIG L   1      -5.905   6.659 -12.130  1.00  0.00    +0.0523  H
ENDBRANCH 26 30
ENDBRANCH 23 26
ENDBRANCH 1 23
BRANCH 4 34
ATOM     34 C10  LIG L   1      -3.884   0.329  -7.974  1.00  0.00    +0.0450  A
ATOM     35 C11  LIG L   1      -4.884  -0.462  -7.358  1.00  0.00    -0.0457  A
ATOM     36 C12  LIG L   1      -4.680  -1.797  -7.092  1.00  0.00    -0.0154  A
ATOM     37 C13  LIG L   1      -3.457  -2.391  -7.437  1.00  0.00    +0.1663  A
ATOM     38 C14  LIG L   1      -2.432  -1.639  -8.053  1.00  0.00    +0.1670  A
ATOM     39 C15  LIG L   1      -2.748  -0.328  -8.265  1.00  0.00    -0.0038  A
ATOM     40 O16  LIG L   1      -1.400  -2.521  -8.246  1.00  0.00    -0.4526 OA
ATOM     41 C17  LIG L   1      -1.655  -3.787  -7.677  1.00  0.00    +0.2332  C
ATOM     42 O18  LIG L   1      -2.988  -3.708  -7.286  1.00  0.00    -0.4526 OA
ATOM     43 H44  LIG L   1      -5.833  -0.004  -7.080  1.00  0.00    +0.0626  H
ATOM     44 H45  LIG L   1      -5.449  -2.398  -6.614  1.00  0.00    +0.0655  H
ATOM     45 H46  LIG L   1      -1.954   0.237  -8.759  1.00  0.00    +0.0663  H
ATOM     46 H47  LIG L   1      -1.002  -3.957  -6.816  1.00  0.00    +0.1166  H
ATOM     47 H48  LIG L   1      -1.514  -4.572  -8.425  1.00  0.00    +0.1166  H
ENDBRANCH 4 34
BRANCH 6 48
ATOM     48 C20  LIG L   1      -2.075   2.795  -7.329  1.00  0.00    +0.1028  C
ATOM     49 N21  LIG L   1      -2.105   2.378  -6.224  1.00  0.00    -0.1908 NA
ENDBRANCH 6 48
BRANCH 15 50
ATOM     50 C31  LIG L   1      -1.157   5.623 -15.128  1.00  0.00    -0.0009  C
ATOM     51 H53  LIG L   1      -1.378   4.550 -15.069  1.00  0.00    +0.0336  H
ATOM     52 H54  LIG L   1      -0.695   5.769 -16.114  1.00  0.00    +0.0336  H
BRANCH 50 53
ATOM     53 C35  LIG L   1      -2.472   6.408 -15.101  1.00  0.00    +0.0483  C
ATOM     54 O36  LIG L   1      -2.254   7.769 -15.468  1.00  0.00    -0.3947 OA
ATOM     55 H55  LIG L   1      -3.164   5.983 -15.836  1.00  0.00    +0.0560  H
ATOM     56 H56  LIG L   1      -2.967   6.382 -14.126  1.00  0.00    +0.0560  H
ATOM     57 H57  LIG L   1      -1.843   8.204 -14.701  1.00  0.00    +0.2094 HD
ENDBRANCH 50 53
ENDBRANCH 15 50
TORSDOF 7
