ROOT
ATOM      1  C1  EUB L   1       3.308   2.476   1.296  1.00  0.00    +0.0151  C
ATOM      2  N2  EUB L   1       3.228   1.116   0.761  1.00  0.00    -0.3103  N
ATOM      3  C3  EUB L   1       1.949   0.690   0.413  1.00  0.00    +0.2534  C
ATOM      4  O4  EUB L   1       0.951   1.412   0.563  1.00  0.00    -0.2703 OA
ATOM      5  C5  EUB L   1       1.758  -0.708  -0.148  1.00  0.00    +0.1430  C
ATOM      6 C21  EUB L   1       2.665  -0.798  -1.358  1.00  0.00    +0.1186  C
ATOM      7 O22  EUB L   1       3.890  -1.410  -1.003  1.00  0.00    -0.4874 OA
ATOM      8 C23  EUB L   1       4.669  -0.826  -0.045  1.00  0.00    +0.1441  A
ATOM      9 C24  EUB L   1       5.885  -1.532   0.070  1.00  0.00    -0.0179  A
ATOM     10 C25  EUB L   1       6.889  -1.130   0.942  1.00  0.00    -0.0582  A
ATOM     11 C26  EUB L   1       6.687  -0.007   1.720  1.00  0.00    -0.0596  A
ATOM     12 C27  EUB L   1       5.482   0.698   1.621  1.00  0.00    -0.0345  A
ATOM     13 C28  EUB L   1       4.432   0.314   0.748  1.00  0.00    +0.0863  A
ATOM     14 H29  EUB L   1       4.227   2.967   0.959  1.00  0.00    +0.0457  H
ATOM     15 H30  EUB L   1       2.478   3.096   0.945  1.00  0.00    +0.0457  H
ATOM     16 H31  EUB L   1       3.263   2.435   2.389  1.00  0.00    +0.0457  H
ATOM     17 H32  EUB L   1       1.994  -1.445   0.628  1.00  0.00    +0.0656  H
ATOM     18 H42  EUB L   1       2.222  -1.439  -2.129  1.00  0.00    +0.0722  H
ATOM     19 H43  EUB L   1       2.856   0.168  -1.846  1.00  0.00    +0.0722  H
ATOM     20 H44  EUB L   1       6.048  -2.414  -0.549  1.00  0.00    +0.0655  H
ATOM     21 H45  EUB L   1       7.817  -1.692   1.008  1.00  0.00    +0.0619  H
ATOM     22 H46  EUB L   1       7.456   0.323   2.413  1.00  0.00    +0.0618  H
ATOM     23 H47  EUB L   1       5.381   1.548   2.291  1.00  0.00    +0.0639  H
ENDROOT
BRANCH 5 24
ATOM     24  N6  EUB L   1       0.339  -0.851  -0.486  1.00  0.00    -0.3364  N
ATOM     25  C7  EUB L   1      -0.222  -2.084  -0.751  1.00  0.00    +0.2744  C
ATOM     26  O8  EUB L   1       0.476  -3.091  -0.839  1.00  0.00    -0.2658 OA
ATOM     27 H33  EUB L   1      -0.249  -0.060  -0.241  1.00  0.00    +0.1636 HD
BRANCH 25 28
ATOM     28  C9  EUB L   1      -1.683  -2.090  -0.911  1.00  0.00    +0.1701  A
ATOM     29 C10  EUB L   1      -2.592  -0.996  -0.933  1.00  0.00    +0.0133  A
ATOM     30 C11  EUB L   1      -3.831  -1.567  -1.102  1.00  0.00    +0.1423  A
ATOM     31 O19  EUB L   1      -3.685  -2.914  -1.191  1.00  0.00    -0.3586 OA
ATOM     32 N20  EUB L   1      -2.352  -3.245  -1.074  1.00  0.00    -0.0732 NA
ATOM     33 H34  EUB L   1      -2.385   0.059  -0.836  1.00  0.00    +0.0676  H
BRANCH 30 34
ATOM     34 C12  EUB L   1      -5.218  -1.050  -1.217  1.00  0.00    +0.0334  C
ATOM     35 H35  EUB L   1      -5.937  -1.825  -0.921  1.00  0.00    +0.0393  H
ATOM     36 H36  EUB L   1      -5.431  -0.833  -2.271  1.00  0.00    +0.0393  H
BRANCH 34 37
ATOM     37 C13  EUB L   1      -5.468   0.183  -0.379  1.00  0.00    -0.0400  A
ATOM     38 C14  EUB L   1      -5.658   0.072   1.006  1.00  0.00    -0.0582  A
ATOM     39 C15  EUB L   1      -5.864   1.212   1.785  1.00  0.00    -0.0615  A
ATOM     40 C16  EUB L   1      -5.880   2.471   1.190  1.00  0.00    -0.0617  A
ATOM     41 C17  EUB L   1      -5.689   2.594  -0.185  1.00  0.00    -0.0615  A
ATOM     42 C18  EUB L   1      -5.481   1.456  -0.967  1.00  0.00    -0.0582  A
ATOM     43 H37  EUB L   1      -5.643  -0.904   1.487  1.00  0.00    +0.0620  H
ATOM     44 H38  EUB L   1      -6.011   1.116   2.858  1.00  0.00    +0.0618  H
ATOM     45 H39  EUB L   1      -6.041   3.358   1.798  1.00  0.00    +0.0618  H
ATOM     46 H40  EUB L   1      -5.700   3.577  -0.649  1.00  0.00    +0.0618  H
ATOM     47 H41  EUB L   1      -5.330   1.572  -2.039  1.00  0.00    +0.0620  H
ENDBRANCH 34 37
ENDBRANCH 30 34
ENDBRANCH 25 28
ENDBRANCH 5 24
TORSDOF 4
