ROOT
ATOM      1  C1  CHE L   1       1.050  -5.416  -0.319  1.00  0.00    +0.0324  C
ATOM      2  N2  CHE L   1       1.670  -4.251   0.261  1.00  0.00    -0.2493  N
ATOM      3  N3  CHE L   1       2.598  -4.400   1.237  1.00  0.00    -0.1773 NA
ATOM      4  C4  CHE L   1       2.925  -3.140   1.542  1.00  0.00    +0.0622  A
ATOM      5  C5  CHE L   1       2.216  -2.187   0.778  1.00  0.00    +0.0809  A
ATOM      6  C6  CHE L   1       2.119  -0.794   0.666  1.00  0.00    +0.1474  A
ATOM      7 N16  CHE L   1       1.247  -0.315  -0.261  1.00  0.00    -0.1945 NA
ATOM      8 C17  CHE L   1       0.512  -1.147  -1.018  1.00  0.00    +0.2278  A
ATOM      9 N29  CHE L   1       0.532  -2.484  -0.953  1.00  0.00    -0.1929 NA
ATOM     10 C30  CHE L   1       1.406  -2.944  -0.046  1.00  0.00    +0.1653  A
ATOM     11 H31  CHE L   1       0.532  -5.139  -1.240  1.00  0.00    +0.0473  H
ATOM     12 H32  CHE L   1       1.825  -6.156  -0.543  1.00  0.00    +0.0473  H
ATOM     13 H33  CHE L   1       0.338  -5.816   0.406  1.00  0.00    +0.0473  H
ATOM     14 H34  CHE L   1       3.665  -2.972   2.315  1.00  0.00    +0.0856  H
ENDROOT
BRANCH 6 15
ATOM     15  N7  CHE L   1       2.883   0.062   1.476  1.00  0.00    -0.3393  N
ATOM     16 H35  CHE L   1       3.573  -0.425   2.030  1.00  0.00    +0.1673 HD
BRANCH 15 17
ATOM     17  C8  CHE L   1       2.888   1.459   1.640  1.00  0.00    +0.0422  A
ATOM     18  C9  CHE L   1       2.007   2.328   0.987  1.00  0.00    -0.0369  A
ATOM     19 C10  CHE L   1       2.040   3.709   1.214  1.00  0.00    -0.0400  A
ATOM     20 C11  CHE L   1       2.964   4.254   2.103  1.00  0.00    +0.0594  A
ATOM     21 CL12 CHE L   1       2.958   5.965   2.332  1.00  0.00    -0.0820 Cl
ATOM     22 C13  CHE L   1       3.854   3.405   2.767  1.00  0.00    +0.0612  A
ATOM     23 CL14 CHE L   1       5.030   3.994   3.891  1.00  0.00    -0.0820 Cl
ATOM     24 C15  CHE L   1       3.814   2.026   2.532  1.00  0.00    -0.0186  A
ATOM     25 H36  CHE L   1       1.264   1.956   0.287  1.00  0.00    +0.0638  H
ATOM     26 H37  CHE L   1       1.341   4.349   0.679  1.00  0.00    +0.0633  H
ATOM     27 H38  CHE L   1       4.521   1.384   3.058  1.00  0.00    +0.0653  H
ENDBRANCH 15 17
ENDBRANCH 6 15
BRANCH 8 28
ATOM     28 N18  CHE L   1      -0.333  -0.512  -1.912  1.00  0.00    -0.3519  N
ATOM     29 H39  CHE L   1      -0.334   0.471  -1.655  1.00  0.00    +0.1626 HD
BRANCH 28 30
ATOM     30 C19  CHE L   1      -1.664  -1.092  -2.091  1.00  0.00    +0.0402  C
ATOM     31 H40  CHE L   1      -2.013  -0.750  -3.075  1.00  0.00    +0.0507  H
ATOM     32 H41  CHE L   1      -1.624  -2.187  -2.179  1.00  0.00    +0.0507  H
BRANCH 30 33
ATOM     33 C20  CHE L   1      -2.724  -0.669  -0.998  1.00  0.00    +0.0567  C
ATOM     34 C21  CHE L   1      -2.446  -1.433   0.318  1.00  0.00    -0.0412  C
ATOM     35 N22  CHE L   1      -4.072  -1.139  -1.405  1.00  0.00    -0.3199 NA
ATOM     36 H42  CHE L   1      -2.370  -2.512   0.145  1.00  0.00    +0.0251  H
ATOM     37 H43  CHE L   1      -3.249  -1.281   1.053  1.00  0.00    +0.0251  H
ATOM     38 H44  CHE L   1      -1.518  -1.110   0.796  1.00  0.00    +0.0251  H
ATOM     39 H45  CHE L   1      -4.049  -2.140  -1.593  1.00  0.00    +0.1191 HD
ATOM     40 H46  CHE L   1      -4.353  -0.688  -2.272  1.00  0.00    +0.1191 HD
BRANCH 33 41
ATOM     41 C23  CHE L   1      -2.772   0.864  -0.836  1.00  0.00    -0.0262  A
ATOM     42 C24  CHE L   1      -3.025   1.685  -1.958  1.00  0.00    -0.0568  A
ATOM     43 C25  CHE L   1      -3.064   3.079  -1.845  1.00  0.00    -0.0614  A
ATOM     44 C26  CHE L   1      -2.850   3.687  -0.613  1.00  0.00    -0.0617  A
ATOM     45 C27  CHE L   1      -2.596   2.902   0.511  1.00  0.00    -0.0614  A
ATOM     46 C28  CHE L   1      -2.564   1.507   0.402  1.00  0.00    -0.0568  A
ATOM     47 H47  CHE L   1      -3.198   1.246  -2.940  1.00  0.00    +0.0621  H
ATOM     48 H48  CHE L   1      -3.269   3.684  -2.726  1.00  0.00    +0.0618  H
ATOM     49 H49  CHE L   1      -2.883   4.769  -0.523  1.00  0.00    +0.0618  H
ATOM     50 H50  CHE L   1      -2.428   3.374   1.480  1.00  0.00    +0.0618  H
ATOM     51 H51  CHE L   1      -2.372   0.941   1.311  1.00  0.00    +0.0621  H
ENDBRANCH 33 41
ENDBRANCH 30 33
ENDBRANCH 28 30
ENDBRANCH 8 28
TORSDOF 6
