ROOT
ATOM      1  H1  CHE L   1      -0.544  -5.652  -1.059  1.00  0.00    +0.0473  H
ATOM      2  C2  CHE L   1      -0.792  -4.845  -1.753  1.00  0.00    +0.0324  C
ATOM      3  H3  CHE L   1      -1.486  -5.199  -2.520  1.00  0.00    +0.0473  H
ATOM      4  H4  CHE L   1       0.120  -4.470  -2.223  1.00  0.00    +0.0473  H
ATOM      5  N5  CHE L   1      -1.437  -3.788  -1.015  1.00  0.00    -0.2493  N
ATOM      6  N6  CHE L   1      -2.512  -4.074  -0.244  1.00  0.00    -0.1773 NA
ATOM      7  C7  CHE L   1      -2.841  -2.883   0.270  1.00  0.00    +0.0622  A
ATOM      8  C8  CHE L   1      -2.000  -1.841  -0.172  1.00  0.00    +0.0806  A
ATOM      9  C9  CHE L   1      -1.864  -0.460   0.007  1.00  0.00    +0.1435  A
ATOM     10 N15  CHE L   1      -0.845   0.144  -0.649  1.00  0.00    -0.1948 NA
ATOM     11 C16  CHE L   1      -0.009  -0.565  -1.429  1.00  0.00    +0.2278  A
ATOM     12 N28  CHE L   1      -0.070  -1.885  -1.652  1.00  0.00    -0.1929 NA
ATOM     13 C29  CHE L   1      -1.088  -2.466  -1.000  1.00  0.00    +0.1653  A
ATOM     14 H30  CHE L   1      -3.683  -2.824   0.948  1.00  0.00    +0.0856  H
ENDROOT
BRANCH 9 15
ATOM     15 N10  CHE L   1      -2.723   0.260   0.826  1.00  0.00    -0.3644  N
ATOM     16 H31  CHE L   1      -3.609  -0.212   0.967  1.00  0.00    +0.1616 HD
BRANCH 15 17
ATOM     17 C11  CHE L   1      -2.808   1.728   0.813  1.00  0.00    +0.0314  C
ATOM     18 C12  CHE L   1      -3.916   2.110   1.818  1.00  0.00    -0.0424  C
ATOM     19 C13  CHE L   1      -1.501   2.377   1.294  1.00  0.00    -0.0424  C
ATOM     20 C14  CHE L   1      -3.217   2.252  -0.571  1.00  0.00    -0.0424  C
ATOM     21 H32  CHE L   1      -4.043   3.197   1.879  1.00  0.00    +0.0252  H
ATOM     22 H33  CHE L   1      -3.682   1.741   2.824  1.00  0.00    +0.0252  H
ATOM     23 H34  CHE L   1      -4.881   1.677   1.529  1.00  0.00    +0.0252  H
ATOM     24 H35  CHE L   1      -1.158   1.927   2.233  1.00  0.00    +0.0252  H
ATOM     25 H36  CHE L   1      -0.690   2.281   0.567  1.00  0.00    +0.0252  H
ATOM     26 H37  CHE L   1      -1.638   3.451   1.468  1.00  0.00    +0.0252  H
ATOM     27 H38  CHE L   1      -4.132   1.763  -0.925  1.00  0.00    +0.0252  H
ATOM     28 H39  CHE L   1      -2.442   2.080  -1.325  1.00  0.00    +0.0252  H
ATOM     29 H40  CHE L   1      -3.403   3.332  -0.543  1.00  0.00    +0.0252  H
ENDBRANCH 15 17
ENDBRANCH 9 15
BRANCH 11 30
ATOM     30 N17  CHE L   1       1.001   0.188  -2.012  1.00  0.00    -0.3521  N
ATOM     31 H41  CHE L   1       1.003   1.071  -1.508  1.00  0.00    +0.1626 HD
BRANCH 30 32
ATOM     32 C18  CHE L   1       2.307  -0.461  -2.103  1.00  0.00    +0.0377  C
ATOM     33 H42  CHE L   1       2.236  -1.367  -2.720  1.00  0.00    +0.0505  H
ATOM     34 H43  CHE L   1       2.967   0.219  -2.656  1.00  0.00    +0.0505  H
BRANCH 32 35
ATOM     35 C19  CHE L   1       2.954  -0.806  -0.724  1.00  0.00    +0.0507  C
ATOM     36 N20  CHE L   1       4.272  -1.446  -0.914  1.00  0.00    -0.3221 NA
ATOM     37 H44  CHE L   1       2.324  -1.546  -0.218  1.00  0.00    +0.0526  H
ATOM     38 H45  CHE L   1       4.135  -2.331  -1.401  1.00  0.00    +0.1188 HD
ATOM     39 H46  CHE L   1       4.640  -1.690   0.006  1.00  0.00    +0.1188 HD
BRANCH 35 40
ATOM     40 C21  CHE L   1       3.095   0.417   0.163  1.00  0.00    +0.0062  A
ATOM     41 C22  CHE L   1       3.957   1.475  -0.168  1.00  0.00    -0.0543  A
ATOM     42 C23  CHE L   1       4.042   2.606   0.648  1.00  0.00    -0.0613  A
ATOM     43 C24  CHE L   1       3.269   2.696   1.806  1.00  0.00    -0.0590  A
ATOM     44 C25  CHE L   1       2.415   1.650   2.150  1.00  0.00    -0.0261  A
ATOM     45 C26  CHE L   1       2.336   0.525   1.334  1.00  0.00    +0.1281  A
ATOM     46 F27  CHE L   1       1.513  -0.470   1.696  1.00  0.00    -0.2051  F
ATOM     47 H47  CHE L   1       4.572   1.417  -1.064  1.00  0.00    +0.0622  H
ATOM     48 H48  CHE L   1       4.714   3.417   0.380  1.00  0.00    +0.0618  H
ATOM     49 H49  CHE L   1       3.335   3.577   2.439  1.00  0.00    +0.0618  H
ATOM     50 H50  CHE L   1       1.807   1.702   3.048  1.00  0.00    +0.0646  H
ENDBRANCH 35 40
ENDBRANCH 32 35
ENDBRANCH 30 32
ENDBRANCH 11 30
TORSDOF 6
