ROOT
ATOM      1 N11  192 L   1       0.050  -0.475  -0.482  1.00  0.00    -0.2927 NA
ATOM      2 C12  192 L   1       0.304   0.875   0.040  1.00  0.00    +0.0014  C
ATOM      3 C13  192 L   1       1.797   1.198   0.017  1.00  0.00    -0.0192  C
ATOM      4 C14  192 L   1       2.590   0.144   0.795  1.00  0.00    +0.0377  C
ATOM      5 C20  192 L   1       2.257  -1.262   0.290  1.00  0.00    -0.0192  C
ATOM      6 C21  192 L   1       0.746  -1.499   0.311  1.00  0.00    +0.0014  C
ATOM      7 H31  192 L   1      -0.078   0.984   1.063  1.00  0.00    +0.0427  H
ATOM      8 H32  192 L   1      -0.209   1.621  -0.580  1.00  0.00    +0.0427  H
ATOM      9 H33  192 L   1       1.965   2.192   0.449  1.00  0.00    +0.0298  H
ATOM     10 H34  192 L   1       2.140   1.248  -1.024  1.00  0.00    +0.0298  H
ATOM     11 H35  192 L   1       2.288   0.204   1.850  1.00  0.00    +0.0529  H
ATOM     12 H39  192 L   1       2.755  -2.015   0.914  1.00  0.00    +0.0298  H
ATOM     13 H40  192 L   1       2.632  -1.406  -0.731  1.00  0.00    +0.0298  H
ATOM     14 H41  192 L   1       0.572  -2.499  -0.099  1.00  0.00    +0.0427  H
ATOM     15 H42  192 L   1       0.402  -1.505   1.352  1.00  0.00    +0.0427  H
ENDROOT
BRANCH 1 17
ATOM     16  C1  192 L   1      -1.652  -2.027  -1.471  1.00  0.00    -0.0423  C
ATOM     17  C2  192 L   1      -1.400  -0.729  -0.691  1.00  0.00    +0.0692  C
ATOM     18 H22  192 L   1      -1.029  -2.072  -2.371  1.00  0.00    +0.0249  H
ATOM     19 H23  192 L   1      -2.698  -2.083  -1.793  1.00  0.00    +0.0249  H
ATOM     20 H24  192 L   1      -1.456  -2.923  -0.871  1.00  0.00    +0.0249  H
ATOM     21 H25  192 L   1      -1.742   0.068  -1.364  1.00  0.00    +0.0541  H
BRANCH 17 22
ATOM     22  C3  192 L   1      -2.234  -0.710   0.553  1.00  0.00    +0.1684  A
ATOM     23  N4  192 L   1      -2.124  -1.480   1.622  1.00  0.00    -0.1118 NA
ATOM     24  N5  192 L   1      -3.107  -1.077   2.493  1.00  0.00    -0.0230 NA
ATOM     25  N6  192 L   1      -3.821  -0.086   1.979  1.00  0.00    -0.0436 NA
ATOM     26  N7  192 L   1      -3.298   0.128   0.766  1.00  0.00    -0.2246  N
BRANCH 26 27
ATOM     27  C8  192 L   1      -3.796   1.174  -0.148  1.00  0.00    +0.0565  C
ATOM     28  C9  192 L   1      -4.523   0.845  -1.431  1.00  0.00    -0.0284  C
ATOM     29 C10  192 L   1      -5.269   1.479  -0.296  1.00  0.00    -0.0284  C
ATOM     30 H26  192 L   1      -3.134   2.035  -0.160  1.00  0.00    +0.0546  H
ATOM     31 H27  192 L   1      -4.318   1.455  -2.305  1.00  0.00    +0.0286  H
ATOM     32 H28  192 L   1      -4.749  -0.191  -1.658  1.00  0.00    +0.0286  H
ATOM     33 H29  192 L   1      -5.982   0.869   0.250  1.00  0.00    +0.0286  H
ATOM     34 H30  192 L   1      -5.565   2.518  -0.392  1.00  0.00    +0.0286  H
ENDBRANCH 26 27
ENDBRANCH 17 22
ENDBRANCH 1 17
BRANCH 4 35
ATOM     35 N15  192 L   1       4.021   0.411   0.772  1.00  0.00    -0.3337  N
ATOM     36 C16  192 L   1       4.840   0.439  -0.323  1.00  0.00    +0.0243  A
ATOM     37 C17  192 L   1       6.088   0.738   0.171  1.00  0.00    +0.0454  A
ATOM     38 N18  192 L   1       6.047   0.893   1.532  1.00  0.00    -0.2441 NA
ATOM     39 C19  192 L   1       4.793   0.689   1.866  1.00  0.00    +0.0961  A
ATOM     40 H36  192 L   1       4.487   0.251  -1.328  1.00  0.00    +0.0825  H
ATOM     41 H37  192 L   1       7.012   0.850  -0.381  1.00  0.00    +0.0845  H
ATOM     42 H38  192 L   1       4.399   0.731   2.873  1.00  0.00    +0.1029  H
ENDBRANCH 4 35
TORSDOF 4
