ROOT
ATOM      1  H1  CHE L   1       1.827   5.779   0.036  1.00  0.00    +0.0473  H
ATOM      2  C2  CHE L   1       2.035   4.975   0.747  1.00  0.00    +0.0324  C
ATOM      3  H3  CHE L   1       2.845   4.345   0.371  1.00  0.00    +0.0473  H
ATOM      4  H4  CHE L   1       2.312   5.388   1.721  1.00  0.00    +0.0473  H
ATOM      5  N5  CHE L   1       0.835   4.194   0.909  1.00  0.00    -0.2493  N
ATOM      6  N6  CHE L   1      -0.261   4.761   1.465  1.00  0.00    -0.1773 NA
ATOM      7  C7  CHE L   1      -1.160   3.771   1.445  1.00  0.00    +0.0622  A
ATOM      8  C8  CHE L   1      -0.653   2.578   0.888  1.00  0.00    +0.0809  A
ATOM      9  C9  CHE L   1      -1.098   1.278   0.613  1.00  0.00    +0.1474  A
ATOM     10 N21  CHE L   1      -0.198   0.434   0.043  1.00  0.00    -0.1945 NA
ATOM     11 C22  CHE L   1       1.051   0.842  -0.247  1.00  0.00    +0.2278  A
ATOM     12 N29  CHE L   1       1.545   2.065  -0.016  1.00  0.00    -0.1929 NA
ATOM     13 C30  CHE L   1       0.650   2.887   0.550  1.00  0.00    +0.1653  A
ATOM     14 H31  CHE L   1      -2.149   3.965   1.838  1.00  0.00    +0.0856  H
ENDROOT
BRANCH 9 15
ATOM     15 N10  CHE L   1      -2.400   0.868   0.938  1.00  0.00    -0.3393  N
ATOM     16 H32  CHE L   1      -2.945   1.580   1.403  1.00  0.00    +0.1673 HD
BRANCH 15 17
ATOM     17 C11  CHE L   1      -3.114  -0.313   0.670  1.00  0.00    +0.0407  A
ATOM     18 C12  CHE L   1      -4.354  -0.503   1.302  1.00  0.00    -0.0378  A
ATOM     19 C13  CHE L   1      -5.107  -1.666   1.102  1.00  0.00    -0.0482  A
ATOM     20 C14  CHE L   1      -4.637  -2.679   0.258  1.00  0.00    +0.0549  A
ATOM     21 C19  CHE L   1      -3.394  -2.506  -0.362  1.00  0.00    -0.0482  A
ATOM     22 C20  CHE L   1      -2.647  -1.339  -0.155  1.00  0.00    -0.0378  A
ATOM     23 H33  CHE L   1      -4.750   0.258   1.971  1.00  0.00    +0.0638  H
ATOM     24 H34  CHE L   1      -6.062  -1.777   1.613  1.00  0.00    +0.0624  H
ATOM     25 H35  CHE L   1      -2.994  -3.279  -1.017  1.00  0.00    +0.0624  H
ATOM     26 H36  CHE L   1      -1.695  -1.250  -0.670  1.00  0.00    +0.0638  H
BRANCH 20 27
ATOM     27 C15  CHE L   1      -5.427  -3.947   0.053  1.00  0.00    +0.4174  C
ATOM     28 F16  CHE L   1      -5.286  -4.469  -1.198  1.00  0.00    -0.1659  F
ATOM     29 F17  CHE L   1      -6.768  -3.778   0.233  1.00  0.00    -0.1659  F
ATOM     30 F18  CHE L   1      -5.058  -4.934   0.914  1.00  0.00    -0.1659  F
ENDBRANCH 20 27
ENDBRANCH 15 17
ENDBRANCH 9 15
BRANCH 11 31
ATOM     31 N23  CHE L   1       1.851  -0.126  -0.843  1.00  0.00    -0.3522  N
ATOM     32 H37  CHE L   1       1.400  -1.011  -0.629  1.00  0.00    +0.1626 HD
BRANCH 31 33
ATOM     33 C24  CHE L   1       3.229  -0.105  -0.382  1.00  0.00    +0.0363  C
ATOM     34 H38  CHE L   1       3.276  -0.193   0.711  1.00  0.00    +0.0504  H
ATOM     35 H39  CHE L   1       3.727   0.829  -0.674  1.00  0.00    +0.0504  H
BRANCH 33 36
ATOM     36 C25  CHE L   1       3.968  -1.304  -0.992  1.00  0.00    +0.0342  C
ATOM     37 N26  CHE L   1       3.284  -2.617  -0.874  1.00  0.00    -0.3232 NA
ATOM     38 C27  CHE L   1       4.781  -1.070  -2.247  1.00  0.00    -0.0315  C
ATOM     39 C28  CHE L   1       5.478  -1.292  -0.936  1.00  0.00    -0.0315  C
ATOM     40 H40  CHE L   1       2.537  -2.660  -1.569  1.00  0.00    +0.1188 HD
ATOM     41 H41  CHE L   1       3.918  -3.378  -1.117  1.00  0.00    +0.1188 HD
ATOM     42 H42  CHE L   1       4.834  -1.856  -2.991  1.00  0.00    +0.0284  H
ATOM     43 H43  CHE L   1       4.794  -0.072  -2.672  1.00  0.00    +0.0284  H
ATOM     44 H44  CHE L   1       6.003  -2.229  -0.788  1.00  0.00    +0.0284  H
ATOM     45 H45  CHE L   1       5.973  -0.444  -0.476  1.00  0.00    +0.0284  H
ENDBRANCH 33 36
ENDBRANCH 31 33
ENDBRANCH 11 31
TORSDOF 6
