ROOT
ATOM      1  C8  187 L   1       1.526   0.830  -0.930  1.00  0.00    +0.2252  C
ATOM      2  O9  187 L   1       1.976  -0.084  -1.626  1.00  0.00    -0.2730 OA
ATOM      3 N10  187 L   1       0.172   0.908  -0.605  1.00  0.00    -0.3416  N
ATOM      4 C11  187 L   1      -0.398   1.873   0.324  1.00  0.00    +0.0212  C
ATOM      5 C12  187 L   1      -1.769   2.369  -0.127  1.00  0.00    -0.0346  C
ATOM      6 C13  187 L   1      -2.615   1.327  -0.863  1.00  0.00    -0.0418  C
ATOM      7 C14  187 L   1      -2.170  -0.135  -0.614  1.00  0.00    +0.0144  C
ATOM      8 C15  187 L   1      -2.991  -1.042  -1.588  1.00  0.00    -0.0434  C
ATOM      9 C16  187 L   1      -3.133  -2.471  -1.080  1.00  0.00    -0.0523  C
ATOM     10 C17  187 L   1      -3.924  -2.518   0.226  1.00  0.00    -0.0507  C
ATOM     11 C18  187 L   1      -3.830  -1.218   1.029  1.00  0.00    -0.0263  C
ATOM     12 C19  187 L   1      -2.463  -0.544   0.872  1.00  0.00    +0.0625  C
ATOM     13 O20  187 L   1      -1.471  -1.440   1.370  1.00  0.00    -0.3912 OA
ATOM     14 C21  187 L   1      -0.664  -0.233  -0.994  1.00  0.00    +0.0291  C
ATOM     15 H30  187 L   1      -0.457   1.382   1.301  1.00  0.00    +0.0488  H
ATOM     16 H31  187 L   1       0.255   2.738   0.461  1.00  0.00    +0.0488  H
ATOM     17 H32  187 L   1      -2.313   2.746   0.748  1.00  0.00    +0.0282  H
ATOM     18 H33  187 L   1      -1.640   3.233  -0.791  1.00  0.00    +0.0282  H
ATOM     19 H34  187 L   1      -2.548   1.538  -1.939  1.00  0.00    +0.0273  H
ATOM     20 H35  187 L   1      -3.670   1.467  -0.598  1.00  0.00    +0.0273  H
ATOM     21 H36  187 L   1      -3.999  -0.628  -1.730  1.00  0.00    +0.0272  H
ATOM     22 H37  187 L   1      -2.538  -1.053  -2.587  1.00  0.00    +0.0272  H
ATOM     23 H38  187 L   1      -3.634  -3.092  -1.832  1.00  0.00    +0.0265  H
ATOM     24 H39  187 L   1      -2.139  -2.909  -0.929  1.00  0.00    +0.0265  H
ATOM     25 H40  187 L   1      -3.565  -3.361   0.829  1.00  0.00    +0.0266  H
ATOM     26 H41  187 L   1      -4.981  -2.723   0.015  1.00  0.00    +0.0266  H
ATOM     27 H42  187 L   1      -4.619  -0.527   0.709  1.00  0.00    +0.0290  H
ATOM     28 H43  187 L   1      -4.022  -1.449   2.084  1.00  0.00    +0.0290  H
ATOM     29 H44  187 L   1      -2.444   0.333   1.526  1.00  0.00    +0.0599  H
ATOM     30 H45  187 L   1      -1.699  -1.661   2.290  1.00  0.00    +0.2098 HD
ATOM     31 H46  187 L   1      -0.565  -0.294  -2.087  1.00  0.00    +0.0495  H
ATOM     32 H47  187 L   1      -0.203  -1.152  -0.613  1.00  0.00    +0.0495  H
ENDROOT
BRANCH 1 33
ATOM     33  C7  187 L   1       2.429   1.932  -0.402  1.00  0.00    +0.0437  C
ATOM     34 H28  187 L   1       2.352   1.963   0.690  1.00  0.00    +0.0378  H
ATOM     35 H29  187 L   1       2.080   2.884  -0.817  1.00  0.00    +0.0378  H
BRANCH 33 36
ATOM     36  C6  187 L   1       3.884   1.733  -0.815  1.00  0.00    +0.0268  C
ATOM     37 H26  187 L   1       4.464   2.623  -0.543  1.00  0.00    +0.0491  H
ATOM     38 H27  187 L   1       3.974   1.590  -1.897  1.00  0.00    +0.0491  H
BRANCH 36 41
ATOM     39  C3  187 L   1       4.963   0.628   1.106  1.00  0.00    +0.2443  C
ATOM     40  O4  187 L   1       4.983   1.640   1.798  1.00  0.00    -0.2683 OA
ATOM     41  N5  187 L   1       4.493   0.581  -0.179  1.00  0.00    -0.3520  N
ATOM     42 H25  187 L   1       4.277  -0.320  -0.591  1.00  0.00    +0.1626 HD
BRANCH 39 44
ATOM     43  C1  187 L   1       5.813  -1.734   0.978  1.00  0.00    -0.0936  C
ATOM     44  C2  187 L   1       5.401  -0.670   1.680  1.00  0.00    -0.0047  C
ATOM     45 H22  187 L   1       5.862  -1.742  -0.105  1.00  0.00    +0.0536  H
ATOM     46 H23  187 L   1       6.141  -2.632   1.493  1.00  0.00    +0.0536  H
ATOM     47 H24  187 L   1       5.420  -0.688   2.766  1.00  0.00    +0.0666  H
ENDBRANCH 39 44
ENDBRANCH 36 41
ENDBRANCH 33 36
ENDBRANCH 1 33
TORSDOF 4
