ROOT
ATOM      1  C4  SEL L   1      -1.490  -0.889   0.070  1.00  0.00    +0.0965  C
ATOM      2  C8  SEL L   1      -0.650  -1.570   1.187  1.00  0.00    -0.0171  C
ATOM      3  C9  SEL L   1       0.867  -1.523   0.958  1.00  0.00    +0.0198  C
ATOM      4 N10  SEL L   1       1.237  -0.285   0.265  1.00  0.00    -0.3669  N
ATOM      5 C17  SEL L   1       0.654  -0.127  -1.092  1.00  0.00    +0.0457  C
ATOM      6 C18  SEL L   1      -0.678  -0.899  -1.246  1.00  0.00    +0.0884  C
ATOM      7 O19  SEL L   1      -0.369  -2.251  -1.638  1.00  0.00    -0.3889 OA
ATOM      8 H28  SEL L   1      -0.934  -2.623   1.312  1.00  0.00    +0.0294  H
ATOM      9 H29  SEL L   1      -0.875  -1.097   2.153  1.00  0.00    +0.0294  H
ATOM     10 H30  SEL L   1       1.198  -2.397   0.383  1.00  0.00    +0.0488  H
ATOM     11 H31  SEL L   1       1.343  -1.585   1.944  1.00  0.00    +0.0488  H
ATOM     12 H36  SEL L   1       1.364  -0.479  -1.852  1.00  0.00    +0.0513  H
ATOM     13 H37  SEL L   1       0.456   0.936  -1.271  1.00  0.00    +0.0513  H
ATOM     14 H38  SEL L   1      -1.240  -0.471  -2.083  1.00  0.00    +0.0622  H
ATOM     15 H39  SEL L   1      -1.223  -2.660  -1.883  1.00  0.00    +0.2099 HD
ENDROOT
BRANCH 1 16
ATOM     16  C3  SEL L   1      -1.876   0.558   0.516  1.00  0.00    -0.0350  C
ATOM     17 H25  SEL L   1      -2.490   0.501   1.426  1.00  0.00    +0.0277  H
ATOM     18 H26  SEL L   1      -0.979   1.119   0.804  1.00  0.00    +0.0277  H
BRANCH 16 20
ATOM     19  C1  SEL L   1      -3.069   2.725   0.027  1.00  0.00    -0.0652  C
ATOM     20  C2  SEL L   1      -2.647   1.373  -0.530  1.00  0.00    -0.0548  C
ATOM     21 H20  SEL L   1      -3.611   3.296  -0.733  1.00  0.00    +0.0230  H
ATOM     22 H21  SEL L   1      -3.727   2.605   0.894  1.00  0.00    +0.0230  H
ATOM     23 H22  SEL L   1      -2.197   3.312   0.335  1.00  0.00    +0.0230  H
ATOM     24 H23  SEL L   1      -2.027   1.544  -1.416  1.00  0.00    +0.0263  H
ATOM     25 H24  SEL L   1      -3.542   0.831  -0.856  1.00  0.00    +0.0263  H
ENDBRANCH 16 20
ENDBRANCH 1 16
BRANCH 1 26
ATOM     26  C5  SEL L   1      -2.792  -1.673  -0.038  1.00  0.00    +0.3136  C
ATOM     27  O6  SEL L   1      -3.613  -1.825   0.854  1.00  0.00    -0.2503 OA
ATOM     28  O7  SEL L   1      -3.024  -2.234  -1.241  1.00  0.00    -0.4802 OA
ATOM     29 H27  SEL L   1      -3.897  -2.669  -1.119  1.00  0.00    +0.2951 HD
ENDBRANCH 1 26
BRANCH 4 30
ATOM     30 C11  SEL L   1       2.570   0.149   0.351  1.00  0.00    +0.0563  A
ATOM     31 C12  SEL L   1       2.912   1.458  -0.016  1.00  0.00    -0.0356  A
ATOM     32 C13  SEL L   1       4.229   1.912   0.072  1.00  0.00    -0.0417  A
ATOM     33 C14  SEL L   1       5.194   1.038   0.536  1.00  0.00    +0.0277  A
ATOM     34 N15  SEL L   1       4.931  -0.228   0.910  1.00  0.00    -0.2612 NA
ATOM     35 C16  SEL L   1       3.637  -0.632   0.810  1.00  0.00    +0.0507  A
ATOM     36 H32  SEL L   1       2.146   2.152  -0.349  1.00  0.00    +0.0639  H
ATOM     37 H33  SEL L   1       4.488   2.927  -0.206  1.00  0.00    +0.0633  H
ATOM     38 H34  SEL L   1       6.232   1.344   0.625  1.00  0.00    +0.0829  H
ATOM     39 H35  SEL L   1       3.492  -1.665   1.111  1.00  0.00    +0.0850  H
ENDBRANCH 4 30
TORSDOF 4
