ROOT
ATOM      1 C10  CHE L   1      -0.562  -0.890   2.177  1.00  0.00    +0.0083  A
ATOM      2 C11  CHE L   1      -0.602  -0.258   3.433  1.00  0.00    -0.0539  A
ATOM      3 C12  CHE L   1       0.560  -0.089   4.183  1.00  0.00    -0.0612  A
ATOM      4 C13  CHE L   1       1.775  -0.549   3.686  1.00  0.00    -0.0583  A
ATOM      5 C14  CHE L   1       1.832  -1.180   2.441  1.00  0.00    -0.0196  A
ATOM      6 C15  CHE L   1       0.672  -1.354   1.678  1.00  0.00    +0.1254  A
ATOM      7 H44  CHE L   1      -1.544   0.116   3.827  1.00  0.00    +0.0622  H
ATOM      8 H45  CHE L   1       0.518   0.406   5.149  1.00  0.00    +0.0618  H
ATOM      9 H46  CHE L   1       2.684  -0.414   4.266  1.00  0.00    +0.0619  H
ATOM     10 H47  CHE L   1       2.801  -1.522   2.098  1.00  0.00    +0.0654  H
ENDROOT
BRANCH 1 11
ATOM     11  C9  CHE L   1      -1.844  -1.035   1.379  1.00  0.00    +0.0273  C
ATOM     12 H42  CHE L   1      -1.858  -2.055   0.971  1.00  0.00    +0.0477  H
ATOM     13 H43  CHE L   1      -2.706  -0.986   2.059  1.00  0.00    +0.0477  H
BRANCH 11 14
ATOM     14  N7  CHE L   1      -1.984  -0.055   0.294  1.00  0.00    -0.2986 NA
ATOM     15  C8  CHE L   1      -2.170   1.311   0.770  1.00  0.00    -0.0123  C
ATOM     16 H39  CHE L   1      -1.270   1.667   1.283  1.00  0.00    +0.0391  H
ATOM     17 H40  CHE L   1      -3.010   1.411   1.461  1.00  0.00    +0.0391  H
ATOM     18 H41  CHE L   1      -2.324   2.003  -0.067  1.00  0.00    +0.0391  H
BRANCH 14 19
ATOM     19  C6  CHE L   1      -2.975  -0.449  -0.719  1.00  0.00    +0.0262  C
ATOM     20 H37  CHE L   1      -3.068   0.339  -1.478  1.00  0.00    +0.0452  H
ATOM     21 H38  CHE L   1      -2.515  -1.272  -1.284  1.00  0.00    +0.0452  H
BRANCH 19 22
ATOM     22  C4  CHE L   1      -4.388  -0.935  -0.300  1.00  0.00    +0.0803  C
ATOM     23  O5  CHE L   1      -5.064  -1.512  -1.433  1.00  0.00    -0.3893 OA
ATOM     24 H35  CHE L   1      -4.285  -1.761   0.414  1.00  0.00    +0.0619  H
ATOM     25 H36  CHE L   1      -4.465  -2.170  -1.824  1.00  0.00    +0.2099 HD
BRANCH 22 26
ATOM     26  C3  CHE L   1      -5.309   0.123   0.349  1.00  0.00    +0.0229  C
ATOM     27 H33  CHE L   1      -4.950   0.308   1.368  1.00  0.00    +0.0450  H
ATOM     28 H34  CHE L   1      -6.316  -0.300   0.457  1.00  0.00    +0.0450  H
BRANCH 26 30
ATOM     29  C1  CHE L   1      -6.028   1.337  -1.637  1.00  0.00    -0.0157  C
ATOM     30  N2  CHE L   1      -5.422   1.435  -0.313  1.00  0.00    -0.3165 NA
ATOM     31 H29  CHE L   1      -6.989   0.814  -1.608  1.00  0.00    +0.0388  H
ATOM     32 H30  CHE L   1      -6.212   2.346  -2.020  1.00  0.00    +0.0388  H
ATOM     33 H31  CHE L   1      -5.363   0.846  -2.353  1.00  0.00    +0.0388  H
ATOM     34 H32  CHE L   1      -6.016   2.031   0.264  1.00  0.00    +0.1217 HD
ENDBRANCH 26 30
ENDBRANCH 22 26
ENDBRANCH 19 22
ENDBRANCH 14 19
ENDBRANCH 11 14
ENDBRANCH 1 11
BRANCH 6 35
ATOM     35 O16  CHE L   1       0.628  -1.975   0.457  1.00  0.00    -0.4871 OA
BRANCH 35 36
ATOM     36 C17  CHE L   1       1.843  -2.181  -0.265  1.00  0.00    +0.1147  C
ATOM     37 H48  CHE L   1       1.593  -2.836  -1.109  1.00  0.00    +0.0748  H
ATOM     38 H49  CHE L   1       2.563  -2.741   0.342  1.00  0.00    +0.0748  H
BRANCH 36 39
ATOM     39 C18  CHE L   1       2.438  -0.916  -0.848  1.00  0.00    -0.0098  A
ATOM     40 C19  CHE L   1       1.619   0.121  -1.310  1.00  0.00    -0.0553  A
ATOM     41 C20  CHE L   1       2.179   1.264  -1.873  1.00  0.00    -0.0608  A
ATOM     42 C21  CHE L   1       3.565   1.377  -1.988  1.00  0.00    -0.0520  A
ATOM     43 C22  CHE L   1       4.421   0.354  -1.546  1.00  0.00    +0.0075  A
ATOM     44 C28  CHE L   1       3.834  -0.794  -0.984  1.00  0.00    -0.0457  A
ATOM     45 H50  CHE L   1       0.535   0.046  -1.222  1.00  0.00    +0.0621  H
ATOM     46 H51  CHE L   1       1.536   2.068  -2.220  1.00  0.00    +0.0618  H
ATOM     47 H52  CHE L   1       3.982   2.281  -2.432  1.00  0.00    +0.0624  H
ATOM     48 H55  CHE L   1       4.455  -1.619  -0.644  1.00  0.00    +0.0628  H
BRANCH 43 49
ATOM     49 C23  CHE L   1       5.881   0.533  -1.701  1.00  0.00    +0.1082  A
ATOM     50 N24  CHE L   1       6.433   1.522  -2.382  1.00  0.00    -0.2473 NA
ATOM     51 C25  CHE L   1       7.809   1.432  -2.342  1.00  0.00    +0.0354  A
ATOM     52 C26  CHE L   1       8.312   0.374  -1.622  1.00  0.00    -0.0042  A
ATOM     53 S27  CHE L   1       7.022  -0.541  -0.971  1.00  0.00    -0.0757  S
ATOM     54 H53  CHE L   1       8.403   2.175  -2.860  1.00  0.00    +0.0835  H
ATOM     55 H54  CHE L   1       9.344   0.105  -1.452  1.00  0.00    +0.0709  H
ENDBRANCH 43 49
ENDBRANCH 36 39
ENDBRANCH 35 36
ENDBRANCH 6 35
TORSDOF 10
