ROOT
ATOM      1  C1  CHE L   1      -0.404   1.855   2.399  1.00  0.00    -0.0202  C
ATOM      2  C2  CHE L   1      -1.003   1.921   1.041  1.00  0.00    +0.0678  A
ATOM      3  N3  CHE L   1      -1.600   3.066   0.666  1.00  0.00    -0.1758 NA
ATOM      4  N4  CHE L   1      -1.975   2.849  -0.605  1.00  0.00    -0.2460  N
ATOM      5  C5  CHE L   1      -1.638   1.613  -1.047  1.00  0.00    +0.2230  A
ATOM      6  C6  CHE L   1      -1.044   0.948  -0.001  1.00  0.00    +0.0525  A
ATOM      7  C7  CHE L   1      -0.573  -0.482  -0.191  1.00  0.00    +0.0694  C
ATOM      8 C22  CHE L   1      -0.680  -0.845  -1.713  1.00  0.00    +0.1038  C
ATOM      9 C25  CHE L   1      -1.278  -0.040  -2.634  1.00  0.00    +0.2091  C
ATOM     10 N26  CHE L   1      -1.415  -0.323  -3.974  1.00  0.00    -0.3688  N
ATOM     11 O27  CHE L   1      -1.838   1.196  -2.289  1.00  0.00    -0.4216 OA
ATOM     12 H28  CHE L   1       0.108   2.794   2.639  1.00  0.00    +0.0293  H
ATOM     13 H29  CHE L   1      -1.182   1.693   3.151  1.00  0.00    +0.0293  H
ATOM     14 H30  CHE L   1       0.333   1.055   2.486  1.00  0.00    +0.0293  H
ATOM     15 H31  CHE L   1      -2.431   3.597  -1.116  1.00  0.00    +0.1920 HD
ATOM     16 H42  CHE L   1      -2.195   0.178  -4.394  1.00  0.00    +0.1588 HD
ATOM     17 H43  CHE L   1      -1.395  -1.309  -4.224  1.00  0.00    +0.1588 HD
ENDROOT
BRANCH 7 18
ATOM     18  C8  CHE L   1       0.938  -0.466   0.180  1.00  0.00    -0.0296  A
ATOM     19  C9  CHE L   1       1.531  -1.487   0.946  1.00  0.00    -0.0433  A
ATOM     20 C10  CHE L   1       2.898  -1.472   1.238  1.00  0.00    +0.0187  A
ATOM     21 BR11 CHE L   1       3.640  -2.851   2.299  1.00  0.00    -0.0503 Br
ATOM     22 C12  CHE L   1       3.721  -0.459   0.757  1.00  0.00    -0.0361  A
ATOM     23 C13  CHE L   1       3.183   0.549  -0.049  1.00  0.00    +0.0561  A
ATOM     24 C18  CHE L   1       1.804   0.533  -0.331  1.00  0.00    -0.0457  A
ATOM     25 H32  CHE L   1       0.944  -2.320   1.322  1.00  0.00    +0.0632  H
ATOM     26 H33  CHE L   1       4.784  -0.458   0.993  1.00  0.00    +0.0634  H
ATOM     27 H34  CHE L   1       1.406   1.324  -0.970  1.00  0.00    +0.0626  H
BRANCH 23 28
ATOM     28 C14  CHE L   1       4.063   1.656  -0.578  1.00  0.00    +0.4175  C
ATOM     29 F15  CHE L   1       4.151   2.701   0.290  1.00  0.00    -0.1659  F
ATOM     30 F16  CHE L   1       5.344   1.253  -0.810  1.00  0.00    -0.1659  F
ATOM     31 F17  CHE L   1       3.619   2.179  -1.754  1.00  0.00    -0.1659  F
ENDBRANCH 23 28
ENDBRANCH 7 18
BRANCH 7 32
ATOM     32 C19  CHE L   1      -1.498  -1.494   0.621  1.00  0.00    -0.0279  C
ATOM     33 C20  CHE L   1      -1.586  -1.248   2.136  1.00  0.00    -0.0612  C
ATOM     34 C21  CHE L   1      -2.947  -1.568   0.093  1.00  0.00    -0.0612  C
ATOM     35 H35  CHE L   1      -1.085  -2.504   0.496  1.00  0.00    +0.0311  H
ATOM     36 H36  CHE L   1      -0.608  -1.119   2.604  1.00  0.00    +0.0233  H
ATOM     37 H37  CHE L   1      -2.059  -2.107   2.626  1.00  0.00    +0.0233  H
ATOM     38 H38  CHE L   1      -2.202  -0.375   2.368  1.00  0.00    +0.0233  H
ATOM     39 H39  CHE L   1      -3.452  -0.599   0.158  1.00  0.00    +0.0233  H
ATOM     40 H40  CHE L   1      -2.990  -1.912  -0.944  1.00  0.00    +0.0233  H
ATOM     41 H41  CHE L   1      -3.532  -2.284   0.683  1.00  0.00    +0.0233  H
ENDBRANCH 7 32
BRANCH 8 42
ATOM     42 C23  CHE L   1      -0.133  -2.101  -2.122  1.00  0.00    +0.1013  C
ATOM     43 N24  CHE L   1       0.278  -3.137  -2.443  1.00  0.00    -0.1910 NA
ENDBRANCH 8 42
TORSDOF 4
