ROOT
ATOM      1 C14  EUB L   1       2.925  -0.365   0.669  1.00  0.00    +0.1223  A
ATOM      2 N15  EUB L   1       3.627   0.558   1.296  1.00  0.00    -0.2312 NA
ATOM      3 C16  EUB L   1       4.809   0.655   0.602  1.00  0.00    +0.0891  A
ATOM      4 C17  EUB L   1       5.917   1.483   0.829  1.00  0.00    -0.0342  A
ATOM      5 C18  EUB L   1       7.013   1.392  -0.038  1.00  0.00    -0.0596  A
ATOM      6 C19  EUB L   1       7.006   0.495  -1.110  1.00  0.00    -0.0597  A
ATOM      7 C20  EUB L   1       5.908  -0.340  -1.352  1.00  0.00    -0.0363  A
ATOM      8 C21  EUB L   1       4.831  -0.229  -0.471  1.00  0.00    +0.0662  A
ATOM      9 N22  EUB L   1       3.622  -0.868  -0.403  1.00  0.00    -0.3408  N
ATOM     10 H37  EUB L   1       5.914   2.178   1.662  1.00  0.00    +0.0639  H
ATOM     11 H38  EUB L   1       7.879   2.029   0.127  1.00  0.00    +0.0618  H
ATOM     12 H39  EUB L   1       7.870   0.445  -1.769  1.00  0.00    +0.0618  H
ATOM     13 H40  EUB L   1       5.903  -1.036  -2.184  1.00  0.00    +0.0639  H
ATOM     14 H41  EUB L   1       3.265  -1.563  -1.043  1.00  0.00    +0.1671 HD
ENDROOT
BRANCH 1 15
ATOM     15 C13  EUB L   1       1.556  -0.860   1.018  1.00  0.00    +0.0571  C
ATOM     16 H35  EUB L   1       1.105  -0.216   1.784  1.00  0.00    +0.0506  H
ATOM     17 H36  EUB L   1       1.691  -1.850   1.474  1.00  0.00    +0.0506  H
BRANCH 15 21
ATOM     18  N9  EUB L   1      -2.077   0.188  -0.455  1.00  0.00    -0.3661  N
ATOM     19 C10  EUB L   1      -1.773  -0.824   0.576  1.00  0.00    +0.0315  C
ATOM     20 C11  EUB L   1      -0.567  -1.705   0.167  1.00  0.00    +0.0170  C
ATOM     21 N12  EUB L   1       0.683  -0.980  -0.168  1.00  0.00    -0.2919 NA
ATOM     22 C23  EUB L   1       0.372   0.371  -0.717  1.00  0.00    +0.0170  C
ATOM     23 C24  EUB L   1      -1.000   0.453  -1.424  1.00  0.00    +0.0315  C
ATOM     24 H31  EUB L   1      -1.535  -0.317   1.518  1.00  0.00    +0.0500  H
ATOM     25 H32  EUB L   1      -2.628  -1.489   0.752  1.00  0.00    +0.0500  H
ATOM     26 H33  EUB L   1      -0.390  -2.465   0.938  1.00  0.00    +0.0444  H
ATOM     27 H34  EUB L   1      -0.853  -2.270  -0.730  1.00  0.00    +0.0444  H
ATOM     28 H42  EUB L   1       0.377   1.127   0.081  1.00  0.00    +0.0444  H
ATOM     29 H43  EUB L   1       1.155   0.647  -1.433  1.00  0.00    +0.0444  H
ATOM     30 H44  EUB L   1      -1.022  -0.270  -2.248  1.00  0.00    +0.0500  H
ATOM     31 H45  EUB L   1      -1.120   1.458  -1.847  1.00  0.00    +0.0500  H
BRANCH 18 37
ATOM     32  C3  EUB L   1      -4.447   0.690   0.071  1.00  0.00    +0.0337  A
ATOM     33  C4  EUB L   1      -5.763   0.850  -0.388  1.00  0.00    -0.0282  A
ATOM     34  C5  EUB L   1      -6.035   0.656  -1.727  1.00  0.00    +0.0287  A
ATOM     35  N6  EUB L   1      -5.098   0.328  -2.631  1.00  0.00    -0.2612 NA
ATOM     36  C7  EUB L   1      -3.830   0.199  -2.164  1.00  0.00    +0.0518  A
ATOM     37  C8  EUB L   1      -3.413   0.351  -0.833  1.00  0.00    +0.0698  A
ATOM     38 H28  EUB L   1      -6.565   1.150   0.279  1.00  0.00    +0.0644  H
ATOM     39 H29  EUB L   1      -7.041   0.776  -2.120  1.00  0.00    +0.0830  H
ATOM     40 H30  EUB L   1      -3.124  -0.069  -2.945  1.00  0.00    +0.0851  H
BRANCH 32 42
ATOM     41  C1  EUB L   1      -5.104  -0.254   2.581  1.00  0.00    -0.0134  C
ATOM     42  S2  EUB L   1      -4.150   1.078   1.808  1.00  0.00    -0.1265 SA
ATOM     43 H25  EUB L   1      -4.773  -1.229   2.211  1.00  0.00    +0.0344  H
ATOM     44 H26  EUB L   1      -6.172  -0.135   2.384  1.00  0.00    +0.0344  H
ATOM     45 H27  EUB L   1      -4.948  -0.223   3.662  1.00  0.00    +0.0344  H
ENDBRANCH 32 42
ENDBRANCH 18 37
ENDBRANCH 15 21
ENDBRANCH 1 15
TORSDOF 4
