ROOT
ATOM      1 C16  CHE L   1      -2.594   0.014  -1.318  1.00  0.00    -0.0141  A
ATOM      2 C17  CHE L   1      -3.118  -0.672  -2.440  1.00  0.00    -0.0558  A
ATOM      3 C18  CHE L   1      -4.465  -1.002  -2.537  1.00  0.00    -0.0611  A
ATOM      4 C19  CHE L   1      -5.326  -0.674  -1.502  1.00  0.00    -0.0582  A
ATOM      5 C20  CHE L   1      -4.847   0.003  -0.373  1.00  0.00    -0.0414  A
ATOM      6 C21  CHE L   1      -3.486   0.400  -0.282  1.00  0.00    -0.0247  A
ATOM      7 C22  CHE L   1      -3.032   1.172   0.950  1.00  0.00    +0.0219  C
ATOM      8 N23  CHE L   1      -4.115   1.725   1.780  1.00  0.00    -0.3117 NA
ATOM      9 C24  CHE L   1      -5.124   0.700   2.034  1.00  0.00    +0.0002  C
ATOM     10 C25  CHE L   1      -5.828   0.324   0.733  1.00  0.00    -0.0148  C
ATOM     11 H42  CHE L   1      -2.460  -0.967  -3.257  1.00  0.00    +0.0621  H
ATOM     12 H43  CHE L   1      -4.839  -1.528  -3.412  1.00  0.00    +0.0618  H
ATOM     13 H44  CHE L   1      -6.376  -0.950  -1.574  1.00  0.00    +0.0620  H
ATOM     14 H45  CHE L   1      -2.450   2.043   0.646  1.00  0.00    +0.0474  H
ATOM     15 H46  CHE L   1      -2.400   0.533   1.574  1.00  0.00    +0.0474  H
ATOM     16 H47  CHE L   1      -4.545   2.493   1.265  1.00  0.00    +0.1223 HD
ATOM     17 H48  CHE L   1      -5.860   1.086   2.748  1.00  0.00    +0.0427  H
ATOM     18 H49  CHE L   1      -4.663  -0.179   2.501  1.00  0.00    +0.0427  H
ATOM     19 H50  CHE L   1      -6.463   1.154   0.399  1.00  0.00    +0.0326  H
ATOM     20 H51  CHE L   1      -6.475  -0.542   0.920  1.00  0.00    +0.0326  H
ENDROOT
BRANCH 1 21
ATOM     21 C14  CHE L   1      -1.080   0.213  -1.328  1.00  0.00    +0.0858  C
ATOM     22 O15  CHE L   1      -0.632   1.279  -0.511  1.00  0.00    -0.3868 OA
ATOM     23 H40  CHE L   1      -0.805   0.505  -2.352  1.00  0.00    +0.0647  H
ATOM     24 H41  CHE L   1      -0.958   2.099  -0.925  1.00  0.00    +0.2102 HD
BRANCH 21 27
ATOM     25 C11  CHE L   1       1.838  -0.961   0.256  1.00  0.00    +0.0646  C
ATOM     26 C12  CHE L   1       1.221  -0.884  -1.153  1.00  0.00    -0.0216  C
ATOM     27 C13  CHE L   1      -0.307  -1.086  -0.998  1.00  0.00    +0.0196  C
ATOM     28 C26  CHE L   1      -0.468  -1.578   0.443  1.00  0.00    +0.0885  C
ATOM     29 O27  CHE L   1      -0.230  -2.998   0.484  1.00  0.00    -0.3888 OA
ATOM     30 C28  CHE L   1       0.652  -0.889   1.229  1.00  0.00    +0.1020  C
ATOM     31 O29  CHE L   1       0.906  -1.599   2.442  1.00  0.00    -0.3872 OA
ATOM     32 H36  CHE L   1       2.317  -1.942   0.378  1.00  0.00    +0.0555  H
ATOM     33 H37  CHE L   1       1.461   0.050  -1.674  1.00  0.00    +0.0290  H
ATOM     34 H38  CHE L   1       1.637  -1.692  -1.768  1.00  0.00    +0.0290  H
ATOM     35 H39  CHE L   1      -0.621  -1.871  -1.699  1.00  0.00    +0.0356  H
ATOM     36 H52  CHE L   1      -1.450  -1.412   0.889  1.00  0.00    +0.0623  H
ATOM     37 H53  CHE L   1      -1.012  -3.426   0.090  1.00  0.00    +0.2099 HD
ATOM     38 H54  CHE L   1       0.374   0.134   1.491  1.00  0.00    +0.0640  H
ATOM     39 H55  CHE L   1       0.821  -2.546   2.208  1.00  0.00    +0.2100 HD
BRANCH 25 49
ATOM     40  C1  CHE L   1       7.213   2.063   0.825  1.00  0.00    -0.0216  C
ATOM     41  C2  CHE L   1       6.320   0.885   0.594  1.00  0.00    +0.0506  A
ATOM     42  N3  CHE L   1       6.909  -0.316   0.343  1.00  0.00    -0.2399 NA
ATOM     43  C4  CHE L   1       6.119  -1.386   0.129  1.00  0.00    +0.1185  A
ATOM     44  N5  CHE L   1       4.778  -1.438   0.125  1.00  0.00    -0.2177 NA
ATOM     45  C6  CHE L   1       4.230  -0.237   0.384  1.00  0.00    +0.1445  A
ATOM     46  C7  CHE L   1       4.918   0.947   0.615  1.00  0.00    +0.0399  A
ATOM     47  C8  CHE L   1       3.943   1.961   0.813  1.00  0.00    -0.0331  A
ATOM     48  C9  CHE L   1       2.701   1.375   0.691  1.00  0.00    +0.0076  A
ATOM     49 N10  CHE L   1       2.881   0.031   0.461  1.00  0.00    -0.3262  N
ATOM     50 H30  CHE L   1       7.026   2.830   0.068  1.00  0.00    +0.0293  H
ATOM     51 H31  CHE L   1       8.266   1.773   0.768  1.00  0.00    +0.0293  H
ATOM     52 H32  CHE L   1       7.026   2.488   1.816  1.00  0.00    +0.0293  H
ATOM     53 H33  CHE L   1       6.632  -2.323  -0.064  1.00  0.00    +0.1047  H
ATOM     54 H34  CHE L   1       4.126   3.008   1.011  1.00  0.00    +0.0640  H
ATOM     55 H35  CHE L   1       1.712   1.810   0.759  1.00  0.00    +0.0810  H
ENDBRANCH 25 49
ENDBRANCH 21 27
ENDBRANCH 1 21
TORSDOF 3
