ROOT
ATOM      1  C1  CHE L   1       0.201   4.619  -1.285  1.00  0.00    +0.0324  C
ATOM      2  N2  CHE L   1      -0.520   3.371  -1.248  1.00  0.00    -0.2493  N
ATOM      3  N3  CHE L   1      -1.847   3.363  -1.502  1.00  0.00    -0.1773 NA
ATOM      4  C4  CHE L   1      -2.166   2.067  -1.407  1.00  0.00    +0.0622  A
ATOM      5  C5  CHE L   1      -1.070   1.248  -1.068  1.00  0.00    +0.0806  A
ATOM      6  C6  CHE L   1      -0.782  -0.097  -0.836  1.00  0.00    +0.1435  A
ATOM      7 N15  CHE L   1       0.506  -0.432  -0.576  1.00  0.00    -0.1948 NA
ATOM      8 C16  CHE L   1       1.463   0.515  -0.531  1.00  0.00    +0.2278  A
ATOM      9 N23  CHE L   1       1.270   1.824  -0.713  1.00  0.00    -0.1929 NA
ATOM     10 C24  CHE L   1      -0.007   2.130  -0.986  1.00  0.00    +0.1653  A
ATOM     11 H25  CHE L   1       1.250   4.454  -1.027  1.00  0.00    +0.0473  H
ATOM     12 H26  CHE L   1      -0.254   5.301  -0.562  1.00  0.00    +0.0473  H
ATOM     13 H27  CHE L   1       0.128   5.028  -2.296  1.00  0.00    +0.0473  H
ATOM     14 H28  CHE L   1      -3.190   1.783  -1.594  1.00  0.00    +0.0856  H
ENDROOT
BRANCH 6 15
ATOM     15  N7  CHE L   1      -1.681  -1.174  -0.850  1.00  0.00    -0.3634  N
ATOM     16 H29  CHE L   1      -1.124  -1.986  -0.583  1.00  0.00    +0.1616 HD
BRANCH 15 17
ATOM     17  C8  CHE L   1      -2.981  -1.188  -0.389  1.00  0.00    +0.0441  C
ATOM     18  C9  CHE L   1      -3.619  -0.463   0.806  1.00  0.00    -0.0110  C
ATOM     19 C10  CHE L   1      -4.749  -1.401   0.266  1.00  0.00    +0.0637  C
ATOM     20 C13  CHE L   1      -4.291  -0.969  -1.164  1.00  0.00    -0.0110  C
ATOM     21 C14  CHE L   1      -3.641  -2.485   0.164  1.00  0.00    -0.0110  C
ATOM     22 H30  CHE L   1      -3.791   0.614   0.715  1.00  0.00    +0.0303  H
ATOM     23 H31  CHE L   1      -3.218  -0.683   1.801  1.00  0.00    +0.0303  H
ATOM     24 H32  CHE L   1      -4.551   0.049  -1.467  1.00  0.00    +0.0303  H
ATOM     25 H33  CHE L   1      -4.509  -1.656  -1.989  1.00  0.00    +0.0303  H
ATOM     26 H34  CHE L   1      -3.246  -2.889   1.102  1.00  0.00    +0.0303  H
ATOM     27 H35  CHE L   1      -3.805  -3.307  -0.542  1.00  0.00    +0.0303  H
BRANCH 19 28
ATOM     28 C11  CHE L   1      -6.059  -1.546   0.751  1.00  0.00    +0.0695  C
ATOM     29 N12  CHE L   1      -7.140  -1.668   1.153  1.00  0.00    -0.1960 NA
ENDBRANCH 19 28
ENDBRANCH 15 17
ENDBRANCH 6 15
BRANCH 8 30
ATOM     30 N17  CHE L   1       2.778   0.149  -0.274  1.00  0.00    -0.3522  N
ATOM     31 H36  CHE L   1       3.259   0.998   0.004  1.00  0.00    +0.1626 HD
BRANCH 30 32
ATOM     32 C18  CHE L   1       2.912  -0.942   0.678  1.00  0.00    +0.0363  C
ATOM     33 H37  CHE L   1       2.530  -1.879   0.255  1.00  0.00    +0.0504  H
ATOM     34 H38  CHE L   1       2.360  -0.728   1.603  1.00  0.00    +0.0504  H
BRANCH 32 35
ATOM     35 C19  CHE L   1       4.403  -1.128   0.982  1.00  0.00    +0.0342  C
ATOM     36 N20  CHE L   1       5.295  -1.259  -0.196  1.00  0.00    -0.3232 NA
ATOM     37 C21  CHE L   1       4.977  -0.403   2.178  1.00  0.00    -0.0315  C
ATOM     38 C22  CHE L   1       4.789  -1.892   2.224  1.00  0.00    -0.0315  C
ATOM     39 H39  CHE L   1       5.130  -2.157  -0.651  1.00  0.00    +0.1188 HD
ATOM     40 H40  CHE L   1       4.995  -0.570  -0.893  1.00  0.00    +0.1188 HD
ATOM     41 H41  CHE L   1       4.322   0.211   2.783  1.00  0.00    +0.0284  H
ATOM     42 H42  CHE L   1       5.992  -0.025   2.109  1.00  0.00    +0.0284  H
ATOM     43 H43  CHE L   1       5.678  -2.513   2.193  1.00  0.00    +0.0284  H
ATOM     44 H44  CHE L   1       4.005  -2.284   2.861  1.00  0.00    +0.0284  H
ENDBRANCH 32 35
ENDBRANCH 30 32
ENDBRANCH 8 30
TORSDOF 6
