ROOT
ATOM      1  C9  CHE L   1      -2.434  -0.684  -0.288  1.00  0.00    +0.0933  A
ATOM      2 C10  CHE L   1      -1.698  -1.470  -1.150  1.00  0.00    +0.0372  A
ATOM      3 N11  CHE L   1      -0.388  -1.155  -0.898  1.00  0.00    -0.3059  N
ATOM      4 C12  CHE L   1       0.769  -1.639  -1.489  1.00  0.00    +0.0131  A
ATOM      5 C13  CHE L   1       1.959  -1.178  -1.067  1.00  0.00    -0.0218  A
ATOM      6 C14  CHE L   1       2.041  -0.177   0.011  1.00  0.00    +0.0428  A
ATOM      7 C24  CHE L   1       0.880   0.271   0.554  1.00  0.00    +0.0044  A
ATOM      8 C25  CHE L   1      -0.386  -0.208   0.114  1.00  0.00    +0.1402  A
ATOM      9 N26  CHE L   1      -1.611   0.086   0.500  1.00  0.00    -0.2276 NA
ATOM     10 H37  CHE L   1      -1.982  -2.189  -1.904  1.00  0.00    +0.0835  H
ATOM     11 H38  CHE L   1       0.663  -2.373  -2.276  1.00  0.00    +0.0814  H
ATOM     12 H39  CHE L   1       2.867  -1.543  -1.531  1.00  0.00    +0.0653  H
ATOM     13 H50  CHE L   1       0.866   1.004   1.350  1.00  0.00    +0.0675  H
ENDROOT
BRANCH 1 17
ATOM     14  C3  CHE L   1      -6.706  -0.720  -0.018  1.00  0.00    +0.1418  A
ATOM     15  C4  CHE L   1      -6.025   0.486  -0.199  1.00  0.00    +0.0239  A
ATOM     16  C5  CHE L   1      -4.625   0.506  -0.267  1.00  0.00    +0.1328  A
ATOM     17  C8  CHE L   1      -3.880  -0.680  -0.193  1.00  0.00    +0.0451  A
ATOM     18 C27  CHE L   1      -4.563  -1.888  -0.012  1.00  0.00    -0.0271  A
ATOM     19 C28  CHE L   1      -5.959  -1.906   0.079  1.00  0.00    +0.0834  A
ATOM     20 CL29 CHE L   1      -6.731  -3.439   0.305  1.00  0.00    -0.0797 Cl
ATOM     21 H33  CHE L   1      -6.549   1.430  -0.303  1.00  0.00    +0.0691  H
ATOM     22 H51  CHE L   1      -4.009  -2.821   0.070  1.00  0.00    +0.0641  H
BRANCH 14 24
ATOM     23  C1  CHE L   1      -8.842   0.350  -0.038  1.00  0.00    +0.0789  C
ATOM     24  O2  CHE L   1      -8.069  -0.838   0.069  1.00  0.00    -0.4935 OA
ATOM     25 H30  CHE L   1      -9.896   0.072   0.054  1.00  0.00    +0.0660  H
ATOM     26 H31  CHE L   1      -8.706   0.823  -1.016  1.00  0.00    +0.0660  H
ATOM     27 H32  CHE L   1      -8.610   1.046   0.775  1.00  0.00    +0.0660  H
ENDBRANCH 14 24
BRANCH 16 28
ATOM     28  O6  CHE L   1      -4.014   1.711  -0.511  1.00  0.00    -0.4943 OA
ATOM     29  C7  CHE L   1      -3.836   2.431   0.710  1.00  0.00    +0.0788  C
ATOM     30 H34  CHE L   1      -3.449   1.800   1.518  1.00  0.00    +0.0660  H
ATOM     31 H35  CHE L   1      -3.113   3.230   0.526  1.00  0.00    +0.0660  H
ATOM     32 H36  CHE L   1      -4.781   2.891   1.018  1.00  0.00    +0.0660  H
ENDBRANCH 16 28
ENDBRANCH 1 17
BRANCH 6 33
ATOM     33 N15  CHE L   1       3.302   0.266   0.414  1.00  0.00    -0.3684  N
ATOM     34 C16  CHE L   1       3.537   1.292   1.437  1.00  0.00    +0.0206  C
ATOM     35 C17  CHE L   1       5.017   1.629   1.315  1.00  0.00    -0.0132  C
ATOM     36 C18  CHE L   1       5.637   0.289   0.955  1.00  0.00    +0.0504  C
ATOM     37 C23  CHE L   1       4.588  -0.331   0.010  1.00  0.00    +0.0390  C
ATOM     38 H40  CHE L   1       3.314   0.884   2.430  1.00  0.00    +0.0488  H
ATOM     39 H41  CHE L   1       2.930   2.188   1.273  1.00  0.00    +0.0488  H
ATOM     40 H42  CHE L   1       5.170   2.360   0.511  1.00  0.00    +0.0303  H
ATOM     41 H43  CHE L   1       5.427   2.053   2.237  1.00  0.00    +0.0303  H
ATOM     42 H44  CHE L   1       5.722  -0.335   1.855  1.00  0.00    +0.0541  H
ATOM     43 H48  CHE L   1       4.799  -0.076  -1.035  1.00  0.00    +0.0508  H
ATOM     44 H49  CHE L   1       4.582  -1.421   0.117  1.00  0.00    +0.0508  H
BRANCH 36 45
ATOM     45 N19  CHE L   1       6.961   0.433   0.374  1.00  0.00    -0.3339  N
ATOM     46 C20  CHE L   1       7.699  -0.682   0.104  1.00  0.00    +0.3139  C
ATOM     47 N21  CHE L   1       8.860  -0.382  -0.528  1.00  0.00    -0.3520  N
ATOM     48 O22  CHE L   1       7.381  -1.829   0.373  1.00  0.00    -0.2477 OA
ATOM     49 H45  CHE L   1       7.089   1.173  -0.302  1.00  0.00    +0.1644 HD
ATOM     50 H46  CHE L   1       9.467  -1.188  -0.624  1.00  0.00    +0.1603 HD
ATOM     51 H47  CHE L   1       9.334   0.447  -0.197  1.00  0.00    +0.1603 HD
ENDBRANCH 36 45
ENDBRANCH 6 33
TORSDOF 5
