ROOT
ATOM      1  C3  CHE L   1       7.095   1.453  -1.129  1.00  0.00    +0.1274  A
ATOM      2  C4  CHE L   1       8.021   0.895  -0.260  1.00  0.00    -0.0191  A
ATOM      3  C5  CHE L   1       7.626  -0.157   0.559  1.00  0.00    -0.0491  A
ATOM      4  C6  CHE L   1       6.309  -0.621   0.497  1.00  0.00    +0.0008  A
ATOM      5  C7  CHE L   1       5.858  -1.679   1.303  1.00  0.00    -0.0491  A
ATOM      6  C8  CHE L   1       4.534  -2.115   1.222  1.00  0.00    -0.0192  A
ATOM      7  C9  CHE L   1       3.658  -1.495   0.337  1.00  0.00    +0.1230  A
ATOM      8 C32  CHE L   1       4.122  -0.448  -0.468  1.00  0.00    +0.0061  A
ATOM      9 C33  CHE L   1       5.431   0.009  -0.406  1.00  0.00    +0.0767  A
ATOM     10 N34  CHE L   1       5.820   1.026  -1.198  1.00  0.00    -0.2300 NA
ATOM     11 H39  CHE L   1       9.031   1.283  -0.202  1.00  0.00    +0.0654  H
ATOM     12 H40  CHE L   1       8.344  -0.598   1.245  1.00  0.00    +0.0625  H
ATOM     13 H41  CHE L   1       6.536  -2.169   1.999  1.00  0.00    +0.0625  H
ATOM     14 H42  CHE L   1       4.228  -2.940   1.856  1.00  0.00    +0.0654  H
ATOM     15 H60  CHE L   1       3.435   0.034  -1.162  1.00  0.00    +0.0676  H
ENDROOT
BRANCH 1 17
ATOM     16  C1  CHE L   1       8.485   2.233  -2.908  1.00  0.00    +0.0054  C
ATOM     17  N2  CHE L   1       7.416   2.523  -1.967  1.00  0.00    -0.3727  N
ATOM     18 H35  CHE L   1       8.599   3.083  -3.588  1.00  0.00    +0.0450  H
ATOM     19 H36  CHE L   1       9.445   2.091  -2.404  1.00  0.00    +0.0450  H
ATOM     20 H37  CHE L   1       8.257   1.349  -3.512  1.00  0.00    +0.0450  H
ATOM     21 H38  CHE L   1       6.541   2.712  -2.457  1.00  0.00    +0.1607 HD
ENDBRANCH 1 17
BRANCH 7 22
ATOM     22 O10  CHE L   1       2.342  -1.818   0.153  1.00  0.00    -0.4873 OA
BRANCH 22 23
ATOM     23 C11  CHE L   1       1.751  -2.704   1.102  1.00  0.00    +0.1161  C
ATOM     24 H43  CHE L   1       1.896  -2.334   2.124  1.00  0.00    +0.0748  H
ATOM     25 H44  CHE L   1       2.205  -3.697   1.000  1.00  0.00    +0.0748  H
BRANCH 23 26
ATOM     26 C12  CHE L   1       0.270  -2.795   0.845  1.00  0.00    +0.0096  A
ATOM     27 C13  CHE L   1      -0.381  -4.019   0.879  1.00  0.00    +0.0341  A
ATOM     28 N14  CHE L   1      -1.710  -4.169   0.702  1.00  0.00    -0.2608 NA
ATOM     29 C15  CHE L   1      -2.429  -3.041   0.474  1.00  0.00    +0.0514  A
ATOM     30 C16  CHE L   1      -1.892  -1.758   0.424  1.00  0.00    +0.0664  A
ATOM     31 C31  CHE L   1      -0.512  -1.650   0.623  1.00  0.00    -0.0285  A
ATOM     32 H45  CHE L   1       0.157  -4.946   1.059  1.00  0.00    +0.0833  H
ATOM     33 H46  CHE L   1      -3.482  -3.252   0.320  1.00  0.00    +0.0851  H
ATOM     34 H59  CHE L   1      -0.003  -0.692   0.620  1.00  0.00    +0.0643  H
BRANCH 30 35
ATOM     35 N17  CHE L   1      -2.727  -0.618   0.180  1.00  0.00    -0.2990  N
ATOM     36 C18  CHE L   1      -4.115  -0.644   0.115  1.00  0.00    +0.0159  A
ATOM     37 C19  CHE L   1      -4.616   0.619  -0.140  1.00  0.00    -0.0157  A
ATOM     38 C25  CHE L   1      -3.481   1.473  -0.240  1.00  0.00    +0.0407  A
ATOM     39 C26  CHE L   1      -3.288   2.834  -0.482  1.00  0.00    +0.0403  A
ATOM     40 N27  CHE L   1      -2.041   3.347  -0.519  1.00  0.00    -0.2430 NA
ATOM     41 C28  CHE L   1      -1.018   2.502  -0.317  1.00  0.00    +0.1183  A
ATOM     42 N29  CHE L   1      -1.076   1.185  -0.074  1.00  0.00    -0.2174 NA
ATOM     43 C30  CHE L   1      -2.337   0.705  -0.038  1.00  0.00    +0.1487  A
ATOM     44 H47  CHE L   1      -4.661  -1.562   0.275  1.00  0.00    +0.0816  H
ATOM     45 H57  CHE L   1      -4.102   3.529  -0.649  1.00  0.00    +0.0837  H
ATOM     46 H58  CHE L   1      -0.024   2.937  -0.359  1.00  0.00    +0.1047  H
BRANCH 37 47
ATOM     47 C20  CHE L   1      -6.049   1.043  -0.280  1.00  0.00    -0.0138  C
ATOM     48 C21  CHE L   1      -6.571   1.822   0.935  1.00  0.00    -0.0461  C
ATOM     49 C22  CHE L   1      -8.064   1.506   1.038  1.00  0.00    -0.0525  C
ATOM     50 C23  CHE L   1      -8.386   0.607  -0.148  1.00  0.00    -0.0525  C
ATOM     51 C24  CHE L   1      -7.068  -0.085  -0.448  1.00  0.00    -0.0461  C
ATOM     52 H48  CHE L   1      -6.124   1.692  -1.164  1.00  0.00    +0.0349  H
ATOM     53 H49  CHE L   1      -6.405   2.898   0.808  1.00  0.00    +0.0271  H
ATOM     54 H50  CHE L   1      -6.066   1.527   1.863  1.00  0.00    +0.0271  H
ATOM     55 H51  CHE L   1      -8.264   0.977   1.978  1.00  0.00    +0.0265  H
ATOM     56 H52  CHE L   1      -8.678   2.413   1.033  1.00  0.00    +0.0265  H
ATOM     57 H53  CHE L   1      -8.698   1.215  -1.006  1.00  0.00    +0.0265  H
ATOM     58 H54  CHE L   1      -9.188  -0.102   0.076  1.00  0.00    +0.0265  H
ATOM     59 H55  CHE L   1      -7.047  -0.519  -1.452  1.00  0.00    +0.0271  H
ATOM     60 H56  CHE L   1      -6.910  -0.894   0.276  1.00  0.00    +0.0271  H
ENDBRANCH 37 47
ENDBRANCH 30 35
ENDBRANCH 23 26
ENDBRANCH 22 23
ENDBRANCH 7 22
TORSDOF 6
