ROOT
ATOM      1  O1  MCU L   1       7.654   1.776  -1.488  1.00  0.00    -0.5068 OA
ATOM      2  C2  MCU L   1       6.413   1.351  -1.124  1.00  0.00    +0.1170  A
ATOM      3  C3  MCU L   1       5.607   2.100  -0.279  1.00  0.00    -0.0182  A
ATOM      4  C4  MCU L   1       4.336   1.622   0.070  1.00  0.00    -0.0350  A
ATOM      5  C5  MCU L   1       3.847   0.402  -0.424  1.00  0.00    +0.0382  A
ATOM      6 C29  MCU L   1       4.702  -0.333  -1.265  1.00  0.00    -0.0350  A
ATOM      7 C30  MCU L   1       5.971   0.136  -1.620  1.00  0.00    -0.0182  A
ATOM      8 H31  MCU L   1       7.854   2.597  -1.007  1.00  0.00    +0.2921 HD
ATOM      9 H32  MCU L   1       5.940   3.053   0.119  1.00  0.00    +0.0655  H
ATOM     10 H33  MCU L   1       3.734   2.242   0.726  1.00  0.00    +0.0639  H
ATOM     11 H56  MCU L   1       4.396  -1.309  -1.633  1.00  0.00    +0.0639  H
ATOM     12 H57  MCU L   1       6.610  -0.455  -2.269  1.00  0.00    +0.0655  H
ENDROOT
BRANCH 5 13
ATOM     13  N6  MCU L   1       2.586  -0.119  -0.093  1.00  0.00    -0.3681  N
ATOM     14  C7  MCU L   1       1.713  -0.373  -1.262  1.00  0.00    +0.0314  C
ATOM     15  C8  MCU L   1       0.463  -1.188  -0.848  1.00  0.00    +0.0175  C
ATOM     16  N9  MCU L   1      -0.287  -0.561   0.261  1.00  0.00    -0.2857 NA
ATOM     17 C27  MCU L   1       0.624  -0.374   1.412  1.00  0.00    +0.0175  C
ATOM     18 C28  MCU L   1       1.857   0.485   1.041  1.00  0.00    +0.0314  C
ATOM     19 H34  MCU L   1       2.230  -0.943  -2.043  1.00  0.00    +0.0500  H
ATOM     20 H35  MCU L   1       1.400   0.584  -1.703  1.00  0.00    +0.0500  H
ATOM     21 H36  MCU L   1      -0.185  -1.277  -1.728  1.00  0.00    +0.0444  H
ATOM     22 H37  MCU L   1       0.789  -2.199  -0.572  1.00  0.00    +0.0444  H
ATOM     23 H52  MCU L   1       0.983  -1.340   1.785  1.00  0.00    +0.0444  H
ATOM     24 H53  MCU L   1       0.105   0.132   2.234  1.00  0.00    +0.0444  H
ATOM     25 H54  MCU L   1       2.506   0.541   1.924  1.00  0.00    +0.0500  H
ATOM     26 H55  MCU L   1       1.525   1.500   0.786  1.00  0.00    +0.0500  H
BRANCH 16 27
ATOM     27 C10  MCU L   1      -1.553  -1.263   0.579  1.00  0.00    +0.0978  C
ATOM     28 H38  MCU L   1      -2.110  -1.325  -0.369  1.00  0.00    +0.0594  H
BRANCH 27 29
ATOM     29 C11  MCU L   1      -1.420  -2.715   1.042  1.00  0.00    -0.0200  A
ATOM     30 C12  MCU L   1      -1.631  -3.760   0.128  1.00  0.00    -0.0385  A
ATOM     31 C13  MCU L   1      -1.514  -5.075   0.557  1.00  0.00    +0.0279  A
ATOM     32 N14  MCU L   1      -1.196  -5.426   1.819  1.00  0.00    -0.2632 NA
ATOM     33 C15  MCU L   1      -0.993  -4.416   2.691  1.00  0.00    +0.0279  A
ATOM     34 C16  MCU L   1      -1.087  -3.071   2.357  1.00  0.00    -0.0385  A
ATOM     35 H39  MCU L   1      -1.891  -3.564  -0.908  1.00  0.00    +0.0636  H
ATOM     36 H40  MCU L   1      -1.684  -5.905  -0.126  1.00  0.00    +0.0829  H
ATOM     37 H41  MCU L   1      -0.748  -4.724   3.705  1.00  0.00    +0.0829  H
ATOM     38 H42  MCU L   1      -0.921  -2.322   3.124  1.00  0.00    +0.0636  H
ENDBRANCH 27 29
BRANCH 27 39
ATOM     39 C17  MCU L   1      -2.444  -0.403   1.445  1.00  0.00    +0.1732  A
ATOM     40 N18  MCU L   1      -2.781  -0.579   2.710  1.00  0.00    -0.1114 NA
ATOM     41 N19  MCU L   1      -3.616   0.455   3.042  1.00  0.00    -0.0230 NA
ATOM     42 N20  MCU L   1      -3.794   1.268   2.015  1.00  0.00    -0.0436 NA
ATOM     43 N21  MCU L   1      -3.053   0.754   1.017  1.00  0.00    -0.2244  N
BRANCH 43 44
ATOM     44 C22  MCU L   1      -3.027   1.390  -0.278  1.00  0.00    +0.0564  C
ATOM     45 C23  MCU L   1      -4.367   1.295  -1.034  1.00  0.00    -0.0304  C
ATOM     46 C24  MCU L   1      -4.632   2.690  -1.603  1.00  0.00    -0.0511  C
ATOM     47 C25  MCU L   1      -3.289   3.407  -1.540  1.00  0.00    -0.0511  C
ATOM     48 C26  MCU L   1      -2.679   2.884  -0.248  1.00  0.00    -0.0304  C
ATOM     49 H43  MCU L   1      -2.265   0.888  -0.887  1.00  0.00    +0.0546  H
ATOM     50 H44  MCU L   1      -5.204   0.971  -0.403  1.00  0.00    +0.0286  H
ATOM     51 H45  MCU L   1      -4.280   0.561  -1.848  1.00  0.00    +0.0286  H
ATOM     52 H46  MCU L   1      -5.362   3.214  -0.971  1.00  0.00    +0.0266  H
ATOM     53 H47  MCU L   1      -5.036   2.650  -2.620  1.00  0.00    +0.0266  H
ATOM     54 H48  MCU L   1      -3.397   4.498  -1.540  1.00  0.00    +0.0266  H
ATOM     55 H49  MCU L   1      -2.666   3.120  -2.396  1.00  0.00    +0.0266  H
ATOM     56 H50  MCU L   1      -3.132   3.397   0.609  1.00  0.00    +0.0286  H
ATOM     57 H51  MCU L   1      -1.598   3.054  -0.202  1.00  0.00    +0.0286  H
ENDBRANCH 43 44
ENDBRANCH 27 39
ENDBRANCH 16 27
ENDBRANCH 5 13
TORSDOF 5
