ROOT
ATOM      1 C11  CHE L   1      -4.077   0.484   0.548  1.00  0.00    -0.0325  A
ATOM      2 C12  CHE L   1      -4.571   1.632  -0.088  1.00  0.00    -0.0573  A
ATOM      3 C13  CHE L   1      -5.937   1.768  -0.345  1.00  0.00    -0.0604  A
ATOM      4 C14  CHE L   1      -6.822   0.756   0.026  1.00  0.00    -0.0477  A
ATOM      5 C15  CHE L   1      -6.337  -0.391   0.650  1.00  0.00    +0.0182  A
ATOM      6 BR16 CHE L   1      -7.535  -1.767   1.146  1.00  0.00    -0.0503 Br
ATOM      7 C17  CHE L   1      -4.974  -0.533   0.910  1.00  0.00    -0.0434  A
ATOM      8 H36  CHE L   1      -3.894   2.429  -0.388  1.00  0.00    +0.0621  H
ATOM      9 H37  CHE L   1      -6.311   2.663  -0.836  1.00  0.00    +0.0618  H
ATOM     10 H38  CHE L   1      -7.883   0.869  -0.179  1.00  0.00    +0.0629  H
ATOM     11 H39  CHE L   1      -4.597  -1.436   1.386  1.00  0.00    +0.0632  H
ENDROOT
BRANCH 1 12
ATOM     12 C10  CHE L   1      -2.598   0.325   0.821  1.00  0.00    +0.0215  C
ATOM     13 H34  CHE L   1      -2.106   1.298   0.711  1.00  0.00    +0.0474  H
ATOM     14 H35  CHE L   1      -2.481   0.024   1.868  1.00  0.00    +0.0474  H
BRANCH 12 15
ATOM     15  N9  CHE L   1      -2.018  -0.672  -0.074  1.00  0.00    -0.3092 NA
ATOM     16 H33  CHE L   1      -2.298  -0.466  -1.033  1.00  0.00    +0.1225 HD
BRANCH 15 20
ATOM     17  N5  CHE L   1       2.209  -0.723   0.147  1.00  0.00    -0.3010 NA
ATOM     18  C6  CHE L   1       1.609   0.548  -0.258  1.00  0.00    +0.0003  C
ATOM     19  C7  CHE L   1       0.175   0.330  -0.762  1.00  0.00    -0.0247  C
ATOM     20  C8  CHE L   1      -0.554  -0.801  -0.011  1.00  0.00    +0.0102  C
ATOM     21 C18  CHE L   1       0.023  -0.971   1.395  1.00  0.00    -0.0247  C
ATOM     22 C19  CHE L   1       1.526  -1.282   1.330  1.00  0.00    +0.0003  C
ATOM     23 H28  CHE L   1       2.170   1.022  -1.070  1.00  0.00    +0.0427  H
ATOM     24 H29  CHE L   1       1.611   1.259   0.578  1.00  0.00    +0.0427  H
ATOM     25 H30  CHE L   1       0.191   0.083  -1.832  1.00  0.00    +0.0293  H
ATOM     26 H31  CHE L   1      -0.358   1.284  -0.678  1.00  0.00    +0.0293  H
ATOM     27 H32  CHE L   1      -0.334  -1.731  -0.554  1.00  0.00    +0.0461  H
ATOM     28 H40  CHE L   1      -0.120  -0.050   1.975  1.00  0.00    +0.0293  H
ATOM     29 H41  CHE L   1      -0.491  -1.776   1.934  1.00  0.00    +0.0293  H
ATOM     30 H42  CHE L   1       1.981  -0.920   2.262  1.00  0.00    +0.0427  H
ATOM     31 H43  CHE L   1       1.662  -2.370   1.313  1.00  0.00    +0.0427  H
BRANCH 17 32
ATOM     32  C4  CHE L   1       3.661  -0.627   0.396  1.00  0.00    +0.0114  C
ATOM     33 H26  CHE L   1       3.869   0.198   1.087  1.00  0.00    +0.0439  H
ATOM     34 H27  CHE L   1       3.997  -1.549   0.889  1.00  0.00    +0.0439  H
BRANCH 32 35
ATOM     35  C3  CHE L   1       4.493  -0.482  -0.900  1.00  0.00    +0.0084  C
ATOM     36 H24  CHE L   1       4.239   0.437  -1.440  1.00  0.00    +0.0436  H
ATOM     37 H25  CHE L   1       4.235  -1.315  -1.565  1.00  0.00    +0.0436  H
BRANCH 35 39
ATOM     38  C1  CHE L   1       6.457   0.671  -0.041  1.00  0.00    -0.0157  C
ATOM     39  N2  CHE L   1       5.947  -0.536  -0.679  1.00  0.00    -0.3178 NA
ATOM     40 H20  CHE L   1       7.547   0.605   0.036  1.00  0.00    +0.0388  H
ATOM     41 H21  CHE L   1       6.070   0.788   0.975  1.00  0.00    +0.0388  H
ATOM     42 H22  CHE L   1       6.217   1.567  -0.624  1.00  0.00    +0.0388  H
ATOM     43 H23  CHE L   1       6.404  -0.644  -1.585  1.00  0.00    +0.1217 HD
ENDBRANCH 35 39
ENDBRANCH 32 35
ENDBRANCH 17 32
ENDBRANCH 15 20
ENDBRANCH 12 15
ENDBRANCH 1 12
TORSDOF 6
