ROOT
ATOM      1  C9  WH0 L   1       1.306  -0.568   0.348  1.00  0.00    -0.0453  A
ATOM      2 C10  WH0 L   1       0.785  -0.202  -0.915  1.00  0.00    -0.0581  A
ATOM      3 C11  WH0 L   1      -0.451  -0.684  -1.358  1.00  0.00    -0.0528  A
ATOM      4 C12  WH0 L   1      -1.160  -1.528  -0.518  1.00  0.00    +0.0212  A
ATOM      5 C13  WH0 L   1      -0.639  -1.886   0.730  1.00  0.00    +0.0488  A
ATOM      6 C14  WH0 L   1       0.579  -1.428   1.186  1.00  0.00    -0.0347  A
ATOM      7 N15  WH0 L   1      -1.531  -2.700   1.419  1.00  0.00    -0.3228  N
ATOM      8 C16  WH0 L   1      -2.700  -2.908   0.683  1.00  0.00    +0.2665  C
ATOM      9 O17  WH0 L   1      -3.675  -3.533   1.075  1.00  0.00    -0.2689 OA
ATOM     10 C18  WH0 L   1      -2.496  -2.205  -0.710  1.00  0.00    +0.2010  C
ATOM     11 S19  WH0 L   1      -2.334  -3.540  -1.956  1.00  0.00    -0.1088 SA
ATOM     12 C20  WH0 L   1      -4.090  -3.485  -2.314  1.00  0.00    +0.0758  C
ATOM     13 C21  WH0 L   1      -4.567  -2.099  -1.927  1.00  0.00    +0.2395  C
ATOM     14 O22  WH0 L   1      -5.675  -1.704  -2.282  1.00  0.00    -0.2717 OA
ATOM     15 N23  WH0 L   1      -3.636  -1.401  -1.134  1.00  0.00    -0.2840  N
ATOM     16 H40  WH0 L   1       1.350   0.469  -1.561  1.00  0.00    +0.0620  H
ATOM     17 H41  WH0 L   1      -0.842  -0.396  -2.330  1.00  0.00    +0.0622  H
ATOM     18 H42  WH0 L   1       0.958  -1.713   2.161  1.00  0.00    +0.0641  H
ATOM     19 H43  WH0 L   1      -1.398  -3.063   2.352  1.00  0.00    +0.1687 HD
ATOM     20 H44  WH0 L   1      -4.263  -3.652  -3.381  1.00  0.00    +0.0474  H
ATOM     21 H45  WH0 L   1      -4.628  -4.232  -1.723  1.00  0.00    +0.0474  H
ENDROOT
BRANCH 1 22
ATOM     22  C8  WH0 L   1       2.627   0.002   0.809  1.00  0.00    -0.0260  C
ATOM     23 H38  WH0 L   1       3.309   0.050  -0.048  1.00  0.00    +0.0314  H
ATOM     24 H39  WH0 L   1       3.090  -0.682   1.531  1.00  0.00    +0.0314  H
BRANCH 22 25
ATOM     25  C7  WH0 L   1       2.444   1.386   1.434  1.00  0.00    -0.0315  C
ATOM     26 H36  WH0 L   1       1.728   1.319   2.264  1.00  0.00    +0.0285  H
ATOM     27 H37  WH0 L   1       2.009   2.074   0.699  1.00  0.00    +0.0285  H
BRANCH 25 28
ATOM     28  C6  WH0 L   1       3.747   1.968   1.969  1.00  0.00    +0.0187  C
ATOM     29 H34  WH0 L   1       4.192   1.294   2.703  1.00  0.00    +0.0486  H
ATOM     30 H35  WH0 L   1       3.543   2.914   2.471  1.00  0.00    +0.0486  H
BRANCH 28 33
ATOM     31  C3  WH0 L   1       5.813   1.486   0.716  1.00  0.00    +0.2443  C
ATOM     32  O4  WH0 L   1       6.112   0.515   1.399  1.00  0.00    -0.2683 OA
ATOM     33  N5  WH0 L   1       4.695   2.261   0.913  1.00  0.00    -0.3525  N
ATOM     34 H33  WH0 L   1       4.508   3.050   0.310  1.00  0.00    +0.1626 HD
BRANCH 31 36
ATOM     35  C1  WH0 L   1       7.836   1.409  -0.658  1.00  0.00    -0.0936  C
ATOM     36  C2  WH0 L   1       6.636   1.946  -0.432  1.00  0.00    -0.0047  C
ATOM     37 H30  WH0 L   1       8.441   1.732  -1.499  1.00  0.00    +0.0536  H
ATOM     38 H31  WH0 L   1       8.239   0.626  -0.013  1.00  0.00    +0.0536  H
ATOM     39 H32  WH0 L   1       6.237   2.714  -1.088  1.00  0.00    +0.0666  H
ENDBRANCH 31 36
ENDBRANCH 28 33
ENDBRANCH 25 28
ENDBRANCH 22 25
ENDBRANCH 1 22
BRANCH 15 40
ATOM     40 C24  WH0 L   1      -3.891  -0.069  -0.663  1.00  0.00    +0.0468  A
ATOM     41 C25  WH0 L   1      -3.376   0.418   0.547  1.00  0.00    -0.0380  A
ATOM     42 C26  WH0 L   1      -3.617   1.734   0.969  1.00  0.00    -0.0598  A
ATOM     43 C27  WH0 L   1      -4.391   2.588   0.195  1.00  0.00    -0.0616  A
ATOM     44 C28  WH0 L   1      -4.921   2.128  -1.003  1.00  0.00    -0.0598  A
ATOM     45 C29  WH0 L   1      -4.668   0.820  -1.428  1.00  0.00    -0.0380  A
ATOM     46 H46  WH0 L   1      -2.803  -0.202   1.222  1.00  0.00    +0.0638  H
ATOM     47 H47  WH0 L   1      -3.216   2.075   1.920  1.00  0.00    +0.0618  H
ATOM     48 H48  WH0 L   1      -4.591   3.602   0.529  1.00  0.00    +0.0618  H
ATOM     49 H49  WH0 L   1      -5.538   2.779  -1.614  1.00  0.00    +0.0618  H
ATOM     50 H50  WH0 L   1      -5.088   0.519  -2.383  1.00  0.00    +0.0638  H
ENDBRANCH 15 40
TORSDOF 6
