ROOT
ATOM      1 C25  MCU L   1       4.629   0.036   0.106  1.00  0.00    +0.1703  A
ATOM      2 N26  MCU L   1       5.209   1.194  -0.298  1.00  0.00    -0.2228 NA
ATOM      3 C27  MCU L   1       6.541   1.029  -0.500  1.00  0.00    +0.0805  A
ATOM      4 C28  MCU L   1       7.406   2.040  -0.921  1.00  0.00    -0.0351  A
ATOM      5 C29  MCU L   1       8.767   1.736  -1.095  1.00  0.00    -0.0597  A
ATOM      6 C30  MCU L   1       9.246   0.434  -0.848  1.00  0.00    -0.0606  A
ATOM      7 C31  MCU L   1       8.367  -0.576  -0.423  1.00  0.00    -0.0458  A
ATOM      8 C32  MCU L   1       7.023  -0.248  -0.258  1.00  0.00    +0.0410  A
ATOM      9 S33  MCU L   1       5.755  -1.232   0.230  1.00  0.00    -0.0498  S
ATOM     10 H59  MCU L   1       7.039   3.043  -1.106  1.00  0.00    +0.0639  H
ATOM     11 H60  MCU L   1       9.453   2.509  -1.420  1.00  0.00    +0.0618  H
ATOM     12 H61  MCU L   1      10.296   0.212  -0.986  1.00  0.00    +0.0618  H
ATOM     13 H62  MCU L   1       8.724  -1.579  -0.230  1.00  0.00    +0.0629  H
ENDROOT
BRANCH 1 17
ATOM     14 N21  MCU L   1       0.323  -0.261   0.326  1.00  0.00    -0.2857 NA
ATOM     15 C22  MCU L   1       1.210  -1.440   0.071  1.00  0.00    +0.0176  C
ATOM     16 C23  MCU L   1       2.599  -1.358   0.723  1.00  0.00    +0.0333  C
ATOM     17 N24  MCU L   1       3.221  -0.075   0.390  1.00  0.00    -0.3478  N
ATOM     18 C34  MCU L   1       2.393   1.134   0.413  1.00  0.00    +0.0333  C
ATOM     19 C35  MCU L   1       1.024   0.842   1.035  1.00  0.00    +0.0176  C
ATOM     20 H55  MCU L   1       1.373  -1.515  -1.025  1.00  0.00    +0.0444  H
ATOM     21 H56  MCU L   1       0.745  -2.401   0.387  1.00  0.00    +0.0444  H
ATOM     22 H57  MCU L   1       2.510  -1.455   1.827  1.00  0.00    +0.0501  H
ATOM     23 H58  MCU L   1       3.206  -2.209   0.347  1.00  0.00    +0.0501  H
ATOM     24 H63  MCU L   1       2.894   1.921   1.020  1.00  0.00    +0.0501  H
ATOM     25 H64  MCU L   1       2.262   1.512  -0.625  1.00  0.00    +0.0501  H
ATOM     26 H65  MCU L   1       1.158   0.592   2.112  1.00  0.00    +0.0444  H
ATOM     27 H66  MCU L   1       0.433   1.780   0.978  1.00  0.00    +0.0444  H
BRANCH 14 28
ATOM     28 C11  MCU L   1      -0.939  -0.661   1.023  1.00  0.00    +0.0978  C
ATOM     29 H47  MCU L   1      -0.625  -1.264   1.909  1.00  0.00    +0.0594  H
BRANCH 28 34
ATOM     30  N6  MCU L   1      -2.400   1.543   1.014  1.00  0.00    -0.2218  N
ATOM     31  N7  MCU L   1      -2.820   2.297   2.020  1.00  0.00    -0.0433 NA
ATOM     32  N8  MCU L   1      -2.433   1.785   3.173  1.00  0.00    -0.0229 NA
ATOM     33  N9  MCU L   1      -1.750   0.677   2.956  1.00  0.00    -0.1114 NA
ATOM     34 C10  MCU L   1      -1.727   0.510   1.618  1.00  0.00    +0.1734  A
BRANCH 30 35
ATOM     35  C3  MCU L   1      -2.754   1.859  -0.401  1.00  0.00    +0.0615  C
ATOM     36  C4  MCU L   1      -3.875   0.920  -0.893  1.00  0.00    -0.0399  C
ATOM     37  C5  MCU L   1      -1.526   1.727  -1.325  1.00  0.00    -0.0399  C
ATOM     38 H41  MCU L   1      -4.702   0.876  -0.153  1.00  0.00    +0.0253  H
ATOM     39 H42  MCU L   1      -4.279   1.269  -1.868  1.00  0.00    +0.0253  H
ATOM     40 H43  MCU L   1      -3.517  -0.107  -1.050  1.00  0.00    +0.0253  H
ATOM     41 H44  MCU L   1      -1.176   0.691  -1.392  1.00  0.00    +0.0253  H
ATOM     42 H45  MCU L   1      -0.697   2.374  -0.973  1.00  0.00    +0.0253  H
ATOM     43 H46  MCU L   1      -1.781   2.026  -2.364  1.00  0.00    +0.0253  H
BRANCH 35 45
ATOM     44  C1  MCU L   1      -4.659   3.647  -0.040  1.00  0.00    -0.0631  C
ATOM     45  C2  MCU L   1      -3.231   3.352  -0.528  1.00  0.00    -0.0309  C
ATOM     46 H36  MCU L   1      -5.406   3.199  -0.727  1.00  0.00    +0.0231  H
ATOM     47 H37  MCU L   1      -4.824   4.746  -0.039  1.00  0.00    +0.0231  H
ATOM     48 H38  MCU L   1      -4.841   3.269   0.985  1.00  0.00    +0.0231  H
ATOM     49 H39  MCU L   1      -3.197   3.677  -1.592  1.00  0.00    +0.0286  H
ATOM     50 H40  MCU L   1      -2.522   4.010   0.022  1.00  0.00    +0.0286  H
ENDBRANCH 35 45
ENDBRANCH 30 35
ENDBRANCH 28 34
BRANCH 28 51
ATOM     51 C12  MCU L   1      -1.846  -1.603   0.234  1.00  0.00    -0.0191  A
ATOM     52 C13  MCU L   1      -1.629  -1.939  -1.119  1.00  0.00    -0.0530  A
ATOM     53 C14  MCU L   1      -2.479  -2.831  -1.775  1.00  0.00    -0.0162  A
ATOM     54 C15  MCU L   1      -3.556  -3.411  -1.103  1.00  0.00    +0.1585  A
ATOM     55 O16  MCU L   1      -4.384  -4.296  -1.794  1.00  0.00    -0.5033 OA
ATOM     56 C17  MCU L   1      -3.791  -3.100   0.247  1.00  0.00    +0.1616  A
ATOM     57 C20  MCU L   1      -2.929  -2.202   0.906  1.00  0.00    -0.0112  A
ATOM     58 H48  MCU L   1      -0.821  -1.509  -1.688  1.00  0.00    +0.0622  H
ATOM     59 H49  MCU L   1      -2.299  -3.071  -2.815  1.00  0.00    +0.0655  H
ATOM     60 H50  MCU L   1      -5.182  -4.743  -1.358  1.00  0.00    +0.2923 HD
ATOM     61 H54  MCU L   1      -3.093  -1.959   1.948  1.00  0.00    +0.0659  H
BRANCH 56 62
ATOM     62 O18  MCU L   1      -4.881  -3.698   0.899  1.00  0.00    -0.4914 OA
ATOM     63 C19  MCU L   1      -5.233  -3.469   2.259  1.00  0.00    +0.0790  C
ATOM     64 H51  MCU L   1      -4.395  -3.763   2.926  1.00  0.00    +0.0660  H
ATOM     65 H52  MCU L   1      -5.489  -2.400   2.413  1.00  0.00    +0.0660  H
ATOM     66 H53  MCU L   1      -6.118  -4.090   2.513  1.00  0.00    +0.0660  H
ENDBRANCH 56 62
ENDBRANCH 28 51
ENDBRANCH 14 28
ENDBRANCH 1 17
TORSDOF 7
