ROOT
ATOM      1  N5  449 L   1      -1.534  -0.756   0.447  1.00  0.00    -0.3325  N
ATOM      2  C6  449 L   1      -1.263  -1.817  -0.499  1.00  0.00    +0.0622  C
ATOM      3  C7  449 L   1       0.215  -1.889  -0.391  1.00  0.00    +0.0504  C
ATOM      4  C8  449 L   1       0.731  -1.018   0.473  1.00  0.00    +0.0648  C
ATOM      5  C9  449 L   1      -0.385  -0.294   1.071  1.00  0.00    +0.2550  C
ATOM      6 O10  449 L   1      -0.284   0.532   1.958  1.00  0.00    -0.2676 OA
ATOM      7 C11  449 L   1       2.168  -0.866   0.750  1.00  0.00    +0.0946  C
ATOM      8 N17  449 L   1       2.905  -1.923   0.056  1.00  0.00    -0.3265  N
ATOM      9 C18  449 L   1       2.392  -2.775  -0.879  1.00  0.00    +0.3211  C
ATOM     10 O19  449 L   1       3.106  -3.557  -1.498  1.00  0.00    -0.2471 OA
ATOM     11 N20  449 L   1       1.035  -2.733  -1.075  1.00  0.00    -0.3097  N
ATOM     12 H30  449 L   1      -1.748  -2.739  -0.167  1.00  0.00    +0.0553  H
ATOM     13 H31  449 L   1      -1.596  -1.535  -1.500  1.00  0.00    +0.0553  H
ATOM     14 H32  449 L   1       2.343  -1.049   1.817  1.00  0.00    +0.0631  H
ATOM     15 H36  449 L   1       3.912  -1.943   0.141  1.00  0.00    +0.1650 HD
ATOM     16 H37  449 L   1       0.672  -3.391  -1.754  1.00  0.00    +0.1701 HD
ENDROOT
BRANCH 1 17
ATOM     17  C4  449 L   1      -2.878  -0.317   0.777  1.00  0.00    +0.0242  C
ATOM     18 H28  449 L   1      -2.887  -0.049   1.840  1.00  0.00    +0.0491  H
ATOM     19 H29  449 L   1      -3.553  -1.173   0.658  1.00  0.00    +0.0491  H
BRANCH 17 21
ATOM     20  C1  449 L   1      -3.521   0.586  -1.527  1.00  0.00    -0.0611  C
ATOM     21  C2  449 L   1      -3.394   0.887  -0.034  1.00  0.00    -0.0290  C
ATOM     22  C3  449 L   1      -2.556   2.148   0.183  1.00  0.00    -0.0611  C
ATOM     23 H21  449 L   1      -4.078  -0.341  -1.694  1.00  0.00    +0.0233  H
ATOM     24 H22  449 L   1      -4.059   1.394  -2.034  1.00  0.00    +0.0233  H
ATOM     25 H23  449 L   1      -2.542   0.495  -2.007  1.00  0.00    +0.0233  H
ATOM     26 H24  449 L   1      -4.404   1.102   0.338  1.00  0.00    +0.0312  H
ATOM     27 H25  449 L   1      -2.467   2.378   1.250  1.00  0.00    +0.0233  H
ATOM     28 H26  449 L   1      -3.027   3.009  -0.304  1.00  0.00    +0.0233  H
ATOM     29 H27  449 L   1      -1.549   2.043  -0.233  1.00  0.00    +0.0233  H
ENDBRANCH 17 21
ENDBRANCH 1 17
BRANCH 7 30
ATOM     30 C12  449 L   1       2.790   0.459   0.379  1.00  0.00    +0.0168  A
ATOM     31 C13  449 L   1       3.429   1.355   1.218  1.00  0.00    -0.0492  A
ATOM     32 C14  449 L   1       3.893   2.514   0.531  1.00  0.00    -0.0544  A
ATOM     33 C15  449 L   1       3.593   2.472  -0.811  1.00  0.00    -0.0240  A
ATOM     34 S16  449 L   1       2.753   1.047  -1.238  1.00  0.00    -0.0992  S
ATOM     35 H33  449 L   1       3.550   1.191   2.282  1.00  0.00    +0.0626  H
ATOM     36 H34  449 L   1       4.416   3.339   1.000  1.00  0.00    +0.0623  H
ATOM     37 H35  449 L   1       3.822   3.214  -1.564  1.00  0.00    +0.0693  H
ENDBRANCH 7 30
TORSDOF 3
