ROOT
ATOM      1  O1  232 L   1      -1.289  -2.095   1.248  1.00  0.00    -0.2677 OA
ATOM      2  C2  232 L   1      -1.508  -1.039   0.659  1.00  0.00    +0.2511  C
ATOM      3  N8  232 L   1      -0.520  -0.293   0.023  1.00  0.00    -0.3378  N
ATOM      4  C9  232 L   1      -0.797   0.538  -1.153  1.00  0.00    +0.0215  C
ATOM      5 C10  232 L   1       0.220   1.665  -1.294  1.00  0.00    -0.0345  C
ATOM      6 C11  232 L   1       1.649   1.129  -1.285  1.00  0.00    -0.0385  C
ATOM      7 C12  232 L   1       1.902   0.284  -0.029  1.00  0.00    +0.0549  C
ATOM      8 C19  232 L   1       0.847  -0.821   0.100  1.00  0.00    +0.0327  C
ATOM      9 H25  232 L   1      -1.803   0.960  -1.129  1.00  0.00    +0.0489  H
ATOM     10 H26  232 L   1      -0.758  -0.123  -2.029  1.00  0.00    +0.0489  H
ATOM     11 H27  232 L   1       0.095   2.374  -0.466  1.00  0.00    +0.0282  H
ATOM     12 H28  232 L   1       0.037   2.217  -2.223  1.00  0.00    +0.0282  H
ATOM     13 H29  232 L   1       2.357   1.966  -1.327  1.00  0.00    +0.0274  H
ATOM     14 H30  232 L   1       1.817   0.530  -2.190  1.00  0.00    +0.0274  H
ATOM     15 H31  232 L   1       1.811   0.944   0.844  1.00  0.00    +0.0413  H
ATOM     16 H33  232 L   1       0.950  -1.571  -0.696  1.00  0.00    +0.0496  H
ATOM     17 H34  232 L   1       0.987  -1.349   1.052  1.00  0.00    +0.0496  H
ENDROOT
BRANCH 2 18
ATOM     18  C3  232 L   1      -2.892  -0.522   0.630  1.00  0.00    +0.0234  C
ATOM     19  C4  232 L   1      -3.240   0.706   1.042  1.00  0.00    -0.0651  C
ATOM     20  C5  232 L   1      -4.695   1.024   1.011  1.00  0.00    +0.0128  C
ATOM     21  S6  232 L   1      -5.509  -0.451   0.328  1.00  0.00    -0.1518 SA
ATOM     22  C7  232 L   1      -3.986  -1.453   0.244  1.00  0.00    +0.0239  C
ATOM     23 H20  232 L   1      -2.522   1.434   1.402  1.00  0.00    +0.0585  H
ATOM     24 H21  232 L   1      -5.073   1.227   2.016  1.00  0.00    +0.0419  H
ATOM     25 H22  232 L   1      -4.894   1.887   0.369  1.00  0.00    +0.0419  H
ATOM     26 H23  232 L   1      -4.067  -2.297   0.935  1.00  0.00    +0.0427  H
ATOM     27 H24  232 L   1      -3.855  -1.827  -0.775  1.00  0.00    +0.0427  H
ENDBRANCH 2 18
BRANCH 7 28
ATOM     28 C13  232 L   1       3.267  -0.302  -0.051  1.00  0.00    +0.2255  A
ATOM     29 N14  232 L   1       3.809  -1.144  -0.912  1.00  0.00    -0.1090 NA
ATOM     30 N15  232 L   1       5.102  -1.366  -0.477  1.00  0.00    -0.0719 NA
ATOM     31 C16  232 L   1       5.226  -0.640   0.603  1.00  0.00    +0.4137  A
ATOM     32 O17  232 L   1       6.290  -0.533   1.363  1.00  0.00    -0.4642 OA
ATOM     33 O18  232 L   1       4.127   0.069   0.952  1.00  0.00    -0.3932 OA
ATOM     34 H32  232 L   1       6.917  -1.127   0.916  1.00  0.00    +0.2970 HD
ENDBRANCH 7 28
TORSDOF 2
