ROOT
ATOM      1  C8  490 L   1       0.687   0.644  -0.706  1.00  0.00    +0.2257  C
ATOM      2  O9  490 L   1       0.454   1.768  -1.143  1.00  0.00    -0.2730 OA
ATOM      3 N10  490 L   1      -0.309  -0.246  -0.376  1.00  0.00    -0.3340  N
ATOM      4 C11  490 L   1      -0.255  -1.703  -0.413  1.00  0.00    +0.0291  C
ATOM      5 C12  490 L   1      -1.801  -1.685  -0.406  1.00  0.00    +0.0075  C
ATOM      6 C13  490 L   1      -2.431  -2.555  -1.493  1.00  0.00    -0.0560  C
ATOM      7 C14  490 L   1      -2.365  -2.041   0.974  1.00  0.00    -0.0560  C
ATOM      8 C15  490 L   1      -1.705  -0.177  -0.810  1.00  0.00    +0.0673  C
ATOM      9 H30  490 L   1       0.228  -2.143   0.464  1.00  0.00    +0.0495  H
ATOM     10 H31  490 L   1       0.215  -2.087  -1.325  1.00  0.00    +0.0495  H
ATOM     11 H32  490 L   1      -2.277  -3.618  -1.282  1.00  0.00    +0.0236  H
ATOM     12 H33  490 L   1      -3.510  -2.374  -1.558  1.00  0.00    +0.0236  H
ATOM     13 H34  490 L   1      -1.999  -2.347  -2.478  1.00  0.00    +0.0236  H
ATOM     14 H35  490 L   1      -2.167  -3.092   1.213  1.00  0.00    +0.0236  H
ATOM     15 H36  490 L   1      -1.914  -1.435   1.768  1.00  0.00    +0.0236  H
ATOM     16 H37  490 L   1      -3.449  -1.892   1.008  1.00  0.00    +0.0236  H
ATOM     17 H38  490 L   1      -1.769   0.011  -1.890  1.00  0.00    +0.0582  H
ENDROOT
BRANCH 1 18
ATOM     18  C7  490 L   1       2.093   0.117  -0.514  1.00  0.00    +0.0437  C
ATOM     19 H28  490 L   1       2.153  -0.395   0.452  1.00  0.00    +0.0378  H
ATOM     20 H29  490 L   1       2.297  -0.619  -1.301  1.00  0.00    +0.0378  H
BRANCH 18 21
ATOM     21  C6  490 L   1       3.114   1.246  -0.584  1.00  0.00    +0.0268  C
ATOM     22 H26  490 L   1       2.960   1.956   0.237  1.00  0.00    +0.0491  H
ATOM     23 H27  490 L   1       3.019   1.798  -1.526  1.00  0.00    +0.0491  H
BRANCH 21 26
ATOM     24  C3  490 L   1       5.022   0.269   0.637  1.00  0.00    +0.2443  C
ATOM     25  O4  490 L   1       4.395   0.099   1.675  1.00  0.00    -0.2683 OA
ATOM     26  N5  490 L   1       4.485   0.766  -0.523  1.00  0.00    -0.3520  N
ATOM     27 H25  490 L   1       5.115   1.064  -1.254  1.00  0.00    +0.1626 HD
BRANCH 24 29
ATOM     28  C1  490 L   1       7.174  -0.344  -0.501  1.00  0.00    -0.0936  C
ATOM     29  C2  490 L   1       6.478  -0.018   0.596  1.00  0.00    -0.0047  C
ATOM     30 H22  490 L   1       6.722  -0.430  -1.483  1.00  0.00    +0.0536  H
ATOM     31 H23  490 L   1       8.234  -0.569  -0.425  1.00  0.00    +0.0536  H
ATOM     32 H24  490 L   1       6.958  -0.006   1.570  1.00  0.00    +0.0666  H
ENDBRANCH 24 29
ENDBRANCH 21 26
ENDBRANCH 18 21
ENDBRANCH 1 18
BRANCH 8 33
ATOM     33 C16  490 L   1      -2.602   0.792  -0.008  1.00  0.00    +0.0130  A
ATOM     34 C17  490 L   1      -2.222   1.727   0.966  1.00  0.00    +0.0545  A
ATOM     35 N18  490 L   1      -3.276   2.387   1.458  1.00  0.00    -0.1796 NA
ATOM     36 N19  490 L   1      -4.318   1.888   0.768  1.00  0.00    -0.2742  N
ATOM     37 C20  490 L   1      -5.644   2.392   1.025  1.00  0.00    +0.0302  C
ATOM     38 C21  490 L   1      -3.965   0.920  -0.129  1.00  0.00    +0.0303  A
ATOM     39 H39  490 L   1      -1.234   1.959   1.343  1.00  0.00    +0.0851  H
ATOM     40 H40  490 L   1      -6.361   1.878   0.380  1.00  0.00    +0.0473  H
ATOM     41 H41  490 L   1      -5.653   3.464   0.812  1.00  0.00    +0.0473  H
ATOM     42 H42  490 L   1      -5.886   2.206   2.074  1.00  0.00    +0.0473  H
ATOM     43 H43  490 L   1      -4.692   0.423  -0.755  1.00  0.00    +0.0829  H
ENDBRANCH 8 33
TORSDOF 5
