ROOT
ATOM      1  C1  SEL L   1      -4.203  -0.852  -0.003  1.00  0.00    +0.0145  C
ATOM      2  C2  SEL L   1      -3.279  -1.867  -0.628  1.00  0.00    +0.2209  C
ATOM      3  O3  SEL L   1      -3.709  -2.672  -1.455  1.00  0.00    -0.2733 OA
ATOM      4  N4  SEL L   1      -1.950  -1.850  -0.253  1.00  0.00    -0.3349  N
ATOM      5  C5  SEL L   1      -1.075  -2.910  -0.722  1.00  0.00    +0.0266  C
ATOM      6  C6  SEL L   1       0.288  -2.621  -0.132  1.00  0.00    +0.0010  C
ATOM      7  C7  SEL L   1       1.180  -1.735  -1.000  1.00  0.00    +0.0263  C
ATOM      8  N8  SEL L   1       1.854  -0.880  -0.044  1.00  0.00    -0.3372  N
ATOM      9 C15  SEL L   1       1.272  -0.942   1.285  1.00  0.00    +0.0268  C
ATOM     10 C16  SEL L   1       0.006  -1.780   1.120  1.00  0.00    +0.0074  C
ATOM     11 C17  SEL L   1      -1.343  -1.072   0.837  1.00  0.00    +0.0624  C
ATOM     12 H24  SEL L   1      -4.017   0.137  -0.426  1.00  0.00    +0.0325  H
ATOM     13 H25  SEL L   1      -4.096  -0.833   1.084  1.00  0.00    +0.0325  H
ATOM     14 H26  SEL L   1      -5.238  -1.130  -0.224  1.00  0.00    +0.0325  H
ATOM     15 H27  SEL L   1      -1.469  -3.856  -0.332  1.00  0.00    +0.0492  H
ATOM     16 H28  SEL L   1      -1.081  -2.960  -1.816  1.00  0.00    +0.0492  H
ATOM     17 H29  SEL L   1       0.825  -3.544   0.117  1.00  0.00    +0.0339  H
ATOM     18 H30  SEL L   1       1.895  -2.349  -1.560  1.00  0.00    +0.0492  H
ATOM     19 H31  SEL L   1       0.606  -1.149  -1.724  1.00  0.00    +0.0492  H
ATOM     20 H35  SEL L   1       1.974  -1.468   1.945  1.00  0.00    +0.0492  H
ATOM     21 H36  SEL L   1       1.081   0.037   1.732  1.00  0.00    +0.0492  H
ATOM     22 H37  SEL L   1      -0.131  -2.437   1.988  1.00  0.00    +0.0345  H
ATOM     23 H38  SEL L   1      -1.988  -1.235   1.711  1.00  0.00    +0.0578  H
ENDROOT
BRANCH 8 24
ATOM     24  C9  SEL L   1       2.682   0.112  -0.427  1.00  0.00    +0.2663  A
ATOM     25 N10  SEL L   1       3.103   0.372  -1.674  1.00  0.00    -0.0376 NA
ATOM     26 O11  SEL L   1       3.924   1.485  -1.522  1.00  0.00    -0.3365 OA
ATOM     27 C12  SEL L   1       3.923   1.779  -0.193  1.00  0.00    +0.2258  A
ATOM     28 C13  SEL L   1       4.730   2.935   0.230  1.00  0.00    +0.0148  C
ATOM     29 N14  SEL L   1       3.185   0.964   0.521  1.00  0.00    -0.1766 NA
ATOM     30 H32  SEL L   1       4.656   3.084   1.311  1.00  0.00    +0.0325  H
ATOM     31 H33  SEL L   1       5.783   2.781  -0.023  1.00  0.00    +0.0325  H
ATOM     32 H34  SEL L   1       4.383   3.847  -0.265  1.00  0.00    +0.0325  H
ENDBRANCH 8 24
BRANCH 11 33
ATOM     33 C18  SEL L   1      -1.302   0.423   0.582  1.00  0.00    -0.0246  A
ATOM     34 C19  SEL L   1      -1.416   1.306   1.671  1.00  0.00    -0.0566  A
ATOM     35 C20  SEL L   1      -1.370   2.689   1.482  1.00  0.00    -0.0614  A
ATOM     36 C21  SEL L   1      -1.211   3.212   0.202  1.00  0.00    -0.0617  A
ATOM     37 C22  SEL L   1      -1.103   2.354  -0.889  1.00  0.00    -0.0614  A
ATOM     38 C23  SEL L   1      -1.151   0.971  -0.701  1.00  0.00    -0.0566  A
ATOM     39 H39  SEL L   1      -1.535   0.922   2.682  1.00  0.00    +0.0621  H
ATOM     40 H40  SEL L   1      -1.454   3.357   2.335  1.00  0.00    +0.0618  H
ATOM     41 H41  SEL L   1      -1.172   4.288   0.053  1.00  0.00    +0.0618  H
ATOM     42 H42  SEL L   1      -0.980   2.759  -1.890  1.00  0.00    +0.0618  H
ATOM     43 H43  SEL L   1      -1.076   0.328  -1.574  1.00  0.00    +0.0621  H
ENDBRANCH 11 33
TORSDOF 2
