ROOT
ATOM      1 C27  WH0 L   1      -0.422  -2.210  -0.154  1.00  0.00    -0.0133  A
ATOM      2 C28  WH0 L   1       0.396  -2.559  -1.253  1.00  0.00    -0.0519  A
ATOM      3 C29  WH0 L   1       1.330  -3.596  -1.158  1.00  0.00    -0.0374  A
ATOM      4 C30  WH0 L   1       1.413  -4.260   0.045  1.00  0.00    +0.0454  A
ATOM      5 C31  WH0 L   1       0.612  -3.937   1.137  1.00  0.00    -0.0145  A
ATOM      6 C32  WH0 L   1      -0.314  -2.912   1.058  1.00  0.00    -0.0483  A
ATOM      7 C33  WH0 L   1       0.950  -4.842   2.284  1.00  0.00    +0.0535  C
ATOM      8 C34  WH0 L   1       2.060  -5.716   1.691  1.00  0.00    +0.2296  C
ATOM      9 O35  WH0 L   1       2.665  -6.612   2.256  1.00  0.00    -0.2725 OA
ATOM     10 N36  WH0 L   1       2.260  -5.304   0.378  1.00  0.00    -0.3256  N
ATOM     11 H63  WH0 L   1       0.311  -2.013  -2.191  1.00  0.00    +0.0624  H
ATOM     12 H64  WH0 L   1       1.957  -3.858  -2.002  1.00  0.00    +0.0638  H
ATOM     13 H65  WH0 L   1      -0.923  -2.650   1.918  1.00  0.00    +0.0627  H
ATOM     14 H66  WH0 L   1       1.341  -4.279   3.133  1.00  0.00    +0.0410  H
ATOM     15 H67  WH0 L   1       0.099  -5.471   2.556  1.00  0.00    +0.0410  H
ATOM     16 H68  WH0 L   1       2.945  -5.728  -0.229  1.00  0.00    +0.1686 HD
ENDROOT
BRANCH 1 25
ATOM     17 C11  WH0 L   1      -1.117   0.271  -0.635  1.00  0.00    +0.1015  A
ATOM     18 N12  WH0 L   1      -2.268   0.962  -0.676  1.00  0.00    -0.1627 NA
ATOM     19 N13  WH0 L   1      -3.226   0.068  -0.332  1.00  0.00    -0.1987  N
ATOM     20 C14  WH0 L   1      -4.621   0.383  -0.226  1.00  0.00    +0.2282  A
ATOM     21 N22  WH0 L   1      -5.449  -0.599   0.071  1.00  0.00    -0.2207 NA
ATOM     22 C23  WH0 L   1      -4.942  -1.861   0.269  1.00  0.00    +0.0334  A
ATOM     23 C24  WH0 L   1      -3.647  -2.202   0.202  1.00  0.00    -0.0173  A
ATOM     24 C25  WH0 L   1      -2.710  -1.191  -0.106  1.00  0.00    +0.0803  A
ATOM     25 C26  WH0 L   1      -1.346  -1.094  -0.274  1.00  0.00    +0.0353  A
ATOM     26 H61  WH0 L   1      -5.684  -2.623   0.496  1.00  0.00    +0.0831  H
ATOM     27 H62  WH0 L   1      -3.327  -3.225   0.366  1.00  0.00    +0.0654  H
BRANCH 17 30
ATOM     28  C8  WH0 L   1       2.535   1.265  -0.529  1.00  0.00    -0.0034  A
ATOM     29  C9  WH0 L   1       1.304   0.671  -0.199  1.00  0.00    -0.0458  A
ATOM     30 C10  WH0 L   1       0.152   0.929  -0.949  1.00  0.00    +0.0032  A
ATOM     31 C37  WH0 L   1       0.234   1.823  -2.021  1.00  0.00    -0.0490  A
ATOM     32 C38  WH0 L   1       1.451   2.424  -2.359  1.00  0.00    -0.0191  A
ATOM     33 C39  WH0 L   1       2.607   2.142  -1.627  1.00  0.00    +0.1233  A
ATOM     34 H50  WH0 L   1       1.254  -0.002   0.654  1.00  0.00    +0.0628  H
ATOM     35 H69  WH0 L   1      -0.654   2.049  -2.608  1.00  0.00    +0.0625  H
ATOM     36 H70  WH0 L   1       1.461   3.103  -3.206  1.00  0.00    +0.0654  H
BRANCH 28 37
ATOM     37  C7  WH0 L   1       3.762   0.895   0.277  1.00  0.00    -0.0067  C
ATOM     38 H48  WH0 L   1       4.442   1.753   0.361  1.00  0.00    +0.0331  H
ATOM     39 H49  WH0 L   1       3.462   0.671   1.309  1.00  0.00    +0.0331  H
BRANCH 37 40
ATOM     40  C6  WH0 L   1       4.481  -0.312  -0.328  1.00  0.00    +0.0225  C
ATOM     41 H46  WH0 L   1       3.786  -1.146  -0.469  1.00  0.00    +0.0489  H
ATOM     42 H47  WH0 L   1       4.906  -0.061  -1.307  1.00  0.00    +0.0489  H
BRANCH 40 45
ATOM     43  C3  WH0 L   1       6.795  -0.262   0.515  1.00  0.00    +0.2443  C
ATOM     44  O4  WH0 L   1       7.158   0.632  -0.242  1.00  0.00    -0.2683 OA
ATOM     45  N5  WH0 L   1       5.537  -0.806   0.535  1.00  0.00    -0.3522  N
ATOM     46 H45  WH0 L   1       5.276  -1.405   1.306  1.00  0.00    +0.1626 HD
BRANCH 43 48
ATOM     47  C1  WH0 L   1       7.686  -2.022   2.064  1.00  0.00    -0.0936  C
ATOM     48  C2  WH0 L   1       7.733  -0.789   1.542  1.00  0.00    -0.0047  C
ATOM     49 H42  WH0 L   1       8.435  -2.334   2.785  1.00  0.00    +0.0536  H
ATOM     50 H43  WH0 L   1       6.940  -2.753   1.778  1.00  0.00    +0.0536  H
ATOM     51 H44  WH0 L   1       8.533  -0.104   1.803  1.00  0.00    +0.0666  H
ENDBRANCH 43 48
ENDBRANCH 40 45
ENDBRANCH 37 40
ENDBRANCH 28 37
BRANCH 33 52
ATOM     52 O40  WH0 L   1       3.846   2.656  -1.896  1.00  0.00    -0.4948 OA
ATOM     53 C41  WH0 L   1       3.973   3.522  -3.014  1.00  0.00    +0.0788  C
ATOM     54 H71  WH0 L   1       3.738   2.995  -3.945  1.00  0.00    +0.0660  H
ATOM     55 H72  WH0 L   1       3.354   4.420  -2.897  1.00  0.00    +0.0660  H
ATOM     56 H73  WH0 L   1       5.017   3.844  -3.067  1.00  0.00    +0.0660  H
ENDBRANCH 33 52
ENDBRANCH 17 30
BRANCH 20 57
ATOM     57 N15  WH0 L   1      -5.116   1.688  -0.421  1.00  0.00    -0.3401  N
ATOM     58 C16  WH0 L   1      -4.269   2.872  -0.186  1.00  0.00    +0.0237  C
ATOM     59 C17  WH0 L   1      -5.078   4.156  -0.000  1.00  0.00    -0.0090  C
ATOM     60 C18  WH0 L   1      -6.212   3.994   1.013  1.00  0.00    +0.0585  C
ATOM     61 O19  WH0 L   1      -5.741   4.272   2.334  1.00  0.00    -0.3917 OA
ATOM     62 C20  WH0 L   1      -6.864   2.613   0.982  1.00  0.00    -0.0090  C
ATOM     63 C21  WH0 L   1      -6.564   1.922  -0.337  1.00  0.00    +0.0237  C
ATOM     64 H51  WH0 L   1      -3.599   3.021  -1.040  1.00  0.00    +0.0489  H
ATOM     65 H52  WH0 L   1      -3.663   2.718   0.715  1.00  0.00    +0.0489  H
ATOM     66 H53  WH0 L   1      -4.405   4.967   0.311  1.00  0.00    +0.0307  H
ATOM     67 H54  WH0 L   1      -5.501   4.443  -0.972  1.00  0.00    +0.0307  H
ATOM     68 H55  WH0 L   1      -6.972   4.754   0.801  1.00  0.00    +0.0594  H
ATOM     69 H56  WH0 L   1      -5.080   3.595   2.564  1.00  0.00    +0.2098 HD
ATOM     70 H57  WH0 L   1      -6.503   1.996   1.814  1.00  0.00    +0.0307  H
ATOM     71 H58  WH0 L   1      -7.946   2.716   1.127  1.00  0.00    +0.0307  H
ATOM     72 H59  WH0 L   1      -7.144   0.995  -0.413  1.00  0.00    +0.0489  H
ATOM     73 H60  WH0 L   1      -6.889   2.539  -1.182  1.00  0.00    +0.0489  H
ENDBRANCH 20 57
ENDBRANCH 1 25
TORSDOF 8
