ROOT
ATOM      1  C1  MCU L   1      -5.713   1.525  -1.350  1.00  0.00    -0.0467  C
ATOM      2  C2  MCU L   1      -4.397   1.160  -0.632  1.00  0.00    +0.0183  C
ATOM      3  C3  MCU L   1      -3.990   2.373   0.226  1.00  0.00    -0.0467  C
ATOM      4  C4  MCU L   1      -3.316   0.867  -1.713  1.00  0.00    -0.0077  C
ATOM      5  C5  MCU L   1      -2.138   0.150  -1.125  1.00  0.00    -0.0142  A
ATOM      6  C6  MCU L   1      -2.262  -0.567   0.052  1.00  0.00    +0.0158  A
ATOM      7  S7  MCU L   1      -0.780  -1.284   0.507  1.00  0.00    -0.0708  S
ATOM      8  C8  MCU L   1       0.052  -0.647  -0.858  1.00  0.00    +0.1206  A
ATOM      9 C18  MCU L   1      -0.810   0.085  -1.655  1.00  0.00    +0.0879  A
ATOM     10 C21  MCU L   1      -3.539  -0.708   0.866  1.00  0.00    +0.0457  C
ATOM     11 C22  MCU L   1      -3.928  -2.200   0.989  1.00  0.00    -0.0424  C
ATOM     12 C23  MCU L   1      -3.381  -0.141   2.289  1.00  0.00    -0.0424  C
ATOM     13 N24  MCU L   1      -4.691  -0.038   0.196  1.00  0.00    -0.3015 NA
ATOM     14 H25  MCU L   1      -5.580   2.400  -1.997  1.00  0.00    +0.0247  H
ATOM     15 H26  MCU L   1      -6.507   1.762  -0.631  1.00  0.00    +0.0247  H
ATOM     16 H27  MCU L   1      -6.070   0.704  -1.982  1.00  0.00    +0.0247  H
ATOM     17 H28  MCU L   1      -4.692   2.528   1.053  1.00  0.00    +0.0247  H
ATOM     18 H29  MCU L   1      -2.985   2.274   0.644  1.00  0.00    +0.0247  H
ATOM     19 H30  MCU L   1      -3.988   3.291  -0.375  1.00  0.00    +0.0247  H
ATOM     20 H31  MCU L   1      -3.734   0.228  -2.502  1.00  0.00    +0.0331  H
ATOM     21 H32  MCU L   1      -2.997   1.803  -2.188  1.00  0.00    +0.0331  H
ATOM     22 H46  MCU L   1      -4.887  -2.320   1.509  1.00  0.00    +0.0251  H
ATOM     23 H47  MCU L   1      -3.184  -2.770   1.557  1.00  0.00    +0.0251  H
ATOM     24 H48  MCU L   1      -4.019  -2.676   0.005  1.00  0.00    +0.0251  H
ATOM     25 H49  MCU L   1      -4.338  -0.143   2.824  1.00  0.00    +0.0251  H
ATOM     26 H50  MCU L   1      -2.684  -0.743   2.883  1.00  0.00    +0.0251  H
ATOM     27 H51  MCU L   1      -2.996   0.882   2.299  1.00  0.00    +0.0251  H
ATOM     28 H52  MCU L   1      -5.136  -0.727  -0.412  1.00  0.00    +0.1233 HD
ENDROOT
BRANCH 8 29
ATOM     29  N9  MCU L   1       1.368  -0.943  -1.034  1.00  0.00    -0.2297 NA
ATOM     30 C10  MCU L   1       2.188  -0.067  -0.550  1.00  0.00    +0.0932  C
ATOM     31 H33  MCU L   1       1.825   0.842  -0.031  1.00  0.00    +0.1026  H
BRANCH 30 32
ATOM     32 N11  MCU L   1       3.565  -0.124  -0.603  1.00  0.00    -0.3618  N
ATOM     33 C12  MCU L   1       4.375   0.995  -0.139  1.00  0.00    +0.0194  C
ATOM     34 C13  MCU L   1       4.870   0.728   1.279  1.00  0.00    -0.0353  C
ATOM     35 C14  MCU L   1       6.051  -0.240   1.350  1.00  0.00    -0.0514  C
ATOM     36 C15  MCU L   1       5.814  -1.602   0.698  1.00  0.00    -0.0514  C
ATOM     37 C16  MCU L   1       5.648  -1.522  -0.820  1.00  0.00    -0.0353  C
ATOM     38 C17  MCU L   1       4.216  -1.246  -1.277  1.00  0.00    +0.0194  C
ATOM     39 H34  MCU L   1       3.771   1.912  -0.133  1.00  0.00    +0.0488  H
ATOM     40 H35  MCU L   1       5.207   1.198  -0.823  1.00  0.00    +0.0488  H
ATOM     41 H36  MCU L   1       5.189   1.679   1.723  1.00  0.00    +0.0282  H
ATOM     42 H37  MCU L   1       4.050   0.350   1.903  1.00  0.00    +0.0282  H
ATOM     43 H38  MCU L   1       6.930   0.232   0.894  1.00  0.00    +0.0266  H
ATOM     44 H39  MCU L   1       6.302  -0.398   2.406  1.00  0.00    +0.0266  H
ATOM     45 H40  MCU L   1       6.693  -2.224   0.911  1.00  0.00    +0.0266  H
ATOM     46 H41  MCU L   1       4.957  -2.106   1.159  1.00  0.00    +0.0266  H
ATOM     47 H42  MCU L   1       6.336  -0.778  -1.239  1.00  0.00    +0.0282  H
ATOM     48 H43  MCU L   1       5.951  -2.484  -1.254  1.00  0.00    +0.0282  H
ATOM     49 H44  MCU L   1       4.212  -1.065  -2.358  1.00  0.00    +0.0488  H
ATOM     50 H45  MCU L   1       3.637  -2.162  -1.107  1.00  0.00    +0.0488  H
ENDBRANCH 30 32
ENDBRANCH 8 29
BRANCH 9 51
ATOM     51 C19  MCU L   1      -0.384   0.709  -2.874  1.00  0.00    +0.1021  C
ATOM     52 N20  MCU L   1      -0.081   1.248  -3.856  1.00  0.00    -0.1908 NA
ENDBRANCH 9 51
TORSDOF 3
