ROOT
ATOM      1  C8  773 L   1       0.737  -0.171   1.266  1.00  0.00    +0.2257  C
ATOM      2  O9  773 L   1       1.610  -0.294   2.128  1.00  0.00    -0.2730 OA
ATOM      3 N10  773 L   1      -0.160  -1.186   0.999  1.00  0.00    -0.3337  N
ATOM      4 C11  773 L   1      -0.042  -2.466   1.677  1.00  0.00    +0.0219  C
ATOM      5 C12  773 L   1      -0.600  -3.468   0.681  1.00  0.00    -0.0330  C
ATOM      6 C13  773 L   1      -1.718  -2.685   0.008  1.00  0.00    -0.0251  C
ATOM      7 C14  773 L   1      -1.156  -1.256  -0.080  1.00  0.00    +0.0779  C
ATOM      8 H29  773 L   1       0.992  -2.691   1.957  1.00  0.00    +0.0489  H
ATOM      9 H30  773 L   1      -0.656  -2.420   2.583  1.00  0.00    +0.0489  H
ATOM     10 H31  773 L   1       0.164  -3.732  -0.060  1.00  0.00    +0.0283  H
ATOM     11 H32  773 L   1      -0.950  -4.388   1.158  1.00  0.00    +0.0283  H
ATOM     12 H33  773 L   1      -2.619  -2.732   0.631  1.00  0.00    +0.0289  H
ATOM     13 H34  773 L   1      -1.977  -3.088  -0.977  1.00  0.00    +0.0289  H
ATOM     14 H35  773 L   1      -0.613  -1.130  -1.025  1.00  0.00    +0.0591  H
ENDROOT
BRANCH 1 15
ATOM     15  C7  773 L   1       0.597   1.108   0.459  1.00  0.00    +0.0437  C
ATOM     16 H27  773 L   1       0.478   0.866  -0.601  1.00  0.00    +0.0378  H
ATOM     17 H28  773 L   1      -0.300   1.629   0.811  1.00  0.00    +0.0378  H
BRANCH 15 18
ATOM     18  C6  773 L   1       1.789   2.040   0.644  1.00  0.00    +0.0268  C
ATOM     19 H25  773 L   1       1.980   2.243   1.704  1.00  0.00    +0.0491  H
ATOM     20 H26  773 L   1       1.580   2.997   0.152  1.00  0.00    +0.0491  H
BRANCH 18 23
ATOM     21  C3  773 L   1       3.258   1.496  -1.266  1.00  0.00    +0.2443  C
ATOM     22  O4  773 L   1       2.531   2.013  -2.106  1.00  0.00    -0.2683 OA
ATOM     23  N5  773 L   1       3.012   1.502   0.079  1.00  0.00    -0.3520  N
ATOM     24 H24  773 L   1       3.648   1.040   0.714  1.00  0.00    +0.1626 HD
BRANCH 21 26
ATOM     25  C1  773 L   1       5.059  -0.226  -1.067  1.00  0.00    -0.0936  C
ATOM     26  C2  773 L   1       4.525   0.842  -1.675  1.00  0.00    -0.0047  C
ATOM     27 H21  773 L   1       4.595  -0.709  -0.213  1.00  0.00    +0.0536  H
ATOM     28 H22  773 L   1       5.980  -0.665  -1.442  1.00  0.00    +0.0536  H
ATOM     29 H23  773 L   1       4.974   1.256  -2.571  1.00  0.00    +0.0666  H
ENDBRANCH 21 26
ENDBRANCH 18 23
ENDBRANCH 15 18
ENDBRANCH 1 15
BRANCH 7 30
ATOM     30 C15  773 L   1      -2.234  -0.224   0.043  1.00  0.00    +0.1062  A
ATOM     31 C16  773 L   1      -2.714   0.643  -0.970  1.00  0.00    +0.0052  A
ATOM     32 C17  773 L   1      -3.684   1.390  -0.350  1.00  0.00    +0.1345  A
ATOM     33 C18  773 L   1      -4.580   2.476  -0.781  1.00  0.00    -0.0037  C
ATOM     34 O19  773 L   1      -3.789   0.999   0.946  1.00  0.00    -0.3596 OA
ATOM     35 N20  773 L   1      -2.882  -0.014   1.199  1.00  0.00    -0.0810 NA
ATOM     36 H36  773 L   1      -2.387   0.721  -1.997  1.00  0.00    +0.0671  H
ATOM     37 H37  773 L   1      -5.623   2.221  -0.569  1.00  0.00    +0.0309  H
ATOM     38 H38  773 L   1      -4.338   3.404  -0.255  1.00  0.00    +0.0309  H
ATOM     39 H39  773 L   1      -4.486   2.660  -1.856  1.00  0.00    +0.0309  H
ENDBRANCH 7 30
TORSDOF 5
