ROOT
ATOM      1  N4  LIG L   1      -3.574   3.644 -10.356  1.00  0.00    -0.2806  N
ATOM      2  C5  LIG L   1      -2.372   3.814 -10.964  1.00  0.00    +0.3336  A
ATOM      3  O6  LIG L   1      -1.345   4.053 -10.275  1.00  0.00    -0.2462 OA
ATOM      4  N7  LIG L   1      -2.199   3.743 -12.294  1.00  0.00    -0.2481  N
ATOM      5 C18  LIG L   1      -3.252   3.491 -13.092  1.00  0.00    +0.3003  A
ATOM      6 O19  LIG L   1      -3.193   3.407 -14.328  1.00  0.00    -0.2634 OA
ATOM      7 C20  LIG L   1      -4.479   3.314 -12.493  1.00  0.00    +0.2168  A
ATOM      8 O21  LIG L   1      -5.659   3.057 -13.008  1.00  0.00    -0.4478 OA
ATOM      9 C22  LIG L   1      -6.561   2.961 -12.061  1.00  0.00    +0.1380  A
ATOM     10 C23  LIG L   1      -7.910   2.701 -12.162  1.00  0.00    -0.0187  A
ATOM     11 C24  LIG L   1      -8.637   2.649 -10.993  1.00  0.00    -0.0582  A
ATOM     12 C25  LIG L   1      -8.007   2.853  -9.793  1.00  0.00    -0.0609  A
ATOM     13 C26  LIG L   1      -6.646   3.117  -9.688  1.00  0.00    -0.0490  A
ATOM     14 C27  LIG L   1      -5.935   3.168 -10.852  1.00  0.00    +0.0447  A
ATOM     15 C28  LIG L   1      -4.613   3.395 -11.124  1.00  0.00    +0.1051  A
ATOM     16 H50  LIG L   1      -8.375   2.539 -13.128  1.00  0.00    +0.0654  H
ATOM     17 H51  LIG L   1      -9.704   2.442 -11.026  1.00  0.00    +0.0619  H
ATOM     18 H52  LIG L   1      -8.597   2.799  -8.878  1.00  0.00    +0.0618  H
ATOM     19 H53  LIG L   1      -6.234   3.236  -8.695  1.00  0.00    +0.0625  H
ENDROOT
BRANCH 1 20
ATOM     20  C3  LIG L   1      -3.581   3.767  -8.917  1.00  0.00    +0.1068  C
ATOM     21 H42  LIG L   1      -4.482   4.271  -8.565  1.00  0.00    +0.0591  H
ATOM     22 H43  LIG L   1      -2.744   4.370  -8.549  1.00  0.00    +0.0591  H
BRANCH 20 24
ATOM     23  O1  LIG L   1      -3.362   1.454  -9.191  1.00  0.00    -0.2709 OA
ATOM     24  C2  LIG L   1      -3.451   2.407  -8.346  1.00  0.00    +0.2452  C
ATOM     25 N29  LIG L   1      -3.420   2.131  -6.956  1.00  0.00    -0.3241  N
ATOM     26 H54  LIG L   1      -2.790   2.778  -6.488  1.00  0.00    +0.1686 HD
BRANCH 25 27
ATOM     27 C30  LIG L   1      -3.290   0.768  -6.566  1.00  0.00    +0.0534  A
ATOM     28 C31  LIG L   1      -4.492   0.072  -6.397  1.00  0.00    -0.0377  A
ATOM     29 C32  LIG L   1      -4.493  -1.254  -6.020  1.00  0.00    -0.0598  A
ATOM     30 C33  LIG L   1      -3.280  -1.876  -5.814  1.00  0.00    -0.0611  A
ATOM     31 C34  LIG L   1      -2.105  -1.180  -5.983  1.00  0.00    -0.0481  A
ATOM     32 C35  LIG L   1      -2.079   0.158  -6.363  1.00  0.00    +0.0781  A
ATOM     33 H55  LIG L   1      -5.441   0.572  -6.575  1.00  0.00    +0.0638  H
ATOM     34 H56  LIG L   1      -5.425  -1.797  -5.898  1.00  0.00    +0.0618  H
ATOM     35 H57  LIG L   1      -3.254  -2.924  -5.522  1.00  0.00    +0.0618  H
ATOM     36 H58  LIG L   1      -1.168  -1.713  -5.815  1.00  0.00    +0.0624  H
BRANCH 32 37
ATOM     37 C36  LIG L   1      -0.826   0.917  -6.548  1.00  0.00    +0.4193  C
ATOM     38 F37  LIG L   1      -0.855   1.976  -5.661  1.00  0.00    -0.1658  F
ATOM     39 F38  LIG L   1      -0.632   1.335  -7.837  1.00  0.00    -0.1658  F
ATOM     40 F39  LIG L   1       0.222   0.043  -6.241  1.00  0.00    -0.1658  F
ENDBRANCH 32 37
ENDBRANCH 25 27
ENDBRANCH 20 24
ENDBRANCH 1 20
BRANCH 4 41
ATOM     41  C8  LIG L   1      -0.883   3.936 -12.880  1.00  0.00    +0.0903  C
ATOM     42 H44  LIG L   1      -0.192   4.268 -12.093  1.00  0.00    +0.0603  H
BRANCH 41 43
ATOM     43  C9  LIG L   1      -0.269   2.723 -13.413  1.00  0.00    -0.0186  A
ATOM     44 C10  LIG L   1       0.385   1.843 -12.541  1.00  0.00    -0.0528  A
ATOM     45 C11  LIG L   1       0.986   0.687 -12.987  1.00  0.00    -0.0158  A
ATOM     46 C12  LIG L   1       0.970   0.343 -14.314  1.00  0.00    +0.1662  A
ATOM     47 C13  LIG L   1       0.332   1.191 -15.200  1.00  0.00    +0.1666  A
ATOM     48 C14  LIG L   1      -0.266   2.346 -14.740  1.00  0.00    -0.0109  A
ATOM     49 O15  LIG L   1       0.482   0.586 -16.444  1.00  0.00    -0.4526 OA
ATOM     50 C16  LIG L   1       0.848  -0.783 -16.295  1.00  0.00    +0.2332  C
ATOM     51 O17  LIG L   1       1.487  -0.740 -15.012  1.00  0.00    -0.4526 OA
ATOM     52 H45  LIG L   1       0.421   2.065 -11.472  1.00  0.00    +0.0622  H
ATOM     53 H46  LIG L   1       1.482   0.028 -12.279  1.00  0.00    +0.0655  H
ATOM     54 H47  LIG L   1      -0.776   2.949 -15.490  1.00  0.00    +0.0659  H
ATOM     55 H48  LIG L   1      -0.032  -1.434 -16.277  1.00  0.00    +0.1166  H
ATOM     56 H49  LIG L   1       1.564  -1.076 -17.066  1.00  0.00    +0.1166  H
ENDBRANCH 41 43
BRANCH 41 57
ATOM     57 C40  LIG L   1      -0.865   5.167 -13.842  1.00  0.00    +0.0693  C
ATOM     58 O41  LIG L   1       0.462   5.650 -14.072  1.00  0.00    -0.3926 OA
ATOM     59 H59  LIG L   1      -1.417   5.995 -13.383  1.00  0.00    +0.0581  H
ATOM     60 H60  LIG L   1      -1.329   4.977 -14.813  1.00  0.00    +0.0581  H
ATOM     61 H61  LIG L   1       0.962   4.935 -14.507  1.00  0.00    +0.2095 HD
ENDBRANCH 41 57
ENDBRANCH 4 41
TORSDOF 7
