ROOT
ATOM      1 C15  WH0 L   1      -2.062  -1.948   0.344  1.00  0.00    -0.0133  A
ATOM      2 C16  WH0 L   1      -1.544  -2.928  -0.534  1.00  0.00    -0.0519  A
ATOM      3 C17  WH0 L   1      -1.782  -4.288  -0.315  1.00  0.00    -0.0374  A
ATOM      4 C18  WH0 L   1      -2.538  -4.627   0.785  1.00  0.00    +0.0454  A
ATOM      5 C19  WH0 L   1      -3.057  -3.676   1.661  1.00  0.00    -0.0145  A
ATOM      6 C20  WH0 L   1      -2.830  -2.327   1.457  1.00  0.00    -0.0483  A
ATOM      7 C21  WH0 L   1      -3.829  -4.366   2.746  1.00  0.00    +0.0535  C
ATOM      8 C22  WH0 L   1      -3.673  -5.842   2.360  1.00  0.00    +0.2296  C
ATOM      9 O23  WH0 L   1      -4.135  -6.803   2.952  1.00  0.00    -0.2725 OA
ATOM     10 N24  WH0 L   1      -2.904  -5.895   1.204  1.00  0.00    -0.3256  N
ATOM     11 H53  WH0 L   1      -0.960  -2.626  -1.402  1.00  0.00    +0.0624  H
ATOM     12 H54  WH0 L   1      -1.387  -5.039  -0.990  1.00  0.00    +0.0638  H
ATOM     13 H55  WH0 L   1      -3.235  -1.587   2.141  1.00  0.00    +0.0627  H
ATOM     14 H56  WH0 L   1      -3.380  -4.192   3.727  1.00  0.00    +0.0410  H
ATOM     15 H57  WH0 L   1      -4.885  -4.088   2.721  1.00  0.00    +0.0410  H
ATOM     16 H58  WH0 L   1      -2.663  -6.763   0.750  1.00  0.00    +0.1686 HD
ENDROOT
BRANCH 1 20
ATOM     17 C11  WH0 L   1       1.756   0.530   0.302  1.00  0.00    +0.0472  A
ATOM     18 C12  WH0 L   1       0.766  -0.384   0.343  1.00  0.00    -0.0141  A
ATOM     19 C13  WH0 L   1      -0.564   0.035   0.113  1.00  0.00    +0.0806  A
ATOM     20 C14  WH0 L   1      -1.816  -0.542   0.086  1.00  0.00    +0.0353  A
ATOM     21 C25  WH0 L   1      -2.717   0.544  -0.148  1.00  0.00    +0.1015  A
ATOM     22 N33  WH0 L   1      -2.052   1.706  -0.266  1.00  0.00    -0.1627 NA
ATOM     23 N34  WH0 L   1      -0.744   1.374  -0.135  1.00  0.00    -0.1987  N
ATOM     24 C35  WH0 L   1       0.329   2.314  -0.191  1.00  0.00    +0.2286  A
ATOM     25 N42  WH0 L   1       1.548   1.873   0.032  1.00  0.00    -0.2173 NA
ATOM     26 H52  WH0 L   1       0.951  -1.429   0.564  1.00  0.00    +0.0657  H
BRANCH 17 27
ATOM     27 C10  WH0 L   1       3.221   0.200   0.544  1.00  0.00    -0.0086  C
ATOM     28 H50  WH0 L   1       3.788   0.573  -0.319  1.00  0.00    +0.0329  H
ATOM     29 H51  WH0 L   1       3.557   0.778   1.414  1.00  0.00    +0.0329  H
BRANCH 27 30
ATOM     30  C9  WH0 L   1       3.583  -1.275   0.768  1.00  0.00    -0.0301  C
ATOM     31 H48  WH0 L   1       3.263  -1.875  -0.093  1.00  0.00    +0.0286  H
ATOM     32 H49  WH0 L   1       3.052  -1.653   1.650  1.00  0.00    +0.0286  H
BRANCH 30 33
ATOM     33  C8  WH0 L   1       5.081  -1.469   0.994  1.00  0.00    +0.0187  C
ATOM     34 H46  WH0 L   1       5.283  -2.515   1.253  1.00  0.00    +0.0486  H
ATOM     35 H47  WH0 L   1       5.433  -0.849   1.826  1.00  0.00    +0.0486  H
BRANCH 33 38
ATOM     36  C5  WH0 L   1       7.217  -0.951  -0.105  1.00  0.00    +0.2618  C
ATOM     37  O6  WH0 L   1       7.827  -0.914   0.956  1.00  0.00    -0.2669 OA
ATOM     38  N7  WH0 L   1       5.858  -1.173  -0.194  1.00  0.00    -0.3514  N
ATOM     39 H45  WH0 L   1       5.472  -1.436  -1.091  1.00  0.00    +0.1626 HD
BRANCH 36 41
ATOM     40  C1  WH0 L   1       7.349  -0.153  -2.439  1.00  0.00    -0.0760  C
ATOM     41  C2  WH0 L   1       7.922  -0.805  -1.412  1.00  0.00    +0.1085  C
ATOM     42 H43  WH0 L   1       6.363   0.296  -2.365  1.00  0.00    +0.0549  H
ATOM     43 H44  WH0 L   1       7.875  -0.018  -3.381  1.00  0.00    +0.0549  H
BRANCH 41 44
ATOM     44  C3  WH0 L   1       9.249  -1.309  -1.513  1.00  0.00    +0.1040  C
ATOM     45  N4  WH0 L   1      10.323  -1.724  -1.662  1.00  0.00    -0.1907 NA
ENDBRANCH 41 44
ENDBRANCH 36 41
ENDBRANCH 33 38
ENDBRANCH 30 33
ENDBRANCH 27 30
ENDBRANCH 17 27
BRANCH 21 46
ATOM     46 C26  WH0 L   1      -4.179   0.522  -0.254  1.00  0.00    +0.0029  A
ATOM     47 C27  WH0 L   1      -4.846  -0.527  -0.905  1.00  0.00    -0.0498  A
ATOM     48 C28  WH0 L   1      -6.241  -0.534  -0.990  1.00  0.00    -0.0258  A
ATOM     49 C29  WH0 L   1      -6.969   0.511  -0.433  1.00  0.00    +0.1234  A
ATOM     50 F30  WH0 L   1      -8.305   0.502  -0.518  1.00  0.00    -0.2055  F
ATOM     51 C31  WH0 L   1      -6.329   1.566   0.205  1.00  0.00    -0.0258  A
ATOM     52 C32  WH0 L   1      -4.935   1.573   0.292  1.00  0.00    -0.0498  A
ATOM     53 H59  WH0 L   1      -4.292  -1.343  -1.363  1.00  0.00    +0.0625  H
ATOM     54 H60  WH0 L   1      -6.762  -1.343  -1.491  1.00  0.00    +0.0646  H
ATOM     55 H61  WH0 L   1      -6.915   2.375   0.629  1.00  0.00    +0.0646  H
ATOM     56 H62  WH0 L   1      -4.438   2.402   0.791  1.00  0.00    +0.0625  H
ENDBRANCH 21 46
BRANCH 24 57
ATOM     57 N36  WH0 L   1       0.120   3.668  -0.457  1.00  0.00    -0.3359  N
ATOM     58 C37  WH0 L   1       1.183   4.647  -0.189  1.00  0.00    +0.0449  C
ATOM     59 C38  WH0 L   1       0.572   6.032   0.064  1.00  0.00    +0.0653  C
ATOM     60 O39  WH0 L   1      -0.191   6.540  -1.039  1.00  0.00    -0.3763 OA
ATOM     61 C40  WH0 L   1      -0.721   5.510  -1.883  1.00  0.00    +0.0653  C
ATOM     62 C41  WH0 L   1      -1.065   4.209  -1.138  1.00  0.00    +0.0449  C
ATOM     63 H63  WH0 L   1       1.763   4.359   0.695  1.00  0.00    +0.0511  H
ATOM     64 H64  WH0 L   1       1.860   4.682  -1.051  1.00  0.00    +0.0511  H
ATOM     65 H65  WH0 L   1       1.361   6.759   0.280  1.00  0.00    +0.0577  H
ATOM     66 H66  WH0 L   1      -0.092   5.999   0.936  1.00  0.00    +0.0577  H
ATOM     67 H67  WH0 L   1       0.017   5.313  -2.670  1.00  0.00    +0.0577  H
ATOM     68 H68  WH0 L   1      -1.615   5.911  -2.370  1.00  0.00    +0.0577  H
ATOM     69 H69  WH0 L   1      -1.446   3.503  -1.883  1.00  0.00    +0.0511  H
ATOM     70 H70  WH0 L   1      -1.842   4.411  -0.392  1.00  0.00    +0.0511  H
ENDBRANCH 24 57
ENDBRANCH 1 20
TORSDOF 9
