ROOT
ATOM      1  C1  LIG L   1      -7.596   5.418 -10.024  1.00  0.00    -0.0377  C
ATOM      2  C2  LIG L   1      -7.467   4.132 -10.781  1.00  0.00    -0.0265  A
ATOM      3  C3  LIG L   1      -8.566   3.428 -11.219  1.00  0.00    -0.0569  A
ATOM      4  C4  LIG L   1      -8.389   2.253 -11.911  1.00  0.00    -0.0608  A
ATOM      5  C5  LIG L   1      -7.130   1.748 -12.184  1.00  0.00    -0.0526  A
ATOM      6  C6  LIG L   1      -6.018   2.459 -11.741  1.00  0.00    -0.0008  A
ATOM      7  C7  LIG L   1      -4.724   1.995 -11.990  1.00  0.00    -0.0397  A
ATOM      8  C8  LIG L   1      -3.601   2.671 -11.570  1.00  0.00    +0.0717  A
ATOM      9 C32  LIG L   1      -3.855   3.859 -10.870  1.00  0.00    +0.2569  A
ATOM     10 O33  LIG L   1      -2.938   4.582 -10.419  1.00  0.00    -0.2674 OA
ATOM     11 N34  LIG L   1      -5.116   4.288 -10.641  1.00  0.00    -0.3215  N
ATOM     12 C35  LIG L   1      -6.209   3.633 -11.051  1.00  0.00    +0.0521  A
ATOM     13 H39  LIG L   1      -7.151   5.331  -9.027  1.00  0.00    +0.0278  H
ATOM     14 H40  LIG L   1      -8.650   5.684  -9.882  1.00  0.00    +0.0278  H
ATOM     15 H41  LIG L   1      -7.129   6.243 -10.571  1.00  0.00    +0.0278  H
ATOM     16 H42  LIG L   1      -9.572   3.792 -11.026  1.00  0.00    +0.0621  H
ATOM     17 H43  LIG L   1      -9.264   1.704 -12.255  1.00  0.00    +0.0618  H
ATOM     18 H44  LIG L   1      -7.030   0.818 -12.735  1.00  0.00    +0.0624  H
ATOM     19 H45  LIG L   1      -4.634   1.035 -12.487  1.00  0.00    +0.0630  H
ATOM     20 H66  LIG L   1      -5.157   5.166 -10.144  1.00  0.00    +0.1689 HD
ENDROOT
BRANCH 8 21
ATOM     21  C9  LIG L   1      -2.213   2.174 -11.780  1.00  0.00    +0.2166  C
BRANCH 21 22
ATOM     22 C10  LIG L   1      -1.503   3.239 -12.486  1.00  0.00    +0.2041  A
ATOM     23 N11  LIG L   1      -2.001   4.456 -12.789  1.00  0.00    -0.1085 NA
ATOM     24 N12  LIG L   1      -1.116   5.150 -13.424  1.00  0.00    -0.0229 NA
ATOM     25 N13  LIG L   1      -0.058   4.429 -13.548  1.00  0.00    -0.0433 NA
ATOM     26 N14  LIG L   1      -0.248   3.207 -12.971  1.00  0.00    -0.2199  N
BRANCH 26 27
ATOM     27 C15  LIG L   1       0.773   2.244 -12.992  1.00  0.00    +0.0590  C
ATOM     28 C16  LIG L   1       1.269   1.947 -14.428  1.00  0.00    -0.0401  C
ATOM     29 C17  LIG L   1       0.758   0.974 -12.326  1.00  0.00    -0.0401  C
ATOM     30 C18  LIG L   1       2.011   2.961 -12.387  1.00  0.00    -0.0401  C
ATOM     31 H46  LIG L   1       0.513   1.386 -14.989  1.00  0.00    +0.0253  H
ATOM     32 H47  LIG L   1       2.191   1.351 -14.447  1.00  0.00    +0.0253  H
ATOM     33 H48  LIG L   1       1.471   2.860 -15.002  1.00  0.00    +0.0253  H
ATOM     34 H49  LIG L   1       0.645   1.058 -11.244  1.00  0.00    +0.0253  H
ATOM     35 H50  LIG L   1      -0.031   0.309 -12.688  1.00  0.00    +0.0253  H
ATOM     36 H51  LIG L   1       1.683   0.395 -12.458  1.00  0.00    +0.0253  H
ATOM     37 H52  LIG L   1       1.811   3.283 -11.356  1.00  0.00    +0.0253  H
ATOM     38 H53  LIG L   1       2.898   2.314 -12.353  1.00  0.00    +0.0253  H
ATOM     39 H54  LIG L   1       2.313   3.856 -12.948  1.00  0.00    +0.0253  H
ENDBRANCH 26 27
ENDBRANCH 21 22
BRANCH 21 40
ATOM     40 N19  LIG L   1      -1.795   1.598 -10.626  1.00  0.00    -0.2613 NA
ATOM     41 C20  LIG L   1      -2.597   0.445 -10.222  1.00  0.00    +0.0199  C
ATOM     42 C21  LIG L   1      -1.977  -0.273  -9.044  1.00  0.00    +0.0345  C
ATOM     43 N22  LIG L   1      -2.090   0.676  -7.923  1.00  0.00    -0.3333  N
ATOM     44 C23  LIG L   1      -2.154   0.250  -6.573  1.00  0.00    +0.2899  C
ATOM     45 O24  LIG L   1      -2.250   1.134  -5.689  1.00  0.00    -0.2640 OA
ATOM     46 C30  LIG L   1      -2.129   2.081  -8.320  1.00  0.00    +0.0345  C
ATOM     47 C31  LIG L   1      -1.206   2.166  -9.532  1.00  0.00    +0.0199  C
ATOM     48 H55  LIG L   1      -3.635   0.692  -9.964  1.00  0.00    +0.0445  H
ATOM     49 H56  LIG L   1      -2.648  -0.303 -11.024  1.00  0.00    +0.0445  H
ATOM     50 H57  LIG L   1      -0.924  -0.536  -9.195  1.00  0.00    +0.0501  H
ATOM     51 H58  LIG L   1      -2.536  -1.187  -8.824  1.00  0.00    +0.0501  H
ATOM     52 H62  LIG L   1      -1.740   2.699  -7.504  1.00  0.00    +0.0501  H
ATOM     53 H63  LIG L   1      -3.164   2.388  -8.499  1.00  0.00    +0.0501  H
ATOM     54 H64  LIG L   1      -0.234   1.713  -9.295  1.00  0.00    +0.0445  H
ATOM     55 H65  LIG L   1      -0.962   3.222  -9.698  1.00  0.00    +0.0445  H
BRANCH 44 56
ATOM     56 C25  LIG L   1      -2.104  -1.178  -6.294  1.00  0.00    +0.1915  A
ATOM     57 C26  LIG L   1      -3.045  -1.985  -5.677  1.00  0.00    -0.0111  A
ATOM     58 C27  LIG L   1      -2.485  -3.246  -5.675  1.00  0.00    -0.0231  A
ATOM     59 C28  LIG L   1      -1.246  -3.175  -6.278  1.00  0.00    +0.0928  A
ATOM     60 O29  LIG L   1      -1.077  -1.927  -6.622  1.00  0.00    -0.4581 OA
ATOM     61 H59  LIG L   1      -3.997  -1.657  -5.284  1.00  0.00    +0.0657  H
ATOM     62 H60  LIG L   1      -2.913  -4.154  -5.272  1.00  0.00    +0.0649  H
ATOM     63 H61  LIG L   1      -0.460  -3.886  -6.492  1.00  0.00    +0.1029  H
ENDBRANCH 44 56
ENDBRANCH 21 40
BRANCH 21 64
ATOM     64 O36  LIG L   1      -2.268   1.090 -12.787  1.00  0.00    -0.3480 OA
BRANCH 64 65
ATOM     65 C37  LIG L   1      -2.585   1.381 -14.157  1.00  0.00    +0.0479  C
ATOM     66 C38  LIG L   1      -2.924   0.067 -14.838  1.00  0.00    -0.0415  C
ATOM     67 H67  LIG L   1      -1.723   1.814 -14.668  1.00  0.00    +0.0558  H
ATOM     68 H68  LIG L   1      -3.425   2.075 -14.255  1.00  0.00    +0.0558  H
ATOM     69 H69  LIG L   1      -2.084  -0.632 -14.765  1.00  0.00    +0.0252  H
ATOM     70 H70  LIG L   1      -3.780  -0.412 -14.353  1.00  0.00    +0.0252  H
ATOM     71 H71  LIG L   1      -3.160   0.225 -15.894  1.00  0.00    +0.0252  H
ENDBRANCH 64 65
ENDBRANCH 21 64
ENDBRANCH 8 21
TORSDOF 7
