ROOT
ATOM      1 C30  WH0 L   1      -1.422  -2.307  -0.123  1.00  0.00    -0.0133  A
ATOM      2 C31  WH0 L   1      -1.661  -3.016  -1.322  1.00  0.00    -0.0519  A
ATOM      3 C32  WH0 L   1      -1.999  -4.373  -1.302  1.00  0.00    -0.0374  A
ATOM      4 C33  WH0 L   1      -2.086  -4.983  -0.071  1.00  0.00    +0.0454  A
ATOM      5 C34  WH0 L   1      -1.853  -4.302   1.122  1.00  0.00    -0.0145  A
ATOM      6 C35  WH0 L   1      -1.518  -2.960   1.116  1.00  0.00    -0.0483  A
ATOM      7 C36  WH0 L   1      -2.022  -5.246   2.275  1.00  0.00    +0.0535  C
ATOM      8 C37  WH0 L   1      -2.386  -6.557   1.567  1.00  0.00    +0.2296  C
ATOM      9 O38  WH0 L   1      -2.622  -7.629   2.096  1.00  0.00    -0.2725 OA
ATOM     10 N39  WH0 L   1      -2.398  -6.305   0.200  1.00  0.00    -0.3256  N
ATOM     11 H60  WH0 L   1      -1.590  -2.510  -2.283  1.00  0.00    +0.0624  H
ATOM     12 H61  WH0 L   1      -2.182  -4.915  -2.223  1.00  0.00    +0.0638  H
ATOM     13 H62  WH0 L   1      -1.325  -2.435   2.047  1.00  0.00    +0.0627  H
ATOM     14 H63  WH0 L   1      -2.847  -4.939   2.923  1.00  0.00    +0.0410  H
ATOM     15 H64  WH0 L   1      -1.087  -5.373   2.826  1.00  0.00    +0.0410  H
ATOM     16 H65  WH0 L   1      -2.609  -7.016  -0.484  1.00  0.00    +0.1686 HD
ENDROOT
BRANCH 1 25
ATOM     17 C15  WH0 L   1       0.043  -0.260  -0.825  1.00  0.00    +0.1018  A
ATOM     18 N16  WH0 L   1       0.047   1.065  -0.606  1.00  0.00    -0.1627 NA
ATOM     19 N17  WH0 L   1      -1.103   1.287   0.091  1.00  0.00    -0.1987  N
ATOM     20 C18  WH0 L   1      -1.566   2.585   0.474  1.00  0.00    +0.2283  A
ATOM     21 N25  WH0 L   1      -2.646   2.668   1.218  1.00  0.00    -0.2207 NA
ATOM     22 C26  WH0 L   1      -3.292   1.502   1.564  1.00  0.00    +0.0334  A
ATOM     23 C27  WH0 L   1      -2.921   0.263   1.203  1.00  0.00    -0.0173  A
ATOM     24 C28  WH0 L   1      -1.757   0.119   0.416  1.00  0.00    +0.0803  A
ATOM     25 C29  WH0 L   1      -1.053  -0.905  -0.178  1.00  0.00    +0.0353  A
ATOM     26 H58  WH0 L   1      -4.182   1.635   2.176  1.00  0.00    +0.0831  H
ATOM     27 H59  WH0 L   1      -3.498  -0.603   1.509  1.00  0.00    +0.0654  H
BRANCH 17 34
ATOM     28  C8  WH0 L   1       2.187  -1.556  -1.047  1.00  0.00    -0.0338  A
ATOM     29  C9  WH0 L   1       3.156  -2.118  -1.900  1.00  0.00    -0.0226  A
ATOM     30 C10  WH0 L   1       3.041  -1.994  -3.281  1.00  0.00    +0.1237  A
ATOM     31 F11  WH0 L   1       3.975  -2.538  -4.072  1.00  0.00    -0.2055  F
ATOM     32 C12  WH0 L   1       1.978  -1.309  -3.852  1.00  0.00    -0.0258  A
ATOM     33 C13  WH0 L   1       1.009  -0.743  -3.025  1.00  0.00    -0.0495  A
ATOM     34 C14  WH0 L   1       1.099  -0.869  -1.626  1.00  0.00    +0.0061  A
ATOM     35 H47  WH0 L   1       4.013  -2.652  -1.498  1.00  0.00    +0.0649  H
ATOM     36 H48  WH0 L   1       1.914  -1.218  -4.931  1.00  0.00    +0.0646  H
ATOM     37 H49  WH0 L   1       0.180  -0.199  -3.472  1.00  0.00    +0.0625  H
BRANCH 28 38
ATOM     38  C7  WH0 L   1       2.393  -1.686   0.449  1.00  0.00    -0.0095  C
ATOM     39 H45  WH0 L   1       1.438  -1.722   0.981  1.00  0.00    +0.0330  H
ATOM     40 H46  WH0 L   1       2.865  -2.659   0.642  1.00  0.00    +0.0330  H
BRANCH 38 41
ATOM     41  C6  WH0 L   1       3.286  -0.586   1.028  1.00  0.00    +0.0221  C
ATOM     42 H43  WH0 L   1       3.630  -0.893   2.023  1.00  0.00    +0.0489  H
ATOM     43 H44  WH0 L   1       4.176  -0.421   0.411  1.00  0.00    +0.0489  H
BRANCH 41 46
ATOM     44  O1  WH0 L   1       4.195   1.549   2.589  1.00  0.00    -0.2720 OA
ATOM     45  C2  WH0 L   1       3.158   1.692   1.944  1.00  0.00    +0.2356  C
ATOM     46  N5  WH0 L   1       2.609   0.687   1.172  1.00  0.00    -0.3547  N
ATOM     47 H42  WH0 L   1       1.874   0.935   0.511  1.00  0.00    +0.1623 HD
BRANCH 45 48
ATOM     48  C3  WH0 L   1       2.380   2.989   1.942  1.00  0.00    +0.1010  C
ATOM     49 CL4  WH0 L   1       1.066   2.877   3.127  1.00  0.00    -0.1154 Cl
ATOM     50 H40  WH0 L   1       1.960   3.188   0.954  1.00  0.00    +0.0527  H
ATOM     51 H41  WH0 L   1       3.040   3.817   2.217  1.00  0.00    +0.0527  H
ENDBRANCH 45 48
ENDBRANCH 41 46
ENDBRANCH 38 41
ENDBRANCH 28 38
ENDBRANCH 17 34
BRANCH 20 52
ATOM     52 N19  WH0 L   1      -0.888   3.741   0.079  1.00  0.00    -0.3359  N
ATOM     53 C20  WH0 L   1      -1.204   5.019   0.739  1.00  0.00    +0.0449  C
ATOM     54 C21  WH0 L   1      -0.112   6.050   0.430  1.00  0.00    +0.0653  C
ATOM     55 O22  WH0 L   1       0.063   6.319  -0.970  1.00  0.00    -0.3763 OA
ATOM     56 C23  WH0 L   1      -0.452   5.283  -1.815  1.00  0.00    +0.0653  C
ATOM     57 C24  WH0 L   1      -0.250   3.872  -1.242  1.00  0.00    +0.0449  C
ATOM     58 H50  WH0 L   1      -1.265   4.883   1.824  1.00  0.00    +0.0511  H
ATOM     59 H51  WH0 L   1      -2.176   5.380   0.381  1.00  0.00    +0.0511  H
ATOM     60 H52  WH0 L   1      -0.339   7.002   0.921  1.00  0.00    +0.0577  H
ATOM     61 H53  WH0 L   1       0.855   5.706   0.816  1.00  0.00    +0.0577  H
ATOM     62 H54  WH0 L   1      -1.518   5.481  -1.982  1.00  0.00    +0.0577  H
ATOM     63 H55  WH0 L   1       0.049   5.369  -2.784  1.00  0.00    +0.0577  H
ATOM     64 H56  WH0 L   1      -0.673   3.158  -1.957  1.00  0.00    +0.0511  H
ATOM     65 H57  WH0 L   1       0.822   3.675  -1.133  1.00  0.00    +0.0511  H
ENDBRANCH 20 52
ENDBRANCH 1 25
TORSDOF 7
