ROOT
ATOM      1  N5  CHE L   1       3.015  -0.086  -0.177  1.00  0.00    -0.3010 NA
ATOM      2  C6  CHE L   1       2.634   0.562  -1.446  1.00  0.00    +0.0013  C
ATOM      3  C7  CHE L   1       1.179   0.315  -1.856  1.00  0.00    -0.0137  C
ATOM      4  C8  CHE L   1       0.303   0.057  -0.635  1.00  0.00    +0.0614  C
ATOM      5 C23  CHE L   1       0.823  -1.166   0.129  1.00  0.00    -0.0137  C
ATOM      6 C24  CHE L   1       2.333  -1.373  -0.024  1.00  0.00    +0.0013  C
ATOM      7 H33  CHE L   1       3.276   0.230  -2.273  1.00  0.00    +0.0427  H
ATOM      8 H34  CHE L   1       2.791   1.642  -1.335  1.00  0.00    +0.0427  H
ATOM      9 H35  CHE L   1       0.806   1.164  -2.439  1.00  0.00    +0.0302  H
ATOM     10 H36  CHE L   1       1.120  -0.552  -2.529  1.00  0.00    +0.0302  H
ATOM     11 H37  CHE L   1       0.335   0.924   0.036  1.00  0.00    +0.0597  H
ATOM     12 H49  CHE L   1       0.570  -1.038   1.189  1.00  0.00    +0.0302  H
ATOM     13 H50  CHE L   1       0.302  -2.078  -0.191  1.00  0.00    +0.0302  H
ATOM     14 H51  CHE L   1       2.677  -1.915   0.863  1.00  0.00    +0.0427  H
ATOM     15 H52  CHE L   1       2.539  -2.022  -0.885  1.00  0.00    +0.0427  H
ENDROOT
BRANCH 1 16
ATOM     16  C4  CHE L   1       4.483  -0.193  -0.080  1.00  0.00    +0.0114  C
ATOM     17 H31  CHE L   1       4.858  -0.958  -0.772  1.00  0.00    +0.0439  H
ATOM     18 H32  CHE L   1       4.917   0.763  -0.400  1.00  0.00    +0.0439  H
BRANCH 16 19
ATOM     19  C3  CHE L   1       4.995  -0.481   1.352  1.00  0.00    +0.0084  C
ATOM     20 H29  CHE L   1       4.604  -1.445   1.692  1.00  0.00    +0.0436  H
ATOM     21 H30  CHE L   1       4.608   0.270   2.052  1.00  0.00    +0.0436  H
BRANCH 19 23
ATOM     22  C1  CHE L   1       7.109   0.727   1.387  1.00  0.00    -0.0157  C
ATOM     23  N2  CHE L   1       6.458  -0.572   1.466  1.00  0.00    -0.3178 NA
ATOM     24 H25  CHE L   1       8.183   0.602   1.563  1.00  0.00    +0.0388  H
ATOM     25 H26  CHE L   1       6.990   1.189   0.403  1.00  0.00    +0.0388  H
ATOM     26 H27  CHE L   1       6.730   1.410   2.154  1.00  0.00    +0.0388  H
ATOM     27 H28  CHE L   1       6.823  -1.186   0.739  1.00  0.00    +0.1217 HD
ENDBRANCH 19 23
ENDBRANCH 16 19
ENDBRANCH 1 16
BRANCH 4 28
ATOM     28  O9  CHE L   1      -1.044  -0.213  -1.029  1.00  0.00    -0.3719 OA
BRANCH 28 29
ATOM     29 C10  CHE L   1      -1.846   0.949  -1.233  1.00  0.00    +0.0736  C
ATOM     30 H38  CHE L   1      -1.248   1.792  -1.602  1.00  0.00    +0.0610  H
ATOM     31 H39  CHE L   1      -2.563   0.727  -2.031  1.00  0.00    +0.0610  H
BRANCH 29 32
ATOM     32 C11  CHE L   1      -2.588   1.322   0.033  1.00  0.00    -0.0142  A
ATOM     33 C12  CHE L   1      -2.062   2.347   0.844  1.00  0.00    -0.0558  A
ATOM     34 C13  CHE L   1      -2.698   2.731   2.023  1.00  0.00    -0.0614  A
ATOM     35 C14  CHE L   1      -3.871   2.097   2.414  1.00  0.00    -0.0612  A
ATOM     36 C15  CHE L   1      -4.405   1.079   1.624  1.00  0.00    -0.0537  A
ATOM     37 C16  CHE L   1      -3.780   0.672   0.429  1.00  0.00    -0.0125  A
ATOM     38 H40  CHE L   1      -1.143   2.855   0.557  1.00  0.00    +0.0621  H
ATOM     39 H41  CHE L   1      -2.276   3.523   2.637  1.00  0.00    +0.0618  H
ATOM     40 H42  CHE L   1      -4.370   2.389   3.334  1.00  0.00    +0.0618  H
ATOM     41 H43  CHE L   1      -5.321   0.588   1.949  1.00  0.00    +0.0624  H
BRANCH 37 42
ATOM     42 C17  CHE L   1      -4.404  -0.404  -0.358  1.00  0.00    -0.0176  A
ATOM     43 C18  CHE L   1      -3.838  -1.686  -0.408  1.00  0.00    -0.0540  A
ATOM     44 C19  CHE L   1      -4.439  -2.707  -1.148  1.00  0.00    -0.0612  A
ATOM     45 C20  CHE L   1      -5.618  -2.460  -1.847  1.00  0.00    -0.0617  A
ATOM     46 C21  CHE L   1      -6.197  -1.194  -1.806  1.00  0.00    -0.0612  A
ATOM     47 C22  CHE L   1      -5.595  -0.173  -1.066  1.00  0.00    -0.0540  A
ATOM     48 H44  CHE L   1      -2.914  -1.892   0.130  1.00  0.00    +0.0624  H
ATOM     49 H45  CHE L   1      -3.981  -3.692  -1.179  1.00  0.00    +0.0618  H
ATOM     50 H46  CHE L   1      -6.085  -3.254  -2.423  1.00  0.00    +0.0618  H
ATOM     51 H47  CHE L   1      -7.118  -0.998  -2.349  1.00  0.00    +0.0618  H
ATOM     52 H48  CHE L   1      -6.057   0.812  -1.045  1.00  0.00    +0.0624  H
ENDBRANCH 37 42
ENDBRANCH 29 32
ENDBRANCH 28 29
ENDBRANCH 4 28
TORSDOF 7
