ROOT
ATOM      1  N4  CHE L   1      -1.004  -0.167   0.531  1.00  0.00    -0.3046  N
ATOM      2  C5  CHE L   1       0.289  -0.556   0.866  1.00  0.00    +0.2319  C
ATOM      3  O6  CHE L   1       0.870  -0.141   1.869  1.00  0.00    -0.2725 OA
ATOM      4  C7  CHE L   1       0.945  -1.585  -0.026  1.00  0.00    +0.0653  C
ATOM      5 C16  CHE L   1       0.405  -1.391  -1.419  1.00  0.00    +0.0626  C
ATOM      6 O17  CHE L   1      -0.982  -1.672  -1.372  1.00  0.00    -0.3461 OA
ATOM      7 C18  CHE L   1      -1.745  -0.766  -0.583  1.00  0.00    +0.1844  C
ATOM      8 C19  CHE L   1      -2.862  -1.600  -0.018  1.00  0.00    -0.0242  C
ATOM      9 C20  CHE L   1      -4.162  -1.410  -0.293  1.00  0.00    -0.0141  C
ATOM     10 C21  CHE L   1      -4.589  -0.324  -1.205  1.00  0.00    +0.1787  C
ATOM     11 O22  CHE L   1      -5.773  -0.125  -1.445  1.00  0.00    -0.2879 OA
ATOM     12 C23  CHE L   1      -3.531   0.519  -1.808  1.00  0.00    -0.0141  C
ATOM     13 C24  CHE L   1      -2.238   0.310  -1.515  1.00  0.00    -0.0242  C
ATOM     14 H32  CHE L   1       0.606  -2.554   0.367  1.00  0.00    +0.0422  H
ATOM     15 H39  CHE L   1       0.569  -0.384  -1.820  1.00  0.00    +0.0568  H
ATOM     16 H40  CHE L   1       0.857  -2.107  -2.113  1.00  0.00    +0.0568  H
ATOM     17 H41  CHE L   1      -2.576  -2.415   0.640  1.00  0.00    +0.0624  H
ATOM     18 H42  CHE L   1      -4.945  -2.031   0.123  1.00  0.00    +0.0654  H
ATOM     19 H43  CHE L   1      -3.859   1.297  -2.487  1.00  0.00    +0.0654  H
ATOM     20 H44  CHE L   1      -1.487   0.942  -1.979  1.00  0.00    +0.0624  H
ENDROOT
BRANCH 1 22
ATOM     21  C1  CHE L   1      -1.004   2.195   1.363  1.00  0.00    -0.0447  C
ATOM     22  C2  CHE L   1      -1.699   0.830   1.387  1.00  0.00    +0.0301  C
ATOM     23  C3  CHE L   1      -1.920   0.339   2.821  1.00  0.00    -0.0447  C
ATOM     24 H25  CHE L   1      -0.856   2.538   0.334  1.00  0.00    +0.0249  H
ATOM     25 H26  CHE L   1      -0.025   2.174   1.850  1.00  0.00    +0.0249  H
ATOM     26 H27  CHE L   1      -1.613   2.943   1.883  1.00  0.00    +0.0249  H
ATOM     27 H28  CHE L   1      -2.699   0.994   0.971  1.00  0.00    +0.0520  H
ATOM     28 H29  CHE L   1      -2.396  -0.647   2.829  1.00  0.00    +0.0249  H
ATOM     29 H30  CHE L   1      -2.575   1.031   3.362  1.00  0.00    +0.0249  H
ATOM     30 H31  CHE L   1      -0.989   0.264   3.388  1.00  0.00    +0.0249  H
ENDBRANCH 1 22
BRANCH 4 31
ATOM     31  C8  CHE L   1       2.481  -1.565   0.047  1.00  0.00    -0.0142  C
ATOM     32 H33  CHE L   1       2.818  -1.578   1.091  1.00  0.00    +0.0321  H
ATOM     33 H34  CHE L   1       2.860  -2.503  -0.383  1.00  0.00    +0.0321  H
BRANCH 31 34
ATOM     34  C9  CHE L   1       3.155  -0.413  -0.666  1.00  0.00    -0.0455  A
ATOM     35 C10  CHE L   1       3.303   0.831  -0.037  1.00  0.00    -0.0585  A
ATOM     36 C11  CHE L   1       3.907   1.899  -0.704  1.00  0.00    -0.0605  A
ATOM     37 C12  CHE L   1       4.373   1.737  -2.008  1.00  0.00    -0.0477  A
ATOM     38 C13  CHE L   1       4.236   0.502  -2.637  1.00  0.00    +0.0181  A
ATOM     39 BR14 CHE L   1       4.868   0.276  -4.404  1.00  0.00    -0.0503 Br
ATOM     40 C15  CHE L   1       3.635  -0.570  -1.976  1.00  0.00    -0.0446  A
ATOM     41 H35  CHE L   1       2.955   0.978   0.984  1.00  0.00    +0.0620  H
ATOM     42 H36  CHE L   1       4.016   2.858  -0.202  1.00  0.00    +0.0618  H
ATOM     43 H37  CHE L   1       4.843   2.573  -2.518  1.00  0.00    +0.0629  H
ATOM     44 H38  CHE L   1       3.540  -1.529  -2.480  1.00  0.00    +0.0631  H
ENDBRANCH 31 34
ENDBRANCH 4 31
TORSDOF 3
