ROOT
ATOM      1 C31  WH0 L   1      -0.505  -1.992   0.274  1.00  0.00    -0.0133  A
ATOM      2 C32  WH0 L   1      -0.215  -2.537  -0.999  1.00  0.00    -0.0519  A
ATOM      3 C33  WH0 L   1       0.059  -3.907  -1.141  1.00  0.00    -0.0374  A
ATOM      4 C34  WH0 L   1       0.012  -4.711  -0.004  1.00  0.00    +0.0454  A
ATOM      5 C35  WH0 L   1      -0.298  -4.194   1.237  1.00  0.00    -0.0145  A
ATOM      6 C36  WH0 L   1      -0.573  -2.836   1.401  1.00  0.00    -0.0483  A
ATOM      7 C37  WH0 L   1      -0.274  -5.266   2.278  1.00  0.00    +0.0535  C
ATOM      8 C38  WH0 L   1       0.100  -6.442   1.424  1.00  0.00    +0.2296  C
ATOM      9 O39  WH0 L   1       0.267  -7.609   1.863  1.00  0.00    -0.2725 OA
ATOM     10 N40  WH0 L   1       0.264  -6.102   0.051  1.00  0.00    -0.3256  N
ATOM     11 H62  WH0 L   1      -0.192  -1.897  -1.873  1.00  0.00    +0.0624  H
ATOM     12 H63  WH0 L   1       0.299  -4.327  -2.108  1.00  0.00    +0.0638  H
ATOM     13 H64  WH0 L   1      -0.827  -2.442   2.378  1.00  0.00    +0.0627  H
ATOM     14 H65  WH0 L   1      -1.277  -5.406   2.734  1.00  0.00    +0.0410  H
ATOM     15 H66  WH0 L   1       0.507  -5.064   3.041  1.00  0.00    +0.0410  H
ATOM     16 H67  WH0 L   1       0.532  -6.734  -0.737  1.00  0.00    +0.1686 HD
ENDROOT
BRANCH 1 24
ATOM     17 C10  WH0 L   1       1.260   0.532   1.404  1.00  0.00    -0.0014  A
ATOM     18 C11  WH0 L   1       1.763   1.805   1.734  1.00  0.00    +0.0366  A
ATOM     19 N12  WH0 L   1       1.035   2.930   1.488  1.00  0.00    -0.2204 NA
ATOM     20 C13  WH0 L   1      -0.197   2.870   0.913  1.00  0.00    +0.2284  A
ATOM     21 N20  WH0 L   1      -0.703   1.642   0.605  1.00  0.00    -0.1984  N
ATOM     22 N21  WH0 L   1      -1.876   1.394   0.050  1.00  0.00    -0.1627 NA
ATOM     23 C22  WH0 L   1      -1.984   0.058  -0.098  1.00  0.00    +0.1015  A
ATOM     24 C30  WH0 L   1      -0.832  -0.562   0.395  1.00  0.00    +0.0356  A
ATOM     25 C41  WH0 L   1      -0.032   0.496   0.834  1.00  0.00    +0.0835  A
ATOM     26 H49  WH0 L   1       2.742   1.907   2.184  1.00  0.00    +0.0834  H
BRANCH 17 27
ATOM     27  C9  WH0 L   1       2.121  -0.685   1.642  1.00  0.00    -0.0067  C
ATOM     28 H47  WH0 L   1       1.512  -1.508   2.049  1.00  0.00    +0.0331  H
ATOM     29 H48  WH0 L   1       2.881  -0.476   2.427  1.00  0.00    +0.0331  H
BRANCH 27 30
ATOM     30  C8  WH0 L   1       2.835  -1.138   0.361  1.00  0.00    +0.0225  C
ATOM     31 H45  WH0 L   1       2.111  -1.196  -0.477  1.00  0.00    +0.0489  H
ATOM     32 H46  WH0 L   1       3.254  -2.154   0.527  1.00  0.00    +0.0489  H
BRANCH 30 35
ATOM     33  C5  WH0 L   1       4.696  -0.434  -1.197  1.00  0.00    +0.2618  C
ATOM     34  O6  WH0 L   1       4.434  -1.419  -1.941  1.00  0.00    -0.2669 OA
ATOM     35  N7  WH0 L   1       3.923  -0.227  -0.003  1.00  0.00    -0.3511  N
ATOM     36 H44  WH0 L   1       4.147   0.579   0.621  1.00  0.00    +0.1627 HD
BRANCH 33 38
ATOM     37  C1  WH0 L   1       6.543   0.285  -2.654  1.00  0.00    -0.0760  C
ATOM     38  C2  WH0 L   1       5.798   0.493  -1.564  1.00  0.00    +0.1085  C
ATOM     39 H42  WH0 L   1       7.347   0.964  -2.914  1.00  0.00    +0.0549  H
ATOM     40 H43  WH0 L   1       6.371  -0.562  -3.306  1.00  0.00    +0.0549  H
BRANCH 38 41
ATOM     41  C3  WH0 L   1       6.085   1.643  -0.743  1.00  0.00    +0.1040  C
ATOM     42  N4  WH0 L   1       6.316   2.567  -0.085  1.00  0.00    -0.1907 NA
ENDBRANCH 38 41
ENDBRANCH 33 38
ENDBRANCH 30 35
ENDBRANCH 27 30
ENDBRANCH 17 27
BRANCH 20 43
ATOM     43 N14  WH0 L   1      -0.921   4.090   0.646  1.00  0.00    -0.3359  N
ATOM     44 C15  WH0 L   1      -0.949   5.148   1.663  1.00  0.00    +0.0449  C
ATOM     45 C16  WH0 L   1      -1.069   6.521   0.990  1.00  0.00    +0.0653  C
ATOM     46 O17  WH0 L   1      -2.144   6.542   0.071  1.00  0.00    -0.3763 OA
ATOM     47 C18  WH0 L   1      -1.876   5.651  -0.994  1.00  0.00    +0.0653  C
ATOM     48 C19  WH0 L   1      -1.838   4.206  -0.496  1.00  0.00    +0.0449  C
ATOM     49 H50  WH0 L   1      -0.024   5.136   2.280  1.00  0.00    +0.0511  H
ATOM     50 H51  WH0 L   1      -1.823   4.983   2.332  1.00  0.00    +0.0511  H
ATOM     51 H52  WH0 L   1      -1.259   7.286   1.772  1.00  0.00    +0.0577  H
ATOM     52 H53  WH0 L   1      -0.111   6.800   0.492  1.00  0.00    +0.0577  H
ATOM     53 H54  WH0 L   1      -0.922   5.910  -1.507  1.00  0.00    +0.0577  H
ATOM     54 H55  WH0 L   1      -2.687   5.746  -1.746  1.00  0.00    +0.0577  H
ATOM     55 H56  WH0 L   1      -2.860   3.899  -0.181  1.00  0.00    +0.0511  H
ATOM     56 H57  WH0 L   1      -1.502   3.558  -1.335  1.00  0.00    +0.0511  H
ENDBRANCH 20 43
BRANCH 23 57
ATOM     57 C23  WH0 L   1      -3.153  -0.579  -0.744  1.00  0.00    +0.0029  A
ATOM     58 C24  WH0 L   1      -3.832   0.100  -1.771  1.00  0.00    -0.0498  A
ATOM     59 C25  WH0 L   1      -4.948  -0.478  -2.383  1.00  0.00    -0.0258  A
ATOM     60 C26  WH0 L   1      -5.406  -1.731  -1.967  1.00  0.00    +0.1234  A
ATOM     61 F27  WH0 L   1      -6.493  -2.286  -2.556  1.00  0.00    -0.2055  F
ATOM     62 C28  WH0 L   1      -4.750  -2.405  -0.934  1.00  0.00    -0.0258  A
ATOM     63 C29  WH0 L   1      -3.632  -1.833  -0.320  1.00  0.00    -0.0498  A
ATOM     64 H58  WH0 L   1      -3.489   1.071  -2.109  1.00  0.00    +0.0625  H
ATOM     65 H59  WH0 L   1      -5.458   0.047  -3.180  1.00  0.00    +0.0646  H
ATOM     66 H60  WH0 L   1      -5.115  -3.368  -0.599  1.00  0.00    +0.0646  H
ATOM     67 H61  WH0 L   1      -3.167  -2.357   0.503  1.00  0.00    +0.0625  H
ENDBRANCH 23 57
ENDBRANCH 1 24
TORSDOF 8
