ROOT
ATOM      1 C10  332 L   1       0.425  -0.817   0.120  1.00  0.00    +0.0099  A
ATOM      2 C11  332 L   1       0.949  -1.479  -1.017  1.00  0.00    +0.0646  A
ATOM      3 C12  332 L   1       0.275  -2.468  -1.896  1.00  0.00    -0.0203  C
ATOM      4 N13  332 L   1       2.205  -1.114  -1.270  1.00  0.00    -0.1754 NA
ATOM      5 N14  332 L   1       2.526  -0.238  -0.291  1.00  0.00    -0.2628  N
ATOM      6 C19  332 L   1       1.478  -0.037   0.587  1.00  0.00    +0.0414  A
ATOM      7 C20  332 L   1       1.511   0.849   1.780  1.00  0.00    -0.0223  C
ATOM      8 H34  332 L   1       0.930  -2.800  -2.709  1.00  0.00    +0.0293  H
ATOM      9 H35  332 L   1      -0.016  -3.350  -1.319  1.00  0.00    +0.0293  H
ATOM     10 H36  332 L   1      -0.623  -2.033  -2.343  1.00  0.00    +0.0293  H
ATOM     11 H46  332 L   1       0.518   0.966   2.225  1.00  0.00    +0.0292  H
ATOM     12 H47  332 L   1       2.151   0.420   2.557  1.00  0.00    +0.0292  H
ATOM     13 H48  332 L   1       1.865   1.852   1.530  1.00  0.00    +0.0292  H
ENDROOT
BRANCH 1 14
ATOM     14  C9  332 L   1      -0.958  -0.973   0.692  1.00  0.00    +0.0279  C
ATOM     15 H32  332 L   1      -0.815  -1.355   1.709  1.00  0.00    +0.0477  H
ATOM     16 H33  332 L   1      -1.531  -1.722   0.132  1.00  0.00    +0.0477  H
BRANCH 14 20
ATOM     17  C3  332 L   1      -3.451   0.860  -0.854  1.00  0.00    +0.0725  C
ATOM     18  C4  332 L   1      -3.975   0.010   0.289  1.00  0.00    -0.0076  C
ATOM     19  C5  332 L   1      -2.973   0.294   1.404  1.00  0.00    +0.0363  C
ATOM     20  N8  332 L   1      -1.656   0.321   0.721  1.00  0.00    -0.2904 NA
ATOM     21 C21  332 L   1      -1.926   0.857  -0.635  1.00  0.00    +0.0259  C
ATOM     22 H25  332 L   1      -3.741   0.423  -1.818  1.00  0.00    +0.0609  H
ATOM     23 H26  332 L   1      -3.962  -1.048   0.003  1.00  0.00    +0.0306  H
ATOM     24 H27  332 L   1      -4.993   0.284   0.585  1.00  0.00    +0.0306  H
ATOM     25 H28  332 L   1      -3.138   1.319   1.768  1.00  0.00    +0.0486  H
ATOM     26 H49  332 L   1      -1.460   0.256  -1.426  1.00  0.00    +0.0452  H
ATOM     27 H50  332 L   1      -1.504   1.868  -0.696  1.00  0.00    +0.0452  H
BRANCH 17 29
ATOM     28  C1  332 L   1      -3.864   2.949  -1.911  1.00  0.00    +0.0369  C
ATOM     29  O2  332 L   1      -4.013   2.175  -0.726  1.00  0.00    -0.3785 OA
ATOM     30 H22  332 L   1      -4.264   3.949  -1.719  1.00  0.00    +0.0524  H
ATOM     31 H23  332 L   1      -2.812   3.043  -2.196  1.00  0.00    +0.0524  H
ATOM     32 H24  332 L   1      -4.435   2.498  -2.730  1.00  0.00    +0.0524  H
ENDBRANCH 17 29
BRANCH 19 33
ATOM     33  C6  332 L   1      -3.160  -0.620   2.630  1.00  0.00    +0.0598  C
ATOM     34  O7  332 L   1      -3.210  -2.000   2.277  1.00  0.00    -0.3935 OA
ATOM     35 H29  332 L   1      -2.351  -0.468   3.352  1.00  0.00    +0.0573  H
ATOM     36 H30  332 L   1      -4.106  -0.374   3.126  1.00  0.00    +0.0573  H
ATOM     37 H31  332 L   1      -3.324  -2.498   3.106  1.00  0.00    +0.2095 HD
ENDBRANCH 19 33
ENDBRANCH 14 20
ENDBRANCH 1 14
BRANCH 5 38
ATOM     38 C15  332 L   1       3.861   0.401  -0.343  1.00  0.00    +0.0556  C
ATOM     39 C16  332 L   1       3.719   1.831  -0.894  1.00  0.00    -0.0403  C
ATOM     40 C17  332 L   1       4.818  -0.372  -1.290  1.00  0.00    -0.0403  C
ATOM     41 C18  332 L   1       4.551   0.432   1.036  1.00  0.00    -0.0403  C
ATOM     42 H37  332 L   1       3.256   1.827  -1.888  1.00  0.00    +0.0253  H
ATOM     43 H38  332 L   1       4.697   2.319  -0.984  1.00  0.00    +0.0253  H
ATOM     44 H39  332 L   1       3.097   2.461  -0.251  1.00  0.00    +0.0253  H
ATOM     45 H40  332 L   1       4.937  -1.414  -0.971  1.00  0.00    +0.0253  H
ATOM     46 H41  332 L   1       5.815   0.085  -1.308  1.00  0.00    +0.0253  H
ATOM     47 H42  332 L   1       4.453  -0.377  -2.323  1.00  0.00    +0.0253  H
ATOM     48 H43  332 L   1       4.497  -0.544   1.530  1.00  0.00    +0.0253  H
ATOM     49 H44  332 L   1       5.610   0.700   0.944  1.00  0.00    +0.0253  H
ATOM     50 H45  332 L   1       4.113   1.179   1.703  1.00  0.00    +0.0253  H
ENDBRANCH 5 38
TORSDOF 5
