ROOT
ATOM      1 C11  CHE L   1       1.896   0.599  -0.249  1.00  0.00    +0.0469  A
ATOM      2 C12  CHE L   1       1.926  -0.789   0.019  1.00  0.00    -0.0270  A
ATOM      3 C13  CHE L   1       0.779  -1.442   0.469  1.00  0.00    +0.0871  A
ATOM      4 CL14 CHE L   1       0.825  -3.128   0.797  1.00  0.00    -0.0796 Cl
ATOM      5 C15  CHE L   1      -0.370  -0.701   0.651  1.00  0.00    +0.1853  A
ATOM      6 C16  CHE L   1      -0.394   0.652   0.396  1.00  0.00    +0.1719  A
ATOM      7 C17  CHE L   1       0.716   1.348  -0.065  1.00  0.00    +0.0074  A
ATOM      8 C18  CHE L   1       0.645   2.825  -0.315  1.00  0.00    -0.0354  C
ATOM      9 O19  CHE L   1      -1.618   1.196   0.652  1.00  0.00    -0.4472 OA
ATOM     10 C20  CHE L   1      -2.389   0.039   1.084  1.00  0.00    +0.2539  C
ATOM     11 C21  CHE L   1      -2.811   0.302   2.529  1.00  0.00    +0.0131  C
ATOM     12 O31  CHE L   1      -1.572  -1.163   1.094  1.00  0.00    -0.4460 OA
ATOM     13 H45  CHE L   1       2.851  -1.350  -0.099  1.00  0.00    +0.0641  H
ATOM     14 H46  CHE L   1       1.114   3.370   0.510  1.00  0.00    +0.0279  H
ATOM     15 H47  CHE L   1       1.142   3.086  -1.256  1.00  0.00    +0.0279  H
ATOM     16 H48  CHE L   1      -0.390   3.170  -0.405  1.00  0.00    +0.0279  H
ATOM     17 H49  CHE L   1      -3.363  -0.539   2.954  1.00  0.00    +0.0305  H
ATOM     18 H50  CHE L   1      -3.390   1.223   2.626  1.00  0.00    +0.0305  H
ATOM     19 H51  CHE L   1      -1.923   0.433   3.161  1.00  0.00    +0.0305  H
ENDROOT
BRANCH 1 21
ATOM     20  N8  CHE L   1       3.829   0.610  -1.698  1.00  0.00    -0.3478  N
ATOM     21  C9  CHE L   1       3.155   1.255  -0.690  1.00  0.00    +0.2527  C
ATOM     22 O10  CHE L   1       3.532   2.293  -0.162  1.00  0.00    -0.2676 OA
ATOM     23 H44  CHE L   1       3.481  -0.261  -2.082  1.00  0.00    +0.1630 HD
BRANCH 20 24
ATOM     24  C7  CHE L   1       5.143   1.022  -2.140  1.00  0.00    +0.0491  C
ATOM     25 H42  CHE L   1       5.263   2.097  -1.991  1.00  0.00    +0.0538  H
ATOM     26 H43  CHE L   1       5.198   0.851  -3.221  1.00  0.00    +0.0538  H
BRANCH 24 32
ATOM     27  C1  CHE L   1       9.064  -2.551   0.245  1.00  0.00    -0.0244  C
ATOM     28  C2  CHE L   1       8.085  -1.559  -0.301  1.00  0.00    +0.0162  A
ATOM     29  C3  CHE L   1       8.001  -0.287   0.114  1.00  0.00    -0.0393  A
ATOM     30  C4  CHE L   1       7.026   0.632  -0.458  1.00  0.00    -0.0388  A
ATOM     31  C5  CHE L   1       7.065   2.018   0.124  1.00  0.00    -0.0392  C
ATOM     32  C6  CHE L   1       6.178   0.207  -1.422  1.00  0.00    +0.0389  A
ATOM     33 C32  CHE L   1       6.264  -1.223  -1.871  1.00  0.00    +0.2540  A
ATOM     34 O33  CHE L   1       5.501  -1.686  -2.714  1.00  0.00    -0.2675 OA
ATOM     35 N34  CHE L   1       7.228  -1.998  -1.279  1.00  0.00    -0.3262  N
ATOM     36 H35  CHE L   1       9.715  -2.924  -0.552  1.00  0.00    +0.0292  H
ATOM     37 H36  CHE L   1       8.538  -3.402   0.690  1.00  0.00    +0.0292  H
ATOM     38 H37  CHE L   1       9.702  -2.111   1.019  1.00  0.00    +0.0292  H
ATOM     39 H38  CHE L   1       8.664   0.086   0.890  1.00  0.00    +0.0637  H
ATOM     40 H39  CHE L   1       6.301   2.685  -0.280  1.00  0.00    +0.0278  H
ATOM     41 H40  CHE L   1       8.037   2.484  -0.071  1.00  0.00    +0.0278  H
ATOM     42 H41  CHE L   1       6.912   1.980   1.208  1.00  0.00    +0.0278  H
ATOM     43 H68  CHE L   1       7.267  -2.959  -1.596  1.00  0.00    +0.1686 HD
ENDBRANCH 24 32
ENDBRANCH 20 24
ENDBRANCH 1 21
BRANCH 10 44
ATOM     44 C22  CHE L   1      -3.561  -0.172   0.072  1.00  0.00    +0.0362  C
ATOM     45 C23  CHE L   1      -4.384  -1.458   0.300  1.00  0.00    -0.0417  C
ATOM     46 C24  CHE L   1      -5.635  -1.279   1.161  1.00  0.00    -0.0369  C
ATOM     47 C25  CHE L   1      -6.547  -0.141   0.658  1.00  0.00    +0.0099  C
ATOM     48 C29  CHE L   1      -5.694   1.143   0.730  1.00  0.00    -0.0369  C
ATOM     49 C30  CHE L   1      -4.447   1.073  -0.152  1.00  0.00    -0.0417  C
ATOM     50 H52  CHE L   1      -3.048  -0.331  -0.891  1.00  0.00    +0.0376  H
ATOM     51 H53  CHE L   1      -3.764  -2.253   0.728  1.00  0.00    +0.0271  H
ATOM     52 H54  CHE L   1      -4.699  -1.834  -0.683  1.00  0.00    +0.0271  H
ATOM     53 H55  CHE L   1      -6.178  -2.229   1.220  1.00  0.00    +0.0280  H
ATOM     54 H56  CHE L   1      -5.343  -1.065   2.195  1.00  0.00    +0.0280  H
ATOM     55 H57  CHE L   1      -7.377  -0.035   1.371  1.00  0.00    +0.0462  H
ATOM     56 H64  CHE L   1      -6.282   2.028   0.463  1.00  0.00    +0.0280  H
ATOM     57 H65  CHE L   1      -5.401   1.312   1.772  1.00  0.00    +0.0280  H
ATOM     58 H66  CHE L   1      -4.771   1.071  -1.201  1.00  0.00    +0.0271  H
ATOM     59 H67  CHE L   1      -3.868   1.995  -0.030  1.00  0.00    +0.0271  H
BRANCH 47 60
ATOM     60 N26  CHE L   1      -7.109  -0.394  -0.695  1.00  0.00    -0.3054 NA
ATOM     61 C27  CHE L   1      -7.959   0.711  -1.158  1.00  0.00    -0.0128  C
ATOM     62 C28  CHE L   1      -7.894  -1.634  -0.746  1.00  0.00    -0.0128  C
ATOM     63 H58  CHE L   1      -8.765   0.933  -0.450  1.00  0.00    +0.0391  H
ATOM     64 H59  CHE L   1      -7.376   1.621  -1.329  1.00  0.00    +0.0391  H
ATOM     65 H60  CHE L   1      -8.411   0.473  -2.128  1.00  0.00    +0.0391  H
ATOM     66 H61  CHE L   1      -8.349  -1.766  -1.735  1.00  0.00    +0.0391  H
ATOM     67 H62  CHE L   1      -8.696  -1.645   0.002  1.00  0.00    +0.0391  H
ATOM     68 H63  CHE L   1      -7.263  -2.516  -0.601  1.00  0.00    +0.0391  H
ENDBRANCH 47 60
ENDBRANCH 10 44
TORSDOF 5
