ROOT
ATOM      1  C5  MCU L   1      -0.674   0.965  -1.235  1.00  0.00    +0.0377  C
ATOM      2  C6  MCU L   1      -1.832   1.804  -1.904  1.00  0.00    -0.0110  C
ATOM      3  C7  MCU L   1      -3.166   1.279  -1.528  1.00  0.00    -0.0013  A
ATOM      4  C8  MCU L   1      -4.398   1.255  -2.183  1.00  0.00    +0.0536  A
ATOM      5  N9  MCU L   1      -5.334   0.634  -1.463  1.00  0.00    -0.1740 NA
ATOM      6 N10  MCU L   1      -4.738   0.354  -0.262  1.00  0.00    -0.2324  N
ATOM      7 C18  MCU L   1      -3.376   0.623  -0.335  1.00  0.00    +0.0707  A
ATOM      8 C19  MCU L   1      -2.359   0.237   0.567  1.00  0.00    -0.0360  C
ATOM      9 C20  MCU L   1      -1.079   0.401   0.164  1.00  0.00    -0.0555  C
ATOM     10 C21  MCU L   1       0.073  -0.011   1.056  1.00  0.00    -0.0123  C
ATOM     11 C22  MCU L   1       1.159   1.063   1.113  1.00  0.00    +0.0331  C
ATOM     12 N23  MCU L   1       1.644   1.368  -0.261  1.00  0.00    -0.2958 NA
ATOM     13 C37  MCU L   1       0.550   1.916  -1.117  1.00  0.00    +0.0412  C
ATOM     14 H45  MCU L   1      -1.719   1.835  -2.994  1.00  0.00    +0.0324  H
ATOM     15 H46  MCU L   1      -1.791   2.846  -1.560  1.00  0.00    +0.0324  H
ATOM     16 H47  MCU L   1      -4.659   1.639  -3.161  1.00  0.00    +0.0851  H
ATOM     17 H52  MCU L   1      -2.573  -0.240   1.516  1.00  0.00    +0.0639  H
ATOM     18 H53  MCU L   1       0.499  -0.951   0.687  1.00  0.00    +0.0328  H
ATOM     19 H54  MCU L   1      -0.277  -0.209   2.077  1.00  0.00    +0.0328  H
ATOM     20 H55  MCU L   1       1.979   0.684   1.731  1.00  0.00    +0.0498  H
ATOM     21 H56  MCU L   1       0.769   1.974   1.584  1.00  0.00    +0.0498  H
ATOM     22 H61  MCU L   1       0.242   2.878  -0.685  1.00  0.00    +0.0505  H
ATOM     23 H62  MCU L   1       0.934   2.117  -2.125  1.00  0.00    +0.0505  H
ENDROOT
BRANCH 1 24
ATOM     24  C4  MCU L   1      -0.376  -0.223  -2.206  1.00  0.00    +0.0589  C
ATOM     25 H43  MCU L   1      -0.172   0.165  -3.212  1.00  0.00    +0.0569  H
ATOM     26 H44  MCU L   1      -1.258  -0.874  -2.273  1.00  0.00    +0.0569  H
BRANCH 24 27
ATOM     27  O3  MCU L   1       0.749  -1.010  -1.810  1.00  0.00    -0.3791 OA
BRANCH 27 29
ATOM     28  C1  MCU L   1       2.117  -2.937  -2.162  1.00  0.00    -0.0416  C
ATOM     29  C2  MCU L   1       0.914  -2.153  -2.646  1.00  0.00    +0.0449  C
ATOM     30 H38  MCU L   1       2.005  -3.208  -1.107  1.00  0.00    +0.0252  H
ATOM     31 H39  MCU L   1       2.250  -3.849  -2.751  1.00  0.00    +0.0252  H
ATOM     32 H40  MCU L   1       3.027  -2.334  -2.243  1.00  0.00    +0.0252  H
ATOM     33 H41  MCU L   1       0.019  -2.782  -2.590  1.00  0.00    +0.0557  H
ATOM     34 H42  MCU L   1       1.066  -1.836  -3.683  1.00  0.00    +0.0557  H
ENDBRANCH 27 29
ENDBRANCH 24 27
ENDBRANCH 1 24
BRANCH 6 35
ATOM     35 C11  MCU L   1      -5.550  -0.113   0.815  1.00  0.00    +0.0662  A
ATOM     36 C12  MCU L   1      -5.174   0.050   2.155  1.00  0.00    -0.0335  A
ATOM     37 C13  MCU L   1      -6.007  -0.414   3.178  1.00  0.00    -0.0244  A
ATOM     38 C14  MCU L   1      -7.217  -1.022   2.865  1.00  0.00    +0.1235  A
ATOM     39 F15  MCU L   1      -8.010  -1.461   3.850  1.00  0.00    -0.2055  F
ATOM     40 C16  MCU L   1      -7.621  -1.165   1.544  1.00  0.00    -0.0244  A
ATOM     41 C17  MCU L   1      -6.794  -0.702   0.519  1.00  0.00    -0.0335  A
ATOM     42 H48  MCU L   1      -4.277   0.588   2.441  1.00  0.00    +0.0640  H
ATOM     43 H49  MCU L   1      -5.729  -0.286   4.220  1.00  0.00    +0.0647  H
ATOM     44 H50  MCU L   1      -8.575  -1.630   1.319  1.00  0.00    +0.0647  H
ATOM     45 H51  MCU L   1      -7.124  -0.820  -0.513  1.00  0.00    +0.0640  H
ENDBRANCH 6 35
BRANCH 12 46
ATOM     46 S24  MCU L   1       3.083   2.281  -0.337  1.00  0.00    +0.2612  S
ATOM     47 O25  MCU L   1       2.936   3.390   0.583  1.00  0.00    -0.2001 OA
ATOM     48 O26  MCU L   1       3.420   2.500  -1.727  1.00  0.00    -0.2001 OA
BRANCH 46 49
ATOM     49 C27  MCU L   1       4.292   1.159   0.319  1.00  0.00    +0.0867  A
ATOM     50 C28  MCU L   1       4.500  -0.059  -0.333  1.00  0.00    -0.0413  A
ATOM     51 C29  MCU L   1       5.450  -0.953   0.164  1.00  0.00    -0.0489  A
ATOM     52 C30  MCU L   1       6.194  -0.635   1.313  1.00  0.00    +0.0549  A
ATOM     53 C35  MCU L   1       5.975   0.600   1.951  1.00  0.00    -0.0489  A
ATOM     54 C36  MCU L   1       5.026   1.498   1.457  1.00  0.00    -0.0413  A
ATOM     55 H57  MCU L   1       3.925  -0.308  -1.223  1.00  0.00    +0.0631  H
ATOM     56 H58  MCU L   1       5.608  -1.900  -0.351  1.00  0.00    +0.0623  H
ATOM     57 H59  MCU L   1       6.551   0.866   2.837  1.00  0.00    +0.0623  H
ATOM     58 H60  MCU L   1       4.871   2.451   1.958  1.00  0.00    +0.0631  H
BRANCH 52 59
ATOM     59 C31  MCU L   1       7.235  -1.587   1.854  1.00  0.00    +0.4174  C
ATOM     60 F32  MCU L   1       7.217  -2.811   1.255  1.00  0.00    -0.1659  F
ATOM     61 F33  MCU L   1       7.082  -1.824   3.187  1.00  0.00    -0.1659  F
ATOM     62 F34  MCU L   1       8.502  -1.113   1.701  1.00  0.00    -0.1659  F
ENDBRANCH 52 59
ENDBRANCH 46 49
ENDBRANCH 12 46
TORSDOF 7
