ROOT
ATOM      1  F1  SEL L   1      -7.251  -3.146   1.267  1.00  0.00    -0.2055  F
ATOM      2  C2  SEL L   1      -6.210  -2.485   0.742  1.00  0.00    +0.1234  A
ATOM      3  C3  SEL L   1      -5.638  -2.937  -0.440  1.00  0.00    -0.0261  A
ATOM      4  C4  SEL L   1      -4.553  -2.249  -0.985  1.00  0.00    -0.0540  A
ATOM      5  C5  SEL L   1      -4.040  -1.097  -0.357  1.00  0.00    -0.0242  A
ATOM      6 C29  SEL L   1      -4.629  -0.673   0.849  1.00  0.00    -0.0540  A
ATOM      7 C30  SEL L   1      -5.714  -1.363   1.393  1.00  0.00    -0.0261  A
ATOM      8 H31  SEL L   1      -6.033  -3.824  -0.924  1.00  0.00    +0.0646  H
ATOM      9 H32  SEL L   1      -4.095  -2.620  -1.901  1.00  0.00    +0.0622  H
ATOM     10 H54  SEL L   1      -4.239   0.192   1.383  1.00  0.00    +0.0622  H
ATOM     11 H55  SEL L   1      -6.169  -1.035   2.322  1.00  0.00    +0.0646  H
ENDROOT
BRANCH 5 12
ATOM     12  C6  SEL L   1      -2.835  -0.376  -0.980  1.00  0.00    +0.0783  C
ATOM     13 H33  SEL L   1      -2.995  -0.482  -2.065  1.00  0.00    +0.0578  H
BRANCH 12 14
ATOM     14  C7  SEL L   1      -2.848   1.156  -0.758  1.00  0.00    +0.0630  A
ATOM     15  C8  SEL L   1      -3.615   1.956  -1.616  1.00  0.00    -0.0358  A
ATOM     16  C9  SEL L   1      -3.656   3.335  -1.415  1.00  0.00    -0.0232  A
ATOM     17 C10  SEL L   1      -2.939   3.879  -0.365  1.00  0.00    +0.1414  A
ATOM     18 F11  SEL L   1      -2.957   5.200  -0.145  1.00  0.00    -0.2039  F
ATOM     19 C12  SEL L   1      -2.211   3.037   0.453  1.00  0.00    +0.0631  A
ATOM     20 N13  SEL L   1      -2.155   1.694   0.285  1.00  0.00    -0.2551 NA
ATOM     21 H34  SEL L   1      -4.182   1.513  -2.431  1.00  0.00    +0.0637  H
ATOM     22 H35  SEL L   1      -4.241   3.977  -2.065  1.00  0.00    +0.0647  H
ATOM     23 H36  SEL L   1      -1.642   3.433   1.287  1.00  0.00    +0.0859  H
ENDBRANCH 12 14
BRANCH 12 24
ATOM     24 N14  SEL L   1      -1.563  -1.105  -0.734  1.00  0.00    -0.2879 NA
ATOM     25 C15  SEL L   1      -0.442  -0.567  -1.523  1.00  0.00    +0.0126  C
ATOM     26 C16  SEL L   1       0.872  -1.357  -1.305  1.00  0.00    +0.0121  C
ATOM     27 N17  SEL L   1       1.283  -1.513   0.107  1.00  0.00    -0.2963 NA
ATOM     28 C27  SEL L   1       0.125  -2.053   0.854  1.00  0.00    +0.0121  C
ATOM     29 C28  SEL L   1      -1.191  -1.256   0.682  1.00  0.00    +0.0126  C
ATOM     30 H37  SEL L   1      -0.260   0.489  -1.294  1.00  0.00    +0.0439  H
ATOM     31 H38  SEL L   1      -0.691  -0.624  -2.590  1.00  0.00    +0.0439  H
ATOM     32 H39  SEL L   1       0.743  -2.363  -1.728  1.00  0.00    +0.0439  H
ATOM     33 H40  SEL L   1       1.672  -0.902  -1.899  1.00  0.00    +0.0439  H
ATOM     34 H50  SEL L   1      -0.044  -3.086   0.518  1.00  0.00    +0.0439  H
ATOM     35 H51  SEL L   1       0.368  -2.135   1.921  1.00  0.00    +0.0439  H
ATOM     36 H52  SEL L   1      -1.968  -1.810   1.221  1.00  0.00    +0.0439  H
ATOM     37 H53  SEL L   1      -1.079  -0.290   1.183  1.00  0.00    +0.0439  H
BRANCH 27 38
ATOM     38 C18  SEL L   1       1.755  -0.260   0.713  1.00  0.00    +0.0175  C
ATOM     39 H41  SEL L   1       1.795  -0.380   1.804  1.00  0.00    +0.0470  H
ATOM     40 H42  SEL L   1       1.075   0.578   0.527  1.00  0.00    +0.0470  H
BRANCH 38 41
ATOM     41 C19  SEL L   1       3.131   0.114   0.233  1.00  0.00    -0.0695  C
ATOM     42 C20  SEL L   1       4.208   0.195   1.033  1.00  0.00    -0.0573  C
ATOM     43 H43  SEL L   1       3.223   0.361  -0.820  1.00  0.00    +0.0585  H
ATOM     44 H44  SEL L   1       4.119  -0.020   2.095  1.00  0.00    +0.0621  H
BRANCH 42 45
ATOM     45 C21  SEL L   1       5.547   0.579   0.568  1.00  0.00    -0.0253  A
ATOM     46 C22  SEL L   1       6.071   0.126  -0.650  1.00  0.00    -0.0546  A
ATOM     47 C23  SEL L   1       7.361   0.488  -1.047  1.00  0.00    -0.0612  A
ATOM     48 C24  SEL L   1       8.143   1.299  -0.227  1.00  0.00    -0.0617  A
ATOM     49 C25  SEL L   1       7.638   1.742   0.994  1.00  0.00    -0.0612  A
ATOM     50 C26  SEL L   1       6.349   1.379   1.392  1.00  0.00    -0.0546  A
ATOM     51 H45  SEL L   1       5.485  -0.525  -1.294  1.00  0.00    +0.0623  H
ATOM     52 H46  SEL L   1       7.756   0.131  -1.995  1.00  0.00    +0.0618  H
ATOM     53 H47  SEL L   1       9.146   1.579  -0.535  1.00  0.00    +0.0618  H
ATOM     54 H48  SEL L   1       8.248   2.369   1.639  1.00  0.00    +0.0618  H
ATOM     55 H49  SEL L   1       5.972   1.733   2.349  1.00  0.00    +0.0623  H
ENDBRANCH 42 45
ENDBRANCH 38 41
ENDBRANCH 27 38
ENDBRANCH 12 24
ENDBRANCH 5 12
TORSDOF 6
