ROOT
ATOM      1 C17  CHE L   1      -2.901  -0.164  -0.242  1.00  0.00    -0.0382  C
ATOM      2 C18  CHE L   1      -3.201   0.201  -1.503  1.00  0.00    -0.0662  C
ATOM      3 C19  CHE L   1      -4.580   0.615  -1.934  1.00  0.00    +0.0174  C
ATOM      4 N20  CHE L   1      -5.631   0.306  -0.953  1.00  0.00    -0.3014 NA
ATOM      5 C21  CHE L   1      -6.880   0.975  -1.304  1.00  0.00    -0.0124  C
ATOM      6 C22  CHE L   1      -5.199   0.662   0.406  1.00  0.00    +0.0029  C
ATOM      7 C23  CHE L   1      -3.969  -0.165   0.823  1.00  0.00    -0.0144  C
ATOM      8 H40  CHE L   1      -2.435   0.209  -2.274  1.00  0.00    +0.0588  H
ATOM      9 H41  CHE L   1      -4.815   0.098  -2.872  1.00  0.00    +0.0470  H
ATOM     10 H42  CHE L   1      -4.549   1.691  -2.151  1.00  0.00    +0.0470  H
ATOM     11 H43  CHE L   1      -7.678   0.685  -0.613  1.00  0.00    +0.0391  H
ATOM     12 H44  CHE L   1      -6.786   2.066  -1.283  1.00  0.00    +0.0391  H
ATOM     13 H45  CHE L   1      -7.208   0.676  -2.306  1.00  0.00    +0.0391  H
ATOM     14 H46  CHE L   1      -6.003   0.459   1.124  1.00  0.00    +0.0430  H
ATOM     15 H47  CHE L   1      -4.970   1.734   0.473  1.00  0.00    +0.0430  H
ATOM     16 H48  CHE L   1      -4.288  -1.194   1.025  1.00  0.00    +0.0326  H
ATOM     17 H49  CHE L   1      -3.575   0.249   1.759  1.00  0.00    +0.0326  H
ENDROOT
BRANCH 1 22
ATOM     18 C10  CHE L   1       0.840   0.139   0.296  1.00  0.00    +0.0427  A
ATOM     19 C11  CHE L   1       1.125  -1.107   0.850  1.00  0.00    -0.0348  A
ATOM     20 C12  CHE L   1       0.119  -2.060   1.061  1.00  0.00    -0.0174  A
ATOM     21 C13  CHE L   1      -1.207  -1.792   0.711  1.00  0.00    +0.1276  A
ATOM     22 C16  CHE L   1      -1.524  -0.544   0.143  1.00  0.00    +0.0215  A
ATOM     23 C24  CHE L   1      -0.494   0.399  -0.057  1.00  0.00    -0.0274  A
ATOM     24 H35  CHE L   1       2.137  -1.366   1.141  1.00  0.00    +0.0639  H
ATOM     25 H36  CHE L   1       0.414  -3.006   1.502  1.00  0.00    +0.0655  H
ATOM     26 H50  CHE L   1      -0.747   1.364  -0.490  1.00  0.00    +0.0645  H
BRANCH 18 27
ATOM     27  N9  CHE L   1       1.802   1.123   0.047  1.00  0.00    -0.3241  N
ATOM     28 H34  CHE L   1       1.468   2.024  -0.261  1.00  0.00    +0.1688 HD
BRANCH 27 34
ATOM     29  C3  CHE L   1       5.239   0.287   0.713  1.00  0.00    +0.1323  A
ATOM     30  C4  CHE L   1       5.856   1.492   0.448  1.00  0.00    +0.0016  A
ATOM     31  C5  CHE L   1       5.047   2.530   0.043  1.00  0.00    +0.0455  A
ATOM     32  C6  CHE L   1       5.636   3.874  -0.262  1.00  0.00    -0.0221  C
ATOM     33  N7  CHE L   1       3.716   2.391  -0.090  1.00  0.00    -0.2174 NA
ATOM     34  C8  CHE L   1       3.183   1.194   0.205  1.00  0.00    +0.2304  A
ATOM     35 N25  CHE L   1       3.910   0.141   0.605  1.00  0.00    -0.1953 NA
ATOM     36 H30  CHE L   1       6.924   1.617   0.567  1.00  0.00    +0.0672  H
ATOM     37 H31  CHE L   1       4.858   4.578  -0.576  1.00  0.00    +0.0293  H
ATOM     38 H32  CHE L   1       6.126   4.283   0.627  1.00  0.00    +0.0293  H
ATOM     39 H33  CHE L   1       6.367   3.792  -1.072  1.00  0.00    +0.0293  H
BRANCH 29 41
ATOM     40  C1  CHE L   1       5.329  -2.029   1.363  1.00  0.00    +0.0054  C
ATOM     41  N2  CHE L   1       6.047  -0.782   1.150  1.00  0.00    -0.3726  N
ATOM     42 H26  CHE L   1       4.859  -2.386   0.440  1.00  0.00    +0.0450  H
ATOM     43 H27  CHE L   1       6.038  -2.795   1.691  1.00  0.00    +0.0450  H
ATOM     44 H28  CHE L   1       4.572  -1.927   2.148  1.00  0.00    +0.0450  H
ATOM     45 H29  CHE L   1       6.821  -0.901   0.503  1.00  0.00    +0.1607 HD
ENDBRANCH 29 41
ENDBRANCH 27 34
ENDBRANCH 18 27
BRANCH 21 46
ATOM     46 O14  CHE L   1      -2.239  -2.680   0.872  1.00  0.00    -0.4945 OA
ATOM     47 C15  CHE L   1      -1.928  -3.976   1.362  1.00  0.00    +0.0788  C
ATOM     48 H37  CHE L   1      -2.857  -4.554   1.391  1.00  0.00    +0.0660  H
ATOM     49 H38  CHE L   1      -1.536  -3.928   2.383  1.00  0.00    +0.0660  H
ATOM     50 H39  CHE L   1      -1.234  -4.497   0.694  1.00  0.00    +0.0660  H
ENDBRANCH 21 46
ENDBRANCH 1 22
TORSDOF 5
