ROOT
ATOM      1  C3  CHE L   1      -5.177   0.663   0.528  1.00  0.00    -0.0476  A
ATOM      2  C4  CHE L   1      -3.959   0.712   1.214  1.00  0.00    -0.0580  A
ATOM      3  C5  CHE L   1      -2.830   0.065   0.702  1.00  0.00    -0.0526  A
ATOM      4  C6  CHE L   1      -2.902  -0.648  -0.504  1.00  0.00    -0.0023  A
ATOM      5 C24  CHE L   1      -4.116  -0.685  -1.194  1.00  0.00    -0.0526  A
ATOM      6 C25  CHE L   1      -5.246  -0.042  -0.678  1.00  0.00    -0.0580  A
ATOM      7 H31  CHE L   1      -3.877   1.261   2.149  1.00  0.00    +0.0620  H
ATOM      8 H32  CHE L   1      -1.894   0.127   1.251  1.00  0.00    +0.0624  H
ATOM      9 H45  CHE L   1      -4.209  -1.199  -2.145  1.00  0.00    +0.0624  H
ATOM     10 H46  CHE L   1      -6.180  -0.088  -1.230  1.00  0.00    +0.0620  H
ENDROOT
BRANCH 1 12
ATOM     11  C1  CHE L   1      -7.107   0.476   2.119  1.00  0.00    -0.0613  C
ATOM     12  C2  CHE L   1      -6.399   1.344   1.090  1.00  0.00    -0.0305  C
ATOM     13 H26  CHE L   1      -7.979   1.001   2.522  1.00  0.00    +0.0233  H
ATOM     14 H27  CHE L   1      -6.446   0.223   2.954  1.00  0.00    +0.0233  H
ATOM     15 H28  CHE L   1      -7.455  -0.460   1.673  1.00  0.00    +0.0233  H
ATOM     16 H29  CHE L   1      -7.095   1.587   0.277  1.00  0.00    +0.0311  H
ATOM     17 H30  CHE L   1      -6.111   2.302   1.539  1.00  0.00    +0.0311  H
ENDBRANCH 1 12
BRANCH 4 18
ATOM     18  C7  CHE L   1      -1.667  -1.323  -1.033  1.00  0.00    +0.0655  C
ATOM     19  C8  CHE L   1      -1.839  -2.326  -2.160  1.00  0.00    -0.0201  C
ATOM     20  N9  CHE L   1      -0.519  -1.028  -0.482  1.00  0.00    -0.1758 NA
ATOM     21 H33  CHE L   1      -2.737  -2.931  -2.001  1.00  0.00    +0.0293  H
ATOM     22 H34  CHE L   1      -1.002  -3.025  -2.207  1.00  0.00    +0.0293  H
ATOM     23 H35  CHE L   1      -1.920  -1.797  -3.112  1.00  0.00    +0.0293  H
BRANCH 20 24
ATOM     24 N10  CHE L   1       0.628  -1.538  -1.032  1.00  0.00    -0.2451  N
ATOM     25 C11  CHE L   1       1.067  -1.090  -2.279  1.00  0.00    +0.2600  C
ATOM     26 O12  CHE L   1       0.413  -0.414  -3.073  1.00  0.00    -0.2695 OA
ATOM     27 H36  CHE L   1       1.383  -1.639  -0.348  1.00  0.00    +0.1918 HD
BRANCH 25 28
ATOM     28 C13  CHE L   1       2.520  -1.468  -2.557  1.00  0.00    +0.0987  C
ATOM     29 H37  CHE L   1       2.684  -1.503  -3.639  1.00  0.00    +0.0585  H
ATOM     30 H38  CHE L   1       2.739  -2.459  -2.144  1.00  0.00    +0.0585  H
BRANCH 28 31
ATOM     31 N14  CHE L   1       3.413  -0.475  -1.987  1.00  0.00    -0.3437  N
ATOM     32 C15  CHE L   1       3.731  -0.528  -0.656  1.00  0.00    +0.2454  C
ATOM     33 O16  CHE L   1       3.322  -1.413   0.085  1.00  0.00    -0.2682 OA
ATOM     34 H39  CHE L   1       3.585   0.365  -2.525  1.00  0.00    +0.1631 HD
BRANCH 32 35
ATOM     35 C17  CHE L   1       4.577   0.596  -0.194  1.00  0.00    +0.0059  C
ATOM     36 C18  CHE L   1       5.013   0.584   1.071  1.00  0.00    -0.0143  C
ATOM     37 H40  CHE L   1       4.825   1.378  -0.896  1.00  0.00    +0.0673  H
ATOM     38 H41  CHE L   1       4.750  -0.237   1.735  1.00  0.00    +0.0656  H
BRANCH 36 39
ATOM     39 C19  CHE L   1       5.847   1.596   1.620  1.00  0.00    +0.1278  A
ATOM     40 C20  CHE L   1       6.288   2.816   1.115  1.00  0.00    -0.0165  A
ATOM     41 C21  CHE L   1       7.108   3.429   2.093  1.00  0.00    -0.0233  A
ATOM     42 C22  CHE L   1       7.131   2.564   3.152  1.00  0.00    +0.0925  A
ATOM     43 O23  CHE L   1       6.380   1.470   2.883  1.00  0.00    -0.4635 OA
ATOM     44 H42  CHE L   1       6.043   3.222   0.148  1.00  0.00    +0.0655  H
ATOM     45 H43  CHE L   1       7.614   4.382   2.034  1.00  0.00    +0.0649  H
ATOM     46 H44  CHE L   1       7.607   2.576   4.122  1.00  0.00    +0.1029  H
ENDBRANCH 36 39
ENDBRANCH 32 35
ENDBRANCH 28 31
ENDBRANCH 25 28
ENDBRANCH 20 24
ENDBRANCH 4 18
TORSDOF 7
