ROOT
ATOM      1  O1  SEL L   1       8.695   0.992  -1.452  1.00  0.00    -0.5068 OA
ATOM      2  C2  SEL L   1       7.407   0.709  -1.111  1.00  0.00    +0.1170  A
ATOM      3  C3  SEL L   1       6.522   1.765  -0.971  1.00  0.00    -0.0182  A
ATOM      4  C4  SEL L   1       5.191   1.515  -0.616  1.00  0.00    -0.0350  A
ATOM      5  C5  SEL L   1       4.711   0.213  -0.400  1.00  0.00    +0.0382  A
ATOM      6 C29  SEL L   1       5.644  -0.830  -0.551  1.00  0.00    -0.0350  A
ATOM      7 C30  SEL L   1       6.979  -0.593  -0.903  1.00  0.00    -0.0182  A
ATOM      8 H31  SEL L   1       9.187   0.157  -1.511  1.00  0.00    +0.2921 HD
ATOM      9 H32  SEL L   1       6.858   2.784  -1.138  1.00  0.00    +0.0655  H
ATOM     10 H33  SEL L   1       4.529   2.371  -0.535  1.00  0.00    +0.0639  H
ATOM     11 H57  SEL L   1       5.346  -1.859  -0.369  1.00  0.00    +0.0639  H
ATOM     12 H58  SEL L   1       7.656  -1.435  -0.999  1.00  0.00    +0.0655  H
ENDROOT
BRANCH 5 13
ATOM     13  N6  SEL L   1       3.398  -0.045  -0.033  1.00  0.00    -0.3681  N
ATOM     14  C7  SEL L   1       2.764  -1.320  -0.407  1.00  0.00    +0.0314  C
ATOM     15  C8  SEL L   1       1.228  -1.187  -0.549  1.00  0.00    +0.0175  C
ATOM     16  N9  SEL L   1       0.579  -0.675   0.669  1.00  0.00    -0.2857 NA
ATOM     17 C27  SEL L   1       1.340   0.438   1.274  1.00  0.00    +0.0175  C
ATOM     18 C28  SEL L   1       2.496   1.021   0.422  1.00  0.00    +0.0314  C
ATOM     19 H34  SEL L   1       3.151  -1.680  -1.368  1.00  0.00    +0.0500  H
ATOM     20 H35  SEL L   1       2.995  -2.073   0.356  1.00  0.00    +0.0500  H
ATOM     21 H36  SEL L   1       1.020  -0.542  -1.412  1.00  0.00    +0.0444  H
ATOM     22 H37  SEL L   1       0.841  -2.183  -0.788  1.00  0.00    +0.0444  H
ATOM     23 H53  SEL L   1       1.775   0.044   2.202  1.00  0.00    +0.0444  H
ATOM     24 H54  SEL L   1       0.689   1.263   1.587  1.00  0.00    +0.0444  H
ATOM     25 H55  SEL L   1       2.096   1.564  -0.442  1.00  0.00    +0.0500  H
ATOM     26 H56  SEL L   1       3.030   1.738   1.057  1.00  0.00    +0.0500  H
BRANCH 16 27
ATOM     27 C10  SEL L   1      -0.872  -0.418   0.563  1.00  0.00    +0.0977  C
ATOM     28 H38  SEL L   1      -1.186  -0.175   1.589  1.00  0.00    +0.0594  H
BRANCH 27 29
ATOM     29 C11  SEL L   1      -1.652  -1.688   0.205  1.00  0.00    -0.0228  A
ATOM     30 C12  SEL L   1      -1.974  -2.609   1.217  1.00  0.00    -0.0567  A
ATOM     31 C13  SEL L   1      -2.685  -3.774   0.924  1.00  0.00    -0.0614  A
ATOM     32 C14  SEL L   1      -3.075  -4.041  -0.386  1.00  0.00    -0.0617  A
ATOM     33 C15  SEL L   1      -2.745  -3.152  -1.405  1.00  0.00    -0.0614  A
ATOM     34 C16  SEL L   1      -2.035  -1.986  -1.116  1.00  0.00    -0.0567  A
ATOM     35 H39  SEL L   1      -1.659  -2.427   2.243  1.00  0.00    +0.0621  H
ATOM     36 H40  SEL L   1      -2.925  -4.477   1.717  1.00  0.00    +0.0618  H
ATOM     37 H41  SEL L   1      -3.624  -4.951  -0.615  1.00  0.00    +0.0618  H
ATOM     38 H42  SEL L   1      -3.036  -3.368  -2.430  1.00  0.00    +0.0618  H
ATOM     39 H43  SEL L   1      -1.777  -1.315  -1.934  1.00  0.00    +0.0621  H
ENDBRANCH 27 29
BRANCH 27 40
ATOM     40 C17  SEL L   1      -1.275   0.782  -0.259  1.00  0.00    +0.1732  A
ATOM     41 N18  SEL L   1      -0.562   1.432  -1.161  1.00  0.00    -0.1114 NA
ATOM     42 N19  SEL L   1      -1.346   2.452  -1.625  1.00  0.00    -0.0230 NA
ATOM     43 N20  SEL L   1      -2.527   2.447  -1.031  1.00  0.00    -0.0436 NA
ATOM     44 N21  SEL L   1      -2.499   1.408  -0.178  1.00  0.00    -0.2244  N
BRANCH 44 45
ATOM     45 C22  SEL L   1      -3.649   1.089   0.646  1.00  0.00    +0.0564  C
ATOM     46 C23  SEL L   1      -4.811   0.488  -0.143  1.00  0.00    -0.0304  C
ATOM     47 C24  SEL L   1      -5.636   1.682  -0.609  1.00  0.00    -0.0511  C
ATOM     48 C25  SEL L   1      -5.388   2.791   0.408  1.00  0.00    -0.0511  C
ATOM     49 C26  SEL L   1      -4.279   2.300   1.338  1.00  0.00    -0.0304  C
ATOM     50 H44  SEL L   1      -3.312   0.383   1.410  1.00  0.00    +0.0546  H
ATOM     51 H45  SEL L   1      -5.423  -0.133   0.522  1.00  0.00    +0.0286  H
ATOM     52 H46  SEL L   1      -4.495  -0.134  -0.984  1.00  0.00    +0.0286  H
ATOM     53 H47  SEL L   1      -6.698   1.432  -0.688  1.00  0.00    +0.0266  H
ATOM     54 H48  SEL L   1      -5.306   2.006  -1.602  1.00  0.00    +0.0266  H
ATOM     55 H49  SEL L   1      -6.295   3.017   0.978  1.00  0.00    +0.0266  H
ATOM     56 H50  SEL L   1      -5.090   3.714  -0.103  1.00  0.00    +0.0266  H
ATOM     57 H51  SEL L   1      -3.560   3.092   1.572  1.00  0.00    +0.0286  H
ATOM     58 H52  SEL L   1      -4.732   1.980   2.285  1.00  0.00    +0.0286  H
ENDBRANCH 44 45
ENDBRANCH 27 40
ENDBRANCH 16 27
ENDBRANCH 5 13
TORSDOF 5
