ROOT
ATOM      1  C9  WH0 L   1       1.305  -1.584   0.349  1.00  0.00    -0.0468  A
ATOM      2 C10  WH0 L   1       2.025  -1.456  -0.865  1.00  0.00    -0.0566  A
ATOM      3 C11  WH0 L   1       1.379  -1.623  -2.101  1.00  0.00    -0.0377  A
ATOM      4 C12  WH0 L   1       0.017  -1.919  -2.101  1.00  0.00    +0.0486  A
ATOM      5 C13  WH0 L   1      -0.690  -2.058  -0.926  1.00  0.00    +0.0214  A
ATOM      6 C14  WH0 L   1      -0.067  -1.909   0.313  1.00  0.00    -0.0499  A
ATOM      7 C15  WH0 L   1      -2.150  -2.246  -1.213  1.00  0.00    +0.2010  C
ATOM      8 S16  WH0 L   1      -2.755  -3.853  -0.581  1.00  0.00    -0.1088 SA
ATOM      9 C17  WH0 L   1      -3.932  -3.072   0.571  1.00  0.00    +0.0758  C
ATOM     10 C18  WH0 L   1      -3.902  -1.616   0.309  1.00  0.00    +0.2395  C
ATOM     11 O19  WH0 L   1      -4.663  -0.820   0.921  1.00  0.00    -0.2717 OA
ATOM     12 N20  WH0 L   1      -2.957  -1.162  -0.652  1.00  0.00    -0.2840  N
ATOM     13 C27  WH0 L   1      -2.126  -2.230  -2.716  1.00  0.00    +0.2665  C
ATOM     14 O28  WH0 L   1      -3.142  -2.369  -3.447  1.00  0.00    -0.2689 OA
ATOM     15 N29  WH0 L   1      -0.817  -2.033  -3.241  1.00  0.00    -0.3228  N
ATOM     16 H40  WH0 L   1       3.078  -1.207  -0.854  1.00  0.00    +0.0621  H
ATOM     17 H41  WH0 L   1       1.922  -1.502  -3.029  1.00  0.00    +0.0638  H
ATOM     18 H42  WH0 L   1      -0.645  -2.005   1.222  1.00  0.00    +0.0625  H
ATOM     19 H43  WH0 L   1      -4.952  -3.472   0.397  1.00  0.00    +0.0474  H
ATOM     20 H44  WH0 L   1      -3.616  -3.271   1.616  1.00  0.00    +0.0474  H
ATOM     21 H50  WH0 L   1      -0.542  -1.940  -4.244  1.00  0.00    +0.1687 HD
ENDROOT
BRANCH 1 22
ATOM     22  C8  WH0 L   1       1.991  -1.339   1.670  1.00  0.00    -0.0261  C
ATOM     23 H38  WH0 L   1       1.911  -2.261   2.285  1.00  0.00    +0.0314  H
ATOM     24 H39  WH0 L   1       3.076  -1.144   1.522  1.00  0.00    +0.0314  H
BRANCH 22 25
ATOM     25  C7  WH0 L   1       1.370  -0.168   2.454  1.00  0.00    -0.0315  C
ATOM     26 H36  WH0 L   1       1.900  -0.065   3.425  1.00  0.00    +0.0285  H
ATOM     27 H37  WH0 L   1       0.309  -0.395   2.689  1.00  0.00    +0.0285  H
BRANCH 25 28
ATOM     28  C6  WH0 L   1       1.434   1.171   1.704  1.00  0.00    +0.0187  C
ATOM     29 H34  WH0 L   1       0.915   1.087   0.728  1.00  0.00    +0.0486  H
ATOM     30 H35  WH0 L   1       0.890   1.935   2.299  1.00  0.00    +0.0486  H
BRANCH 28 33
ATOM     31  C3  WH0 L   1       3.336   2.064   0.275  1.00  0.00    +0.2443  C
ATOM     32  O4  WH0 L   1       2.811   1.665  -0.799  1.00  0.00    -0.2683 OA
ATOM     33  N5  WH0 L   1       2.818   1.614   1.537  1.00  0.00    -0.3525  N
ATOM     34 H33  WH0 L   1       3.412   1.686   2.392  1.00  0.00    +0.1626 HD
BRANCH 31 36
ATOM     35  C1  WH0 L   1       4.926   3.702   1.219  1.00  0.00    -0.0936  C
ATOM     36  C2  WH0 L   1       4.505   2.961   0.196  1.00  0.00    -0.0047  C
ATOM     37 H30  WH0 L   1       4.424   3.695   2.178  1.00  0.00    +0.0536  H
ATOM     38 H31  WH0 L   1       5.779   4.355   1.096  1.00  0.00    +0.0536  H
ATOM     39 H32  WH0 L   1       5.013   3.059  -0.756  1.00  0.00    +0.0666  H
ENDBRANCH 31 36
ENDBRANCH 28 33
ENDBRANCH 25 28
ENDBRANCH 22 25
ENDBRANCH 1 22
BRANCH 12 40
ATOM     40 C21  WH0 L   1      -2.597   0.228  -0.771  1.00  0.00    +0.0468  A
ATOM     41 C22  WH0 L   1      -2.147   0.938   0.356  1.00  0.00    -0.0380  A
ATOM     42 C23  WH0 L   1      -1.766   2.277   0.237  1.00  0.00    -0.0598  A
ATOM     43 C24  WH0 L   1      -1.818   2.912  -1.006  1.00  0.00    -0.0616  A
ATOM     44 C25  WH0 L   1      -2.261   2.212  -2.131  1.00  0.00    -0.0598  A
ATOM     45 C26  WH0 L   1      -2.656   0.876  -2.015  1.00  0.00    -0.0380  A
ATOM     46 H45  WH0 L   1      -2.085   0.450   1.320  1.00  0.00    +0.0638  H
ATOM     47 H46  WH0 L   1      -1.421   2.820   1.110  1.00  0.00    +0.0618  H
ATOM     48 H47  WH0 L   1      -1.518   3.950  -1.095  1.00  0.00    +0.0618  H
ATOM     49 H48  WH0 L   1      -2.307   2.708  -3.093  1.00  0.00    +0.0618  H
ATOM     50 H49  WH0 L   1      -3.017   0.355  -2.889  1.00  0.00    +0.0638  H
ENDBRANCH 12 40
TORSDOF 6
