ROOT
ATOM      1  C1  CHE L   1      -0.579  -2.789   1.255  1.00  0.00    -0.0202  C
ATOM      2  C2  CHE L   1      -1.379  -1.575   1.560  1.00  0.00    +0.0678  A
ATOM      3  N3  CHE L   1      -2.182  -1.600   2.637  1.00  0.00    -0.1758 NA
ATOM      4  N4  CHE L   1      -2.709  -0.365   2.692  1.00  0.00    -0.2460  N
ATOM      5  C5  CHE L   1      -2.272   0.436   1.690  1.00  0.00    +0.2230  A
ATOM      6  C6  CHE L   1      -1.439  -0.315   0.895  1.00  0.00    +0.0525  A
ATOM      7  C7  CHE L   1      -0.806   0.314  -0.333  1.00  0.00    +0.0693  C
ATOM      8 C25  CHE L   1      -1.089   1.856  -0.307  1.00  0.00    +0.1038  C
ATOM      9 C28  CHE L   1      -1.926   2.448   0.589  1.00  0.00    +0.2091  C
ATOM     10 N29  CHE L   1      -2.222   3.792   0.640  1.00  0.00    -0.3688  N
ATOM     11 O30  CHE L   1      -2.597   1.716   1.577  1.00  0.00    -0.4216 OA
ATOM     12 H31  CHE L   1      -0.175  -3.225   2.175  1.00  0.00    +0.0293  H
ATOM     13 H32  CHE L   1      -1.203  -3.545   0.769  1.00  0.00    +0.0293  H
ATOM     14 H33  CHE L   1       0.270  -2.570   0.604  1.00  0.00    +0.0293  H
ATOM     15 H34  CHE L   1      -3.338  -0.134   3.454  1.00  0.00    +0.1920 HD
ATOM     16 H45  CHE L   1      -2.102   4.306  -0.229  1.00  0.00    +0.1588 HD
ATOM     17 H46  CHE L   1      -3.118   3.970   1.087  1.00  0.00    +0.1588 HD
ENDROOT
BRANCH 7 18
ATOM     18  C8  CHE L   1       0.728   0.118  -0.147  1.00  0.00    -0.0302  A
ATOM     19  C9  CHE L   1       1.356   0.429   1.084  1.00  0.00    -0.0457  A
ATOM     20 C10  CHE L   1       2.742   0.296   1.275  1.00  0.00    +0.0556  A
ATOM     21 C15  CHE L   1       3.536  -0.118   0.199  1.00  0.00    -0.0385  A
ATOM     22 C16  CHE L   1       2.963  -0.390  -1.051  1.00  0.00    +0.0556  A
ATOM     23 C21  CHE L   1       1.569  -0.266  -1.208  1.00  0.00    -0.0457  A
ATOM     24 H35  CHE L   1       0.758   0.785   1.926  1.00  0.00    +0.0626  H
ATOM     25 H36  CHE L   1       4.615  -0.216   0.330  1.00  0.00    +0.0629  H
ATOM     26 H37  CHE L   1       1.161  -0.465  -2.199  1.00  0.00    +0.0626  H
BRANCH 20 27
ATOM     27 C11  CHE L   1       3.371   0.638   2.607  1.00  0.00    +0.4174  C
ATOM     28 F12  CHE L   1       3.765   1.939   2.671  1.00  0.00    -0.1659  F
ATOM     29 F13  CHE L   1       4.481  -0.105   2.874  1.00  0.00    -0.1659  F
ATOM     30 F14  CHE L   1       2.532   0.446   3.661  1.00  0.00    -0.1659  F
ENDBRANCH 20 27
BRANCH 22 31
ATOM     31 C17  CHE L   1       3.828  -0.843  -2.206  1.00  0.00    +0.4174  C
ATOM     32 F18  CHE L   1       3.304  -0.530  -3.423  1.00  0.00    -0.1659  F
ATOM     33 F19  CHE L   1       4.007  -2.192  -2.211  1.00  0.00    -0.1659  F
ATOM     34 F20  CHE L   1       5.076  -0.298  -2.183  1.00  0.00    -0.1659  F
ENDBRANCH 22 31
ENDBRANCH 7 18
BRANCH 7 35
ATOM     35 C22  CHE L   1      -1.446  -0.280  -1.665  1.00  0.00    -0.0279  C
ATOM     36 C23  CHE L   1      -2.933   0.090  -1.857  1.00  0.00    -0.0612  C
ATOM     37 C24  CHE L   1      -1.338  -1.804  -1.835  1.00  0.00    -0.0612  C
ATOM     38 H38  CHE L   1      -0.918   0.164  -2.521  1.00  0.00    +0.0311  H
ATOM     39 H39  CHE L   1      -3.316  -0.338  -2.791  1.00  0.00    +0.0233  H
ATOM     40 H40  CHE L   1      -3.554  -0.294  -1.041  1.00  0.00    +0.0233  H
ATOM     41 H41  CHE L   1      -3.083   1.171  -1.926  1.00  0.00    +0.0233  H
ATOM     42 H42  CHE L   1      -2.031  -2.333  -1.174  1.00  0.00    +0.0233  H
ATOM     43 H43  CHE L   1      -1.606  -2.085  -2.860  1.00  0.00    +0.0233  H
ATOM     44 H44  CHE L   1      -0.330  -2.182  -1.659  1.00  0.00    +0.0233  H
ENDBRANCH 7 35
BRANCH 8 45
ATOM     45 C26  CHE L   1      -0.436   2.653  -1.297  1.00  0.00    +0.1013  C
ATOM     46 N27  CHE L   1       0.068   3.288  -2.127  1.00  0.00    -0.1910 NA
ENDBRANCH 8 45
TORSDOF 5
