ROOT
ATOM      1  C3  CHE L   1       3.945   0.422   0.422  1.00  0.00    +0.2468  C
ATOM      2  O4  CHE L   1       4.517   1.209   1.173  1.00  0.00    -0.2681 OA
ATOM      3  N5  CHE L   1       2.623   0.037   0.600  1.00  0.00    -0.3387  N
ATOM      4  C6  CHE L   1       1.903   0.643   1.713  1.00  0.00    +0.0228  C
ATOM      5  C7  CHE L   1       0.399   0.358   1.664  1.00  0.00    -0.0153  C
ATOM      6  C8  CHE L   1      -0.129   0.296   0.205  1.00  0.00    +0.0956  C
ATOM      7 C19  CHE L   1       0.614  -0.868  -0.520  1.00  0.00    -0.0153  C
ATOM      8 C20  CHE L   1       2.010  -1.157   0.034  1.00  0.00    +0.0228  C
ATOM      9 H24  CHE L   1       2.327   0.258   2.649  1.00  0.00    +0.0489  H
ATOM     10 H25  CHE L   1       2.088   1.724   1.701  1.00  0.00    +0.0489  H
ATOM     11 H26  CHE L   1       0.209  -0.603   2.163  1.00  0.00    +0.0296  H
ATOM     12 H27  CHE L   1      -0.119   1.122   2.258  1.00  0.00    +0.0296  H
ATOM     13 H36  CHE L   1       0.041  -1.803  -0.440  1.00  0.00    +0.0296  H
ATOM     14 H37  CHE L   1       0.694  -0.679  -1.597  1.00  0.00    +0.0296  H
ATOM     15 H38  CHE L   1       1.944  -1.890   0.849  1.00  0.00    +0.0489  H
ATOM     16 H39  CHE L   1       2.625  -1.629  -0.735  1.00  0.00    +0.0489  H
ENDROOT
BRANCH 1 18
ATOM     17  C1  CHE L   1       5.989  -0.222  -0.770  1.00  0.00    -0.0936  C
ATOM     18  C2  CHE L   1       4.653  -0.129  -0.763  1.00  0.00    -0.0045  C
ATOM     19 H21  CHE L   1       6.518  -0.590  -1.642  1.00  0.00    +0.0536  H
ATOM     20 H22  CHE L   1       6.581   0.078   0.091  1.00  0.00    +0.0536  H
ATOM     21 H23  CHE L   1       4.075  -0.395  -1.638  1.00  0.00    +0.0666  H
ENDBRANCH 1 18
BRANCH 6 22
ATOM     22  C9  CHE L   1       0.171   1.683  -0.405  1.00  0.00    +0.3154  C
ATOM     23 O10  CHE L   1      -0.093   2.761   0.108  1.00  0.00    -0.2500 OA
ATOM     24 O11  CHE L   1       0.758   1.664  -1.618  1.00  0.00    -0.4800 OA
ATOM     25 H28  CHE L   1       0.875   2.616  -1.824  1.00  0.00    +0.2951 HD
ENDBRANCH 6 22
BRANCH 6 26
ATOM     26 C12  CHE L   1      -1.647   0.044   0.090  1.00  0.00    -0.0305  A
ATOM     27 C13  CHE L   1      -2.481  -0.135   1.204  1.00  0.00    -0.0573  A
ATOM     28 C14  CHE L   1      -3.853  -0.366   1.050  1.00  0.00    -0.0586  A
ATOM     29 C15  CHE L   1      -4.432  -0.414  -0.220  1.00  0.00    -0.0504  A
ATOM     30 C16  CHE L   1      -5.896  -0.692  -0.381  1.00  0.00    -0.0397  C
ATOM     31 C17  CHE L   1      -3.612  -0.252  -1.339  1.00  0.00    -0.0586  A
ATOM     32 C18  CHE L   1      -2.242  -0.021  -1.186  1.00  0.00    -0.0573  A
ATOM     33 H29  CHE L   1      -2.093  -0.098   2.218  1.00  0.00    +0.0621  H
ATOM     34 H30  CHE L   1      -4.468  -0.504   1.937  1.00  0.00    +0.0620  H
ATOM     35 H31  CHE L   1      -6.068  -1.771  -0.446  1.00  0.00    +0.0278  H
ATOM     36 H32  CHE L   1      -6.287  -0.216  -1.286  1.00  0.00    +0.0278  H
ATOM     37 H33  CHE L   1      -6.465  -0.293   0.466  1.00  0.00    +0.0278  H
ATOM     38 H34  CHE L   1      -4.034  -0.299  -2.340  1.00  0.00    +0.0620  H
ATOM     39 H35  CHE L   1      -1.641   0.110  -2.084  1.00  0.00    +0.0621  H
ENDBRANCH 6 26
TORSDOF 3
