ROOT
ATOM      1 C28  WH0 L   1      -1.116  -3.281   0.299  1.00  0.00    -0.0133  A
ATOM      2 C29  WH0 L   1      -0.171  -3.766  -0.639  1.00  0.00    -0.0519  A
ATOM      3 C30  WH0 L   1       0.187  -5.123  -0.656  1.00  0.00    -0.0374  A
ATOM      4 C31  WH0 L   1      -0.408  -5.976   0.272  1.00  0.00    +0.0454  A
ATOM      5 C32  WH0 L   1      -1.320  -5.515   1.197  1.00  0.00    -0.0145  A
ATOM      6 C33  WH0 L   1      -1.689  -4.170   1.236  1.00  0.00    -0.0483  A
ATOM      7 C34  WH0 L   1      -1.840  -6.640   2.036  1.00  0.00    +0.0535  C
ATOM      8 C35  WH0 L   1      -1.087  -7.780   1.421  1.00  0.00    +0.2296  C
ATOM      9 O36  WH0 L   1      -1.223  -8.980   1.765  1.00  0.00    -0.2725 OA
ATOM     10 N37  WH0 L   1      -0.215  -7.372   0.373  1.00  0.00    -0.3256  N
ATOM     11 H66  WH0 L   1       0.261  -3.102  -1.378  1.00  0.00    +0.0624  H
ATOM     12 H67  WH0 L   1       0.894  -5.499  -1.384  1.00  0.00    +0.0638  H
ATOM     13 H68  WH0 L   1      -2.405  -3.826   1.973  1.00  0.00    +0.0627  H
ATOM     14 H69  WH0 L   1      -1.566  -6.504   3.103  1.00  0.00    +0.0410  H
ATOM     15 H70  WH0 L   1      -2.935  -6.761   1.900  1.00  0.00    +0.0410  H
ATOM     16 H71  WH0 L   1       0.369  -7.981  -0.243  1.00  0.00    +0.1686 HD
ENDROOT
BRANCH 1 25
ATOM     17 C12  WH0 L   1      -0.724  -0.734   0.064  1.00  0.00    +0.1015  A
ATOM     18 N13  WH0 L   1      -1.496   0.367  -0.089  1.00  0.00    -0.1627 NA
ATOM     19 N14  WH0 L   1      -2.754  -0.030   0.007  1.00  0.00    -0.1987  N
ATOM     20 C15  WH0 L   1      -3.870   0.743  -0.096  1.00  0.00    +0.2282  A
ATOM     21 N23  WH0 L   1      -5.087   0.140   0.034  1.00  0.00    -0.2207 NA
ATOM     22 C24  WH0 L   1      -5.194  -1.207   0.237  1.00  0.00    +0.0334  A
ATOM     23 C25  WH0 L   1      -4.046  -2.004   0.327  1.00  0.00    -0.0173  A
ATOM     24 C26  WH0 L   1      -2.816  -1.353   0.224  1.00  0.00    +0.0803  A
ATOM     25 C27  WH0 L   1      -1.528  -1.860   0.263  1.00  0.00    +0.0353  A
ATOM     26 H64  WH0 L   1      -6.171  -1.661   0.316  1.00  0.00    +0.0831  H
ATOM     27 H65  WH0 L   1      -4.125  -3.074   0.465  1.00  0.00    +0.0654  H
BRANCH 17 30
ATOM     28  C9  WH0 L   1       2.802   0.026  -1.081  1.00  0.00    -0.0115  A
ATOM     29 C10  WH0 L   1       1.401   0.042  -0.978  1.00  0.00    -0.0466  A
ATOM     30 C11  WH0 L   1       0.750  -0.697   0.024  1.00  0.00    +0.0032  A
ATOM     31 C38  WH0 L   1       1.511  -1.414   0.959  1.00  0.00    -0.0498  A
ATOM     32 C39  WH0 L   1       2.904  -1.405   0.885  1.00  0.00    -0.0256  A
ATOM     33 C40  WH0 L   1       3.552  -0.696  -0.135  1.00  0.00    +0.1266  A
ATOM     34 F41  WH0 L   1       4.909  -0.718  -0.196  1.00  0.00    -0.2052  F
ATOM     35 H52  WH0 L   1       0.816   0.594  -1.706  1.00  0.00    +0.0628  H
ATOM     36 H72  WH0 L   1       1.026  -1.977   1.750  1.00  0.00    +0.0625  H
ATOM     37 H73  WH0 L   1       3.480  -1.965   1.608  1.00  0.00    +0.0646  H
BRANCH 28 38
ATOM     38  C8  WH0 L   1       3.480   0.751  -2.218  1.00  0.00    -0.0234  C
ATOM     39 H50  WH0 L   1       4.500   0.352  -2.396  1.00  0.00    +0.0315  H
ATOM     40 H51  WH0 L   1       2.913   0.549  -3.153  1.00  0.00    +0.0315  H
BRANCH 38 41
ATOM     41  C7  WH0 L   1       3.526   2.274  -2.007  1.00  0.00    -0.0314  C
ATOM     42 H48  WH0 L   1       3.989   2.743  -2.903  1.00  0.00    +0.0285  H
ATOM     43 H49  WH0 L   1       2.485   2.659  -1.929  1.00  0.00    +0.0285  H
BRANCH 41 44
ATOM     44  C6  WH0 L   1       4.310   2.716  -0.760  1.00  0.00    +0.0187  C
ATOM     45 H46  WH0 L   1       3.865   2.267   0.156  1.00  0.00    +0.0486  H
ATOM     46 H47  WH0 L   1       4.224   3.825  -0.668  1.00  0.00    +0.0486  H
BRANCH 44 49
ATOM     47  C3  WH0 L   1       6.650   2.692   0.193  1.00  0.00    +0.2443  C
ATOM     48  O4  WH0 L   1       6.255   3.351   1.194  1.00  0.00    -0.2683 OA
ATOM     49  N5  WH0 L   1       5.728   2.359  -0.853  1.00  0.00    -0.3525  N
ATOM     50 H45  WH0 L   1       6.095   1.855  -1.695  1.00  0.00    +0.1626 HD
BRANCH 47 52
ATOM     51  C1  WH0 L   1       8.968   2.570   1.012  1.00  0.00    -0.0936  C
ATOM     52  C2  WH0 L   1       8.058   2.264   0.089  1.00  0.00    -0.0047  C
ATOM     53 H42  WH0 L   1       8.715   3.154   1.889  1.00  0.00    +0.0536  H
ATOM     54 H43  WH0 L   1       9.990   2.235   0.895  1.00  0.00    +0.0536  H
ATOM     55 H44  WH0 L   1       8.368   1.676  -0.769  1.00  0.00    +0.0666  H
ENDBRANCH 47 52
ENDBRANCH 44 49
ENDBRANCH 41 44
ENDBRANCH 38 41
ENDBRANCH 28 38
ENDBRANCH 17 30
BRANCH 20 56
ATOM     56 N16  WH0 L   1      -3.790   2.159  -0.333  1.00  0.00    -0.3402  N
ATOM     57 C17  WH0 L   1      -4.585   3.085   0.482  1.00  0.00    +0.0228  C
ATOM     58 C18  WH0 L   1      -5.361   4.047  -0.424  1.00  0.00    -0.0199  C
ATOM     59 C19  WH0 L   1      -4.420   4.746  -1.428  1.00  0.00    +0.0080  C
ATOM     60 N20  WH0 L   1      -3.494   5.634  -0.724  1.00  0.00    -0.3271 NA
ATOM     61 C21  WH0 L   1      -3.648   3.695  -2.252  1.00  0.00    -0.0199  C
ATOM     62 C22  WH0 L   1      -2.887   2.713  -1.350  1.00  0.00    +0.0228  C
ATOM     63 H53  WH0 L   1      -5.306   2.533   1.123  1.00  0.00    +0.0489  H
ATOM     64 H54  WH0 L   1      -3.908   3.656   1.152  1.00  0.00    +0.0489  H
ATOM     65 H55  WH0 L   1      -6.133   3.477  -0.986  1.00  0.00    +0.0297  H
ATOM     66 H56  WH0 L   1      -5.887   4.804   0.193  1.00  0.00    +0.0297  H
ATOM     67 H57  WH0 L   1      -5.036   5.350  -2.131  1.00  0.00    +0.0459  H
ATOM     68 H58  WH0 L   1      -2.880   6.099  -1.430  1.00  0.00    +0.1185 HD
ATOM     69 H59  WH0 L   1      -4.047   6.399  -0.275  1.00  0.00    +0.1185 HD
ATOM     70 H60  WH0 L   1      -4.367   3.126  -2.877  1.00  0.00    +0.0297  H
ATOM     71 H61  WH0 L   1      -2.937   4.197  -2.941  1.00  0.00    +0.0297  H
ATOM     72 H62  WH0 L   1      -2.044   3.237  -0.848  1.00  0.00    +0.0489  H
ATOM     73 H63  WH0 L   1      -2.465   1.907  -1.987  1.00  0.00    +0.0489  H
ENDBRANCH 20 56
ENDBRANCH 1 25
TORSDOF 8
