ROOT
ATOM      1  C8  EUB L   1       0.808   0.832   1.266  1.00  0.00    +0.1186  A
ATOM      2  N9  EUB L   1       0.574   1.046   2.578  1.00  0.00    -0.1712 NA
ATOM      3 N10  EUB L   1       1.793   1.148   3.125  1.00  0.00    -0.2763  N
ATOM      4 C11  EUB L   1       2.825   0.994   2.245  1.00  0.00    +0.0666  A
ATOM      5 C12  EUB L   1       4.211   1.023   2.430  1.00  0.00    -0.0328  A
ATOM      6 C13  EUB L   1       5.013   0.824   1.300  1.00  0.00    -0.0179  A
ATOM      7 C14  EUB L   1       4.443   0.599   0.048  1.00  0.00    +0.1221  A
ATOM      8 C20  EUB L   1       3.051   0.598  -0.114  1.00  0.00    -0.0086  A
ATOM      9 C21  EUB L   1       2.221   0.789   1.010  1.00  0.00    +0.0323  A
ATOM     10 H36  EUB L   1       1.858   1.322   4.122  1.00  0.00    +0.1889 HD
ATOM     11 H37  EUB L   1       4.656   1.196   3.404  1.00  0.00    +0.0640  H
ATOM     12 H38  EUB L   1       6.091   0.856   1.418  1.00  0.00    +0.0655  H
ATOM     13 H46  EUB L   1       2.622   0.439  -1.099  1.00  0.00    +0.0661  H
ENDROOT
BRANCH 1 16
ATOM     14  C5  EUB L   1      -2.610   0.495  -0.205  1.00  0.00    +0.1335  A
ATOM     15  C6  EUB L   1      -1.614   0.675   0.737  1.00  0.00    +0.0082  A
ATOM     16  C7  EUB L   1      -0.297   0.663   0.306  1.00  0.00    +0.0967  A
ATOM     17 N22  EUB L   1       0.036   0.498  -0.987  1.00  0.00    -0.2337 NA
ATOM     18 C23  EUB L   1      -0.990   0.361  -1.829  1.00  0.00    +0.1189  A
ATOM     19 N24  EUB L   1      -2.288   0.356  -1.503  1.00  0.00    -0.2186 NA
ATOM     20 H35  EUB L   1      -1.843   0.844   1.780  1.00  0.00    +0.0676  H
ATOM     21 H47  EUB L   1      -0.751   0.242  -2.880  1.00  0.00    +0.1048  H
BRANCH 14 25
ATOM     22  C1  EUB L   1      -7.392   0.423  -1.509  1.00  0.00    -0.0370  C
ATOM     23  C2  EUB L   1      -6.357   0.424  -0.391  1.00  0.00    +0.0738  C
ATOM     24  C3  EUB L   1      -4.926   0.430  -0.959  1.00  0.00    +0.0461  C
ATOM     25  N4  EUB L   1      -3.953   0.495   0.143  1.00  0.00    -0.3509  N
ATOM     26 C25  EUB L   1      -4.407  -0.030   1.438  1.00  0.00    +0.0461  C
ATOM     27 C26  EUB L   1      -5.511  -1.103   1.279  1.00  0.00    +0.0738  C
ATOM     28 C27  EUB L   1      -4.953  -2.437   0.785  1.00  0.00    -0.0370  C
ATOM     29 O28  EUB L   1      -6.610  -0.729   0.431  1.00  0.00    -0.3704 OA
ATOM     30 H29  EUB L   1      -7.293   1.307  -2.144  1.00  0.00    +0.0255  H
ATOM     31 H30  EUB L   1      -8.405   0.404  -1.093  1.00  0.00    +0.0255  H
ATOM     32 H31  EUB L   1      -7.292  -0.471  -2.132  1.00  0.00    +0.0255  H
ATOM     33 H32  EUB L   1      -6.518   1.314   0.231  1.00  0.00    +0.0611  H
ATOM     34 H33  EUB L   1      -4.766  -0.481  -1.548  1.00  0.00    +0.0514  H
ATOM     35 H34  EUB L   1      -4.799   1.297  -1.618  1.00  0.00    +0.0514  H
ATOM     36 H48  EUB L   1      -3.596  -0.453   2.040  1.00  0.00    +0.0514  H
ATOM     37 H49  EUB L   1      -4.819   0.815   2.003  1.00  0.00    +0.0514  H
ATOM     38 H50  EUB L   1      -5.944  -1.286   2.269  1.00  0.00    +0.0611  H
ATOM     39 H51  EUB L   1      -4.166  -2.807   1.450  1.00  0.00    +0.0255  H
ATOM     40 H52  EUB L   1      -4.545  -2.360  -0.226  1.00  0.00    +0.0255  H
ATOM     41 H53  EUB L   1      -5.751  -3.187   0.742  1.00  0.00    +0.0255  H
ENDBRANCH 14 25
ENDBRANCH 1 16
BRANCH 7 42
ATOM     42 O15  EUB L   1       5.174   0.412  -1.101  1.00  0.00    -0.4859 OA
BRANCH 42 43
ATOM     43 C16  EUB L   1       6.375  -0.392  -0.996  1.00  0.00    +0.1081  C
ATOM     44 C17  EUB L   1       6.166  -1.817  -0.570  1.00  0.00    -0.0249  C
ATOM     45 C18  EUB L   1       7.357  -0.141  -2.121  1.00  0.00    -0.0096  C
ATOM     46 C19  EUB L   1       7.679   0.325  -0.733  1.00  0.00    -0.0096  C
ATOM     47 H39  EUB L   1       5.405  -2.291  -1.199  1.00  0.00    +0.0268  H
ATOM     48 H40  EUB L   1       5.835  -1.876   0.472  1.00  0.00    +0.0268  H
ATOM     49 H41  EUB L   1       7.089  -2.404  -0.655  1.00  0.00    +0.0268  H
ATOM     50 H42  EUB L   1       7.915  -0.982  -2.520  1.00  0.00    +0.0305  H
ATOM     51 H43  EUB L   1       7.100   0.608  -2.861  1.00  0.00    +0.0305  H
ATOM     52 H44  EUB L   1       7.648   1.393  -0.547  1.00  0.00    +0.0305  H
ATOM     53 H45  EUB L   1       8.454  -0.200  -0.186  1.00  0.00    +0.0305  H
ENDBRANCH 42 43
ENDBRANCH 7 42
TORSDOF 4
