ROOT
ATOM      1 C15  EUB L   1      -2.649   1.086   0.284  1.00  0.00    -0.0437  A
ATOM      2 C16  EUB L   1      -2.727   1.701  -0.967  1.00  0.00    -0.0375  A
ATOM      3 C17  EUB L   1      -3.881   2.400  -1.309  1.00  0.00    +0.0388  A
ATOM      4 C18  EUB L   1      -3.987   3.065  -2.649  1.00  0.00    -0.0223  C
ATOM      5 N19  EUB L   1      -4.941   2.514  -0.475  1.00  0.00    -0.2570 NA
ATOM      6 C20  EUB L   1      -4.859   1.920   0.738  1.00  0.00    +0.0388  A
ATOM      7 C21  EUB L   1      -6.040   2.058   1.651  1.00  0.00    -0.0223  C
ATOM      8 C22  EUB L   1      -3.739   1.204   1.150  1.00  0.00    -0.0375  A
ATOM      9 H41  EUB L   1      -1.902   1.634  -1.670  1.00  0.00    +0.0638  H
ATOM     10 H42  EUB L   1      -3.898   2.322  -3.447  1.00  0.00    +0.0292  H
ATOM     11 H43  EUB L   1      -4.952   3.570  -2.758  1.00  0.00    +0.0292  H
ATOM     12 H44  EUB L   1      -3.196   3.813  -2.763  1.00  0.00    +0.0292  H
ATOM     13 H45  EUB L   1      -5.745   2.564   2.576  1.00  0.00    +0.0292  H
ATOM     14 H46  EUB L   1      -6.832   2.647   1.177  1.00  0.00    +0.0292  H
ATOM     15 H47  EUB L   1      -6.448   1.072   1.894  1.00  0.00    +0.0292  H
ATOM     16 H48  EUB L   1      -3.717   0.745   2.133  1.00  0.00    +0.0638  H
ENDROOT
BRANCH 1 17
ATOM     17 C14  EUB L   1      -1.417   0.312   0.688  1.00  0.00    -0.0236  C
ATOM     18 H39  EUB L   1      -1.120   0.663   1.685  1.00  0.00    +0.0316  H
ATOM     19 H40  EUB L   1      -0.583   0.579   0.029  1.00  0.00    +0.0316  H
BRANCH 17 24
ATOM     20  N9  EUB L   1       0.781  -1.824   0.464  1.00  0.00    -0.2964 NA
ATOM     21 C10  EUB L   1       0.519  -2.466  -0.834  1.00  0.00    -0.0007  C
ATOM     22 C11  EUB L   1      -0.680  -1.833  -1.544  1.00  0.00    -0.0399  C
ATOM     23 C12  EUB L   1      -1.920  -1.829  -0.657  1.00  0.00    -0.0476  C
ATOM     24 C13  EUB L   1      -1.630  -1.219   0.724  1.00  0.00    -0.0242  C
ATOM     25 C23  EUB L   1      -0.401  -1.919   1.337  1.00  0.00    +0.0024  C
ATOM     26 H32  EUB L   1       1.383  -2.360  -1.499  1.00  0.00    +0.0427  H
ATOM     27 H33  EUB L   1       0.340  -3.541  -0.704  1.00  0.00    +0.0427  H
ATOM     28 H34  EUB L   1      -0.892  -2.387  -2.466  1.00  0.00    +0.0278  H
ATOM     29 H35  EUB L   1      -0.432  -0.808  -1.847  1.00  0.00    +0.0278  H
ATOM     30 H36  EUB L   1      -2.742  -1.309  -1.161  1.00  0.00    +0.0269  H
ATOM     31 H37  EUB L   1      -2.254  -2.866  -0.519  1.00  0.00    +0.0269  H
ATOM     32 H38  EUB L   1      -2.490  -1.434   1.372  1.00  0.00    +0.0316  H
ATOM     33 H49  EUB L   1      -0.643  -2.972   1.537  1.00  0.00    +0.0429  H
ATOM     34 H50  EUB L   1      -0.188  -1.455   2.308  1.00  0.00    +0.0429  H
BRANCH 20 35
ATOM     35  C8  EUB L   1       1.955  -2.409   1.141  1.00  0.00    +0.0418  C
ATOM     36 H30  EUB L   1       2.014  -2.041   2.174  1.00  0.00    +0.0491  H
ATOM     37 H31  EUB L   1       1.879  -3.503   1.198  1.00  0.00    +0.0491  H
BRANCH 35 40
ATOM     38  C5  EUB L   1       4.826  -0.538  -0.030  1.00  0.00    +0.1732  A
ATOM     39  N6  EUB L   1       3.713  -0.702   0.645  1.00  0.00    -0.2263 NA
ATOM     40  C7  EUB L   1       3.232  -1.996   0.465  1.00  0.00    +0.0647  A
ATOM     41 C24  EUB L   1       4.036  -2.794  -0.329  1.00  0.00    +0.0017  A
ATOM     42 S25  EUB L   1       5.385  -1.898  -0.884  1.00  0.00    -0.0578  S
ATOM     43 H51  EUB L   1       3.894  -3.827  -0.610  1.00  0.00    +0.0713  H
BRANCH 38 47
ATOM     44  C1  EUB L   1       7.044   2.428  -0.437  1.00  0.00    +0.0147  C
ATOM     45  C2  EUB L   1       6.643   0.991  -0.668  1.00  0.00    +0.2236  C
ATOM     46  O3  EUB L   1       7.354   0.254  -1.341  1.00  0.00    -0.2732 OA
ATOM     47  N4  EUB L   1       5.471   0.671  -0.027  1.00  0.00    -0.3055  N
ATOM     48 H26  EUB L   1       7.728   2.478   0.415  1.00  0.00    +0.0325  H
ATOM     49 H27  EUB L   1       7.544   2.811  -1.331  1.00  0.00    +0.0325  H
ATOM     50 H28  EUB L   1       6.174   3.061  -0.241  1.00  0.00    +0.0325  H
ATOM     51 H29  EUB L   1       4.988   1.365   0.525  1.00  0.00    +0.1705 HD
ENDBRANCH 38 47
ENDBRANCH 35 40
ENDBRANCH 20 35
ENDBRANCH 17 24
ENDBRANCH 1 17
TORSDOF 5
