ROOT
ATOM      1 C30  WH0 L   1      -0.333   2.388  -0.196  1.00  0.00    -0.0133  A
ATOM      2 C31  WH0 L   1       0.952   2.574  -0.752  1.00  0.00    -0.0519  A
ATOM      3 C32  WH0 L   1       1.511   3.852  -0.861  1.00  0.00    -0.0374  A
ATOM      4 C33  WH0 L   1       0.758   4.910  -0.403  1.00  0.00    +0.0454  A
ATOM      5 C34  WH0 L   1      -0.510   4.746   0.149  1.00  0.00    -0.0145  A
ATOM      6 C35  WH0 L   1      -1.075   3.489   0.262  1.00  0.00    -0.0483  A
ATOM      7 C36  WH0 L   1      -1.056   6.085   0.548  1.00  0.00    +0.0535  C
ATOM      8 C37  WH0 L   1       0.081   7.030   0.141  1.00  0.00    +0.2296  C
ATOM      9 O38  WH0 L   1       0.101   8.242   0.269  1.00  0.00    -0.2725 OA
ATOM     10 N39  WH0 L   1       1.096   6.253  -0.404  1.00  0.00    -0.3256  N
ATOM     11 H61  WH0 L   1       1.520   1.719  -1.113  1.00  0.00    +0.0624  H
ATOM     12 H62  WH0 L   1       2.495   3.995  -1.292  1.00  0.00    +0.0638  H
ATOM     13 H63  WH0 L   1      -2.060   3.361   0.700  1.00  0.00    +0.0627  H
ATOM     14 H64  WH0 L   1      -1.959   6.330  -0.017  1.00  0.00    +0.0410  H
ATOM     15 H65  WH0 L   1      -1.216   6.144   1.627  1.00  0.00    +0.0410  H
ATOM     16 H66  WH0 L   1       1.958   6.649  -0.749  1.00  0.00    +0.1686 HD
ENDROOT
BRANCH 1 25
ATOM     17 C15  WH0 L   1      -0.423  -0.087   0.656  1.00  0.00    +0.1018  A
ATOM     18 N16  WH0 L   1      -1.233  -1.141   0.479  1.00  0.00    -0.1627 NA
ATOM     19 N17  WH0 L   1      -2.199  -0.700  -0.367  1.00  0.00    -0.1987  N
ATOM     20 C18  WH0 L   1      -3.306  -1.495  -0.810  1.00  0.00    +0.2283  A
ATOM     21 N25  WH0 L   1      -4.194  -0.932  -1.603  1.00  0.00    -0.2207 NA
ATOM     22 C26  WH0 L   1      -3.999   0.375  -1.988  1.00  0.00    +0.0334  A
ATOM     23 C27  WH0 L   1      -2.980   1.159  -1.607  1.00  0.00    -0.0173  A
ATOM     24 C28  WH0 L   1      -2.018   0.618  -0.728  1.00  0.00    +0.0803  A
ATOM     25 C29  WH0 L   1      -0.880   1.049  -0.083  1.00  0.00    +0.0353  A
ATOM     26 H59  WH0 L   1      -4.754   0.772  -2.664  1.00  0.00    +0.0831  H
ATOM     27 H60  WH0 L   1      -2.896   2.181  -1.962  1.00  0.00    +0.0654  H
BRANCH 17 34
ATOM     28  C8  WH0 L   1       1.760  -1.136   1.385  1.00  0.00    -0.0338  A
ATOM     29  C9  WH0 L   1       2.847  -1.128   2.282  1.00  0.00    -0.0226  A
ATOM     30 C10  WH0 L   1       2.913  -0.193   3.309  1.00  0.00    +0.1237  A
ATOM     31 F11  WH0 L   1       3.960  -0.203   4.144  1.00  0.00    -0.2055  F
ATOM     32 C12  WH0 L   1       1.913   0.751   3.477  1.00  0.00    -0.0258  A
ATOM     33 C13  WH0 L   1       0.829   0.762   2.600  1.00  0.00    -0.0495  A
ATOM     34 C14  WH0 L   1       0.739  -0.170   1.546  1.00  0.00    +0.0061  A
ATOM     35 H48  WH0 L   1       3.654  -1.851   2.188  1.00  0.00    +0.0649  H
ATOM     36 H49  WH0 L   1       1.979   1.469   4.288  1.00  0.00    +0.0646  H
ATOM     37 H50  WH0 L   1       0.043   1.500   2.750  1.00  0.00    +0.0625  H
BRANCH 28 38
ATOM     38  C7  WH0 L   1       1.771  -2.171   0.276  1.00  0.00    -0.0095  C
ATOM     39 H46  WH0 L   1       2.483  -2.967   0.530  1.00  0.00    +0.0330  H
ATOM     40 H47  WH0 L   1       0.801  -2.675   0.228  1.00  0.00    +0.0330  H
BRANCH 38 41
ATOM     41  C6  WH0 L   1       2.130  -1.591  -1.097  1.00  0.00    +0.0224  C
ATOM     42 H44  WH0 L   1       1.438  -0.800  -1.396  1.00  0.00    +0.0489  H
ATOM     43 H45  WH0 L   1       2.071  -2.385  -1.850  1.00  0.00    +0.0489  H
BRANCH 41 46
ATOM     44  C3  WH0 L   1       4.573  -1.816  -1.269  1.00  0.00    +0.2443  C
ATOM     45  O4  WH0 L   1       4.538  -3.028  -1.444  1.00  0.00    -0.2683 OA
ATOM     46  N5  WH0 L   1       3.466  -1.021  -1.133  1.00  0.00    -0.3522  N
ATOM     47 H43  WH0 L   1       3.588  -0.091  -0.758  1.00  0.00    +0.1626 HD
BRANCH 44 49
ATOM     48  C1  WH0 L   1       6.108   0.169  -1.363  1.00  0.00    -0.0936  C
ATOM     49  C2  WH0 L   1       5.879  -1.127  -1.113  1.00  0.00    -0.0047  C
ATOM     50 H40  WH0 L   1       5.339   0.847  -1.715  1.00  0.00    +0.0536  H
ATOM     51 H41  WH0 L   1       7.109   0.575  -1.249  1.00  0.00    +0.0536  H
ATOM     52 H42  WH0 L   1       6.694  -1.784  -0.825  1.00  0.00    +0.0666  H
ENDBRANCH 44 49
ENDBRANCH 41 46
ENDBRANCH 38 41
ENDBRANCH 28 38
ENDBRANCH 17 34
BRANCH 20 53
ATOM     53 N19  WH0 L   1      -3.478  -2.823  -0.415  1.00  0.00    -0.3359  N
ATOM     54 C20  WH0 L   1      -4.770  -3.494  -0.625  1.00  0.00    +0.0449  C
ATOM     55 C21  WH0 L   1      -4.962  -4.601   0.421  1.00  0.00    +0.0653  C
ATOM     56 O22  WH0 L   1      -3.953  -5.620   0.382  1.00  0.00    -0.3763 OA
ATOM     57 C23  WH0 L   1      -2.715  -5.168  -0.180  1.00  0.00    +0.0653  C
ATOM     58 C24  WH0 L   1      -2.407  -3.688   0.099  1.00  0.00    +0.0449  C
ATOM     59 H51  WH0 L   1      -5.599  -2.785  -0.530  1.00  0.00    +0.0511  H
ATOM     60 H52  WH0 L   1      -4.790  -3.917  -1.636  1.00  0.00    +0.0511  H
ATOM     61 H53  WH0 L   1      -4.958  -4.174   1.430  1.00  0.00    +0.0577  H
ATOM     62 H54  WH0 L   1      -5.930  -5.092   0.278  1.00  0.00    +0.0577  H
ATOM     63 H55  WH0 L   1      -2.753  -5.352  -1.260  1.00  0.00    +0.0577  H
ATOM     64 H56  WH0 L   1      -1.919  -5.800   0.228  1.00  0.00    +0.0577  H
ATOM     65 H57  WH0 L   1      -1.456  -3.461  -0.392  1.00  0.00    +0.0511  H
ATOM     66 H58  WH0 L   1      -2.312  -3.532   1.179  1.00  0.00    +0.0511  H
ENDBRANCH 20 53
ENDBRANCH 1 25
TORSDOF 7
