ROOT
ATOM      1  N8  CHE L   1       2.190  -0.106  -0.706  1.00  0.00    -0.2946 NA
ATOM      2  C9  CHE L   1       1.695   1.270  -0.548  1.00  0.00    +0.0425  C
ATOM      3 C10  CHE L   1       1.896   1.544   0.948  1.00  0.00    -0.0298  C
ATOM      4 C11  CHE L   1       1.905   0.169   1.611  1.00  0.00    -0.0298  C
ATOM      5 C12  CHE L   1       1.699  -0.833   0.467  1.00  0.00    +0.0425  C
ATOM      6 C13  CHE L   1       0.202  -1.098   0.230  1.00  0.00    -0.0113  C
ATOM      7 C14  CHE L   1      -0.443  -0.152  -0.808  1.00  0.00    +0.0338  C
ATOM      8 C26  CHE L   1       0.199   1.251  -0.902  1.00  0.00    -0.0113  C
ATOM      9 H35  CHE L   1       2.226   2.008  -1.155  1.00  0.00    +0.0532  H
ATOM     10 H36  CHE L   1       1.129   2.200   1.373  1.00  0.00    +0.0286  H
ATOM     11 H37  CHE L   1       2.860   2.036   1.118  1.00  0.00    +0.0286  H
ATOM     12 H38  CHE L   1       1.148   0.086   2.397  1.00  0.00    +0.0286  H
ATOM     13 H39  CHE L   1       2.877   0.010   2.089  1.00  0.00    +0.0286  H
ATOM     14 H40  CHE L   1       2.222  -1.772   0.665  1.00  0.00    +0.0532  H
ATOM     15 H41  CHE L   1       0.081  -2.124  -0.142  1.00  0.00    +0.0305  H
ATOM     16 H42  CHE L   1      -0.343  -1.075   1.182  1.00  0.00    +0.0305  H
ATOM     17 H43  CHE L   1      -0.310  -0.624  -1.793  1.00  0.00    +0.0524  H
ATOM     18 H51  CHE L   1      -0.351   1.978  -0.290  1.00  0.00    +0.0305  H
ATOM     19 H52  CHE L   1       0.087   1.603  -1.936  1.00  0.00    +0.0305  H
ENDROOT
BRANCH 1 20
ATOM     20  S5  CHE L   1       3.585  -0.485  -1.524  1.00  0.00    +0.2327  S
ATOM     21  O6  CHE L   1       3.664  -1.927  -1.611  1.00  0.00    -0.2053 OA
ATOM     22  O7  CHE L   1       3.604   0.331  -2.720  1.00  0.00    -0.2053 OA
BRANCH 20 23
ATOM     23  C4  CHE L   1       4.915   0.099  -0.474  1.00  0.00    +0.0699  C
ATOM     24 H33  CHE L   1       4.607   1.047  -0.029  1.00  0.00    +0.0444  H
ATOM     25 H34  CHE L   1       5.746   0.319  -1.155  1.00  0.00    +0.0444  H
BRANCH 23 26
ATOM     26  C3  CHE L   1       5.359  -0.923   0.563  1.00  0.00    -0.0253  C
ATOM     27 H31  CHE L   1       4.494  -1.312   1.108  1.00  0.00    +0.0287  H
ATOM     28 H32  CHE L   1       5.812  -1.788   0.062  1.00  0.00    +0.0287  H
BRANCH 26 30
ATOM     29  N1  CHE L   1       7.611   0.050   0.995  1.00  0.00    -0.3300 NA
ATOM     30  C2  CHE L   1       6.339  -0.345   1.582  1.00  0.00    -0.0059  C
ATOM     31 H27  CHE L   1       7.492   0.779   0.294  1.00  0.00    +0.1182 HD
ATOM     32 H28  CHE L   1       8.044  -0.743   0.519  1.00  0.00    +0.1182 HD
ATOM     33 H29  CHE L   1       6.534  -1.096   2.355  1.00  0.00    +0.0422  H
ATOM     34 H30  CHE L   1       5.892   0.519   2.087  1.00  0.00    +0.0422  H
ENDBRANCH 26 30
ENDBRANCH 23 26
ENDBRANCH 20 23
ENDBRANCH 1 20
BRANCH 7 35
ATOM     35 N15  CHE L   1      -1.887  -0.066  -0.588  1.00  0.00    -0.3478  N
ATOM     36 C16  CHE L   1      -2.747   0.384  -1.582  1.00  0.00    +0.2739  C
ATOM     37 O17  CHE L   1      -2.356   0.651  -2.714  1.00  0.00    -0.2658 OA
ATOM     38 H44  CHE L   1      -2.219  -0.027   0.365  1.00  0.00    +0.1629 HD
BRANCH 36 39
ATOM     39 C18  CHE L   1      -4.143   0.540  -1.155  1.00  0.00    +0.1701  A
ATOM     40 C19  CHE L   1      -4.817  -0.084  -0.066  1.00  0.00    +0.0132  A
ATOM     41 C20  CHE L   1      -6.093   0.414  -0.116  1.00  0.00    +0.1411  A
ATOM     42 O24  CHE L   1      -6.193   1.285  -1.150  1.00  0.00    -0.3586 OA
ATOM     43 N25  CHE L   1      -4.983   1.359  -1.812  1.00  0.00    -0.0732 NA
ATOM     44 H45  CHE L   1      -4.434  -0.807   0.636  1.00  0.00    +0.0676  H
BRANCH 41 45
ATOM     45 C21  CHE L   1      -7.247   0.058   0.854  1.00  0.00    +0.0199  C
ATOM     46 C22  CHE L   1      -8.630  -0.146   0.293  1.00  0.00    -0.0426  C
ATOM     47 C23  CHE L   1      -7.846  -1.324   0.799  1.00  0.00    -0.0426  C
ATOM     48 H46  CHE L   1      -7.178   0.536   1.826  1.00  0.00    +0.0380  H
ATOM     49 H47  CHE L   1      -9.474   0.196   0.882  1.00  0.00    +0.0272  H
ATOM     50 H48  CHE L   1      -8.778  -0.056  -0.779  1.00  0.00    +0.0272  H
ATOM     51 H49  CHE L   1      -8.159  -1.778   1.732  1.00  0.00    +0.0272  H
ATOM     52 H50  CHE L   1      -7.482  -2.031   0.061  1.00  0.00    +0.0272  H
ENDBRANCH 41 45
ENDBRANCH 36 39
ENDBRANCH 7 35
TORSDOF 7
