ROOT
ATOM      1  C4  222 L   1      -3.238  -0.262  -0.461  1.00  0.00    +0.0004  C
ATOM      2  C5  222 L   1      -3.918   0.335   0.749  1.00  0.00    -0.0686  C
ATOM      3  C6  222 L   1      -3.914   1.673   0.828  1.00  0.00    +0.0266  C
ATOM      4  S7  222 L   1      -3.131   2.387  -0.540  1.00  0.00    +0.1728  S
ATOM      5  O8  222 L   1      -2.076   3.278  -0.106  1.00  0.00    -0.2226 OA
ATOM      6  O9  222 L   1      -4.136   2.805  -1.497  1.00  0.00    -0.2226 OA
ATOM      7 C10  222 L   1      -2.409   0.853  -1.118  1.00  0.00    +0.0605  C
ATOM      8 H23  222 L   1      -4.040  -0.547  -1.156  1.00  0.00    +0.0357  H
ATOM      9 H24  222 L   1      -4.391  -0.285   1.502  1.00  0.00    +0.0582  H
ATOM     10 H25  222 L   1      -4.344   2.279   1.608  1.00  0.00    +0.0736  H
ATOM     11 H26  222 L   1      -1.359   0.850  -0.813  1.00  0.00    +0.0435  H
ATOM     12 H27  222 L   1      -2.465   0.820  -2.209  1.00  0.00    +0.0435  H
ENDROOT
BRANCH 1 13
ATOM     13  C3  222 L   1      -2.420  -1.529  -0.178  1.00  0.00    +0.0333  C
ATOM     14 H21  222 L   1      -2.014  -1.906  -1.125  1.00  0.00    +0.0366  H
ATOM     15 H22  222 L   1      -3.079  -2.305   0.232  1.00  0.00    +0.0366  H
BRANCH 13 17
ATOM     16  O1  222 L   1      -1.072  -0.336   1.446  1.00  0.00    -0.2732 OA
ATOM     17  C2  222 L   1      -1.266  -1.356   0.795  1.00  0.00    +0.2218  C
ATOM     18 N11  222 L   1      -0.459  -2.468   0.880  1.00  0.00    -0.3504  N
ATOM     19 H28  222 L   1      -0.512  -3.164   0.147  1.00  0.00    +0.1627 HD
BRANCH 18 20
ATOM     20 C12  222 L   1       0.794  -2.413   1.609  1.00  0.00    +0.0638  C
ATOM     21 H29  222 L   1       0.679  -1.799   2.509  1.00  0.00    +0.0552  H
ATOM     22 H30  222 L   1       1.043  -3.434   1.916  1.00  0.00    +0.0552  H
BRANCH 20 23
ATOM     23 C13  222 L   1       1.845  -1.856   0.713  1.00  0.00    +0.1029  A
ATOM     24 C14  222 L   1       2.293  -0.518   0.623  1.00  0.00    +0.0055  A
ATOM     25 C15  222 L   1       3.235  -0.537  -0.376  1.00  0.00    +0.1406  A
ATOM     26 O19  222 L   1       3.345  -1.807  -0.855  1.00  0.00    -0.3591 OA
ATOM     27 N20  222 L   1       2.467  -2.639  -0.179  1.00  0.00    -0.0812 NA
ATOM     28 H31  222 L   1       1.957   0.333   1.197  1.00  0.00    +0.0671  H
BRANCH 25 29
ATOM     29 C16  222 L   1       4.062   0.657  -0.924  1.00  0.00    +0.0199  C
ATOM     30 C17  222 L   1       3.440   2.025  -1.026  1.00  0.00    -0.0426  C
ATOM     31 C18  222 L   1       4.508   1.760  -0.002  1.00  0.00    -0.0426  C
ATOM     32 H32  222 L   1       4.751   0.376  -1.715  1.00  0.00    +0.0380  H
ATOM     33 H33  222 L   1       3.699   2.635  -1.884  1.00  0.00    +0.0272  H
ATOM     34 H34  222 L   1       2.425   2.174  -0.676  1.00  0.00    +0.0272  H
ATOM     35 H35  222 L   1       4.216   1.730   1.041  1.00  0.00    +0.0272  H
ATOM     36 H36  222 L   1       5.489   2.192  -0.169  1.00  0.00    +0.0272  H
ENDBRANCH 25 29
ENDBRANCH 20 23
ENDBRANCH 18 20
ENDBRANCH 13 17
ENDBRANCH 1 13
TORSDOF 5
