ROOT
ATOM      1  C1  SEL L   1      -3.301   1.416  -2.735  1.00  0.00    +0.0145  C
ATOM      2  C2  SEL L   1      -3.197   0.502  -1.540  1.00  0.00    +0.2209  C
ATOM      3  O3  SEL L   1      -4.194   0.220  -0.879  1.00  0.00    -0.2733 OA
ATOM      4  N4  SEL L   1      -1.937   0.015  -1.247  1.00  0.00    -0.3349  N
ATOM      5  C5  SEL L   1      -0.840  -0.061  -2.206  1.00  0.00    +0.0266  C
ATOM      6  C6  SEL L   1      -0.114  -1.358  -1.853  1.00  0.00    +0.0010  C
ATOM      7  C7  SEL L   1       1.396  -1.309  -2.052  1.00  0.00    +0.0263  C
ATOM      8  N8  SEL L   1       1.903  -0.816  -0.786  1.00  0.00    -0.3372  N
ATOM      9 C15  SEL L   1       0.863  -0.636   0.214  1.00  0.00    +0.0268  C
ATOM     10 C16  SEL L   1      -0.310  -1.460  -0.338  1.00  0.00    +0.0074  C
ATOM     11 C17  SEL L   1      -1.723  -0.899  -0.119  1.00  0.00    +0.0624  C
ATOM     12 H25  SEL L   1      -2.431   2.076  -2.800  1.00  0.00    +0.0325  H
ATOM     13 H26  SEL L   1      -3.394   0.821  -3.647  1.00  0.00    +0.0325  H
ATOM     14 H27  SEL L   1      -4.189   2.047  -2.628  1.00  0.00    +0.0325  H
ATOM     15 H28  SEL L   1      -0.217   0.830  -2.066  1.00  0.00    +0.0492  H
ATOM     16 H29  SEL L   1      -1.202  -0.077  -3.238  1.00  0.00    +0.0492  H
ATOM     17 H30  SEL L   1      -0.574  -2.201  -2.381  1.00  0.00    +0.0339  H
ATOM     18 H31  SEL L   1       1.787  -2.317  -2.231  1.00  0.00    +0.0492  H
ATOM     19 H32  SEL L   1       1.667  -0.672  -2.900  1.00  0.00    +0.0492  H
ATOM     20 H36  SEL L   1       0.625   0.429   0.303  1.00  0.00    +0.0492  H
ATOM     21 H37  SEL L   1       1.168  -1.012   1.197  1.00  0.00    +0.0492  H
ATOM     22 H38  SEL L   1      -0.225  -2.497   0.009  1.00  0.00    +0.0345  H
ATOM     23 H39  SEL L   1      -2.454  -1.707  -0.257  1.00  0.00    +0.0578  H
ENDROOT
BRANCH 8 24
ATOM     24  C9  SEL L   1       3.140  -0.301  -0.651  1.00  0.00    +0.2663  A
ATOM     25 N10  SEL L   1       4.117  -0.300  -1.570  1.00  0.00    -0.0376 NA
ATOM     26 O11  SEL L   1       5.174   0.343  -0.930  1.00  0.00    -0.3365 OA
ATOM     27 C12  SEL L   1       4.724   0.667   0.313  1.00  0.00    +0.2258  A
ATOM     28 C13  SEL L   1       5.671   1.364   1.199  1.00  0.00    +0.0148  C
ATOM     29 N14  SEL L   1       3.485   0.299   0.531  1.00  0.00    -0.1766 NA
ATOM     30 H33  SEL L   1       6.560   0.750   1.370  1.00  0.00    +0.0325  H
ATOM     31 H34  SEL L   1       5.985   2.313   0.755  1.00  0.00    +0.0325  H
ATOM     32 H35  SEL L   1       5.210   1.576   2.168  1.00  0.00    +0.0325  H
ENDBRANCH 8 24
BRANCH 11 33
ATOM     33 C18  SEL L   1      -1.919  -0.315   1.268  1.00  0.00    -0.0245  A
ATOM     34 C19  SEL L   1      -2.133  -1.190   2.350  1.00  0.00    -0.0539  A
ATOM     35 C20  SEL L   1      -2.291  -0.697   3.646  1.00  0.00    -0.0261  A
ATOM     36 C21  SEL L   1      -2.235   0.672   3.870  1.00  0.00    +0.1234  A
ATOM     37 F22  SEL L   1      -2.384   1.145   5.114  1.00  0.00    -0.2055  F
ATOM     38 C23  SEL L   1      -2.022   1.558   2.822  1.00  0.00    -0.0261  A
ATOM     39 C24  SEL L   1      -1.863   1.066   1.525  1.00  0.00    -0.0539  A
ATOM     40 H40  SEL L   1      -2.185  -2.265   2.186  1.00  0.00    +0.0622  H
ATOM     41 H41  SEL L   1      -2.462  -1.370   4.480  1.00  0.00    +0.0646  H
ATOM     42 H42  SEL L   1      -1.984   2.624   3.019  1.00  0.00    +0.0646  H
ATOM     43 H43  SEL L   1      -1.698   1.773   0.715  1.00  0.00    +0.0622  H
ENDBRANCH 11 33
TORSDOF 2
