ROOT
ATOM      1 C11  CHE L   1       4.428  -1.129   0.827  1.00  0.00    +0.0389  A
ATOM      2 C12  CHE L   1       5.017  -1.093  -0.391  1.00  0.00    -0.0388  A
ATOM      3 C13  CHE L   1       5.475   0.149  -1.108  1.00  0.00    -0.0392  C
ATOM      4 C14  CHE L   1       5.233  -2.326  -1.135  1.00  0.00    -0.0393  A
ATOM      5 C15  CHE L   1       4.858  -3.512  -0.638  1.00  0.00    +0.0162  A
ATOM      6 C16  CHE L   1       5.035  -4.811  -1.361  1.00  0.00    -0.0244  C
ATOM      7 N17  CHE L   1       4.271  -3.559   0.601  1.00  0.00    -0.3262  N
ATOM      8 C18  CHE L   1       4.026  -2.462   1.385  1.00  0.00    +0.2540  A
ATOM      9 O19  CHE L   1       3.480  -2.573   2.481  1.00  0.00    -0.2675 OA
ATOM     10 H48  CHE L   1       6.547   0.085  -1.331  1.00  0.00    +0.0278  H
ATOM     11 H49  CHE L   1       4.931   0.264  -2.054  1.00  0.00    +0.0278  H
ATOM     12 H50  CHE L   1       5.321   1.067  -0.537  1.00  0.00    +0.0278  H
ATOM     13 H51  CHE L   1       5.700  -2.256  -2.114  1.00  0.00    +0.0637  H
ATOM     14 H52  CHE L   1       5.585  -5.526  -0.740  1.00  0.00    +0.0292  H
ATOM     15 H53  CHE L   1       5.590  -4.683  -2.296  1.00  0.00    +0.0292  H
ATOM     16 H54  CHE L   1       4.059  -5.239  -1.606  1.00  0.00    +0.0292  H
ATOM     17 H55  CHE L   1       3.984  -4.448   0.993  1.00  0.00    +0.1686 HD
ENDROOT
BRANCH 1 18
ATOM     18 C10  CHE L   1       4.132   0.037   1.724  1.00  0.00    +0.0491  C
ATOM     19 H46  CHE L   1       4.470  -0.164   2.746  1.00  0.00    +0.0538  H
ATOM     20 H47  CHE L   1       4.625   0.959   1.409  1.00  0.00    +0.0538  H
BRANCH 18 23
ATOM     21  C7  CHE L   1       2.046   1.045   0.863  1.00  0.00    +0.2530  C
ATOM     22  O8  CHE L   1       2.615   1.747   0.036  1.00  0.00    -0.2676 OA
ATOM     23  N9  CHE L   1       2.703   0.252   1.771  1.00  0.00    -0.3478  N
ATOM     24 H45  CHE L   1       2.186  -0.306   2.438  1.00  0.00    +0.1630 HD
BRANCH 21 27
ATOM     25  C4  CHE L   1      -1.506   2.403   0.744  1.00  0.00    +0.0424  A
ATOM     26  C5  CHE L   1      -0.106   2.271   0.698  1.00  0.00    -0.0254  A
ATOM     27  C6  CHE L   1       0.569   1.052   0.944  1.00  0.00    +0.0516  A
ATOM     28 C20  CHE L   1      -0.188  -0.104   1.201  1.00  0.00    +0.0329  A
ATOM     29 C21  CHE L   1       0.050  -1.492   1.407  1.00  0.00    -0.0109  A
ATOM     30 C22  CHE L   1      -1.182  -2.094   1.566  1.00  0.00    +0.1202  A
ATOM     31 O30  CHE L   1      -2.167  -1.153   1.503  1.00  0.00    -0.4583 OA
ATOM     32 C31  CHE L   1      -1.567   0.042   1.253  1.00  0.00    +0.1379  A
ATOM     33 C32  CHE L   1      -2.245   1.248   1.057  1.00  0.00    +0.0045  A
ATOM     34 H44  CHE L   1       0.517   3.122   0.432  1.00  0.00    +0.0646  H
ATOM     35 H56  CHE L   1       0.998  -2.010   1.403  1.00  0.00    +0.0659  H
ATOM     36 H69  CHE L   1      -3.324   1.255   1.141  1.00  0.00    +0.0675  H
BRANCH 25 37
ATOM     37  N3  CHE L   1      -2.149   3.621   0.479  1.00  0.00    -0.3676  N
BRANCH 37 39
ATOM     38  C1  CHE L   1      -3.355   2.997  -1.609  1.00  0.00    -0.0475  C
ATOM     39  C2  CHE L   1      -3.448   3.596  -0.210  1.00  0.00    +0.0161  C
ATOM     40 H39  CHE L   1      -2.602   3.509  -2.215  1.00  0.00    +0.0247  H
ATOM     41 H40  CHE L   1      -4.322   3.083  -2.115  1.00  0.00    +0.0247  H
ATOM     42 H41  CHE L   1      -3.094   1.936  -1.580  1.00  0.00    +0.0247  H
ATOM     43 H42  CHE L   1      -4.195   3.057   0.385  1.00  0.00    +0.0485  H
ATOM     44 H43  CHE L   1      -3.852   4.601  -0.313  1.00  0.00    +0.0485  H
ENDBRANCH 37 39
BRANCH 37 45
ATOM     45 C33  CHE L   1      -1.428   4.907   0.682  1.00  0.00    +0.0341  C
ATOM     46 C34  CHE L   1      -0.840   5.466  -0.615  1.00  0.00    -0.0089  C
ATOM     47 C35  CHE L   1      -1.747   6.470  -1.302  1.00  0.00    +0.0495  C
ATOM     48 O36  CHE L   1      -2.137   7.489  -0.387  1.00  0.00    -0.3796 OA
ATOM     49 C37  CHE L   1      -2.968   6.979   0.650  1.00  0.00    +0.0495  C
ATOM     50 C38  CHE L   1      -2.245   5.933   1.485  1.00  0.00    -0.0089  C
ATOM     51 H70  CHE L   1      -0.580   4.695   1.347  1.00  0.00    +0.0525  H
ATOM     52 H71  CHE L   1       0.082   5.998  -0.347  1.00  0.00    +0.0307  H
ATOM     53 H72  CHE L   1      -0.554   4.673  -1.313  1.00  0.00    +0.0307  H
ATOM     54 H73  CHE L   1      -1.205   6.953  -2.123  1.00  0.00    +0.0560  H
ATOM     55 H74  CHE L   1      -2.633   5.998  -1.737  1.00  0.00    +0.0560  H
ATOM     56 H75  CHE L   1      -3.251   7.822   1.292  1.00  0.00    +0.0560  H
ATOM     57 H76  CHE L   1      -3.898   6.600   0.217  1.00  0.00    +0.0560  H
ATOM     58 H77  CHE L   1      -2.942   5.445   2.177  1.00  0.00    +0.0307  H
ATOM     59 H78  CHE L   1      -1.528   6.483   2.112  1.00  0.00    +0.0307  H
ENDBRANCH 37 45
ENDBRANCH 25 37
BRANCH 30 60
ATOM     60 C23  CHE L   1      -1.615  -3.507   1.775  1.00  0.00    +0.0571  C
ATOM     61 H57  CHE L   1      -2.468  -3.517   2.466  1.00  0.00    +0.0507  H
ATOM     62 H58  CHE L   1      -0.818  -4.056   2.292  1.00  0.00    +0.0507  H
BRANCH 60 63
ATOM     63 N24  CHE L   1      -1.988  -4.233   0.552  1.00  0.00    -0.2952 NA
ATOM     64 C25  CHE L   1      -3.102  -3.629  -0.174  1.00  0.00    -0.0007  C
ATOM     65 C26  CHE L   1      -3.676  -4.633  -1.181  1.00  0.00    -0.0402  C
ATOM     66 C27  CHE L   1      -2.599  -5.441  -1.910  1.00  0.00    -0.0507  C
ATOM     67 C28  CHE L   1      -1.229  -4.792  -1.779  1.00  0.00    -0.0402  C
ATOM     68 C29  CHE L   1      -0.849  -4.566  -0.309  1.00  0.00    -0.0007  C
ATOM     69 H59  CHE L   1      -2.788  -2.717  -0.701  1.00  0.00    +0.0427  H
ATOM     70 H60  CHE L   1      -3.910  -3.341   0.512  1.00  0.00    +0.0427  H
ATOM     71 H61  CHE L   1      -4.287  -4.087  -1.910  1.00  0.00    +0.0278  H
ATOM     72 H62  CHE L   1      -4.352  -5.330  -0.670  1.00  0.00    +0.0278  H
ATOM     73 H63  CHE L   1      -2.867  -5.552  -2.966  1.00  0.00    +0.0266  H
ATOM     74 H64  CHE L   1      -2.561  -6.453  -1.490  1.00  0.00    +0.0266  H
ATOM     75 H65  CHE L   1      -1.237  -3.828  -2.306  1.00  0.00    +0.0278  H
ATOM     76 H66  CHE L   1      -0.469  -5.413  -2.267  1.00  0.00    +0.0278  H
ATOM     77 H67  CHE L   1      -0.389  -5.480   0.086  1.00  0.00    +0.0427  H
ATOM     78 H68  CHE L   1      -0.070  -3.795  -0.292  1.00  0.00    +0.0427  H
ENDBRANCH 60 63
ENDBRANCH 30 60
ENDBRANCH 21 27
ENDBRANCH 18 23
ENDBRANCH 1 18
TORSDOF 8
