ROOT
ATOM      1  N9  CHE L   1      -0.893  -1.176  -0.273  1.00  0.00    -0.3254  N
ATOM      2 C10  CHE L   1       0.332  -0.513  -0.273  1.00  0.00    +0.0308  A
ATOM      3 C11  CHE L   1       0.936   0.071   0.965  1.00  0.00    -0.0234  C
ATOM      4 C12  CHE L   1       0.831  -0.552  -1.579  1.00  0.00    +0.0701  A
ATOM      5 C27  CHE L   1      -0.051  -1.382  -2.335  1.00  0.00    +0.0495  A
ATOM      6 C28  CHE L   1      -0.089  -1.865  -3.645  1.00  0.00    +0.0407  A
ATOM      7 N29  CHE L   1      -1.117  -2.646  -4.045  1.00  0.00    -0.2430 NA
ATOM      8 C30  CHE L   1      -2.073  -2.925  -3.140  1.00  0.00    +0.1182  A
ATOM      9 N31  CHE L   1      -2.146  -2.518  -1.862  1.00  0.00    -0.2177 NA
ATOM     10 C32  CHE L   1      -1.102  -1.747  -1.509  1.00  0.00    +0.1451  A
ATOM     11 H48  CHE L   1       0.473   1.035   1.199  1.00  0.00    +0.0292  H
ATOM     12 H49  CHE L   1       0.823  -0.597   1.824  1.00  0.00    +0.0292  H
ATOM     13 H50  CHE L   1       2.016   0.217   0.853  1.00  0.00    +0.0292  H
ATOM     14 H62  CHE L   1       0.678  -1.651  -4.381  1.00  0.00    +0.0837  H
ATOM     15 H63  CHE L   1      -2.884  -3.558  -3.487  1.00  0.00    +0.1047  H
ENDROOT
BRANCH 1 16
ATOM     16  C7  CHE L   1      -1.819  -1.267   0.868  1.00  0.00    +0.0361  C
ATOM     17  C8  CHE L   1      -2.291  -2.698   1.165  1.00  0.00    -0.0439  C
ATOM     18 H44  CHE L   1      -1.211  -1.010   1.741  1.00  0.00    +0.0528  H
ATOM     19 H45  CHE L   1      -2.758  -2.754   2.154  1.00  0.00    +0.0250  H
ATOM     20 H46  CHE L   1      -1.442  -3.392   1.165  1.00  0.00    +0.0250  H
ATOM     21 H47  CHE L   1      -3.019  -3.069   0.440  1.00  0.00    +0.0250  H
BRANCH 16 25
ATOM     22  C3  CHE L   1      -5.969   0.036   1.182  1.00  0.00    +0.0584  C
ATOM     23  C4  CHE L   1      -5.221   0.452  -0.093  1.00  0.00    -0.0263  C
ATOM     24  C5  CHE L   1      -3.967  -0.386  -0.321  1.00  0.00    -0.0460  C
ATOM     25  C6  CHE L   1      -2.943  -0.187   0.814  1.00  0.00    -0.0202  C
ATOM     26 C33  CHE L   1      -3.637  -0.012   2.187  1.00  0.00    -0.0460  C
ATOM     27 C34  CHE L   1      -5.042  -0.607   2.223  1.00  0.00    -0.0263  C
ATOM     28 H38  CHE L   1      -6.752  -0.697   0.945  1.00  0.00    +0.0596  H
ATOM     29 H39  CHE L   1      -4.954   1.517  -0.057  1.00  0.00    +0.0290  H
ATOM     30 H40  CHE L   1      -5.894   0.342  -0.954  1.00  0.00    +0.0290  H
ATOM     31 H41  CHE L   1      -3.518  -0.096  -1.277  1.00  0.00    +0.0269  H
ATOM     32 H42  CHE L   1      -4.265  -1.434  -0.413  1.00  0.00    +0.0269  H
ATOM     33 H43  CHE L   1      -2.439   0.771   0.616  1.00  0.00    +0.0321  H
ATOM     34 H64  CHE L   1      -3.032  -0.442   2.994  1.00  0.00    +0.0269  H
ATOM     35 H65  CHE L   1      -3.708   1.061   2.411  1.00  0.00    +0.0269  H
ATOM     36 H66  CHE L   1      -4.976  -1.686   2.029  1.00  0.00    +0.0290  H
ATOM     37 H67  CHE L   1      -5.459  -0.490   3.230  1.00  0.00    +0.0290  H
BRANCH 22 39
ATOM     38  C1  CHE L   1      -7.775   1.588   1.143  1.00  0.00    +0.0368  C
ATOM     39  O2  CHE L   1      -6.571   1.187   1.787  1.00  0.00    -0.3798 OA
ATOM     40 H35  CHE L   1      -8.531   0.802   1.243  1.00  0.00    +0.0524  H
ATOM     41 H36  CHE L   1      -8.141   2.491   1.639  1.00  0.00    +0.0524  H
ATOM     42 H37  CHE L   1      -7.604   1.816   0.088  1.00  0.00    +0.0524  H
ENDBRANCH 22 39
ENDBRANCH 16 25
ENDBRANCH 1 16
BRANCH 4 43
ATOM     43 C13  CHE L   1       2.054   0.051  -2.109  1.00  0.00    +0.2547  C
ATOM     44 O14  CHE L   1       2.699  -0.485  -3.005  1.00  0.00    -0.2675 OA
ATOM     45 N15  CHE L   1       2.394   1.259  -1.561  1.00  0.00    -0.3477  N
ATOM     46 H51  CHE L   1       1.807   1.667  -0.843  1.00  0.00    +0.1630 HD
BRANCH 45 47
ATOM     47 C16  CHE L   1       3.648   1.927  -1.838  1.00  0.00    +0.0499  C
ATOM     48 H52  CHE L   1       3.447   3.006  -1.851  1.00  0.00    +0.0538  H
ATOM     49 H53  CHE L   1       3.994   1.657  -2.841  1.00  0.00    +0.0538  H
BRANCH 47 50
ATOM     50 C17  CHE L   1       4.636   1.602  -0.754  1.00  0.00    +0.0493  A
ATOM     51 C18  CHE L   1       5.787   0.905  -0.867  1.00  0.00    +0.0192  A
ATOM     52 C21  CHE L   1       6.652   0.701   0.283  1.00  0.00    -0.0288  A
ATOM     53 C22  CHE L   1       6.328   1.191   1.488  1.00  0.00    +0.0170  A
ATOM     54 C23  CHE L   1       7.166   1.001   2.714  1.00  0.00    -0.0243  C
ATOM     55 N24  CHE L   1       5.165   1.906   1.620  1.00  0.00    -0.3262  N
ATOM     56 C25  CHE L   1       4.289   2.160   0.595  1.00  0.00    +0.2548  A
ATOM     57 O26  CHE L   1       3.257   2.799   0.791  1.00  0.00    -0.2675 OA
ATOM     58 H57  CHE L   1       7.570   0.137   0.149  1.00  0.00    +0.0646  H
ATOM     59 H58  CHE L   1       6.615   0.419   3.461  1.00  0.00    +0.0292  H
ATOM     60 H59  CHE L   1       8.096   0.465   2.491  1.00  0.00    +0.0292  H
ATOM     61 H60  CHE L   1       7.433   1.968   3.157  1.00  0.00    +0.0292  H
ATOM     62 H61  CHE L   1       4.903   2.288   2.522  1.00  0.00    +0.1686 HD
BRANCH 51 63
ATOM     63 S19  CHE L   1       6.341   0.228  -2.372  1.00  0.00    -0.1280 SA
ATOM     64 C20  CHE L   1       5.810  -1.490  -2.152  1.00  0.00    -0.0134  C
ATOM     65 H54  CHE L   1       6.447  -1.990  -1.416  1.00  0.00    +0.0344  H
ATOM     66 H55  CHE L   1       5.895  -2.017  -3.107  1.00  0.00    +0.0344  H
ATOM     67 H56  CHE L   1       4.773  -1.539  -1.817  1.00  0.00    +0.0344  H
ENDBRANCH 51 63
ENDBRANCH 47 50
ENDBRANCH 45 47
ENDBRANCH 4 43
TORSDOF 7
