ROOT
ATOM      1 C10  187 L   1      -0.574  -0.790   0.329  1.00  0.00    +0.2309  C
ATOM      2 O11  187 L   1      -1.239  -0.579   1.351  1.00  0.00    -0.2726 OA
ATOM      3 N12  187 L   1       0.676  -1.400   0.408  1.00  0.00    -0.3413  N
ATOM      4 C13  187 L   1       1.168  -1.767   1.736  1.00  0.00    +0.0235  C
ATOM      5 C14  187 L   1       1.962  -0.660   2.407  1.00  0.00    -0.0091  C
ATOM      6 C15  187 L   1       3.222  -0.259   1.643  1.00  0.00    +0.0574  C
ATOM      7 O16  187 L   1       3.930   0.651   2.492  1.00  0.00    -0.3917 OA
ATOM      8 C17  187 L   1       2.918   0.443   0.313  1.00  0.00    -0.0200  C
ATOM      9 C18  187 L   1       2.656  -0.468  -0.916  1.00  0.00    -0.0149  C
ATOM     10 C19  187 L   1       2.202   0.446  -2.075  1.00  0.00    -0.0581  C
ATOM     11 C20  187 L   1       3.984  -1.124  -1.364  1.00  0.00    -0.0581  C
ATOM     12 C21  187 L   1       1.618  -1.603  -0.692  1.00  0.00    +0.0264  C
ATOM     13 H32  187 L   1       1.772  -2.680   1.653  1.00  0.00    +0.0489  H
ATOM     14 H33  187 L   1       0.318  -2.030   2.378  1.00  0.00    +0.0489  H
ATOM     15 H34  187 L   1       2.247  -0.993   3.413  1.00  0.00    +0.0307  H
ATOM     16 H35  187 L   1       1.327   0.221   2.565  1.00  0.00    +0.0307  H
ATOM     17 H36  187 L   1       3.873  -1.127   1.501  1.00  0.00    +0.0594  H
ATOM     18 H37  187 L   1       4.693   0.995   1.999  1.00  0.00    +0.2098 HD
ATOM     19 H38  187 L   1       2.064   1.120   0.461  1.00  0.00    +0.0296  H
ATOM     20 H39  187 L   1       3.751   1.117   0.068  1.00  0.00    +0.0296  H
ATOM     21 H40  187 L   1       1.951  -0.136  -2.970  1.00  0.00    +0.0236  H
ATOM     22 H41  187 L   1       2.992   1.152  -2.354  1.00  0.00    +0.0236  H
ATOM     23 H42  187 L   1       1.327   1.038  -1.798  1.00  0.00    +0.0236  H
ATOM     24 H43  187 L   1       4.751  -0.369  -1.572  1.00  0.00    +0.0236  H
ATOM     25 H44  187 L   1       3.841  -1.712  -2.280  1.00  0.00    +0.0236  H
ATOM     26 H45  187 L   1       4.383  -1.800  -0.601  1.00  0.00    +0.0236  H
ATOM     27 H46  187 L   1       2.139  -2.546  -0.477  1.00  0.00    +0.0494  H
ATOM     28 H47  187 L   1       1.069  -1.815  -1.615  1.00  0.00    +0.0494  H
ENDROOT
BRANCH 1 29
ATOM     29  C9  187 L   1      -1.170  -0.463  -1.034  1.00  0.00    +0.0863  C
ATOM     30 H30  187 L   1      -0.445  -0.532  -1.842  1.00  0.00    +0.0440  H
ATOM     31 H31  187 L   1      -1.944  -1.205  -1.250  1.00  0.00    +0.0440  H
BRANCH 29 36
ATOM     32  N4  187 L   1      -2.944   1.307  -0.515  1.00  0.00    -0.3144  N
ATOM     33  C5  187 L   1      -3.041   2.644  -0.771  1.00  0.00    +0.1201  A
ATOM     34  N6  187 L   1      -1.977   3.053  -1.419  1.00  0.00    -0.1379 NA
ATOM     35  N7  187 L   1      -1.158   1.968  -1.593  1.00  0.00    -0.1341 NA
ATOM     36  C8  187 L   1      -1.733   0.917  -1.038  1.00  0.00    +0.1425  A
ATOM     37 H29  187 L   1      -3.882   3.259  -0.479  1.00  0.00    +0.1048  H
BRANCH 32 39
ATOM     38  C1  187 L   1      -4.291   1.008   1.543  1.00  0.00    -0.0444  C
ATOM     39  C2  187 L   1      -3.952   0.490   0.145  1.00  0.00    +0.0314  C
ATOM     40  C3  187 L   1      -5.210   0.360  -0.716  1.00  0.00    -0.0444  C
ATOM     41 H22  187 L   1      -3.387   1.120   2.151  1.00  0.00    +0.0249  H
ATOM     42 H23  187 L   1      -4.789   1.984   1.505  1.00  0.00    +0.0249  H
ATOM     43 H24  187 L   1      -4.961   0.311   2.059  1.00  0.00    +0.0249  H
ATOM     44 H25  187 L   1      -3.535  -0.515   0.258  1.00  0.00    +0.0523  H
ATOM     45 H26  187 L   1      -4.963  -0.020  -1.714  1.00  0.00    +0.0249  H
ATOM     46 H27  187 L   1      -5.922  -0.336  -0.258  1.00  0.00    +0.0249  H
ATOM     47 H28  187 L   1      -5.717   1.324  -0.843  1.00  0.00    +0.0249  H
ENDBRANCH 32 39
ENDBRANCH 29 36
ENDBRANCH 1 29
TORSDOF 3
