ROOT
ATOM      1  O1  SEL L   1       7.917   0.790   0.449  1.00  0.00    -0.5068 OA
ATOM      2  C2  SEL L   1       6.564   0.705   0.591  1.00  0.00    +0.1170  A
ATOM      3  C3  SEL L   1       5.976   0.497   1.830  1.00  0.00    -0.0182  A
ATOM      4  C4  SEL L   1       4.580   0.423   1.923  1.00  0.00    -0.0350  A
ATOM      5  C5  SEL L   1       3.754   0.550   0.793  1.00  0.00    +0.0382  A
ATOM      6 C28  SEL L   1       4.386   0.756  -0.443  1.00  0.00    -0.0350  A
ATOM      7 C29  SEL L   1       5.781   0.836  -0.545  1.00  0.00    -0.0182  A
ATOM      8 H30  SEL L   1       8.326   0.629   1.314  1.00  0.00    +0.2921 HD
ATOM      9 H31  SEL L   1       6.573   0.398   2.730  1.00  0.00    +0.0655  H
ATOM     10 H32  SEL L   1       4.129   0.282   2.903  1.00  0.00    +0.0639  H
ATOM     11 H51  SEL L   1       3.814   0.828  -1.359  1.00  0.00    +0.0639  H
ATOM     12 H52  SEL L   1       6.251   0.990  -1.511  1.00  0.00    +0.0655  H
ENDROOT
BRANCH 5 13
ATOM     13  N6  SEL L   1       2.364   0.453   0.953  1.00  0.00    -0.3681  N
ATOM     14  C7  SEL L   1       1.470   1.075  -0.045  1.00  0.00    +0.0314  C
ATOM     15  C8  SEL L   1       0.760   0.009  -0.908  1.00  0.00    +0.0175  C
ATOM     16  N9  SEL L   1      -0.090  -0.946  -0.147  1.00  0.00    -0.2857 NA
ATOM     17 C26  SEL L   1       0.415  -1.082   1.245  1.00  0.00    +0.0175  C
ATOM     18 C27  SEL L   1       1.945  -0.902   1.388  1.00  0.00    +0.0314  C
ATOM     19 H33  SEL L   1       1.983   1.804  -0.680  1.00  0.00    +0.0500  H
ATOM     20 H34  SEL L   1       0.712   1.653   0.500  1.00  0.00    +0.0500  H
ATOM     21 H35  SEL L   1       1.524  -0.588  -1.422  1.00  0.00    +0.0444  H
ATOM     22 H36  SEL L   1       0.209   0.517  -1.704  1.00  0.00    +0.0444  H
ATOM     23 H47  SEL L   1       0.163  -2.075   1.625  1.00  0.00    +0.0444  H
ATOM     24 H48  SEL L   1      -0.069  -0.344   1.898  1.00  0.00    +0.0444  H
ATOM     25 H49  SEL L   1       2.214  -1.054   2.439  1.00  0.00    +0.0500  H
ATOM     26 H50  SEL L   1       2.452  -1.673   0.795  1.00  0.00    +0.0500  H
BRANCH 16 27
ATOM     27 C10  SEL L   1      -1.539  -0.601  -0.184  1.00  0.00    +0.0977  C
ATOM     28 H37  SEL L   1      -1.630   0.420   0.209  1.00  0.00    +0.0594  H
BRANCH 27 29
ATOM     29 C11  SEL L   1      -2.083  -0.615  -1.620  1.00  0.00    -0.0227  A
ATOM     30 C12  SEL L   1      -2.015  -1.786  -2.400  1.00  0.00    -0.0539  A
ATOM     31 C13  SEL L   1      -2.523  -1.804  -3.699  1.00  0.00    -0.0261  A
ATOM     32 C14  SEL L   1      -3.098  -0.654  -4.224  1.00  0.00    +0.1234  A
ATOM     33 F15  SEL L   1      -3.587  -0.671  -5.470  1.00  0.00    -0.2055  F
ATOM     34 C16  SEL L   1      -3.173   0.516  -3.476  1.00  0.00    -0.0261  A
ATOM     35 C17  SEL L   1      -2.666   0.539  -2.175  1.00  0.00    -0.0539  A
ATOM     36 H38  SEL L   1      -1.562  -2.689  -1.991  1.00  0.00    +0.0622  H
ATOM     37 H39  SEL L   1      -2.473  -2.707  -4.301  1.00  0.00    +0.0646  H
ATOM     38 H40  SEL L   1      -3.624   1.402  -3.914  1.00  0.00    +0.0646  H
ATOM     39 H41  SEL L   1      -2.727   1.464  -1.604  1.00  0.00    +0.0622  H
ENDBRANCH 27 29
BRANCH 27 40
ATOM     40 C18  SEL L   1      -2.400  -1.501   0.666  1.00  0.00    +0.1732  A
ATOM     41 N19  SEL L   1      -2.201  -2.767   0.996  1.00  0.00    -0.1114 NA
ATOM     42 N20  SEL L   1      -3.271  -3.140   1.772  1.00  0.00    -0.0230 NA
ATOM     43 N21  SEL L   1      -4.136  -2.145   1.900  1.00  0.00    -0.0436 NA
ATOM     44 N22  SEL L   1      -3.595  -1.126   1.220  1.00  0.00    -0.2244  N
BRANCH 44 45
ATOM     45 C23  SEL L   1      -4.280   0.172   1.060  1.00  0.00    +0.0565  C
ATOM     46 C24  SEL L   1      -5.077   0.803   2.180  1.00  0.00    -0.0284  C
ATOM     47 C25  SEL L   1      -3.798   1.440   1.725  1.00  0.00    -0.0284  C
ATOM     48 H42  SEL L   1      -4.719   0.261   0.070  1.00  0.00    +0.0546  H
ATOM     49 H43  SEL L   1      -5.086   0.313   3.148  1.00  0.00    +0.0286  H
ATOM     50 H44  SEL L   1      -6.014   1.284   1.921  1.00  0.00    +0.0286  H
ATOM     51 H45  SEL L   1      -3.868   2.369   1.172  1.00  0.00    +0.0286  H
ATOM     52 H46  SEL L   1      -2.956   1.397   2.408  1.00  0.00    +0.0286  H
ENDBRANCH 44 45
ENDBRANCH 27 40
ENDBRANCH 16 27
ENDBRANCH 5 13
TORSDOF 5
