ROOT
ATOM      1  C3  CHE L   1       3.425  -1.054  -2.044  1.00  0.00    +0.0518  A
ATOM      2  C4  CHE L   1       3.222  -1.705  -0.820  1.00  0.00    -0.0436  A
ATOM      3  C5  CHE L   1       2.380  -1.140   0.142  1.00  0.00    -0.0482  A
ATOM      4  C6  CHE L   1       1.725   0.066  -0.128  1.00  0.00    +0.0393  A
ATOM      5 C19  CHE L   1       1.947   0.736  -1.338  1.00  0.00    -0.0482  A
ATOM      6 C20  CHE L   1       2.789   0.169  -2.299  1.00  0.00    -0.0436  A
ATOM      7 H21  CHE L   1       3.726  -2.645  -0.604  1.00  0.00    +0.0631  H
ATOM      8 H22  CHE L   1       2.240  -1.633   1.103  1.00  0.00    +0.0625  H
ATOM      9 H33  CHE L   1       1.478   1.698  -1.527  1.00  0.00    +0.0625  H
ATOM     10 H34  CHE L   1       2.954   0.691  -3.240  1.00  0.00    +0.0631  H
ENDROOT
BRANCH 1 12
ATOM     11  N1  CHE L   1       4.984  -2.100  -3.836  1.00  0.00    -0.1909 NA
ATOM     12  C2  CHE L   1       4.290  -1.632  -3.032  1.00  0.00    +0.0992  C
ENDBRANCH 1 12
BRANCH 4 13
ATOM     13  C7  CHE L   1       0.872   0.667   0.920  1.00  0.00    +0.2551  C
ATOM     14  O8  CHE L   1       1.394   0.850   2.019  1.00  0.00    -0.2674 OA
ATOM     15  N9  CHE L   1      -0.446   1.017   0.611  1.00  0.00    -0.3306  N
BRANCH 15 16
ATOM     16 C10  CHE L   1      -1.220   0.400  -0.478  1.00  0.00    +0.0530  C
ATOM     17 H23  CHE L   1      -0.568   0.046  -1.280  1.00  0.00    +0.0543  H
ATOM     18 H24  CHE L   1      -1.866   1.166  -0.920  1.00  0.00    +0.0543  H
BRANCH 16 19
ATOM     19 C11  CHE L   1      -2.008  -0.773   0.035  1.00  0.00    +0.0091  A
ATOM     20 C12  CHE L   1      -1.553  -2.031   0.387  1.00  0.00    -0.0498  A
ATOM     21 C13  CHE L   1      -2.606  -2.887   0.823  1.00  0.00    -0.0544  A
ATOM     22 C14  CHE L   1      -3.830  -2.258   0.787  1.00  0.00    -0.0240  A
ATOM     23 S15  CHE L   1      -3.711  -0.650   0.222  1.00  0.00    -0.0998  S
ATOM     24 H25  CHE L   1      -0.513  -2.327   0.342  1.00  0.00    +0.0626  H
ATOM     25 H26  CHE L   1      -2.470  -3.911   1.149  1.00  0.00    +0.0623  H
ATOM     26 H27  CHE L   1      -4.793  -2.667   1.064  1.00  0.00    +0.0693  H
ENDBRANCH 16 19
ENDBRANCH 15 16
BRANCH 15 27
ATOM     27 C16  CHE L   1      -1.210   1.716   1.626  1.00  0.00    +0.0333  C
ATOM     28 C17  CHE L   1      -0.842   3.120   2.036  1.00  0.00    -0.0305  C
ATOM     29 C18  CHE L   1      -2.117   2.874   1.292  1.00  0.00    -0.0305  C
ATOM     30 H28  CHE L   1      -1.526   1.054   2.432  1.00  0.00    +0.0525  H
ATOM     31 H29  CHE L   1      -0.026   3.607   1.516  1.00  0.00    +0.0286  H
ATOM     32 H30  CHE L   1      -0.896   3.358   3.092  1.00  0.00    +0.0286  H
ATOM     33 H31  CHE L   1      -2.174   3.224   0.268  1.00  0.00    +0.0286  H
ATOM     34 H32  CHE L   1      -3.049   2.954   1.840  1.00  0.00    +0.0286  H
ENDBRANCH 15 27
ENDBRANCH 4 13
TORSDOF 5
