ROOT
ATOM      1  C1  EUB L   1      -4.605  -0.938   0.712  1.00  0.00    -0.0558  C
ATOM      2  C2  EUB L   1      -3.672   0.292   0.767  1.00  0.00    -0.0096  C
ATOM      3  C3  EUB L   1      -3.930   1.038   2.098  1.00  0.00    -0.0558  C
ATOM      4  C4  EUB L   1      -4.035   1.279  -0.364  1.00  0.00    -0.0431  C
ATOM      5  C5  EUB L   1      -3.553   0.793  -1.720  1.00  0.00    -0.0431  C
ATOM      6  C6  EUB L   1      -2.014   0.668  -1.777  1.00  0.00    -0.0095  C
ATOM      7  C7  EUB L   1      -1.377   2.071  -1.894  1.00  0.00    -0.0558  C
ATOM      8  C8  EUB L   1      -1.688  -0.124  -3.066  1.00  0.00    -0.0558  C
ATOM      9  C9  EUB L   1      -1.456  -0.022  -0.525  1.00  0.00    -0.0376  A
ATOM     10 C10  EUB L   1      -0.115  -0.474  -0.531  1.00  0.00    -0.0492  A
ATOM     11 C11  EUB L   1       0.477  -1.122   0.568  1.00  0.00    +0.0162  A
ATOM     12 C26  EUB L   1      -0.306  -1.306   1.709  1.00  0.00    -0.0529  A
ATOM     13 C27  EUB L   1      -1.626  -0.853   1.748  1.00  0.00    -0.0573  A
ATOM     14 C28  EUB L   1      -2.219  -0.189   0.654  1.00  0.00    -0.0380  A
ATOM     15 H29  EUB L   1      -4.437  -1.541  -0.187  1.00  0.00    +0.0238  H
ATOM     16 H30  EUB L   1      -5.658  -0.636   0.723  1.00  0.00    +0.0238  H
ATOM     17 H31  EUB L   1      -4.448  -1.601   1.572  1.00  0.00    +0.0238  H
ATOM     18 H32  EUB L   1      -4.940   1.465   2.118  1.00  0.00    +0.0238  H
ATOM     19 H33  EUB L   1      -3.217   1.860   2.236  1.00  0.00    +0.0238  H
ATOM     20 H34  EUB L   1      -3.850   0.381   2.970  1.00  0.00    +0.0238  H
ATOM     21 H35  EUB L   1      -3.604   2.267  -0.160  1.00  0.00    +0.0274  H
ATOM     22 H36  EUB L   1      -5.122   1.429  -0.400  1.00  0.00    +0.0274  H
ATOM     23 H37  EUB L   1      -3.906   1.483  -2.497  1.00  0.00    +0.0274  H
ATOM     24 H38  EUB L   1      -4.022  -0.174  -1.945  1.00  0.00    +0.0274  H
ATOM     25 H39  EUB L   1      -0.294   2.009  -2.054  1.00  0.00    +0.0238  H
ATOM     26 H40  EUB L   1      -1.799   2.626  -2.740  1.00  0.00    +0.0238  H
ATOM     27 H41  EUB L   1      -1.532   2.668  -0.989  1.00  0.00    +0.0238  H
ATOM     28 H42  EUB L   1      -2.183   0.323  -3.936  1.00  0.00    +0.0238  H
ATOM     29 H43  EUB L   1      -0.616  -0.140  -3.289  1.00  0.00    +0.0238  H
ATOM     30 H44  EUB L   1      -2.025  -1.164  -2.987  1.00  0.00    +0.0238  H
ATOM     31 H45  EUB L   1       0.501  -0.313  -1.414  1.00  0.00    +0.0625  H
ATOM     32 H55  EUB L   1       0.105  -1.801   2.586  1.00  0.00    +0.0622  H
ATOM     33 H56  EUB L   1      -2.191  -1.032   2.659  1.00  0.00    +0.0621  H
ENDROOT
BRANCH 11 34
ATOM     34 C12  EUB L   1       1.938  -1.572   0.516  1.00  0.00    +0.2240  C
ATOM     35 O22  EUB L   1       2.218  -2.104  -0.802  1.00  0.00    -0.3388 OA
ATOM     36 C23  EUB L   1       2.280  -3.515  -0.628  1.00  0.00    +0.0751  C
ATOM     37 C24  EUB L   1       2.821  -3.663   0.762  1.00  0.00    +0.0751  C
ATOM     38 O25  EUB L   1       2.164  -2.626   1.483  1.00  0.00    -0.3388 OA
ATOM     39 H51  EUB L   1       2.913  -3.972  -1.392  1.00  0.00    +0.0584  H
ATOM     40 H52  EUB L   1       1.264  -3.916  -0.713  1.00  0.00    +0.0584  H
ATOM     41 H53  EUB L   1       3.899  -3.474   0.799  1.00  0.00    +0.0584  H
ATOM     42 H54  EUB L   1       2.611  -4.638   1.209  1.00  0.00    +0.0584  H
BRANCH 34 43
ATOM     43 C13  EUB L   1       2.897  -0.415   0.819  1.00  0.00    +0.0160  A
ATOM     44 C14  EUB L   1       3.173  -0.044   2.149  1.00  0.00    -0.0524  A
ATOM     45 C15  EUB L   1       4.027   1.024   2.439  1.00  0.00    -0.0473  A
ATOM     46 C16  EUB L   1       4.620   1.749   1.400  1.00  0.00    +0.0589  A
ATOM     47 C20  EUB L   1       4.350   1.399   0.073  1.00  0.00    -0.0473  A
ATOM     48 C21  EUB L   1       3.495   0.330  -0.213  1.00  0.00    -0.0524  A
ATOM     49 H46  EUB L   1       2.717  -0.593   2.972  1.00  0.00    +0.0622  H
ATOM     50 H47  EUB L   1       4.220   1.282   3.477  1.00  0.00    +0.0626  H
ATOM     51 H49  EUB L   1       4.801   1.958  -0.745  1.00  0.00    +0.0626  H
ATOM     52 H50  EUB L   1       3.296   0.082  -1.254  1.00  0.00    +0.0622  H
BRANCH 46 53
ATOM     53 C17  EUB L   1       5.532   2.890   1.655  1.00  0.00    +0.3368  C
ATOM     54 O18  EUB L   1       6.083   3.567   0.807  1.00  0.00    -0.2451 OA
ATOM     55 O19  EUB L   1       5.714   3.132   2.965  1.00  0.00    -0.4771 OA
ATOM     56 H48  EUB L   1       6.325   3.898   2.978  1.00  0.00    +0.2954 HD
ENDBRANCH 46 53
ENDBRANCH 34 43
ENDBRANCH 11 34
TORSDOF 3
