ROOT
ATOM      1  O1  CHE L   1      -6.053  -0.596  -1.440  1.00  0.00    -0.2839 OA
ATOM      2  C2  CHE L   1      -4.961  -0.455  -0.899  1.00  0.00    +0.2229  A
ATOM      3  C3  CHE L   1      -4.804   0.234   0.399  1.00  0.00    +0.0053  A
ATOM      4  C4  CHE L   1      -3.565   0.350   0.898  1.00  0.00    +0.0150  A
ATOM      5  N5  CHE L   1      -2.401  -0.123   0.286  1.00  0.00    -0.3043  N
ATOM      6 C20  CHE L   1      -2.557  -0.805  -0.921  1.00  0.00    +0.0564  A
ATOM      7 C21  CHE L   1      -3.729  -0.998  -1.541  1.00  0.00    +0.1805  A
ATOM      8 O22  CHE L   1      -3.844  -1.684  -2.732  1.00  0.00    -0.5022 OA
ATOM      9 H23  CHE L   1      -5.687   0.616   0.889  1.00  0.00    +0.0672  H
ATOM     10 H24  CHE L   1      -3.414   0.856   1.849  1.00  0.00    +0.0814  H
ATOM     11 H31  CHE L   1      -1.666  -1.232  -1.364  1.00  0.00    +0.0852  H
ATOM     12 H32  CHE L   1      -4.803  -1.669  -2.936  1.00  0.00    +0.2923 HD
ENDROOT
BRANCH 5 13
ATOM     13  C6  CHE L   1      -1.132   0.071   0.937  1.00  0.00    +0.1381  A
ATOM     14  C7  CHE L   1       0.078  -0.062   0.243  1.00  0.00    -0.0111  A
ATOM     15  C8  CHE L   1       1.311   0.129   0.890  1.00  0.00    -0.0129  A
ATOM     16 C17  CHE L   1       1.293   0.461   2.243  1.00  0.00    -0.0357  A
ATOM     17 C18  CHE L   1       0.071   0.592   2.871  1.00  0.00    +0.0305  A
ATOM     18 N19  CHE L   1      -1.114   0.413   2.251  1.00  0.00    -0.2375 NA
ATOM     19 H25  CHE L   1       0.087  -0.275  -0.820  1.00  0.00    +0.0660  H
ATOM     20 H29  CHE L   1       2.208   0.612   2.806  1.00  0.00    +0.0639  H
ATOM     21 H30  CHE L   1       0.007   0.851   3.924  1.00  0.00    +0.0830  H
BRANCH 15 22
ATOM     22  C9  CHE L   1       2.581  -0.011   0.160  1.00  0.00    -0.0163  A
ATOM     23 C10  CHE L   1       3.525   1.028   0.145  1.00  0.00    -0.0526  A
ATOM     24 C11  CHE L   1       4.732   0.896  -0.549  1.00  0.00    -0.0414  A
ATOM     25 C12  CHE L   1       5.018  -0.282  -1.242  1.00  0.00    +0.0593  A
ATOM     26 CL13 CHE L   1       6.527  -0.379  -2.078  1.00  0.00    -0.0820 Cl
ATOM     27 C14  CHE L   1       4.092  -1.328  -1.238  1.00  0.00    +0.0598  A
ATOM     28 CL15 CHE L   1       4.373  -2.817  -2.069  1.00  0.00    -0.0820 Cl
ATOM     29 C16  CHE L   1       2.884  -1.190  -0.542  1.00  0.00    -0.0342  A
ATOM     30 H26  CHE L   1       3.322   1.962   0.667  1.00  0.00    +0.0624  H
ATOM     31 H27  CHE L   1       5.443   1.719  -0.547  1.00  0.00    +0.0633  H
ATOM     32 H28  CHE L   1       2.177  -2.018  -0.538  1.00  0.00    +0.0639  H
ENDBRANCH 15 22
ENDBRANCH 5 13
TORSDOF 2
