ROOT
ATOM      1 C14  MCU L   1       1.387  -1.482  -0.047  1.00  0.00    +0.1414  C
ATOM      2 N15  MCU L   1       2.351  -0.953  -0.760  1.00  0.00    -0.2075 NA
ATOM      3 C16  MCU L   1       3.512  -1.653  -0.891  1.00  0.00    +0.1972  A
ATOM      4 C17  MCU L   1       4.701  -1.442  -1.560  1.00  0.00    +0.2270  A
ATOM      5 N27  MCU L   1       5.567  -2.483  -1.327  1.00  0.00    -0.1151 NA
ATOM      6 N28  MCU L   1       4.954  -3.357  -0.537  1.00  0.00    -0.0575 NA
ATOM      7 N29  MCU L   1       3.721  -2.874  -0.285  1.00  0.00    -0.1927  N
ATOM      8 C30  MCU L   1       2.750  -3.509   0.491  1.00  0.00    +0.0800  A
ATOM      9 C31  MCU L   1       2.962  -4.755   1.085  1.00  0.00    -0.0354  A
ATOM     10 C32  MCU L   1       1.925  -5.332   1.819  1.00  0.00    -0.0597  A
ATOM     11 C33  MCU L   1       0.698  -4.672   1.946  1.00  0.00    -0.0610  A
ATOM     12 C34  MCU L   1       0.498  -3.424   1.344  1.00  0.00    -0.0491  A
ATOM     13 C35  MCU L   1       1.536  -2.827   0.622  1.00  0.00    +0.0427  A
ATOM     14 H58  MCU L   1       3.908  -5.282   0.980  1.00  0.00    +0.0639  H
ATOM     15 H59  MCU L   1       2.067  -6.306   2.287  1.00  0.00    +0.0618  H
ATOM     16 H60  MCU L   1      -0.108  -5.138   2.511  1.00  0.00    +0.0618  H
ATOM     17 H61  MCU L   1      -0.467  -2.937   1.438  1.00  0.00    +0.0625  H
ENDROOT
BRANCH 1 21
ATOM     18 N10  MCU L   1      -2.162   0.895   0.393  1.00  0.00    -0.3670  N
ATOM     19 C11  MCU L   1      -1.508   0.261   1.560  1.00  0.00    +0.0363  C
ATOM     20 C12  MCU L   1      -0.007  -0.001   1.327  1.00  0.00    +0.0376  C
ATOM     21 N13  MCU L   1       0.188  -0.802   0.101  1.00  0.00    -0.3519  N
ATOM     22 C36  MCU L   1      -0.418  -0.187  -1.109  1.00  0.00    +0.0376  C
ATOM     23 C37  MCU L   1      -1.312   1.035  -0.813  1.00  0.00    +0.0363  C
ATOM     24 H49  MCU L   1      -1.624   0.929   2.423  1.00  0.00    +0.0505  H
ATOM     25 H50  MCU L   1      -1.986  -0.691   1.832  1.00  0.00    +0.0505  H
ATOM     26 H51  MCU L   1       0.397  -0.528   2.199  1.00  0.00    +0.0506  H
ATOM     27 H52  MCU L   1       0.542   0.946   1.241  1.00  0.00    +0.0506  H
ATOM     28 H62  MCU L   1       0.353   0.129  -1.822  1.00  0.00    +0.0506  H
ATOM     29 H63  MCU L   1      -1.008  -0.961  -1.612  1.00  0.00    +0.0506  H
ATOM     30 H64  MCU L   1      -1.908   1.280  -1.701  1.00  0.00    +0.0505  H
ATOM     31 H65  MCU L   1      -0.662   1.904  -0.644  1.00  0.00    +0.0505  H
BRANCH 18 38
ATOM     32  C3  MCU L   1      -4.568   1.286   0.169  1.00  0.00    -0.0215  A
ATOM     33  C4  MCU L   1      -5.858   0.808  -0.178  1.00  0.00    -0.0453  A
ATOM     34  C5  MCU L   1      -7.072   1.699  -0.159  1.00  0.00    -0.0394  C
ATOM     35  C6  MCU L   1      -6.025  -0.539  -0.537  1.00  0.00    -0.0585  A
ATOM     36  C7  MCU L   1      -4.937  -1.405  -0.571  1.00  0.00    -0.0596  A
ATOM     37  C8  MCU L   1      -3.666  -0.935  -0.251  1.00  0.00    -0.0382  A
ATOM     38  C9  MCU L   1      -3.457   0.407   0.113  1.00  0.00    +0.0414  A
ATOM     39 H43  MCU L   1      -6.891   2.615  -0.727  1.00  0.00    +0.0278  H
ATOM     40 H44  MCU L   1      -7.936   1.206  -0.619  1.00  0.00    +0.0278  H
ATOM     41 H45  MCU L   1      -7.339   1.954   0.873  1.00  0.00    +0.0278  H
ATOM     42 H46  MCU L   1      -7.010  -0.921  -0.797  1.00  0.00    +0.0620  H
ATOM     43 H47  MCU L   1      -5.074  -2.446  -0.854  1.00  0.00    +0.0618  H
ATOM     44 H48  MCU L   1      -2.831  -1.632  -0.292  1.00  0.00    +0.0638  H
BRANCH 32 46
ATOM     45  C1  MCU L   1      -4.033   3.644  -0.585  1.00  0.00    -0.0612  C
ATOM     46  C2  MCU L   1      -4.366   2.732   0.588  1.00  0.00    -0.0283  C
ATOM     47 H38  MCU L   1      -3.931   4.678  -0.237  1.00  0.00    +0.0233  H
ATOM     48 H39  MCU L   1      -3.091   3.356  -1.060  1.00  0.00    +0.0233  H
ATOM     49 H40  MCU L   1      -4.813   3.620  -1.352  1.00  0.00    +0.0233  H
ATOM     50 H41  MCU L   1      -5.260   3.102   1.107  1.00  0.00    +0.0311  H
ATOM     51 H42  MCU L   1      -3.571   2.799   1.342  1.00  0.00    +0.0311  H
ENDBRANCH 32 46
ENDBRANCH 18 38
ENDBRANCH 1 21
BRANCH 4 52
ATOM     52 S18  MCU L   1       5.107  -0.077  -2.517  1.00  0.00    +0.2297  S
ATOM     53 O19  MCU L   1       6.489  -0.268  -2.920  1.00  0.00    -0.2153 OA
ATOM     54 O20  MCU L   1       4.044   0.051  -3.496  1.00  0.00    -0.2153 OA
BRANCH 52 55
ATOM     55 C21  MCU L   1       5.047   1.305  -1.408  1.00  0.00    +0.0730  A
ATOM     56 C22  MCU L   1       6.181   1.623  -0.651  1.00  0.00    -0.0432  A
ATOM     57 C23  MCU L   1       6.152   2.724   0.205  1.00  0.00    -0.0606  A
ATOM     58 C24  MCU L   1       4.999   3.507   0.296  1.00  0.00    -0.0617  A
ATOM     59 C25  MCU L   1       3.873   3.194  -0.471  1.00  0.00    -0.0606  A
ATOM     60 C26  MCU L   1       3.895   2.093  -1.330  1.00  0.00    -0.0432  A
ATOM     61 H53  MCU L   1       7.088   1.024  -0.727  1.00  0.00    +0.0630  H
ATOM     62 H54  MCU L   1       7.030   2.977   0.796  1.00  0.00    +0.0618  H
ATOM     63 H55  MCU L   1       4.982   4.369   0.961  1.00  0.00    +0.0618  H
ATOM     64 H56  MCU L   1       2.981   3.813  -0.400  1.00  0.00    +0.0618  H
ATOM     65 H57  MCU L   1       3.015   1.853  -1.926  1.00  0.00    +0.0630  H
ENDBRANCH 52 55
ENDBRANCH 4 52
TORSDOF 5
