ROOT
ATOM      1  C1  EUB L   1      -4.780   1.709   0.411  1.00  0.00    -0.0558  C
ATOM      2  C2  EUB L   1      -4.043   0.457   0.935  1.00  0.00    -0.0096  C
ATOM      3  C3  EUB L   1      -4.407   0.266   2.427  1.00  0.00    -0.0558  C
ATOM      4  C4  EUB L   1      -4.552  -0.801   0.197  1.00  0.00    -0.0431  C
ATOM      5  C5  EUB L   1      -4.007  -0.889  -1.218  1.00  0.00    -0.0431  C
ATOM      6  C6  EUB L   1      -2.467  -1.014  -1.239  1.00  0.00    -0.0095  C
ATOM      7  C7  EUB L   1      -2.029  -0.769  -2.702  1.00  0.00    -0.0558  C
ATOM      8  C8  EUB L   1      -2.052  -2.449  -0.842  1.00  0.00    -0.0558  C
ATOM      9  C9  EUB L   1      -1.803  -0.026  -0.269  1.00  0.00    -0.0373  A
ATOM     10 C10  EUB L   1      -0.408   0.196  -0.360  1.00  0.00    -0.0454  A
ATOM     11 C11  EUB L   1       0.251   1.089   0.494  1.00  0.00    +0.0396  A
ATOM     12 C24  EUB L   1      -0.480   1.801   1.437  1.00  0.00    -0.0491  A
ATOM     13 C25  EUB L   1      -1.851   1.581   1.559  1.00  0.00    -0.0571  A
ATOM     14 C26  EUB L   1      -2.532   0.654   0.738  1.00  0.00    -0.0380  A
ATOM     15 H27  EUB L   1      -4.523   1.931  -0.630  1.00  0.00    +0.0238  H
ATOM     16 H28  EUB L   1      -4.528   2.600   0.998  1.00  0.00    +0.0238  H
ATOM     17 H29  EUB L   1      -5.867   1.580   0.469  1.00  0.00    +0.0238  H
ATOM     18 H30  EUB L   1      -4.224   1.166   3.022  1.00  0.00    +0.0238  H
ATOM     19 H31  EUB L   1      -3.827  -0.550   2.875  1.00  0.00    +0.0238  H
ATOM     20 H32  EUB L   1      -5.470   0.023   2.542  1.00  0.00    +0.0238  H
ATOM     21 H33  EUB L   1      -4.273  -1.707   0.750  1.00  0.00    +0.0274  H
ATOM     22 H34  EUB L   1      -5.649  -0.800   0.162  1.00  0.00    +0.0274  H
ATOM     23 H35  EUB L   1      -4.325  -0.005  -1.784  1.00  0.00    +0.0274  H
ATOM     24 H36  EUB L   1      -4.463  -1.748  -1.728  1.00  0.00    +0.0274  H
ATOM     25 H37  EUB L   1      -2.201   0.273  -2.997  1.00  0.00    +0.0238  H
ATOM     26 H38  EUB L   1      -2.592  -1.409  -3.392  1.00  0.00    +0.0238  H
ATOM     27 H39  EUB L   1      -0.969  -0.988  -2.866  1.00  0.00    +0.0238  H
ATOM     28 H40  EUB L   1      -2.555  -3.194  -1.469  1.00  0.00    +0.0238  H
ATOM     29 H41  EUB L   1      -0.972  -2.602  -0.959  1.00  0.00    +0.0238  H
ATOM     30 H42  EUB L   1      -2.293  -2.671   0.203  1.00  0.00    +0.0238  H
ATOM     31 H43  EUB L   1       0.168  -0.318  -1.124  1.00  0.00    +0.0628  H
ATOM     32 H50  EUB L   1       0.013   2.524   2.085  1.00  0.00    +0.0625  H
ATOM     33 H51  EUB L   1      -2.388   2.160   2.308  1.00  0.00    +0.0621  H
ENDROOT
BRANCH 11 34
ATOM     34 C12  EUB L   1       1.719   1.325   0.400  1.00  0.00    +0.2563  C
ATOM     35 O13  EUB L   1       2.140   2.459   0.588  1.00  0.00    -0.2673 OA
ATOM     36 N14  EUB L   1       2.469   0.191   0.143  1.00  0.00    -0.3221  N
ATOM     37 H44  EUB L   1       1.976  -0.693   0.153  1.00  0.00    +0.1689 HD
BRANCH 36 38
ATOM     38 C15  EUB L   1       3.865   0.112  -0.039  1.00  0.00    +0.0420  A
ATOM     39 C16  EUB L   1       4.417  -1.166  -0.203  1.00  0.00    -0.0375  A
ATOM     40 C17  EUB L   1       5.793  -1.331  -0.394  1.00  0.00    -0.0458  A
ATOM     41 C18  EUB L   1       6.636  -0.216  -0.427  1.00  0.00    +0.0590  A
ATOM     42 C22  EUB L   1       6.090   1.061  -0.268  1.00  0.00    -0.0458  A
ATOM     43 C23  EUB L   1       4.712   1.222  -0.077  1.00  0.00    -0.0375  A
ATOM     44 H45  EUB L   1       3.788  -2.052  -0.181  1.00  0.00    +0.0638  H
ATOM     45 H46  EUB L   1       6.203  -2.331  -0.517  1.00  0.00    +0.0626  H
ATOM     46 H48  EUB L   1       6.724   1.945  -0.291  1.00  0.00    +0.0626  H
ATOM     47 H49  EUB L   1       4.331   2.233   0.036  1.00  0.00    +0.0638  H
BRANCH 41 48
ATOM     48 C19  EUB L   1       8.088  -0.436  -0.632  1.00  0.00    +0.3368  C
ATOM     49 O20  EUB L   1       8.630  -1.516  -0.779  1.00  0.00    -0.2451 OA
ATOM     50 O21  EUB L   1       8.794   0.708  -0.644  1.00  0.00    -0.4771 OA
ATOM     51 H47  EUB L   1       9.719   0.415  -0.784  1.00  0.00    +0.2954 HD
ENDBRANCH 41 48
ENDBRANCH 36 38
ENDBRANCH 11 34
TORSDOF 3
