ROOT
ATOM      1 C13  EUB L   1       1.475   0.567   1.102  1.00  0.00    +0.1114  A
ATOM      2 N14  EUB L   1       1.898  -0.019   0.024  1.00  0.00    -0.2266 NA
ATOM      3 C15  EUB L   1       3.240   0.068  -0.178  1.00  0.00    +0.1159  A
ATOM      4 S16  EUB L   1       3.984  -0.642  -1.539  1.00  0.00    -0.0732  S
ATOM      5 C17  EUB L   1       5.524  -0.099  -1.057  1.00  0.00    -0.0042  A
ATOM      6 C18  EUB L   1       5.492   0.625   0.121  1.00  0.00    -0.0227  A
ATOM      7 C19  EUB L   1       4.159   0.706   0.633  1.00  0.00    +0.0753  A
ATOM      8 C20  EUB L   1       3.659   1.339   1.835  1.00  0.00    +0.2600  A
ATOM      9 O21  EUB L   1       4.359   1.931   2.650  1.00  0.00    -0.2671 OA
ATOM     10 N22  EUB L   1       2.297   1.223   1.997  1.00  0.00    -0.3103  N
ATOM     11 C23  EUB L   1       6.735   1.199   0.736  1.00  0.00    -0.0261  C
ATOM     12 C24  EUB L   1       7.907   1.221  -0.259  1.00  0.00    -0.0487  C
ATOM     13 C25  EUB L   1       8.016  -0.096  -1.041  1.00  0.00    -0.0483  C
ATOM     14 C26  EUB L   1       6.751  -0.371  -1.870  1.00  0.00    -0.0211  C
ATOM     15 H41  EUB L   1       1.919   1.660   2.826  1.00  0.00    +0.1700 HD
ATOM     16 H42  EUB L   1       6.551   2.219   1.092  1.00  0.00    +0.0314  H
ATOM     17 H43  EUB L   1       7.008   0.589   1.607  1.00  0.00    +0.0314  H
ATOM     18 H44  EUB L   1       7.767   2.046  -0.969  1.00  0.00    +0.0268  H
ATOM     19 H45  EUB L   1       8.840   1.417   0.280  1.00  0.00    +0.0268  H
ATOM     20 H46  EUB L   1       8.887  -0.065  -1.707  1.00  0.00    +0.0269  H
ATOM     21 H47  EUB L   1       8.181  -0.920  -0.335  1.00  0.00    +0.0269  H
ATOM     22 H48  EUB L   1       6.768  -1.407  -2.226  1.00  0.00    +0.0318  H
ATOM     23 H49  EUB L   1       6.745   0.283  -2.751  1.00  0.00    +0.0318  H
ENDROOT
BRANCH 1 24
ATOM     24 C12  EUB L   1       0.014   0.574   1.485  1.00  0.00    +0.0140  C
ATOM     25 H39  EUB L   1      -0.276   1.612   1.695  1.00  0.00    +0.0348  H
ATOM     26 H40  EUB L   1      -0.093   0.018   2.424  1.00  0.00    +0.0348  H
BRANCH 24 27
ATOM     27 C11  EUB L   1      -0.889  -0.021   0.413  1.00  0.00    +0.0332  C
ATOM     28 H37  EUB L   1      -0.727   0.492  -0.544  1.00  0.00    +0.0365  H
ATOM     29 H38  EUB L   1      -0.661  -1.084   0.272  1.00  0.00    +0.0365  H
BRANCH 27 31
ATOM     30  N8  EUB L   1      -3.175  -0.346  -0.238  1.00  0.00    -0.3261  N
ATOM     31  C9  EUB L   1      -2.356   0.110   0.781  1.00  0.00    +0.2256  C
ATOM     32 O10  EUB L   1      -2.709   0.564   1.863  1.00  0.00    -0.2729 OA
ATOM     33 H36  EUB L   1      -2.713  -0.717  -1.059  1.00  0.00    +0.1686 HD
BRANCH 30 40
ATOM     34  C1  EUB L   1      -7.220  -1.426  -2.816  1.00  0.00    -0.0396  C
ATOM     35  C2  EUB L   1      -6.587  -0.908  -1.559  1.00  0.00    -0.0483  A
ATOM     36  C3  EUB L   1      -7.380  -0.399  -0.526  1.00  0.00    -0.0558  A
ATOM     37  C4  EUB L   1      -6.795   0.108   0.640  1.00  0.00    -0.0483  A
ATOM     38  C5  EUB L   1      -7.652   0.678   1.732  1.00  0.00    -0.0396  C
ATOM     39  C6  EUB L   1      -5.396   0.135   0.753  1.00  0.00    -0.0354  A
ATOM     40  C7  EUB L   1      -4.586  -0.351  -0.275  1.00  0.00    +0.0422  A
ATOM     41 C27  EUB L   1      -5.191  -0.868  -1.429  1.00  0.00    -0.0354  A
ATOM     42 H28  EUB L   1      -8.189  -1.889  -2.603  1.00  0.00    +0.0278  H
ATOM     43 H29  EUB L   1      -7.367  -0.607  -3.526  1.00  0.00    +0.0278  H
ATOM     44 H30  EUB L   1      -6.592  -2.191  -3.284  1.00  0.00    +0.0278  H
ATOM     45 H31  EUB L   1      -8.464  -0.399  -0.627  1.00  0.00    +0.0623  H
ATOM     46 H32  EUB L   1      -7.862   1.732   1.530  1.00  0.00    +0.0278  H
ATOM     47 H33  EUB L   1      -8.600   0.135   1.808  1.00  0.00    +0.0278  H
ATOM     48 H34  EUB L   1      -7.155   0.597   2.704  1.00  0.00    +0.0278  H
ATOM     49 H35  EUB L   1      -4.963   0.548   1.659  1.00  0.00    +0.0641  H
ATOM     50 H50  EUB L   1      -4.579  -1.245  -2.244  1.00  0.00    +0.0641  H
ENDBRANCH 30 40
ENDBRANCH 27 31
ENDBRANCH 24 27
ENDBRANCH 1 24
TORSDOF 4
