ROOT
ATOM      1  C1  SEL L   1       0.972  -2.136  -1.697  1.00  0.00    -0.0377  C
ATOM      2  C2  SEL L   1       0.971  -2.113  -0.201  1.00  0.00    -0.0166  A
ATOM      3  C3  SEL L   1       2.087  -2.282   0.608  1.00  0.00    +0.0819  A
ATOM      4 S19  SEL L   1       1.701  -2.271   2.274  1.00  0.00    -0.0634  S
ATOM      5 C20  SEL L   1       0.055  -1.980   1.958  1.00  0.00    +0.1160  A
ATOM      6 N21  SEL L   1      -0.841  -1.835   2.966  1.00  0.00    -0.2298 NA
ATOM      7 C22  SEL L   1      -2.058  -1.643   2.571  1.00  0.00    +0.1003  A
ATOM      8 N23  SEL L   1      -2.483  -1.602   1.256  1.00  0.00    -0.2896  N
ATOM      9 C34  SEL L   1      -1.585  -1.698   0.196  1.00  0.00    +0.2629  A
ATOM     10 O35  SEL L   1      -1.918  -1.614  -0.984  1.00  0.00    -0.2669 OA
ATOM     11 C36  SEL L   1      -0.208  -1.923   0.606  1.00  0.00    +0.0758  A
ATOM     12 H37  SEL L   1       1.949  -2.417  -2.105  1.00  0.00    +0.0278  H
ATOM     13 H38  SEL L   1       0.713  -1.148  -2.090  1.00  0.00    +0.0278  H
ATOM     14 H39  SEL L   1       0.242  -2.865  -2.065  1.00  0.00    +0.0278  H
ATOM     15 H51  SEL L   1      -2.860  -1.504   3.315  1.00  0.00    +0.1030  H
ENDROOT
BRANCH 3 16
ATOM     16  C4  SEL L   1       3.473  -2.487   0.232  1.00  0.00    +0.2616  C
ATOM     17  O5  SEL L   1       4.040  -3.566   0.404  1.00  0.00    -0.2668 OA
ATOM     18  N6  SEL L   1       4.139  -1.411  -0.358  1.00  0.00    -0.3345  N
ATOM     19  C7  SEL L   1       5.523  -1.617  -0.803  1.00  0.00    +0.0391  C
ATOM     20  C8  SEL L   1       6.015  -0.484  -1.715  1.00  0.00    +0.0365  C
ATOM     21  N9  SEL L   1       5.914   0.835  -1.051  1.00  0.00    -0.3638  N
ATOM     22 C17  SEL L   1       4.727   1.013  -0.171  1.00  0.00    +0.0365  C
ATOM     23 C18  SEL L   1       3.626  -0.035  -0.440  1.00  0.00    +0.0391  C
ATOM     24 H40  SEL L   1       5.590  -2.578  -1.324  1.00  0.00    +0.0506  H
ATOM     25 H41  SEL L   1       6.143  -1.682   0.099  1.00  0.00    +0.0506  H
ATOM     26 H42  SEL L   1       5.371  -0.447  -2.603  1.00  0.00    +0.0505  H
ATOM     27 H43  SEL L   1       7.017  -0.687  -2.104  1.00  0.00    +0.0505  H
ATOM     28 H47  SEL L   1       5.026   0.921   0.883  1.00  0.00    +0.0505  H
ATOM     29 H48  SEL L   1       4.305   2.014  -0.320  1.00  0.00    +0.0505  H
ATOM     30 H49  SEL L   1       2.806   0.123   0.266  1.00  0.00    +0.0506  H
ATOM     31 H50  SEL L   1       3.228   0.095  -1.453  1.00  0.00    +0.0506  H
BRANCH 21 32
ATOM     32 C10  SEL L   1       7.073   1.440  -0.539  1.00  0.00    +0.0920  A
ATOM     33 C11  SEL L   1       7.102   2.818  -0.293  1.00  0.00    +0.0535  A
ATOM     34 N12  SEL L   1       8.159   3.519   0.196  1.00  0.00    -0.2610 NA
ATOM     35 C13  SEL L   1       9.281   2.820   0.457  1.00  0.00    +0.0304  A
ATOM     36 C14  SEL L   1       9.385   1.459   0.263  1.00  0.00    -0.0063  A
ATOM     37 C15  SEL L   1       8.274   0.783  -0.233  1.00  0.00    +0.1494  A
ATOM     38 F16  SEL L   1       8.387  -0.547  -0.371  1.00  0.00    -0.2032  F
ATOM     39 H44  SEL L   1       6.233   3.436  -0.515  1.00  0.00    +0.0851  H
ATOM     40 H45  SEL L   1      10.116   3.401   0.838  1.00  0.00    +0.0830  H
ATOM     41 H46  SEL L   1      10.299   0.924   0.492  1.00  0.00    +0.0662  H
ENDBRANCH 21 32
ENDBRANCH 3 16
BRANCH 8 42
ATOM     42 C24  SEL L   1      -3.885  -1.360   0.954  1.00  0.00    +0.1060  C
ATOM     43 H52  SEL L   1      -4.138  -1.842   0.006  1.00  0.00    +0.0591  H
ATOM     44 H53  SEL L   1      -4.501  -1.775   1.758  1.00  0.00    +0.0591  H
BRANCH 42 45
ATOM     45 C25  SEL L   1      -4.165   0.145   0.853  1.00  0.00    +0.2434  C
ATOM     46 O26  SEL L   1      -3.318   0.971   1.199  1.00  0.00    -0.2711 OA
ATOM     47 N27  SEL L   1      -5.424   0.528   0.379  1.00  0.00    -0.3407  N
ATOM     48 C28  SEL L   1      -6.581  -0.370   0.374  1.00  0.00    +0.0214  C
ATOM     49 C29  SEL L   1      -7.588  -0.013  -0.718  1.00  0.00    -0.0326  C
ATOM     50 C30  SEL L   1      -7.987   1.468  -0.699  1.00  0.00    -0.0407  C
ATOM     51 C31  SEL L   1      -8.897   1.801   0.485  1.00  0.00    -0.0623  C
ATOM     52 C32  SEL L   1      -6.726   2.339  -0.715  1.00  0.00    -0.0326  C
ATOM     53 C33  SEL L   1      -5.726   1.960   0.375  1.00  0.00    +0.0214  C
ATOM     54 H54  SEL L   1      -7.041  -0.308   1.368  1.00  0.00    +0.0488  H
ATOM     55 H55  SEL L   1      -6.272  -1.410   0.236  1.00  0.00    +0.0488  H
ATOM     56 H56  SEL L   1      -7.139  -0.238  -1.695  1.00  0.00    +0.0285  H
ATOM     57 H57  SEL L   1      -8.475  -0.651  -0.627  1.00  0.00    +0.0285  H
ATOM     58 H58  SEL L   1      -8.557   1.677  -1.614  1.00  0.00    +0.0299  H
ATOM     59 H59  SEL L   1      -9.805   1.189   0.454  1.00  0.00    +0.0232  H
ATOM     60 H60  SEL L   1      -8.410   1.627   1.448  1.00  0.00    +0.0232  H
ATOM     61 H61  SEL L   1      -9.203   2.853   0.449  1.00  0.00    +0.0232  H
ATOM     62 H62  SEL L   1      -6.990   3.400  -0.622  1.00  0.00    +0.0285  H
ATOM     63 H63  SEL L   1      -6.239   2.221  -1.691  1.00  0.00    +0.0285  H
ATOM     64 H64  SEL L   1      -4.809   2.540   0.230  1.00  0.00    +0.0488  H
ATOM     65 H65  SEL L   1      -6.110   2.216   1.369  1.00  0.00    +0.0488  H
ENDBRANCH 42 45
ENDBRANCH 8 42
TORSDOF 4
