ROOT
ATOM      1  C3  EUB L   1      -3.560   1.001  -0.261  1.00  0.00    +0.0393  A
ATOM      2  C4  EUB L   1      -4.878   1.157   0.195  1.00  0.00    -0.0467  A
ATOM      3  C5  EUB L   1      -5.945   0.722  -0.593  1.00  0.00    -0.0257  A
ATOM      4  C6  EUB L   1      -5.690   0.148  -1.834  1.00  0.00    +0.1234  A
ATOM      5  F7  EUB L   1      -6.715  -0.269  -2.590  1.00  0.00    -0.2055  F
ATOM      6  C8  EUB L   1      -4.389   0.007  -2.308  1.00  0.00    -0.0257  A
ATOM      7  C9  EUB L   1      -3.317   0.441  -1.523  1.00  0.00    -0.0467  A
ATOM      8 H26  EUB L   1      -5.071   1.619   1.162  1.00  0.00    +0.0626  H
ATOM      9 H27  EUB L   1      -6.969   0.834  -0.250  1.00  0.00    +0.0646  H
ATOM     10 H28  EUB L   1      -4.220  -0.429  -3.288  1.00  0.00    +0.0646  H
ATOM     11 H29  EUB L   1      -2.306   0.361  -1.912  1.00  0.00    +0.0626  H
ENDROOT
BRANCH 1 13
ATOM     12  O1  EUB L   1      -2.611   2.517   1.255  1.00  0.00    -0.2674 OA
ATOM     13  C2  EUB L   1      -2.455   1.488   0.603  1.00  0.00    +0.2546  C
ATOM     14 N10  EUB L   1      -1.290   0.746   0.639  1.00  0.00    -0.3358  N
ATOM     15 C11  EUB L   1      -1.147  -0.708   0.592  1.00  0.00    +0.0421  C
ATOM     16 C12  EUB L   1       0.228  -0.517   1.279  1.00  0.00    +0.1360  C
ATOM     17 C25  EUB L   1      -0.271   0.888   1.684  1.00  0.00    +0.0421  C
ATOM     18 H30  EUB L   1      -1.909  -1.228   1.184  1.00  0.00    +0.0501  H
ATOM     19 H31  EUB L   1      -1.112  -1.127  -0.417  1.00  0.00    +0.0501  H
ATOM     20 H39  EUB L   1       0.415   1.721   1.509  1.00  0.00    +0.0501  H
ATOM     21 H40  EUB L   1      -0.703   0.968   2.687  1.00  0.00    +0.0501  H
BRANCH 16 22
ATOM     22 C13  EUB L   1       1.386  -0.476   0.278  1.00  0.00    +0.1086  C
ATOM     23 H32  EUB L   1       1.556  -1.480  -0.134  1.00  0.00    +0.0709  H
ATOM     24 H33  EUB L   1       1.155   0.202  -0.556  1.00  0.00    +0.0709  H
BRANCH 22 25
ATOM     25 O14  EUB L   1       2.564  -0.024   0.961  1.00  0.00    -0.4907 OA
BRANCH 25 26
ATOM     26 C15  EUB L   1       3.636  -0.009   0.113  1.00  0.00    +0.1206  A
ATOM     27 C16  EUB L   1       4.571  -1.039   0.197  1.00  0.00    -0.0189  A
ATOM     28 C17  EUB L   1       5.692  -1.023  -0.635  1.00  0.00    -0.0443  A
ATOM     29 C18  EUB L   1       5.872   0.033  -1.530  1.00  0.00    +0.0181  A
ATOM     30 BR19 EUB L   1       7.391   0.057  -2.656  1.00  0.00    -0.0503 Br
ATOM     31 C20  EUB L   1       4.946   1.076  -1.596  1.00  0.00    -0.0443  A
ATOM     32 C21  EUB L   1       3.825   1.059  -0.764  1.00  0.00    -0.0189  A
ATOM     33 H34  EUB L   1       4.430  -1.850   0.908  1.00  0.00    +0.0654  H
ATOM     34 H35  EUB L   1       6.418  -1.829  -0.573  1.00  0.00    +0.0630  H
ATOM     35 H36  EUB L   1       5.094   1.907  -2.281  1.00  0.00    +0.0630  H
ATOM     36 H37  EUB L   1       3.114   1.880  -0.793  1.00  0.00    +0.0654  H
ENDBRANCH 25 26
ENDBRANCH 22 25
ENDBRANCH 16 22
BRANCH 16 37
ATOM     37 C22  EUB L   1       0.516  -1.497   2.453  1.00  0.00    +0.3177  C
ATOM     38 O23  EUB L   1       0.850  -1.244   3.603  1.00  0.00    -0.2501 OA
ATOM     39 O24  EUB L   1       0.340  -2.800   2.113  1.00  0.00    -0.4801 OA
ATOM     40 H38  EUB L   1       0.557  -3.282   2.941  1.00  0.00    +0.2951 HD
ENDBRANCH 16 37
ENDBRANCH 1 13
TORSDOF 5
