ROOT
ATOM      1 C21  CHE L   1       5.640   0.792   1.396  1.00  0.00    +0.1351  A
ATOM      2 C22  CHE L   1       6.895   0.720   1.858  1.00  0.00    +0.0341  A
ATOM      3 C23  CHE L   1       7.601  -0.568   1.755  1.00  0.00    +0.2590  A
ATOM      4 O24  CHE L   1       8.767  -0.643   2.160  1.00  0.00    -0.2672 OA
ATOM      5 N25  CHE L   1       6.880  -1.610   1.192  1.00  0.00    -0.2682  N
ATOM      6 C26  CHE L   1       7.483  -2.863   1.075  1.00  0.00    +0.0146  A
ATOM      7 C27  CHE L   1       6.819  -3.912   0.574  1.00  0.00    -0.0450  A
ATOM      8 C28  CHE L   1       5.447  -3.758   0.119  1.00  0.00    -0.0569  A
ATOM      9 C29  CHE L   1       4.831  -2.568   0.200  1.00  0.00    -0.0187  A
ATOM     10 C30  CHE L   1       5.561  -1.400   0.773  1.00  0.00    +0.1410  A
ATOM     11 N31  CHE L   1       4.932  -0.265   0.854  1.00  0.00    -0.2242 NA
ATOM     12 H53  CHE L   1       7.431   1.554   2.308  1.00  0.00    +0.0695  H
ATOM     13 H54  CHE L   1       8.514  -2.960   1.429  1.00  0.00    +0.0814  H
ATOM     14 H55  CHE L   1       7.291  -4.890   0.499  1.00  0.00    +0.0632  H
ATOM     15 H56  CHE L   1       4.937  -4.618  -0.296  1.00  0.00    +0.0619  H
ATOM     16 H57  CHE L   1       3.804  -2.413  -0.125  1.00  0.00    +0.0654  H
ENDROOT
BRANCH 1 18
ATOM     17 N18  CHE L   1       3.591   2.033   1.348  1.00  0.00    -0.3452  N
ATOM     18 C19  CHE L   1       4.950   2.130   1.523  1.00  0.00    +0.2709  C
ATOM     19 O20  CHE L   1       5.553   3.183   1.745  1.00  0.00    -0.2659 OA
ATOM     20 H52  CHE L   1       3.206   1.115   1.133  1.00  0.00    +0.1631 HD
BRANCH 17 21
ATOM     21 C17  CHE L   1       2.748   3.204   1.358  1.00  0.00    +0.0623  C
ATOM     22 H50  CHE L   1       2.796   3.651   2.354  1.00  0.00    +0.0552  H
ATOM     23 H51  CHE L   1       3.139   3.929   0.642  1.00  0.00    +0.0552  H
BRANCH 21 29
ATOM     24 C11  CHE L   1      -2.740   1.673  -0.559  1.00  0.00    -0.0129  A
ATOM     25 C12  CHE L   1      -3.055   2.004   0.838  1.00  0.00    -0.0522  A
ATOM     26 C13  CHE L   1      -2.106   2.406   1.708  1.00  0.00    -0.0185  A
ATOM     27 C14  CHE L   1      -0.755   2.515   1.284  1.00  0.00    +0.1379  A
ATOM     28 N15  CHE L   1       0.331   2.896   1.922  1.00  0.00    -0.2310 NA
ATOM     29 C16  CHE L   1       1.353   2.820   0.998  1.00  0.00    +0.0791  A
ATOM     30 C32  CHE L   1       0.866   2.362  -0.213  1.00  0.00    +0.0342  A
ATOM     31 N33  CHE L   1      -0.481   2.183  -0.035  1.00  0.00    -0.3060  N
ATOM     32 C34  CHE L   1      -1.450   1.769  -0.945  1.00  0.00    +0.0159  A
ATOM     33 H48  CHE L   1      -4.085   1.922   1.177  1.00  0.00    +0.0622  H
ATOM     34 H49  CHE L   1      -2.342   2.649   2.738  1.00  0.00    +0.0654  H
ATOM     35 H58  CHE L   1       1.351   2.167  -1.160  1.00  0.00    +0.0832  H
ATOM     36 H59  CHE L   1      -1.119   1.545  -1.949  1.00  0.00    +0.0816  H
BRANCH 24 37
ATOM     37  C4  CHE L   1      -3.856   1.262  -1.530  1.00  0.00    +0.0471  C
ATOM     38 H37  CHE L   1      -3.405   1.093  -2.523  1.00  0.00    +0.0520  H
BRANCH 37 39
ATOM     39  C3  CHE L   1      -4.873   2.422  -1.704  1.00  0.00    +0.0543  C
ATOM     40 H35  CHE L   1      -5.540   2.491  -0.825  1.00  0.00    +0.0436  H
ATOM     41 H36  CHE L   1      -4.339   3.395  -1.765  1.00  0.00    +0.0436  H
BRANCH 39 43
ATOM     42  N1  CHE L   1      -6.303   2.202  -3.929  1.00  0.00    -0.1965 NA
ATOM     43  C2  CHE L   1      -5.682   2.264  -2.940  1.00  0.00    +0.0644  C
ENDBRANCH 39 43
ENDBRANCH 37 39
BRANCH 37 44
ATOM     44  N5  CHE L   1      -4.531  -0.002  -1.144  1.00  0.00    -0.3082 NA
ATOM     45 H38  CHE L   1      -4.996   0.087  -0.237  1.00  0.00    +0.1225 HD
BRANCH 44 46
ATOM     46  C6  CHE L   1      -3.623  -1.155  -1.104  1.00  0.00    -0.0007  C
ATOM     47 H39  CHE L   1      -3.009  -1.106  -0.194  1.00  0.00    +0.0427  H
ATOM     48 H40  CHE L   1      -2.926  -1.129  -1.958  1.00  0.00    +0.0427  H
BRANCH 46 49
ATOM     49  C7  CHE L   1      -4.361  -2.497  -1.152  1.00  0.00    -0.0285  C
ATOM     50  C8  CHE L   1      -5.462  -2.803  -0.094  1.00  0.00    -0.0490  C
ATOM     51  C9  CHE L   1      -6.531  -2.584  -1.184  1.00  0.00    -0.0525  C
ATOM     52 C10  CHE L   1      -5.427  -2.745  -2.255  1.00  0.00    -0.0490  C
ATOM     53 H41  CHE L   1      -3.593  -3.285  -1.171  1.00  0.00    +0.0313  H
ATOM     54 H42  CHE L   1      -5.439  -3.840   0.275  1.00  0.00    +0.0268  H
ATOM     55 H43  CHE L   1      -5.527  -2.116   0.782  1.00  0.00    +0.0268  H
ATOM     56 H44  CHE L   1      -6.985  -1.587  -1.160  1.00  0.00    +0.0265  H
ATOM     57 H45  CHE L   1      -7.335  -3.338  -1.222  1.00  0.00    +0.0265  H
ATOM     58 H46  CHE L   1      -5.372  -3.755  -2.682  1.00  0.00    +0.0268  H
ATOM     59 H47  CHE L   1      -5.469  -2.027  -3.074  1.00  0.00    +0.0268  H
ENDBRANCH 46 49
ENDBRANCH 44 46
ENDBRANCH 37 44
ENDBRANCH 24 37
ENDBRANCH 21 29
ENDBRANCH 17 21
ENDBRANCH 1 18
TORSDOF 9
