ROOT
ATOM      1 C12  970 L   1      -2.540  -1.230   0.281  1.00  0.00    +0.0963  C
ATOM      2 C13  970 L   1      -2.547  -0.166   1.395  1.00  0.00    -0.0233  C
ATOM      3 C14  970 L   1      -3.168   1.159   0.934  1.00  0.00    -0.0310  C
ATOM      4 C15  970 L   1      -4.612   0.955   0.476  1.00  0.00    +0.0436  C
ATOM      5 N16  970 L   1      -4.739  -0.214  -0.364  1.00  0.00    -0.2473  N
ATOM      6 N17  970 L   1      -5.813  -0.423  -1.138  1.00  0.00    -0.1581 NA
ATOM      7 C18  970 L   1      -5.491  -1.584  -1.716  1.00  0.00    +0.1384  A
ATOM      8 N19  970 L   1      -4.285  -2.110  -1.341  1.00  0.00    -0.2172 NA
ATOM      9 C20  970 L   1      -3.839  -1.235  -0.462  1.00  0.00    +0.1505  A
ATOM     10 H35  970 L   1      -2.389  -2.231   0.701  1.00  0.00    +0.0609  H
ATOM     11 H36  970 L   1      -3.134  -0.545   2.242  1.00  0.00    +0.0290  H
ATOM     12 H37  970 L   1      -1.539   0.024   1.777  1.00  0.00    +0.0290  H
ATOM     13 H38  970 L   1      -3.141   1.892   1.747  1.00  0.00    +0.0284  H
ATOM     14 H39  970 L   1      -2.573   1.573   0.110  1.00  0.00    +0.0284  H
ATOM     15 H40  970 L   1      -5.272   0.797   1.336  1.00  0.00    +0.0509  H
ATOM     16 H41  970 L   1      -4.965   1.825  -0.087  1.00  0.00    +0.0509  H
ATOM     17 H42  970 L   1      -6.150  -2.060  -2.431  1.00  0.00    +0.1066  H
ENDROOT
BRANCH 1 18
ATOM     18 N11  970 L   1      -1.492  -0.943  -0.728  1.00  0.00    -0.3038 NA
ATOM     19 H34  970 L   1      -1.716  -1.390  -1.627  1.00  0.00    +0.1728 HD
BRANCH 18 21
ATOM     20  O1  970 L   1       0.121  -1.824   1.040  1.00  0.00    -0.2055 OA
ATOM     21  S2  970 L   1       0.094  -1.360  -0.328  1.00  0.00    +0.2307  S
ATOM     22  O3  970 L   1       0.560  -2.174  -1.427  1.00  0.00    -0.2055 OA
BRANCH 21 23
ATOM     23  C4  970 L   1       0.883   0.246  -0.421  1.00  0.00    +0.0714  C
ATOM     24 H21  970 L   1       0.788   0.605  -1.451  1.00  0.00    +0.0446  H
ATOM     25 H22  970 L   1       0.306   0.906   0.237  1.00  0.00    +0.0446  H
BRANCH 23 26
ATOM     26  C5  970 L   1       2.350   0.218   0.031  1.00  0.00    -0.0257  C
ATOM     27  C6  970 L   1       3.244  -0.581  -0.939  1.00  0.00    -0.0493  C
ATOM     28  C7  970 L   1       4.711  -0.143  -0.932  1.00  0.00    -0.0528  C
ATOM     29  C8  970 L   1       5.127   0.434   0.413  1.00  0.00    -0.0530  C
ATOM     30  C9  970 L   1       4.300   1.666   0.778  1.00  0.00    -0.0528  C
ATOM     31 C10  970 L   1       2.883   1.646   0.198  1.00  0.00    -0.0493  C
ATOM     32 H23  970 L   1       2.397  -0.270   1.015  1.00  0.00    +0.0311  H
ATOM     33 H24  970 L   1       2.870  -0.508  -1.967  1.00  0.00    +0.0268  H
ATOM     34 H25  970 L   1       3.191  -1.642  -0.667  1.00  0.00    +0.0268  H
ATOM     35 H26  970 L   1       5.350  -0.994  -1.195  1.00  0.00    +0.0265  H
ATOM     36 H27  970 L   1       4.867   0.615  -1.711  1.00  0.00    +0.0265  H
ATOM     37 H28  970 L   1       6.192   0.695   0.403  1.00  0.00    +0.0265  H
ATOM     38 H29  970 L   1       5.002  -0.333   1.188  1.00  0.00    +0.0265  H
ATOM     39 H30  970 L   1       4.808   2.573   0.428  1.00  0.00    +0.0265  H
ATOM     40 H31  970 L   1       4.253   1.746   1.871  1.00  0.00    +0.0265  H
ATOM     41 H32  970 L   1       2.224   2.235   0.848  1.00  0.00    +0.0268  H
ATOM     42 H33  970 L   1       2.885   2.150  -0.778  1.00  0.00    +0.0268  H
ENDBRANCH 23 26
ENDBRANCH 21 23
ENDBRANCH 18 21
ENDBRANCH 1 18
TORSDOF 4
