ROOT
ATOM      1 N20  CHE L   1      -5.969  -1.268   0.328  1.00  0.00    -0.2953 NA
ATOM      2 C21  CHE L   1      -5.747  -1.053   1.756  1.00  0.00    +0.0033  C
ATOM      3 C22  CHE L   1      -7.049  -0.587   2.425  1.00  0.00    -0.0146  C
ATOM      4 C23  CHE L   1      -7.728   0.527   1.667  1.00  0.00    -0.0418  A
ATOM      5 C24  CHE L   1      -8.749   1.270   2.274  1.00  0.00    -0.0582  A
ATOM      6 C25  CHE L   1      -9.408   2.274   1.564  1.00  0.00    -0.0615  A
ATOM      7 C26  CHE L   1      -9.053   2.540   0.244  1.00  0.00    -0.0614  A
ATOM      8 C27  CHE L   1      -8.045   1.797  -0.373  1.00  0.00    -0.0571  A
ATOM      9 C28  CHE L   1      -7.383   0.777   0.326  1.00  0.00    -0.0302  A
ATOM     10 C29  CHE L   1      -6.262   0.005  -0.347  1.00  0.00    +0.0244  C
ATOM     11 H54  CHE L   1      -5.429  -1.982   2.246  1.00  0.00    +0.0430  H
ATOM     12 H55  CHE L   1      -4.962  -0.307   1.931  1.00  0.00    +0.0430  H
ATOM     13 H56  CHE L   1      -6.825  -0.258   3.446  1.00  0.00    +0.0326  H
ATOM     14 H57  CHE L   1      -7.748  -1.430   2.487  1.00  0.00    +0.0326  H
ATOM     15 H58  CHE L   1      -9.041   1.066   3.301  1.00  0.00    +0.0620  H
ATOM     16 H59  CHE L   1     -10.198   2.847   2.041  1.00  0.00    +0.0618  H
ATOM     17 H60  CHE L   1      -9.562   3.325  -0.309  1.00  0.00    +0.0618  H
ATOM     18 H61  CHE L   1      -7.776   2.015  -1.404  1.00  0.00    +0.0621  H
ATOM     19 H62  CHE L   1      -6.556  -0.200  -1.384  1.00  0.00    +0.0476  H
ATOM     20 H63  CHE L   1      -5.384   0.663  -0.355  1.00  0.00    +0.0476  H
ENDROOT
BRANCH 1 21
ATOM     21 C19  CHE L   1      -4.960  -2.084  -0.360  1.00  0.00    +0.0269  C
ATOM     22 H52  CHE L   1      -4.812  -3.004   0.223  1.00  0.00    +0.0452  H
ATOM     23 H53  CHE L   1      -5.429  -2.419  -1.297  1.00  0.00    +0.0452  H
BRANCH 21 24
ATOM     24 C17  CHE L   1      -3.561  -1.527  -0.735  1.00  0.00    +0.0855  C
ATOM     25 O18  CHE L   1      -3.693  -0.517  -1.744  1.00  0.00    -0.3888 OA
ATOM     26 H50  CHE L   1      -3.013  -2.351  -1.209  1.00  0.00    +0.0624  H
ATOM     27 H51  CHE L   1      -2.842  -0.027  -1.783  1.00  0.00    +0.2099 HD
BRANCH 24 28
ATOM     28 C16  CHE L   1      -2.754  -1.018   0.470  1.00  0.00    +0.0501  C
ATOM     29 H48  CHE L   1      -2.962  -1.598   1.373  1.00  0.00    +0.0515  H
ATOM     30 H49  CHE L   1      -2.994   0.035   0.654  1.00  0.00    +0.0515  H
BRANCH 28 34
ATOM     31 N12  CHE L   1       0.670  -0.769  -0.744  1.00  0.00    -0.3169  N
ATOM     32 C13  CHE L   1       0.881  -1.895   0.142  1.00  0.00    +0.0409  C
ATOM     33 C14  CHE L   1      -0.521  -2.233   0.634  1.00  0.00    +0.0406  C
ATOM     34 N15  CHE L   1      -1.312  -1.081   0.257  1.00  0.00    -0.3202  N
ATOM     35 C30  CHE L   1      -0.638  -0.316  -0.692  1.00  0.00    +0.3218  C
ATOM     36 O31  CHE L   1      -1.146   0.543  -1.394  1.00  0.00    -0.2470 OA
ATOM     37 H44  CHE L   1       1.523  -1.582   0.971  1.00  0.00    +0.0507  H
ATOM     38 H45  CHE L   1       1.341  -2.731  -0.391  1.00  0.00    +0.0507  H
ATOM     39 H46  CHE L   1      -0.564  -2.392   1.715  1.00  0.00    +0.0506  H
ATOM     40 H47  CHE L   1      -0.918  -3.111   0.114  1.00  0.00    +0.0506  H
BRANCH 31 41
ATOM     41 C11  CHE L   1       1.652  -0.303  -1.706  1.00  0.00    +0.0665  C
ATOM     42 H42  CHE L   1       1.337   0.665  -2.109  1.00  0.00    +0.0554  H
ATOM     43 H43  CHE L   1       1.627  -1.023  -2.532  1.00  0.00    +0.0554  H
BRANCH 41 47
ATOM     44  C7  CHE L   1       5.661   0.063  -0.344  1.00  0.00    +0.1478  A
ATOM     45  C8  CHE L   1       4.564   0.368   0.472  1.00  0.00    +0.0701  A
ATOM     46  N9  CHE L   1       3.266   0.264   0.086  1.00  0.00    -0.2530 NA
ATOM     47 C10  CHE L   1       3.062  -0.181  -1.177  1.00  0.00    +0.0788  A
ATOM     48 C32  CHE L   1       4.142  -0.479  -1.999  1.00  0.00    +0.0529  A
ATOM     49 N33  CHE L   1       5.436  -0.374  -1.603  1.00  0.00    -0.2348 NA
ATOM     50 H41  CHE L   1       4.706   0.694   1.496  1.00  0.00    +0.0867  H
ATOM     51 H64  CHE L   1       4.005  -0.820  -3.020  1.00  0.00    +0.0849  H
BRANCH 44 55
ATOM     52  C3  CHE L   1       9.431   1.601  -0.725  1.00  0.00    +0.0494  C
ATOM     53  C4  CHE L   1       8.783   1.788   0.656  1.00  0.00    -0.0196  C
ATOM     54  C5  CHE L   1       7.276   1.564   0.584  1.00  0.00    +0.0212  C
ATOM     55  N6  CHE L   1       6.977   0.196   0.135  1.00  0.00    -0.3546  N
ATOM     56 C34  CHE L   1       8.009  -0.484  -0.664  1.00  0.00    +0.0212  C
ATOM     57 C35  CHE L   1       8.739   0.511  -1.560  1.00  0.00    -0.0196  C
ATOM     58 H36  CHE L   1       9.346   2.544  -1.281  1.00  0.00    +0.0455  H
ATOM     59 H37  CHE L   1       8.994   2.797   1.031  1.00  0.00    +0.0295  H
ATOM     60 H38  CHE L   1       9.215   1.092   1.390  1.00  0.00    +0.0295  H
ATOM     61 H39  CHE L   1       6.845   1.731   1.579  1.00  0.00    +0.0488  H
ATOM     62 H40  CHE L   1       6.841   2.308  -0.099  1.00  0.00    +0.0488  H
ATOM     63 H65  CHE L   1       7.614  -1.319  -1.255  1.00  0.00    +0.0488  H
ATOM     64 H66  CHE L   1       8.725  -0.945   0.030  1.00  0.00    +0.0488  H
ATOM     65 H67  CHE L   1       9.451  -0.017  -2.206  1.00  0.00    +0.0295  H
ATOM     66 H68  CHE L   1       8.008   0.987  -2.228  1.00  0.00    +0.0295  H
BRANCH 52 68
ATOM     67  N1  CHE L   1      11.999   1.091  -0.452  1.00  0.00    -0.1963 NA
ATOM     68  C2  CHE L   1      10.867   1.306  -0.567  1.00  0.00    +0.0660  C
ENDBRANCH 52 68
ENDBRANCH 44 55
ENDBRANCH 41 47
ENDBRANCH 31 41
ENDBRANCH 28 34
ENDBRANCH 24 28
ENDBRANCH 21 24
ENDBRANCH 1 21
TORSDOF 8
