ROOT
ATOM      1 N14  629 L   1       3.032  -0.541   0.024  1.00  0.00    -0.3379  N
ATOM      2 C15  629 L   1       3.570  -1.041  -1.238  1.00  0.00    +0.0215  C
ATOM      3 C16  629 L   1       5.097  -1.005  -1.216  1.00  0.00    -0.0329  C
ATOM      4 C17  629 L   1       5.642   0.403  -0.964  1.00  0.00    -0.0236  C
ATOM      5 C18  629 L   1       4.685   1.276  -0.147  1.00  0.00    +0.0728  C
ATOM      6 O19  629 L   1       5.449   2.242   0.574  1.00  0.00    -0.3900 OA
ATOM      7 C20  629 L   1       3.818   0.421   0.792  1.00  0.00    +0.0473  C
ATOM      8 H33  629 L   1       3.205  -0.434  -2.078  1.00  0.00    +0.0489  H
ATOM      9 H34  629 L   1       3.253  -2.078  -1.406  1.00  0.00    +0.0489  H
ATOM     10 H35  629 L   1       5.501  -1.396  -2.157  1.00  0.00    +0.0283  H
ATOM     11 H36  629 L   1       5.458  -1.670  -0.420  1.00  0.00    +0.0283  H
ATOM     12 H37  629 L   1       5.831   0.901  -1.924  1.00  0.00    +0.0291  H
ATOM     13 H38  629 L   1       6.622   0.330  -0.477  1.00  0.00    +0.0291  H
ATOM     14 H39  629 L   1       4.033   1.827  -0.837  1.00  0.00    +0.0611  H
ATOM     15 H40  629 L   1       4.819   2.823   1.035  1.00  0.00    +0.2099 HD
ATOM     16 H41  629 L   1       4.460  -0.120   1.499  1.00  0.00    +0.0514  H
ATOM     17 H42  629 L   1       3.215   1.097   1.411  1.00  0.00    +0.0514  H
ENDROOT
BRANCH 1 21
ATOM     18 C10  629 L   1      -1.084  -0.592   0.461  1.00  0.00    +0.0187  A
ATOM     19 C11  629 L   1      -0.238   0.031   1.352  1.00  0.00    +0.0405  A
ATOM     20 N12  629 L   1       1.106   0.069   1.226  1.00  0.00    -0.2202 NA
ATOM     21 C13  629 L   1       1.657  -0.544   0.165  1.00  0.00    +0.2266  A
ATOM     22 N21  629 L   1       0.914  -1.179  -0.757  1.00  0.00    -0.2202 NA
ATOM     23 C22  629 L   1      -0.427  -1.193  -0.590  1.00  0.00    +0.0405  A
ATOM     24 H32  629 L   1      -0.624   0.542   2.230  1.00  0.00    +0.0837  H
ATOM     25 H43  629 L   1      -0.973  -1.729  -1.362  1.00  0.00    +0.0837  H
BRANCH 18 32
ATOM     26  C1  629 L   1      -2.877   1.078  -1.238  1.00  0.00    -0.0388  C
ATOM     27  C2  629 L   1      -3.419   0.147  -0.176  1.00  0.00    -0.0373  A
ATOM     28  C3  629 L   1      -4.820   0.007  -0.005  1.00  0.00    -0.0187  A
ATOM     29  C6  629 L   1      -5.316  -0.842   0.998  1.00  0.00    -0.0561  A
ATOM     30  C7  629 L   1      -4.451  -1.575   1.802  1.00  0.00    -0.0608  A
ATOM     31  C8  629 L   1      -3.077  -1.473   1.611  1.00  0.00    -0.0537  A
ATOM     32  C9  629 L   1      -2.539  -0.627   0.624  1.00  0.00    -0.0117  A
ATOM     33 H23  629 L   1      -2.827   0.556  -2.199  1.00  0.00    +0.0278  H
ATOM     34 H24  629 L   1      -3.501   1.970  -1.348  1.00  0.00    +0.0278  H
ATOM     35 H25  629 L   1      -1.881   1.453  -0.985  1.00  0.00    +0.0278  H
ATOM     36 H29  629 L   1      -6.389  -0.939   1.155  1.00  0.00    +0.0621  H
ATOM     37 H30  629 L   1      -4.847  -2.235   2.571  1.00  0.00    +0.0618  H
ATOM     38 H31  629 L   1      -2.417  -2.073   2.237  1.00  0.00    +0.0624  H
BRANCH 28 39
ATOM     39  C4  629 L   1      -5.819   0.775  -0.840  1.00  0.00    +0.0695  C
ATOM     40  O5  629 L   1      -5.996   2.090  -0.332  1.00  0.00    -0.3904 OA
ATOM     41 H26  629 L   1      -6.795   0.276  -0.836  1.00  0.00    +0.0607  H
ATOM     42 H27  629 L   1      -5.505   0.832  -1.887  1.00  0.00    +0.0607  H
ATOM     43 H28  629 L   1      -5.547   2.139   0.529  1.00  0.00    +0.2098 HD
ENDBRANCH 28 39
ENDBRANCH 18 32
ENDBRANCH 1 21
TORSDOF 3
