ROOT
ATOM      1  C1  MCU L   1       7.325  -0.888  -1.107  1.00  0.00    -0.0397  C
ATOM      2  C2  MCU L   1       6.062  -1.030  -0.309  1.00  0.00    -0.0495  A
ATOM      3  C3  MCU L   1       6.084  -1.704   0.919  1.00  0.00    -0.0539  A
ATOM      4  C4  MCU L   1       4.912  -1.860   1.679  1.00  0.00    -0.0262  A
ATOM      5  C5  MCU L   1       4.994  -2.576   3.002  1.00  0.00    -0.0377  C
ATOM      6  C6  MCU L   1       3.687  -1.341   1.185  1.00  0.00    +0.0521  A
ATOM      7  N7  MCU L   1       2.519  -1.468   1.888  1.00  0.00    -0.3216  N
ATOM      8  C8  MCU L   1       1.340  -0.961   1.430  1.00  0.00    +0.2543  A
ATOM      9  O9  MCU L   1       0.296  -1.110   2.123  1.00  0.00    -0.2675 OA
ATOM     10 C10  MCU L   1       1.280  -0.283   0.196  1.00  0.00    +0.0421  A
ATOM     11 C33  MCU L   1       2.463  -0.166  -0.554  1.00  0.00    -0.0423  A
ATOM     12 C34  MCU L   1       3.669  -0.679  -0.064  1.00  0.00    -0.0006  A
ATOM     13 C35  MCU L   1       4.850  -0.534  -0.805  1.00  0.00    -0.0497  A
ATOM     14 H36  MCU L   1       7.241  -0.066  -1.849  1.00  0.00    +0.0278  H
ATOM     15 H37  MCU L   1       7.534  -1.838  -1.642  1.00  0.00    +0.0278  H
ATOM     16 H38  MCU L   1       8.178  -0.655  -0.434  1.00  0.00    +0.0278  H
ATOM     17 H39  MCU L   1       7.024  -2.102   1.284  1.00  0.00    +0.0623  H
ATOM     18 H40  MCU L   1       4.640  -1.907   3.814  1.00  0.00    +0.0278  H
ATOM     19 H41  MCU L   1       6.035  -2.877   3.245  1.00  0.00    +0.0278  H
ATOM     20 H42  MCU L   1       4.370  -3.493   2.973  1.00  0.00    +0.0278  H
ATOM     21 H43  MCU L   1       2.502  -1.963   2.807  1.00  0.00    +0.1689 HD
ATOM     22 H72  MCU L   1       2.458   0.326  -1.518  1.00  0.00    +0.0629  H
ATOM     23 H73  MCU L   1       4.830  -0.031  -1.765  1.00  0.00    +0.0627  H
ENDROOT
BRANCH 10 24
ATOM     24 C11  MCU L   1      -0.056   0.266  -0.300  1.00  0.00    +0.1027  C
ATOM     25 H44  MCU L   1      -0.458   0.844   0.559  1.00  0.00    +0.0596  H
BRANCH 24 26
ATOM     26 C12  MCU L   1       0.068   1.258  -1.449  1.00  0.00    +0.1733  A
ATOM     27 N13  MCU L   1       0.099   0.924  -2.754  1.00  0.00    -0.1114 NA
ATOM     28 N14  MCU L   1       0.252   2.068  -3.407  1.00  0.00    -0.0230 NA
ATOM     29 N15  MCU L   1       0.325   3.071  -2.547  1.00  0.00    -0.0436 NA
ATOM     30 N16  MCU L   1       0.237   2.590  -1.319  1.00  0.00    -0.2244  N
BRANCH 30 31
ATOM     31 C17  MCU L   1       0.217   3.393  -0.089  1.00  0.00    +0.0564  C
ATOM     32 C18  MCU L   1       0.942   4.726  -0.234  1.00  0.00    -0.0304  C
ATOM     33 C19  MCU L   1       0.314   5.619   0.823  1.00  0.00    -0.0511  C
ATOM     34 C20  MCU L   1      -1.114   5.113   1.015  1.00  0.00    -0.0511  C
ATOM     35 C21  MCU L   1      -1.207   3.760   0.313  1.00  0.00    -0.0304  C
ATOM     36 H45  MCU L   1       0.703   2.830   0.740  1.00  0.00    +0.0546  H
ATOM     37 H46  MCU L   1       2.036   4.612  -0.073  1.00  0.00    +0.0286  H
ATOM     38 H47  MCU L   1       0.762   5.179  -1.233  1.00  0.00    +0.0286  H
ATOM     39 H48  MCU L   1       0.879   5.519   1.776  1.00  0.00    +0.0266  H
ATOM     40 H49  MCU L   1       0.327   6.685   0.505  1.00  0.00    +0.0266  H
ATOM     41 H50  MCU L   1      -1.839   5.827   0.567  1.00  0.00    +0.0266  H
ATOM     42 H51  MCU L   1      -1.341   5.007   2.099  1.00  0.00    +0.0266  H
ATOM     43 H52  MCU L   1      -1.851   3.855  -0.590  1.00  0.00    +0.0286  H
ATOM     44 H53  MCU L   1      -1.642   2.988   0.985  1.00  0.00    +0.0286  H
ENDBRANCH 30 31
ENDBRANCH 24 26
BRANCH 24 45
ATOM     45 N22  MCU L   1      -1.029  -0.828  -0.552  1.00  0.00    -0.2884 NA
ATOM     46 C23  MCU L   1      -0.624  -1.822  -1.567  1.00  0.00    -0.0001  C
ATOM     47 C24  MCU L   1      -1.534  -3.047  -1.470  1.00  0.00    -0.0396  C
ATOM     48 C25  MCU L   1      -3.017  -2.649  -1.590  1.00  0.00    -0.0450  C
ATOM     49 C26  MCU L   1      -3.428  -1.470  -0.657  1.00  0.00    -0.0164  C
ATOM     50 C27  MCU L   1      -3.457  -1.927   0.845  1.00  0.00    -0.0462  C
ATOM     51 C28  MCU L   1      -4.844  -2.412   1.285  1.00  0.00    -0.0525  C
ATOM     52 C29  MCU L   1      -5.895  -1.291   1.175  1.00  0.00    -0.0530  C
ATOM     53 C30  MCU L   1      -5.604  -0.291   0.041  1.00  0.00    -0.0525  C
ATOM     54 C31  MCU L   1      -4.835  -0.955  -1.107  1.00  0.00    -0.0462  C
ATOM     55 C32  MCU L   1      -2.391  -0.327  -0.827  1.00  0.00    +0.0055  C
ATOM     56 H54  MCU L   1      -0.697  -1.409  -2.595  1.00  0.00    +0.0427  H
ATOM     57 H55  MCU L   1       0.421  -2.158  -1.402  1.00  0.00    +0.0427  H
ATOM     58 H56  MCU L   1      -1.346  -3.573  -0.511  1.00  0.00    +0.0278  H
ATOM     59 H57  MCU L   1      -1.281  -3.756  -2.287  1.00  0.00    +0.0278  H
ATOM     60 H58  MCU L   1      -3.646  -3.542  -1.381  1.00  0.00    +0.0271  H
ATOM     61 H59  MCU L   1      -3.204  -2.360  -2.649  1.00  0.00    +0.0271  H
ATOM     62 H60  MCU L   1      -2.722  -2.732   1.043  1.00  0.00    +0.0271  H
ATOM     63 H61  MCU L   1      -3.171  -1.086   1.515  1.00  0.00    +0.0271  H
ATOM     64 H62  MCU L   1      -5.148  -3.275   0.654  1.00  0.00    +0.0265  H
ATOM     65 H63  MCU L   1      -4.796  -2.768   2.336  1.00  0.00    +0.0265  H
ATOM     66 H64  MCU L   1      -6.892  -1.755   1.012  1.00  0.00    +0.0265  H
ATOM     67 H65  MCU L   1      -5.945  -0.734   2.137  1.00  0.00    +0.0265  H
ATOM     68 H66  MCU L   1      -5.009   0.560   0.439  1.00  0.00    +0.0265  H
ATOM     69 H67  MCU L   1      -6.562   0.124  -0.341  1.00  0.00    +0.0265  H
ATOM     70 H68  MCU L   1      -4.749  -0.239  -1.953  1.00  0.00    +0.0271  H
ATOM     71 H69  MCU L   1      -5.456  -1.799  -1.480  1.00  0.00    +0.0271  H
ATOM     72 H70  MCU L   1      -2.646   0.507  -0.136  1.00  0.00    +0.0432  H
ATOM     73 H71  MCU L   1      -2.442   0.086  -1.861  1.00  0.00    +0.0432  H
ENDBRANCH 24 45
ENDBRANCH 10 24
TORSDOF 4
