ROOT
ATOM      1  N1  EUB L   1       6.979   3.274   1.716  1.00  0.00    -0.3831  N
ATOM      2  C2  EUB L   1       5.839   2.639   1.226  1.00  0.00    +0.1362  A
ATOM      3  N3  EUB L   1       4.669   3.102   1.703  1.00  0.00    -0.2374 NA
ATOM      4  C4  EUB L   1       3.519   2.530   1.267  1.00  0.00    +0.0391  A
ATOM      5  C5  EUB L   1       3.459   1.488   0.356  1.00  0.00    +0.0209  A
ATOM      6 C25  EUB L   1       4.685   1.022  -0.125  1.00  0.00    -0.0359  A
ATOM      7 C26  EUB L   1       5.895   1.596   0.307  1.00  0.00    +0.0970  A
ATOM      8 H31  EUB L   1       7.511   3.708   0.965  1.00  0.00    +0.1573 HD
ATOM      9 H32  EUB L   1       7.585   2.621   2.206  1.00  0.00    +0.1573 HD
ATOM     10 H33  EUB L   1       2.626   2.969   1.701  1.00  0.00    +0.0837  H
ATOM     11 H54  EUB L   1       4.703   0.203  -0.845  1.00  0.00    +0.0631  H
ENDROOT
BRANCH 5 12
ATOM     12  C6  EUB L   1       2.192   0.904  -0.083  1.00  0.00    +0.0945  A
ATOM     13  C7  EUB L   1       0.874   1.228   0.340  1.00  0.00    -0.0127  A
ATOM     14  C8  EUB L   1       0.043   0.393  -0.366  1.00  0.00    +0.0435  A
ATOM     15 N19  EUB L   1       0.851  -0.357  -1.168  1.00  0.00    -0.2672  N
ATOM     16 N24  EUB L   1       2.160  -0.070  -1.009  1.00  0.00    -0.1709 NA
ATOM     17 H34  EUB L   1       0.568   1.970   1.063  1.00  0.00    +0.0657  H
BRANCH 14 18
ATOM     18  C9  EUB L   1      -1.505   0.353  -0.288  1.00  0.00    +0.0096  C
ATOM     19 C10  EUB L   1      -2.149  -0.784   0.475  1.00  0.00    -0.0151  C
ATOM     20 C11  EUB L   1      -3.562  -1.214   0.228  1.00  0.00    +0.0031  C
ATOM     21 N12  EUB L   1      -4.310   0.057   0.202  1.00  0.00    -0.2945 NA
ATOM     22 C17  EUB L   1      -3.633   0.991   1.125  1.00  0.00    +0.0031  C
ATOM     23 C18  EUB L   1      -2.194   0.584   1.039  1.00  0.00    -0.0151  C
ATOM     24 H35  EUB L   1      -2.006   0.723  -1.178  1.00  0.00    +0.0370  H
ATOM     25 H36  EUB L   1      -1.533  -1.535   0.947  1.00  0.00    +0.0323  H
ATOM     26 H37  EUB L   1      -3.655  -1.748  -0.723  1.00  0.00    +0.0430  H
ATOM     27 H38  EUB L   1      -3.887  -1.870   1.045  1.00  0.00    +0.0430  H
ATOM     28 H44  EUB L   1      -3.774   2.029   0.811  1.00  0.00    +0.0430  H
ATOM     29 H45  EUB L   1      -3.980   0.874   2.159  1.00  0.00    +0.0430  H
ATOM     30 H46  EUB L   1      -1.618   0.817   1.923  1.00  0.00    +0.0323  H
BRANCH 21 31
ATOM     31 C13  EUB L   1      -5.710  -0.150   0.605  1.00  0.00    +0.0571  C
ATOM     32 C14  EUB L   1      -6.507  -0.841  -0.515  1.00  0.00    +0.0654  C
ATOM     33 O15  EUB L   1      -7.508   0.214  -0.485  1.00  0.00    -0.3765 OA
ATOM     34 C16  EUB L   1      -6.573   1.068   0.232  1.00  0.00    +0.0654  C
ATOM     35 H39  EUB L   1      -5.885  -0.549   1.610  1.00  0.00    +0.0508  H
ATOM     36 H40  EUB L   1      -6.045  -0.907  -1.506  1.00  0.00    +0.0576  H
ATOM     37 H41  EUB L   1      -6.935  -1.810  -0.244  1.00  0.00    +0.0576  H
ATOM     38 H42  EUB L   1      -6.138   1.815  -0.440  1.00  0.00    +0.0576  H
ATOM     39 H43  EUB L   1      -7.053   1.569   1.078  1.00  0.00    +0.0576  H
ENDBRANCH 21 31
ENDBRANCH 14 18
BRANCH 15 40
ATOM     40 C20  EUB L   1       0.453  -1.344  -2.165  1.00  0.00    +0.0447  C
ATOM     41 H47  EUB L   1      -0.599  -1.171  -2.416  1.00  0.00    +0.0511  H
ATOM     42 H48  EUB L   1       1.046  -1.138  -3.064  1.00  0.00    +0.0511  H
BRANCH 40 43
ATOM     43 C21  EUB L   1       0.695  -2.751  -1.701  1.00  0.00    -0.0214  C
ATOM     44 C22  EUB L   1       0.169  -3.907  -2.516  1.00  0.00    -0.0482  C
ATOM     45 C23  EUB L   1      -0.426  -3.608  -1.169  1.00  0.00    -0.0482  C
ATOM     46 H49  EUB L   1       1.686  -2.873  -1.272  1.00  0.00    +0.0318  H
ATOM     47 H50  EUB L   1       0.798  -4.786  -2.611  1.00  0.00    +0.0269  H
ATOM     48 H51  EUB L   1      -0.432  -3.698  -3.395  1.00  0.00    +0.0269  H
ATOM     49 H52  EUB L   1      -1.433  -3.210  -1.147  1.00  0.00    +0.0269  H
ATOM     50 H53  EUB L   1      -0.199  -4.284  -0.352  1.00  0.00    +0.0269  H
ENDBRANCH 40 43
ENDBRANCH 15 40
ENDBRANCH 5 12
BRANCH 7 51
ATOM     51 C27  EUB L   1       7.204   1.095  -0.209  1.00  0.00    +0.4208  C
ATOM     52 F28  EUB L   1       7.096   0.083  -1.114  1.00  0.00    -0.1658  F
ATOM     53 F29  EUB L   1       8.009   0.617   0.783  1.00  0.00    -0.1658  F
ATOM     54 F30  EUB L   1       7.930   2.068  -0.831  1.00  0.00    -0.1658  F
ENDBRANCH 7 51
TORSDOF 6
