ROOT
ATOM      1  C3  284 L   1      -1.549  -1.590  -0.445  1.00  0.00    +0.0782  C
ATOM      2  C4  284 L   1      -2.043  -0.438  -1.323  1.00  0.00    +0.0028  C
ATOM      3  C5  284 L   1      -1.437   0.800  -0.660  1.00  0.00    +0.0944  C
ATOM      4 N12  284 L   1      -0.175   0.320  -0.106  1.00  0.00    -0.3263  N
ATOM      5 C13  284 L   1       0.841   1.186   0.206  1.00  0.00    +0.2480  C
ATOM      6 O14  284 L   1       0.721   2.407   0.139  1.00  0.00    -0.2680 OA
ATOM      7 C21  284 L   1      -0.130  -1.137  -0.088  1.00  0.00    +0.0485  C
ATOM      8 H25  284 L   1      -2.148  -1.682   0.470  1.00  0.00    +0.0614  H
ATOM      9 H26  284 L   1      -3.134  -0.409  -1.409  1.00  0.00    +0.0315  H
ATOM     10 H27  284 L   1      -1.645  -0.557  -2.339  1.00  0.00    +0.0315  H
ATOM     11 H28  284 L   1      -1.249   1.585  -1.402  1.00  0.00    +0.0607  H
ATOM     12 H42  284 L   1       0.610  -1.478  -0.820  1.00  0.00    +0.0514  H
ATOM     13 H43  284 L   1       0.174  -1.498   0.899  1.00  0.00    +0.0514  H
ENDROOT
BRANCH 1 15
ATOM     14  C1  284 L   1      -2.800  -3.395  -1.337  1.00  0.00    +0.0369  C
ATOM     15  O2  284 L   1      -1.508  -2.831  -1.143  1.00  0.00    -0.3779 OA
ATOM     16 H22  284 L   1      -3.400  -2.767  -2.000  1.00  0.00    +0.0524  H
ATOM     17 H23  284 L   1      -2.677  -4.375  -1.806  1.00  0.00    +0.0524  H
ATOM     18 H24  284 L   1      -3.312  -3.530  -0.379  1.00  0.00    +0.0524  H
ENDBRANCH 1 15
BRANCH 3 19
ATOM     19  C6  284 L   1      -2.285   1.347   0.442  1.00  0.00    +0.1480  A
ATOM     20  N7  284 L   1      -3.397   0.863   0.958  1.00  0.00    -0.2144 NA
ATOM     21  C8  284 L   1      -3.724   1.783   1.921  1.00  0.00    +0.1481  A
ATOM     22  C9  284 L   1      -4.934   1.658   2.758  1.00  0.00    -0.0028  C
ATOM     23 N10  284 L   1      -2.869   2.805   2.038  1.00  0.00    -0.1577 NA
ATOM     24 N11  284 L   1      -1.959   2.504   1.097  1.00  0.00    -0.2608  N
ATOM     25 H29  284 L   1      -5.266   0.617   2.809  1.00  0.00    +0.0309  H
ATOM     26 H30  284 L   1      -5.748   2.256   2.337  1.00  0.00    +0.0309  H
ATOM     27 H31  284 L   1      -4.744   2.003   3.779  1.00  0.00    +0.0309  H
ATOM     28 H32  284 L   1      -1.137   3.089   0.962  1.00  0.00    +0.1903 HD
ENDBRANCH 3 19
BRANCH 5 29
ATOM     29 C15  284 L   1       2.095   0.561   0.676  1.00  0.00    +0.0019  C
ATOM     30 C16  284 L   1       3.284   0.683   0.051  1.00  0.00    -0.0644  C
ATOM     31 C17  284 L   1       3.477   1.496  -1.208  1.00  0.00    -0.0431  C
ATOM     32 H33  284 L   1       2.005  -0.028   1.583  1.00  0.00    +0.0671  H
ATOM     33 H34  284 L   1       3.795   0.847  -2.030  1.00  0.00    +0.0275  H
ATOM     34 H35  284 L   1       2.575   2.014  -1.542  1.00  0.00    +0.0275  H
ATOM     35 H36  284 L   1       4.253   2.255  -1.054  1.00  0.00    +0.0275  H
BRANCH 30 36
ATOM     36 C18  284 L   1       4.516   0.062   0.587  1.00  0.00    -0.0197  C
ATOM     37 C19  284 L   1       4.523  -1.407   0.935  1.00  0.00    -0.0460  C
ATOM     38 C20  284 L   1       5.288  -0.920  -0.259  1.00  0.00    -0.0460  C
ATOM     39 H37  284 L   1       5.096   0.721   1.227  1.00  0.00    +0.0346  H
ATOM     40 H38  284 L   1       3.643  -2.012   0.746  1.00  0.00    +0.0271  H
ATOM     41 H39  284 L   1       5.088  -1.713   1.809  1.00  0.00    +0.0271  H
ATOM     42 H40  284 L   1       4.912  -1.195  -1.238  1.00  0.00    +0.0271  H
ATOM     43 H41  284 L   1       6.369  -0.898  -0.195  1.00  0.00    +0.0271  H
ENDBRANCH 30 36
ENDBRANCH 5 29
TORSDOF 4
