ROOT
ATOM      1  O1  585 L   1       0.043   2.659   0.540  1.00  0.00    -0.2677 OA
ATOM      2  C2  585 L   1       0.223   1.445   0.477  1.00  0.00    +0.2509  C
ATOM      3  N9  585 L   1      -0.785   0.497   0.617  1.00  0.00    -0.3276  N
ATOM      4 C10  585 L   1      -2.155   1.001   0.638  1.00  0.00    +0.0637  C
ATOM      5 C11  585 L   1      -2.748   0.806  -0.706  1.00  0.00    +0.0585  A
ATOM      6 C12  585 L   1      -3.173   1.702  -1.663  1.00  0.00    -0.0193  A
ATOM      7 C13  585 L   1      -3.628   0.904  -2.727  1.00  0.00    +0.0497  A
ATOM      8 N14  585 L   1      -3.502  -0.400  -2.475  1.00  0.00    -0.1794 NA
ATOM      9 N15  585 L   1      -2.961  -0.434  -1.241  1.00  0.00    -0.2665  N
ATOM     10 C16  585 L   1      -2.625  -1.705  -0.630  1.00  0.00    +0.0438  C
ATOM     11 C17  585 L   1      -1.134  -1.836  -0.331  1.00  0.00    -0.0106  C
ATOM     12 C18  585 L   1      -0.562  -0.961   0.804  1.00  0.00    +0.0579  C
ATOM     13 H30  585 L   1      -2.174   2.066   0.893  1.00  0.00    +0.0553  H
ATOM     14 H31  585 L   1      -2.740   0.497   1.410  1.00  0.00    +0.0553  H
ATOM     15 H32  585 L   1      -3.148   2.781  -1.601  1.00  0.00    +0.0652  H
ATOM     16 H33  585 L   1      -4.043   1.219  -3.676  1.00  0.00    +0.0848  H
ATOM     17 H34  585 L   1      -2.914  -2.490  -1.339  1.00  0.00    +0.0509  H
ATOM     18 H35  585 L   1      -3.263  -1.822   0.248  1.00  0.00    +0.0509  H
ATOM     19 H36  585 L   1      -0.577  -1.614  -1.250  1.00  0.00    +0.0304  H
ATOM     20 H37  585 L   1      -0.924  -2.886  -0.092  1.00  0.00    +0.0304  H
ATOM     21 H38  585 L   1       0.519  -1.129   0.767  1.00  0.00    +0.0548  H
ENDROOT
BRANCH 2 22
ATOM     22  C3  585 L   1       1.605   0.953   0.232  1.00  0.00    +0.0129  C
ATOM     23  C4  585 L   1       1.900   0.420  -0.967  1.00  0.00    -0.0757  C
ATOM     24  C5  585 L   1       3.277  -0.055  -1.324  1.00  0.00    -0.0340  C
ATOM     25  C6  585 L   1       4.216  -0.140  -0.117  1.00  0.00    -0.0493  C
ATOM     26  C7  585 L   1       4.058   1.072   0.798  1.00  0.00    -0.0486  C
ATOM     27  C8  585 L   1       2.619   1.203   1.308  1.00  0.00    -0.0229  C
ATOM     28 H21  585 L   1       1.133   0.340  -1.735  1.00  0.00    +0.0576  H
ATOM     29 H22  585 L   1       3.211  -1.042  -1.797  1.00  0.00    +0.0308  H
ATOM     30 H23  585 L   1       3.697   0.631  -2.069  1.00  0.00    +0.0308  H
ATOM     31 H24  585 L   1       3.998  -1.054   0.452  1.00  0.00    +0.0268  H
ATOM     32 H25  585 L   1       5.253  -0.220  -0.462  1.00  0.00    +0.0268  H
ATOM     33 H26  585 L   1       4.744   0.993   1.649  1.00  0.00    +0.0269  H
ATOM     34 H27  585 L   1       4.337   1.980   0.248  1.00  0.00    +0.0269  H
ATOM     35 H28  585 L   1       2.488   2.201   1.741  1.00  0.00    +0.0315  H
ATOM     36 H29  585 L   1       2.454   0.478   2.114  1.00  0.00    +0.0315  H
ENDBRANCH 2 22
BRANCH 12 37
ATOM     37 C19  585 L   1      -0.927  -1.442   2.230  1.00  0.00    +0.0647  C
ATOM     38 O20  585 L   1      -2.321  -1.636   2.414  1.00  0.00    -0.3930 OA
ATOM     39 H39  585 L   1      -0.573  -0.721   2.976  1.00  0.00    +0.0578  H
ATOM     40 H40  585 L   1      -0.439  -2.403   2.425  1.00  0.00    +0.0578  H
ATOM     41 H41  585 L   1      -2.458  -1.858   3.352  1.00  0.00    +0.2095 HD
ENDBRANCH 12 37
TORSDOF 2
