ROOT
ATOM      1  C9  CHE L   1       0.282   0.047   0.428  1.00  0.00    -0.0419  A
ATOM      2 C10  CHE L   1       0.245   0.374  -0.940  1.00  0.00    -0.0532  A
ATOM      3 C11  CHE L   1      -0.958   0.686  -1.619  1.00  0.00    -0.0227  A
ATOM      4 C12  CHE L   1      -0.922   1.014  -3.084  1.00  0.00    -0.0376  C
ATOM      5 C13  CHE L   1      -2.146   0.681  -0.867  1.00  0.00    +0.0924  A
ATOM      6 N14  CHE L   1      -3.436   0.985  -1.248  1.00  0.00    -0.2273 NA
ATOM      7 C15  CHE L   1      -4.184   0.773  -0.180  1.00  0.00    +0.1444  A
ATOM      8 N24  CHE L   1      -3.410   0.364   0.881  1.00  0.00    -0.3377  N
ATOM      9 C25  CHE L   1      -2.102   0.319   0.474  1.00  0.00    +0.0670  A
ATOM     10 C26  CHE L   1      -0.925  -0.000   1.153  1.00  0.00    -0.0328  A
ATOM     11 H42  CHE L   1       1.162   0.384  -1.523  1.00  0.00    +0.0624  H
ATOM     12 H43  CHE L   1      -1.922   0.968  -3.523  1.00  0.00    +0.0278  H
ATOM     13 H44  CHE L   1      -0.295   0.292  -3.620  1.00  0.00    +0.0278  H
ATOM     14 H45  CHE L   1      -0.515   2.019  -3.242  1.00  0.00    +0.0278  H
ATOM     15 H52  CHE L   1      -3.754   0.162   1.811  1.00  0.00    +0.1674 HD
ATOM     16 H53  CHE L   1      -0.946  -0.261   2.208  1.00  0.00    +0.0642  H
ENDROOT
BRANCH 1 20
ATOM     17  N5  CHE L   1       4.207  -0.546  -0.215  1.00  0.00    -0.3011 NA
ATOM     18  C6  CHE L   1       3.169  -1.568  -0.389  1.00  0.00    -0.0005  C
ATOM     19  C7  CHE L   1       2.172  -1.638   0.771  1.00  0.00    -0.0333  C
ATOM     20  C8  CHE L   1       1.578  -0.275   1.167  1.00  0.00    -0.0135  C
ATOM     21 C27  CHE L   1       2.619   0.860   1.133  1.00  0.00    -0.0333  C
ATOM     22 C28  CHE L   1       3.606   0.778  -0.034  1.00  0.00    -0.0005  C
ATOM     23 H37  CHE L   1       3.629  -2.554  -0.536  1.00  0.00    +0.0427  H
ATOM     24 H38  CHE L   1       2.634  -1.369  -1.325  1.00  0.00    +0.0427  H
ATOM     25 H39  CHE L   1       2.690  -2.050   1.646  1.00  0.00    +0.0283  H
ATOM     26 H40  CHE L   1       1.379  -2.354   0.529  1.00  0.00    +0.0283  H
ATOM     27 H41  CHE L   1       1.295  -0.365   2.227  1.00  0.00    +0.0350  H
ATOM     28 H54  CHE L   1       3.198   0.818   2.066  1.00  0.00    +0.0283  H
ATOM     29 H55  CHE L   1       2.125   1.841   1.131  1.00  0.00    +0.0283  H
ATOM     30 H56  CHE L   1       4.374   1.550   0.093  1.00  0.00    +0.0427  H
ATOM     31 H57  CHE L   1       3.107   1.061  -0.967  1.00  0.00    +0.0427  H
BRANCH 17 32
ATOM     32  C4  CHE L   1       5.196  -0.909   0.818  1.00  0.00    +0.0114  C
ATOM     33 H35  CHE L   1       5.583  -1.910   0.585  1.00  0.00    +0.0439  H
ATOM     34 H36  CHE L   1       4.726  -0.987   1.807  1.00  0.00    +0.0439  H
BRANCH 32 35
ATOM     35  C3  CHE L   1       6.423   0.038   0.954  1.00  0.00    +0.0084  C
ATOM     36 H33  CHE L   1       7.151  -0.417   1.637  1.00  0.00    +0.0436  H
ATOM     37 H34  CHE L   1       6.092   0.957   1.448  1.00  0.00    +0.0436  H
BRANCH 35 39
ATOM     38  C1  CHE L   1       7.678  -0.699  -0.993  1.00  0.00    -0.0157  C
ATOM     39  N2  CHE L   1       7.094   0.431  -0.291  1.00  0.00    -0.3178 NA
ATOM     40 H29  CHE L   1       6.913  -1.405  -1.338  1.00  0.00    +0.0388  H
ATOM     41 H30  CHE L   1       8.409  -1.227  -0.367  1.00  0.00    +0.0388  H
ATOM     42 H31  CHE L   1       8.208  -0.336  -1.881  1.00  0.00    +0.0388  H
ATOM     43 H32  CHE L   1       7.820   1.121  -0.089  1.00  0.00    +0.1217 HD
ENDBRANCH 35 39
ENDBRANCH 32 35
ENDBRANCH 17 32
ENDBRANCH 1 20
BRANCH 7 44
ATOM     44 C16  CHE L   1      -5.624   0.943  -0.064  1.00  0.00    +0.0787  A
ATOM     45 C17  CHE L   1      -6.183   2.225  -0.115  1.00  0.00    -0.0445  A
ATOM     46 C18  CHE L   1      -7.556   2.382   0.056  1.00  0.00    -0.0427  A
ATOM     47 C19  CHE L   1      -8.326   1.245   0.267  1.00  0.00    +0.0314  A
ATOM     48 N20  CHE L   1      -7.827  -0.014   0.296  1.00  0.00    -0.2207 NA
ATOM     49 C21  CHE L   1      -6.491  -0.141   0.112  1.00  0.00    +0.2254  A
ATOM     50 H46  CHE L   1      -5.551   3.097  -0.280  1.00  0.00    +0.0627  H
ATOM     51 H47  CHE L   1      -8.010   3.371   0.037  1.00  0.00    +0.0633  H
ATOM     52 H48  CHE L   1      -9.400   1.320   0.414  1.00  0.00    +0.0831  H
BRANCH 49 53
ATOM     53 O22  CHE L   1      -5.943  -1.414   0.079  1.00  0.00    -0.4792 OA
ATOM     54 C23  CHE L   1      -6.909  -2.447  -0.061  1.00  0.00    +0.0804  C
ATOM     55 H49  CHE L   1      -6.374  -3.375  -0.302  1.00  0.00    +0.0660  H
ATOM     56 H50  CHE L   1      -7.597  -2.248  -0.890  1.00  0.00    +0.0660  H
ATOM     57 H51  CHE L   1      -7.455  -2.596   0.878  1.00  0.00    +0.0660  H
ENDBRANCH 49 53
ENDBRANCH 7 44
TORSDOF 6
