ROOT
ATOM      1 C14  CHE L   1       5.091   0.159   1.249  1.00  0.00    +0.0389  A
ATOM      2 C15  CHE L   1       5.964   0.753   0.403  1.00  0.00    -0.0388  A
ATOM      3 C16  CHE L   1       5.864   2.167  -0.102  1.00  0.00    -0.0392  C
ATOM      4 C17  CHE L   1       7.111   0.011  -0.104  1.00  0.00    -0.0393  A
ATOM      5 C18  CHE L   1       7.330  -1.261   0.258  1.00  0.00    +0.0162  A
ATOM      6 C19  CHE L   1       8.490  -2.076  -0.222  1.00  0.00    -0.0244  C
ATOM      7 N20  CHE L   1       6.449  -1.871   1.116  1.00  0.00    -0.3262  N
ATOM      8 C21  CHE L   1       5.333  -1.270   1.638  1.00  0.00    +0.2540  A
ATOM      9 O22  CHE L   1       4.565  -1.882   2.377  1.00  0.00    -0.2675 OA
ATOM     10 H43  CHE L   1       6.728   2.750   0.233  1.00  0.00    +0.0278  H
ATOM     11 H44  CHE L   1       4.968   2.691   0.234  1.00  0.00    +0.0278  H
ATOM     12 H45  CHE L   1       5.845   2.179  -1.198  1.00  0.00    +0.0278  H
ATOM     13 H46  CHE L   1       7.789   0.517  -0.786  1.00  0.00    +0.0637  H
ATOM     14 H47  CHE L   1       9.133  -1.508  -0.903  1.00  0.00    +0.0292  H
ATOM     15 H48  CHE L   1       9.104  -2.402   0.624  1.00  0.00    +0.0292  H
ATOM     16 H49  CHE L   1       8.138  -2.964  -0.758  1.00  0.00    +0.0292  H
ATOM     17 H50  CHE L   1       6.592  -2.835   1.391  1.00  0.00    +0.1686 HD
ENDROOT
BRANCH 1 18
ATOM     18 C13  CHE L   1       3.889   0.784   1.893  1.00  0.00    +0.0491  C
ATOM     19 H41  CHE L   1       3.895   1.876   1.839  1.00  0.00    +0.0538  H
ATOM     20 H42  CHE L   1       3.841   0.529   2.957  1.00  0.00    +0.0538  H
BRANCH 18 23
ATOM     21 C10  CHE L   1       2.022   0.944   0.278  1.00  0.00    +0.2527  C
ATOM     22 O11  CHE L   1       2.311   2.069  -0.108  1.00  0.00    -0.2676 OA
ATOM     23 N12  CHE L   1       2.694   0.265   1.265  1.00  0.00    -0.3478  N
ATOM     24 H40  CHE L   1       2.410  -0.669   1.535  1.00  0.00    +0.1630 HD
BRANCH 21 30
ATOM     25  C4  CHE L   1      -1.429   0.065  -1.074  1.00  0.00    +0.0432  A
ATOM     26  C5  CHE L   1      -1.167  -1.237  -1.541  1.00  0.00    -0.0198  A
ATOM     27  C6  CHE L   1       0.099  -1.801  -1.405  1.00  0.00    +0.0437  A
ATOM     28 CL7  CHE L   1       0.393  -3.390  -1.997  1.00  0.00    -0.0835 Cl
ATOM     29  C8  CHE L   1       1.129  -1.088  -0.807  1.00  0.00    -0.0307  A
ATOM     30  C9  CHE L   1       0.884   0.205  -0.326  1.00  0.00    +0.0452  A
ATOM     31 C23  CHE L   1      -0.395   0.794  -0.441  1.00  0.00    -0.0149  A
ATOM     32 C24  CHE L   1      -0.640   2.191   0.073  1.00  0.00    -0.0370  C
ATOM     33 H38  CHE L   1      -1.956  -1.812  -2.015  1.00  0.00    +0.0653  H
ATOM     34 H39  CHE L   1       2.121  -1.525  -0.735  1.00  0.00    +0.0640  H
ATOM     35 H51  CHE L   1      -0.149   2.344   1.040  1.00  0.00    +0.0278  H
ATOM     36 H52  CHE L   1      -0.265   2.926  -0.646  1.00  0.00    +0.0278  H
ATOM     37 H53  CHE L   1      -1.702   2.392   0.245  1.00  0.00    +0.0278  H
BRANCH 25 38
ATOM     38  N3  CHE L   1      -2.713   0.654  -1.223  1.00  0.00    -0.3676  N
BRANCH 38 40
ATOM     39  C1  CHE L   1      -2.178   2.076  -3.198  1.00  0.00    -0.0475  C
ATOM     40  C2  CHE L   1      -3.006   0.916  -2.658  1.00  0.00    +0.0161  C
ATOM     41 H33  CHE L   1      -2.488   2.314  -4.221  1.00  0.00    +0.0247  H
ATOM     42 H34  CHE L   1      -1.111   1.837  -3.223  1.00  0.00    +0.0247  H
ATOM     43 H35  CHE L   1      -2.312   2.973  -2.584  1.00  0.00    +0.0247  H
ATOM     44 H36  CHE L   1      -2.858   0.021  -3.274  1.00  0.00    +0.0485  H
ATOM     45 H37  CHE L   1      -4.057   1.195  -2.783  1.00  0.00    +0.0485  H
ENDBRANCH 38 40
BRANCH 38 46
ATOM     46 C25  CHE L   1      -3.805  -0.051  -0.482  1.00  0.00    +0.0299  C
ATOM     47 C26  CHE L   1      -5.064   0.855  -0.448  1.00  0.00    -0.0322  C
ATOM     48 C27  CHE L   1      -5.877   0.780   0.847  1.00  0.00    -0.0463  C
ATOM     49 C28  CHE L   1      -5.941  -0.630   1.436  1.00  0.00    -0.0177  C
ATOM     50 C31  CHE L   1      -4.529  -1.197   1.674  1.00  0.00    -0.0463  C
ATOM     51 C32  CHE L   1      -3.414  -0.424   0.961  1.00  0.00    -0.0322  C
ATOM     52 H54  CHE L   1      -4.057  -0.975  -1.021  1.00  0.00    +0.0524  H
ATOM     53 H55  CHE L   1      -4.795   1.907  -0.609  1.00  0.00    +0.0285  H
ATOM     54 H56  CHE L   1      -5.713   0.581  -1.290  1.00  0.00    +0.0285  H
ATOM     55 H57  CHE L   1      -6.886   1.171   0.669  1.00  0.00    +0.0269  H
ATOM     56 H58  CHE L   1      -5.423   1.451   1.589  1.00  0.00    +0.0269  H
ATOM     57 H59  CHE L   1      -6.433  -0.571   2.416  1.00  0.00    +0.0323  H
ATOM     58 H63  CHE L   1      -4.313  -1.186   2.750  1.00  0.00    +0.0269  H
ATOM     59 H64  CHE L   1      -4.479  -2.251   1.373  1.00  0.00    +0.0269  H
ATOM     60 H65  CHE L   1      -3.172   0.485   1.527  1.00  0.00    +0.0285  H
ATOM     61 H66  CHE L   1      -2.513  -1.047   0.995  1.00  0.00    +0.0285  H
BRANCH 49 62
ATOM     62 C29  CHE L   1      -6.800  -1.559   0.564  1.00  0.00    +0.0470  C
ATOM     63 O30  CHE L   1      -6.980  -2.818   1.199  1.00  0.00    -0.3947 OA
ATOM     64 H60  CHE L   1      -7.791  -1.126   0.386  1.00  0.00    +0.0560  H
ATOM     65 H61  CHE L   1      -6.335  -1.742  -0.410  1.00  0.00    +0.0560  H
ATOM     66 H62  CHE L   1      -7.433  -2.660   2.045  1.00  0.00    +0.2094 HD
ENDBRANCH 49 62
ENDBRANCH 38 46
ENDBRANCH 25 38
ENDBRANCH 21 30
ENDBRANCH 18 23
ENDBRANCH 1 18
TORSDOF 7
