ROOT
ATOM      1 C10  WH0 L   1       3.079   0.512  -0.236  1.00  0.00    -0.0215  A
ATOM      2 C11  WH0 L   1       1.718   0.122  -0.201  1.00  0.00    -0.0487  A
ATOM      3 C12  WH0 L   1       0.683   0.928  -0.722  1.00  0.00    -0.0131  A
ATOM      4 C36  WH0 L   1       0.983   2.161  -1.301  1.00  0.00    -0.0483  A
ATOM      5 C37  WH0 L   1       2.310   2.552  -1.333  1.00  0.00    -0.0142  A
ATOM      6 C38  WH0 L   1       3.335   1.751  -0.808  1.00  0.00    +0.0487  A
ATOM      7 N39  WH0 L   1       4.537   2.431  -0.973  1.00  0.00    -0.3254  N
ATOM      8 C40  WH0 L   1       4.364   3.661  -1.596  1.00  0.00    +0.2296  C
ATOM      9 O41  WH0 L   1       5.251   4.454  -1.861  1.00  0.00    -0.2725 OA
ATOM     10 C42  WH0 L   1       2.877   3.828  -1.883  1.00  0.00    +0.0535  C
ATOM     11 H50  WH0 L   1       1.452  -0.831   0.261  1.00  0.00    +0.0627  H
ATOM     12 H68  WH0 L   1       0.204   2.800  -1.705  1.00  0.00    +0.0627  H
ATOM     13 H69  WH0 L   1       5.459   2.139  -0.694  1.00  0.00    +0.1686 HD
ATOM     14 H70  WH0 L   1       2.493   4.698  -1.345  1.00  0.00    +0.0410  H
ATOM     15 H71  WH0 L   1       2.714   3.904  -2.960  1.00  0.00    +0.0410  H
ENDROOT
BRANCH 1 16
ATOM     16  C9  WH0 L   1       4.065  -0.443   0.393  1.00  0.00    -0.0082  C
ATOM     17 H48  WH0 L   1       3.908  -0.420   1.480  1.00  0.00    +0.0331  H
ATOM     18 H49  WH0 L   1       3.794  -1.457   0.065  1.00  0.00    +0.0331  H
BRANCH 16 19
ATOM     19  C8  WH0 L   1       5.554  -0.256   0.120  1.00  0.00    +0.0224  C
ATOM     20 H46  WH0 L   1       5.914   0.658   0.602  1.00  0.00    +0.0489  H
ATOM     21 H47  WH0 L   1       5.754  -0.188  -0.955  1.00  0.00    +0.0489  H
BRANCH 19 24
ATOM     22  C5  WH0 L   1       7.702  -1.216   0.839  1.00  0.00    +0.2618  C
ATOM     23  O6  WH0 L   1       8.268  -0.133   0.709  1.00  0.00    -0.2669 OA
ATOM     24  N7  WH0 L   1       6.347  -1.366   0.625  1.00  0.00    -0.3511  N
ATOM     25 H45  WH0 L   1       5.937  -2.292   0.585  1.00  0.00    +0.1627 HD
BRANCH 22 27
ATOM     26  C1  WH0 L   1       9.776  -2.353   1.451  1.00  0.00    -0.0760  C
ATOM     27  C2  WH0 L   1       8.454  -2.451   1.232  1.00  0.00    +0.1085  C
ATOM     28 H43  WH0 L   1      10.375  -3.213   1.740  1.00  0.00    +0.0549  H
ATOM     29 H44  WH0 L   1      10.300  -1.405   1.349  1.00  0.00    +0.0549  H
BRANCH 27 30
ATOM     30  C3  WH0 L   1       7.786  -3.696   1.372  1.00  0.00    +0.1040  C
ATOM     31  N4  WH0 L   1       7.202  -4.694   1.467  1.00  0.00    -0.1907 NA
ENDBRANCH 27 30
ENDBRANCH 22 27
ENDBRANCH 19 24
ENDBRANCH 16 19
ENDBRANCH 1 16
BRANCH 3 32
ATOM     32 C13  WH0 L   1      -0.696   0.496  -0.623  1.00  0.00    +0.0353  A
ATOM     33 C14  WH0 L   1      -1.799   1.043   0.105  1.00  0.00    +0.1015  A
ATOM     34 N22  WH0 L   1      -2.921   0.339  -0.121  1.00  0.00    -0.1627 NA
ATOM     35 N23  WH0 L   1      -2.560  -0.631  -0.996  1.00  0.00    -0.1987  N
ATOM     36 C24  WH0 L   1      -3.447  -1.642  -1.489  1.00  0.00    +0.2282  A
ATOM     37 N32  WH0 L   1      -2.942  -2.588  -2.256  1.00  0.00    -0.2207 NA
ATOM     38 C33  WH0 L   1      -1.608  -2.523  -2.590  1.00  0.00    +0.0334  A
ATOM     39 C34  WH0 L   1      -0.742  -1.589  -2.172  1.00  0.00    -0.0173  A
ATOM     40 C35  WH0 L   1      -1.216  -0.586  -1.299  1.00  0.00    +0.0803  A
ATOM     41 H66  WH0 L   1      -1.265  -3.309  -3.259  1.00  0.00    +0.0831  H
ATOM     42 H67  WH0 L   1       0.295  -1.605  -2.490  1.00  0.00    +0.0654  H
BRANCH 33 43
ATOM     43 C15  WH0 L   1      -1.826   2.200   1.005  1.00  0.00    +0.0029  A
ATOM     44 C16  WH0 L   1      -0.757   2.476   1.871  1.00  0.00    -0.0498  A
ATOM     45 C17  WH0 L   1      -0.798   3.588   2.716  1.00  0.00    -0.0258  A
ATOM     46 C18  WH0 L   1      -1.911   4.421   2.701  1.00  0.00    +0.1234  A
ATOM     47 F19  WH0 L   1      -1.947   5.487   3.512  1.00  0.00    -0.2055  F
ATOM     48 C20  WH0 L   1      -2.987   4.161   1.862  1.00  0.00    -0.0258  A
ATOM     49 C21  WH0 L   1      -2.946   3.049   1.017  1.00  0.00    -0.0498  A
ATOM     50 H51  WH0 L   1       0.112   1.825   1.913  1.00  0.00    +0.0625  H
ATOM     51 H52  WH0 L   1       0.026   3.805   3.388  1.00  0.00    +0.0646  H
ATOM     52 H53  WH0 L   1      -3.850   4.819   1.872  1.00  0.00    +0.0646  H
ATOM     53 H54  WH0 L   1      -3.793   2.846   0.365  1.00  0.00    +0.0625  H
ENDBRANCH 33 43
BRANCH 36 54
ATOM     54 N25  WH0 L   1      -4.808  -1.687  -1.162  1.00  0.00    -0.3402  N
ATOM     55 C26  WH0 L   1      -5.443  -3.006  -1.036  1.00  0.00    +0.0228  C
ATOM     56 C27  WH0 L   1      -6.892  -2.915  -0.564  1.00  0.00    -0.0199  C
ATOM     57 C28  WH0 L   1      -7.072  -2.006   0.663  1.00  0.00    +0.0080  C
ATOM     58 N29  WH0 L   1      -6.879  -2.728   1.924  1.00  0.00    -0.3271 NA
ATOM     59 C30  WH0 L   1      -6.161  -0.767   0.624  1.00  0.00    -0.0199  C
ATOM     60 C31  WH0 L   1      -5.626  -0.537  -0.784  1.00  0.00    +0.0228  C
ATOM     61 H55  WH0 L   1      -5.419  -3.525  -2.002  1.00  0.00    +0.0489  H
ATOM     62 H56  WH0 L   1      -4.871  -3.610  -0.321  1.00  0.00    +0.0489  H
ATOM     63 H57  WH0 L   1      -7.503  -2.514  -1.384  1.00  0.00    +0.0297  H
ATOM     64 H58  WH0 L   1      -7.286  -3.921  -0.373  1.00  0.00    +0.0297  H
ATOM     65 H59  WH0 L   1      -8.115  -1.664   0.662  1.00  0.00    +0.0459  H
ATOM     66 H60  WH0 L   1      -5.907  -3.026   2.012  1.00  0.00    +0.1185 HD
ATOM     67 H61  WH0 L   1      -7.443  -3.577   1.935  1.00  0.00    +0.1185 HD
ATOM     68 H62  WH0 L   1      -5.312  -0.879   1.312  1.00  0.00    +0.0297  H
ATOM     69 H63  WH0 L   1      -6.722   0.112   0.964  1.00  0.00    +0.0297  H
ATOM     70 H64  WH0 L   1      -6.457  -0.439  -1.495  1.00  0.00    +0.0489  H
ATOM     71 H65  WH0 L   1      -5.103   0.418  -0.857  1.00  0.00    +0.0489  H
ENDBRANCH 36 54
ENDBRANCH 3 32
TORSDOF 8
