ROOT
ATOM      1 C10  WH0 L   1       1.883  -0.913  -0.765  1.00  0.00    -0.0071  A
ATOM      2 C11  WH0 L   1       0.838  -1.528  -0.060  1.00  0.00    -0.0136  A
ATOM      3 C12  WH0 L   1      -0.095  -0.772   0.669  1.00  0.00    +0.1265  A
ATOM      4 C13  WH0 L   1       0.048   0.633   0.743  1.00  0.00    +0.0189  A
ATOM      5 C14  WH0 L   1       1.102   1.239   0.032  1.00  0.00    -0.0176  A
ATOM      6 C15  WH0 L   1       1.994   0.475  -0.710  1.00  0.00    +0.1272  A
ATOM      7 F16  WH0 L   1       2.996   1.096  -1.349  1.00  0.00    -0.2052  F
ATOM      8 C17  WH0 L   1      -0.874   1.498   1.594  1.00  0.00    +0.0544  C
ATOM      9 C18  WH0 L   1      -0.128   2.045   2.816  1.00  0.00    -0.0404  C
ATOM     10 N19  WH0 L   1      -1.411   2.623   0.823  1.00  0.00    -0.3630  N
ATOM     11 C20  WH0 L   1      -2.522   2.519   0.022  1.00  0.00    +0.1313  A
ATOM     12 C21  WH0 L   1      -3.008   3.717  -0.751  1.00  0.00    -0.0014  A
ATOM     13 C22  WH0 L   1      -4.128   3.559  -1.478  1.00  0.00    +0.0349  A
ATOM     14 N23  WH0 L   1      -4.772   2.327  -1.519  1.00  0.00    -0.2209  N
ATOM     15 N24  WH0 L   1      -5.898   1.974  -2.190  1.00  0.00    -0.1726 NA
ATOM     16 C25  WH0 L   1      -6.054   0.674  -1.909  1.00  0.00    +0.0643  A
ATOM     17 C26  WH0 L   1      -5.047   0.161  -1.072  1.00  0.00    +0.1027  A
ATOM     18 C27  WH0 L   1      -4.249   1.256  -0.812  1.00  0.00    +0.1699  A
ATOM     19 N28  WH0 L   1      -3.136   1.365  -0.032  1.00  0.00    -0.2104 NA
ATOM     20 C29  WH0 L   1      -4.841  -1.182  -0.555  1.00  0.00    +0.2573  C
ATOM     21 O30  WH0 L   1      -5.671  -2.076  -0.672  1.00  0.00    -0.2674 OA
ATOM     22 N31  WH0 L   1      -3.626  -1.337   0.068  1.00  0.00    -0.3483  N
ATOM     23 C32  WH0 L   1      -3.220  -2.465   0.874  1.00  0.00    +0.0551  C
ATOM     24 C33  WH0 L   1      -1.683  -2.583   0.877  1.00  0.00    +0.1146  C
ATOM     25 C34  WH0 L   1      -1.247  -3.722   1.791  1.00  0.00    -0.0261  C
ATOM     26 O35  WH0 L   1      -1.120  -1.348   1.381  1.00  0.00    -0.4870 OA
ATOM     27 H43  WH0 L   1       0.781  -2.613  -0.076  1.00  0.00    +0.0658  H
ATOM     28 H44  WH0 L   1       1.251   2.315   0.059  1.00  0.00    +0.0651  H
ATOM     29 H45  WH0 L   1      -1.708   0.903   1.983  1.00  0.00    +0.0571  H
ATOM     30 H46  WH0 L   1      -0.805   2.630   3.448  1.00  0.00    +0.0253  H
ATOM     31 H47  WH0 L   1       0.282   1.230   3.422  1.00  0.00    +0.0253  H
ATOM     32 H48  WH0 L   1       0.700   2.703   2.530  1.00  0.00    +0.0253  H
ATOM     33 H49  WH0 L   1      -0.830   3.446   0.757  1.00  0.00    +0.1616 HD
ATOM     34 H50  WH0 L   1      -2.470   4.650  -0.683  1.00  0.00    +0.0669  H
ATOM     35 H51  WH0 L   1      -4.579   4.349  -2.062  1.00  0.00    +0.0832  H
ATOM     36 H52  WH0 L   1      -6.897   0.143  -2.335  1.00  0.00    +0.0856  H
ATOM     37 H53  WH0 L   1      -3.095  -0.478   0.220  1.00  0.00    +0.1628 HD
ATOM     38 H54  WH0 L   1      -3.596  -2.271   1.886  1.00  0.00    +0.0522  H
ATOM     39 H55  WH0 L   1      -3.692  -3.377   0.496  1.00  0.00    +0.0522  H
ATOM     40 H56  WH0 L   1      -1.375  -2.780  -0.157  1.00  0.00    +0.0748  H
ATOM     41 H57  WH0 L   1      -1.556  -3.533   2.825  1.00  0.00    +0.0266  H
ATOM     42 H58  WH0 L   1      -0.156  -3.817   1.805  1.00  0.00    +0.0266  H
ATOM     43 H59  WH0 L   1      -1.674  -4.676   1.466  1.00  0.00    +0.0266  H
ENDROOT
BRANCH 1 44
ATOM     44  C9  WH0 L   1       2.894  -1.739  -1.526  1.00  0.00    -0.0073  C
ATOM     45 H41  WH0 L   1       2.389  -2.617  -1.947  1.00  0.00    +0.0331  H
ATOM     46 H42  WH0 L   1       3.264  -1.166  -2.385  1.00  0.00    +0.0331  H
BRANCH 44 47
ATOM     47  C8  WH0 L   1       4.059  -2.202  -0.643  1.00  0.00    +0.0225  C
ATOM     48 H39  WH0 L   1       4.704  -2.877  -1.217  1.00  0.00    +0.0489  H
ATOM     49 H40  WH0 L   1       3.695  -2.747   0.234  1.00  0.00    +0.0489  H
BRANCH 47 52
ATOM     50  C5  WH0 L   1       5.812  -0.497  -0.951  1.00  0.00    +0.2618  C
ATOM     51  O6  WH0 L   1       6.148  -0.965  -2.035  1.00  0.00    -0.2669 OA
ATOM     52  N7  WH0 L   1       4.863  -1.096  -0.153  1.00  0.00    -0.3511  N
ATOM     53 H38  WH0 L   1       4.536  -0.641   0.691  1.00  0.00    +0.1627 HD
BRANCH 50 55
ATOM     54  C1  WH0 L   1       7.421   1.335  -1.110  1.00  0.00    -0.0760  C
ATOM     55  C2  WH0 L   1       6.410   0.773  -0.426  1.00  0.00    +0.1085  C
ATOM     56 H36  WH0 L   1       7.807   0.885  -2.021  1.00  0.00    +0.0549  H
ATOM     57 H37  WH0 L   1       7.889   2.259  -0.783  1.00  0.00    +0.0549  H
BRANCH 55 58
ATOM     58  C3  WH0 L   1       5.911   1.380   0.756  1.00  0.00    +0.1040  C
ATOM     59  N4  WH0 L   1       5.485   1.852   1.726  1.00  0.00    -0.1907 NA
ENDBRANCH 55 58
ENDBRANCH 50 55
ENDBRANCH 47 52
ENDBRANCH 44 47
ENDBRANCH 1 44
TORSDOF 5
