ROOT
ATOM      1  C1  MCU L   1       6.494  -4.856   0.244  1.00  0.00    -0.0396  C
ATOM      2  C2  MCU L   1       5.503  -3.758  -0.006  1.00  0.00    -0.0482  A
ATOM      3  C3  MCU L   1       5.445  -3.126  -1.256  1.00  0.00    -0.0552  A
ATOM      4  C4  MCU L   1       4.503  -2.116  -1.524  1.00  0.00    -0.0411  A
ATOM      5  C5  MCU L   1       4.504  -1.467  -2.883  1.00  0.00    -0.0391  C
ATOM      6  C6  MCU L   1       3.593  -1.744  -0.516  1.00  0.00    +0.0018  A
ATOM      7  C7  MCU L   1       2.567  -0.709  -0.700  1.00  0.00    -0.0421  A
ATOM      8  C8  MCU L   1       1.691  -0.372   0.267  1.00  0.00    +0.0421  A
ATOM      9 C31  MCU L   1       1.803  -1.048   1.597  1.00  0.00    +0.2543  A
ATOM     10 O32  MCU L   1       1.070  -0.760   2.540  1.00  0.00    -0.2675 OA
ATOM     11 N33  MCU L   1       2.756  -2.018   1.737  1.00  0.00    -0.3218  N
ATOM     12 C34  MCU L   1       3.652  -2.387   0.728  1.00  0.00    +0.0497  A
ATOM     13 C35  MCU L   1       4.590  -3.387   0.985  1.00  0.00    -0.0348  A
ATOM     14 H36  MCU L   1       6.789  -4.884   1.298  1.00  0.00    +0.0278  H
ATOM     15 H37  MCU L   1       6.057  -5.822  -0.027  1.00  0.00    +0.0278  H
ATOM     16 H38  MCU L   1       7.406  -4.702  -0.344  1.00  0.00    +0.0278  H
ATOM     17 H39  MCU L   1       6.147  -3.425  -2.034  1.00  0.00    +0.0623  H
ATOM     18 H40  MCU L   1       4.692  -0.393  -2.791  1.00  0.00    +0.0278  H
ATOM     19 H41  MCU L   1       5.288  -1.881  -3.526  1.00  0.00    +0.0278  H
ATOM     20 H42  MCU L   1       3.546  -1.634  -3.385  1.00  0.00    +0.0278  H
ATOM     21 H43  MCU L   1       2.531  -0.214  -1.663  1.00  0.00    +0.0629  H
ATOM     22 H72  MCU L   1       2.804  -2.461   2.644  1.00  0.00    +0.1689 HD
ATOM     23 H73  MCU L   1       4.616  -3.880   1.953  1.00  0.00    +0.0641  H
ENDROOT
BRANCH 8 24
ATOM     24  C9  MCU L   1       0.610   0.702   0.159  1.00  0.00    +0.1027  C
ATOM     25 H44  MCU L   1       0.404   1.034   1.187  1.00  0.00    +0.0596  H
BRANCH 24 26
ATOM     26 C10  MCU L   1       1.003   2.001  -0.516  1.00  0.00    +0.1733  A
ATOM     27 N11  MCU L   1       1.975   2.216  -1.386  1.00  0.00    -0.1114 NA
ATOM     28 N12  MCU L   1       1.933   3.547  -1.700  1.00  0.00    -0.0230 NA
ATOM     29 N13  MCU L   1       0.957   4.157  -1.049  1.00  0.00    -0.0436 NA
ATOM     30 N14  MCU L   1       0.358   3.200  -0.317  1.00  0.00    -0.2244  N
BRANCH 30 31
ATOM     31 C15  MCU L   1      -0.776   3.498   0.536  1.00  0.00    +0.0564  C
ATOM     32 C16  MCU L   1      -1.709   4.593   0.007  1.00  0.00    -0.0304  C
ATOM     33 C17  MCU L   1      -1.205   5.906   0.608  1.00  0.00    -0.0511  C
ATOM     34 C18  MCU L   1      -0.206   5.534   1.701  1.00  0.00    -0.0511  C
ATOM     35 C19  MCU L   1      -0.356   4.032   1.905  1.00  0.00    -0.0304  C
ATOM     36 H45  MCU L   1      -1.346   2.573   0.649  1.00  0.00    +0.0546  H
ATOM     37 H46  MCU L   1      -2.726   4.408   0.374  1.00  0.00    +0.0286  H
ATOM     38 H47  MCU L   1      -1.763   4.634  -1.086  1.00  0.00    +0.0286  H
ATOM     39 H48  MCU L   1      -0.724   6.530  -0.153  1.00  0.00    +0.0266  H
ATOM     40 H49  MCU L   1      -2.041   6.484   1.018  1.00  0.00    +0.0266  H
ATOM     41 H50  MCU L   1       0.812   5.772   1.371  1.00  0.00    +0.0266  H
ATOM     42 H51  MCU L   1      -0.385   6.090   2.627  1.00  0.00    +0.0266  H
ATOM     43 H52  MCU L   1      -1.154   3.845   2.634  1.00  0.00    +0.0286  H
ATOM     44 H53  MCU L   1       0.563   3.579   2.290  1.00  0.00    +0.0286  H
ENDBRANCH 30 31
ENDBRANCH 24 26
BRANCH 24 45
ATOM     45 N20  MCU L   1      -0.686   0.229  -0.390  1.00  0.00    -0.2884 NA
ATOM     46 C21  MCU L   1      -0.694  -0.112  -1.814  1.00  0.00    -0.0001  C
ATOM     47 C22  MCU L   1      -1.425  -1.417  -2.130  1.00  0.00    -0.0396  C
ATOM     48 C23  MCU L   1      -2.821  -1.455  -1.510  1.00  0.00    -0.0450  C
ATOM     49 C24  MCU L   1      -2.843  -0.980  -0.027  1.00  0.00    -0.0164  C
ATOM     50 C25  MCU L   1      -3.673   0.330   0.110  1.00  0.00    -0.0462  C
ATOM     51 C26  MCU L   1      -5.176   0.134  -0.096  1.00  0.00    -0.0525  C
ATOM     52 C27  MCU L   1      -5.736  -0.950   0.815  1.00  0.00    -0.0530  C
ATOM     53 C28  MCU L   1      -4.974  -2.260   0.656  1.00  0.00    -0.0525  C
ATOM     54 C29  MCU L   1      -3.475  -2.066   0.882  1.00  0.00    -0.0462  C
ATOM     55 C30  MCU L   1      -1.390  -0.725   0.468  1.00  0.00    +0.0055  C
ATOM     56 H54  MCU L   1       0.310  -0.180  -2.243  1.00  0.00    +0.0427  H
ATOM     57 H55  MCU L   1      -1.194   0.707  -2.347  1.00  0.00    +0.0427  H
ATOM     58 H56  MCU L   1      -0.836  -2.268  -1.764  1.00  0.00    +0.0278  H
ATOM     59 H57  MCU L   1      -1.504  -1.542  -3.216  1.00  0.00    +0.0278  H
ATOM     60 H58  MCU L   1      -3.200  -2.480  -1.606  1.00  0.00    +0.0271  H
ATOM     61 H59  MCU L   1      -3.481  -0.834  -2.126  1.00  0.00    +0.0271  H
ATOM     62 H60  MCU L   1      -3.317   1.088  -0.599  1.00  0.00    +0.0271  H
ATOM     63 H61  MCU L   1      -3.521   0.752   1.113  1.00  0.00    +0.0271  H
ATOM     64 H62  MCU L   1      -5.386  -0.122  -1.141  1.00  0.00    +0.0265  H
ATOM     65 H63  MCU L   1      -5.695   1.079   0.102  1.00  0.00    +0.0265  H
ATOM     66 H64  MCU L   1      -6.797  -1.110   0.591  1.00  0.00    +0.0265  H
ATOM     67 H65  MCU L   1      -5.677  -0.617   1.859  1.00  0.00    +0.0265  H
ATOM     68 H66  MCU L   1      -5.157  -2.673  -0.343  1.00  0.00    +0.0265  H
ATOM     69 H67  MCU L   1      -5.358  -2.994   1.374  1.00  0.00    +0.0265  H
ATOM     70 H68  MCU L   1      -3.321  -1.794   1.935  1.00  0.00    +0.0271  H
ATOM     71 H69  MCU L   1      -2.961  -3.025   0.736  1.00  0.00    +0.0271  H
ATOM     72 H70  MCU L   1      -0.845  -1.676   0.525  1.00  0.00    +0.0432  H
ATOM     73 H71  MCU L   1      -1.438  -0.330   1.491  1.00  0.00    +0.0432  H
ENDBRANCH 24 45
ENDBRANCH 8 24
TORSDOF 4
