ROOT
ATOM      1 N14  WH0 L   1      -1.652  -1.304   0.248  1.00  0.00    -0.2839  N
ATOM      2 C15  WH0 L   1      -0.913  -2.501   0.298  1.00  0.00    +0.2395  C
ATOM      3 O16  WH0 L   1       0.282  -2.618   0.564  1.00  0.00    -0.2717 OA
ATOM      4 C17  WH0 L   1      -1.753  -3.728   0.015  1.00  0.00    +0.0758  C
ATOM      5 S18  WH0 L   1      -3.296  -3.146  -0.679  1.00  0.00    -0.1088 SA
ATOM      6 C19  WH0 L   1      -3.088  -1.499   0.098  1.00  0.00    +0.2010  C
ATOM      7 C20  WH0 L   1      -3.871  -1.543   1.462  1.00  0.00    +0.2665  C
ATOM      8 O21  WH0 L   1      -3.585  -2.167   2.473  1.00  0.00    -0.2689 OA
ATOM      9 N22  WH0 L   1      -4.994  -0.726   1.313  1.00  0.00    -0.3228  N
ATOM     10 C23  WH0 L   1      -4.999  -0.094   0.075  1.00  0.00    +0.0486  A
ATOM     11 C24  WH0 L   1      -5.925   0.817  -0.385  1.00  0.00    -0.0379  A
ATOM     12 C25  WH0 L   1      -5.713   1.362  -1.654  1.00  0.00    -0.0598  A
ATOM     13 C26  WH0 L   1      -4.595   0.989  -2.422  1.00  0.00    -0.0613  A
ATOM     14 C27  WH0 L   1      -3.668   0.061  -1.938  1.00  0.00    -0.0531  A
ATOM     15 C28  WH0 L   1      -3.883  -0.478  -0.678  1.00  0.00    +0.0211  A
ATOM     16 H43  WH0 L   1      -1.928  -4.270   0.947  1.00  0.00    +0.0474  H
ATOM     17 H44  WH0 L   1      -1.238  -4.371  -0.703  1.00  0.00    +0.0474  H
ATOM     18 H45  WH0 L   1      -5.674  -0.590   2.047  1.00  0.00    +0.1687 HD
ATOM     19 H46  WH0 L   1      -6.785   1.110   0.207  1.00  0.00    +0.0638  H
ATOM     20 H47  WH0 L   1      -6.420   2.086  -2.055  1.00  0.00    +0.0618  H
ATOM     21 H48  WH0 L   1      -4.451   1.429  -3.407  1.00  0.00    +0.0618  H
ATOM     22 H49  WH0 L   1      -2.808  -0.226  -2.535  1.00  0.00    +0.0622  H
ENDROOT
BRANCH 1 27
ATOM     23  C9  WH0 L   1       0.931   1.436   0.360  1.00  0.00    -0.0454  A
ATOM     24 C10  WH0 L   1       0.203   2.483   0.924  1.00  0.00    -0.0584  A
ATOM     25 C11  WH0 L   1      -1.131   2.289   1.268  1.00  0.00    -0.0596  A
ATOM     26 C12  WH0 L   1      -1.745   1.049   1.055  1.00  0.00    -0.0380  A
ATOM     27 C13  WH0 L   1      -1.045  -0.027   0.494  1.00  0.00    +0.0471  A
ATOM     28 C29  WH0 L   1       0.300   0.196   0.153  1.00  0.00    -0.0348  A
ATOM     29 H40  WH0 L   1       0.669   3.448   1.104  1.00  0.00    +0.0620  H
ATOM     30 H41  WH0 L   1      -1.697   3.102   1.716  1.00  0.00    +0.0618  H
ATOM     31 H42  WH0 L   1      -2.771   0.962   1.389  1.00  0.00    +0.0638  H
ATOM     32 H50  WH0 L   1       0.889  -0.592  -0.311  1.00  0.00    +0.0641  H
BRANCH 23 33
ATOM     33  C8  WH0 L   1       2.388   1.610   0.009  1.00  0.00    -0.0260  C
ATOM     34 H38  WH0 L   1       2.620   0.997  -0.871  1.00  0.00    +0.0314  H
ATOM     35 H39  WH0 L   1       2.572   2.649  -0.291  1.00  0.00    +0.0314  H
BRANCH 33 36
ATOM     36  C7  WH0 L   1       3.291   1.234   1.188  1.00  0.00    -0.0315  C
ATOM     37 H36  WH0 L   1       3.053   0.222   1.540  1.00  0.00    +0.0285  H
ATOM     38 H37  WH0 L   1       3.095   1.914   2.026  1.00  0.00    +0.0285  H
BRANCH 36 39
ATOM     39  C6  WH0 L   1       4.768   1.316   0.822  1.00  0.00    +0.0187  C
ATOM     40 H34  WH0 L   1       5.013   2.297   0.402  1.00  0.00    +0.0486  H
ATOM     41 H35  WH0 L   1       5.381   1.178   1.720  1.00  0.00    +0.0486  H
BRANCH 39 44
ATOM     42  C3  WH0 L   1       6.247   0.412  -0.918  1.00  0.00    +0.2443  C
ATOM     43  O4  WH0 L   1       6.925   1.429  -1.004  1.00  0.00    -0.2683 OA
ATOM     44  N5  WH0 L   1       5.151   0.272  -0.107  1.00  0.00    -0.3525  N
ATOM     45 H33  WH0 L   1       4.823  -0.666   0.083  1.00  0.00    +0.1626 HD
BRANCH 42 47
ATOM     46  C1  WH0 L   1       5.802  -1.784  -2.051  1.00  0.00    -0.0936  C
ATOM     47  C2  WH0 L   1       6.634  -0.802  -1.681  1.00  0.00    -0.0047  C
ATOM     48 H30  WH0 L   1       4.742  -1.778  -1.819  1.00  0.00    +0.0536  H
ATOM     49 H31  WH0 L   1       6.173  -2.619  -2.638  1.00  0.00    +0.0536  H
ATOM     50 H32  WH0 L   1       7.675  -0.816  -1.990  1.00  0.00    +0.0666  H
ENDBRANCH 42 47
ENDBRANCH 39 44
ENDBRANCH 36 39
ENDBRANCH 33 36
ENDBRANCH 23 33
ENDBRANCH 1 27
TORSDOF 6
