ROOT
ATOM      1  C9  CHE L   1      -1.161  -0.072  -0.363  1.00  0.00    +0.0948  A
ATOM      2 C10  CHE L   1      -0.607  -1.224  -0.875  1.00  0.00    +0.0387  A
ATOM      3 N11  CHE L   1       0.746  -1.063  -0.749  1.00  0.00    -0.2902  N
ATOM      4 C12  CHE L   1       1.774  -1.916  -1.099  1.00  0.00    +0.0161  A
ATOM      5 C13  CHE L   1       3.038  -1.527  -0.894  1.00  0.00    -0.0028  A
ATOM      6 C14  CHE L   1       3.252  -0.154  -0.292  1.00  0.00    +0.1348  A
ATOM      7 N20  CHE L   1       2.246   0.626   0.037  1.00  0.00    -0.1947 NA
ATOM      8 C21  CHE L   1       0.976   0.183  -0.186  1.00  0.00    +0.2372  A
ATOM      9 N22  CHE L   1      -0.169   0.791   0.051  1.00  0.00    -0.2102 NA
ATOM     10 H33  CHE L   1      -1.040  -2.109  -1.315  1.00  0.00    +0.0835  H
ATOM     11 H34  CHE L   1       1.508  -2.872  -1.532  1.00  0.00    +0.0815  H
ATOM     12 H35  CHE L   1       3.887  -2.142  -1.149  1.00  0.00    +0.0669  H
ENDROOT
BRANCH 1 16
ATOM     13  C3  CHE L   1      -5.301   1.059  -0.215  1.00  0.00    +0.1375  A
ATOM     14  C4  CHE L   1      -4.953  -0.293  -0.191  1.00  0.00    +0.0235  A
ATOM     15  C5  CHE L   1      -3.604  -0.682  -0.205  1.00  0.00    +0.1328  A
ATOM     16  C8  CHE L   1      -2.575   0.266  -0.293  1.00  0.00    +0.0448  A
ATOM     17 C23  CHE L   1      -2.931   1.622  -0.301  1.00  0.00    -0.0315  A
ATOM     18 C24  CHE L   1      -4.275   2.013  -0.260  1.00  0.00    +0.0603  A
ATOM     19 BR25 CHE L   1      -4.654   3.876  -0.285  1.00  0.00    -0.0465 Br
ATOM     20 H29  CHE L   1      -5.704  -1.073  -0.158  1.00  0.00    +0.0691  H
ATOM     21 H44  CHE L   1      -2.150   2.379  -0.347  1.00  0.00    +0.0637  H
BRANCH 13 23
ATOM     22  C1  CHE L   1      -7.641   0.575  -0.258  1.00  0.00    +0.0788  C
ATOM     23  O2  CHE L   1      -6.588   1.527  -0.187  1.00  0.00    -0.4939 OA
ATOM     24 H26  CHE L   1      -7.643  -0.078   0.620  1.00  0.00    +0.0660  H
ATOM     25 H27  CHE L   1      -7.585  -0.005  -1.184  1.00  0.00    +0.0660  H
ATOM     26 H28  CHE L   1      -8.589   1.122  -0.264  1.00  0.00    +0.0660  H
ENDBRANCH 13 23
BRANCH 15 27
ATOM     27  O6  CHE L   1      -3.333  -2.029  -0.162  1.00  0.00    -0.4943 OA
ATOM     28  C7  CHE L   1      -3.416  -2.505   1.187  1.00  0.00    +0.0788  C
ATOM     29 H30  CHE L   1      -4.465  -2.681   1.458  1.00  0.00    +0.0660  H
ATOM     30 H31  CHE L   1      -2.946  -1.818   1.906  1.00  0.00    +0.0660  H
ATOM     31 H32  CHE L   1      -2.884  -3.461   1.235  1.00  0.00    +0.0660  H
ENDBRANCH 15 27
ENDBRANCH 1 16
BRANCH 6 32
ATOM     32 N15  CHE L   1       4.538   0.313  -0.081  1.00  0.00    -0.3557  N
ATOM     33 C16  CHE L   1       5.776  -0.408  -0.334  1.00  0.00    +0.0200  C
ATOM     34 C17  CHE L   1       6.864   0.493   0.249  1.00  0.00    -0.0337  C
ATOM     35 C18  CHE L   1       6.285   1.885   0.072  1.00  0.00    -0.0337  C
ATOM     36 C19  CHE L   1       4.808   1.673   0.384  1.00  0.00    +0.0200  C
ATOM     37 H36  CHE L   1       5.790  -1.391   0.152  1.00  0.00    +0.0488  H
ATOM     38 H37  CHE L   1       5.919  -0.538  -1.414  1.00  0.00    +0.0488  H
ATOM     39 H38  CHE L   1       7.003   0.276   1.317  1.00  0.00    +0.0283  H
ATOM     40 H39  CHE L   1       7.825   0.366  -0.254  1.00  0.00    +0.0283  H
ATOM     41 H40  CHE L   1       6.752   2.633   0.720  1.00  0.00    +0.0283  H
ATOM     42 H41  CHE L   1       6.405   2.207  -0.970  1.00  0.00    +0.0283  H
ATOM     43 H42  CHE L   1       4.627   1.737   1.461  1.00  0.00    +0.0488  H
ATOM     44 H43  CHE L   1       4.197   2.422  -0.128  1.00  0.00    +0.0488  H
ENDBRANCH 6 32
TORSDOF 4
