ROOT
ATOM      1 C35  WH0 L   1      -1.654   2.699  -0.111  1.00  0.00    -0.0133  A
ATOM      2 C36  WH0 L   1      -2.676   3.132  -0.988  1.00  0.00    -0.0519  A
ATOM      3 C37  WH0 L   1      -3.004   4.486  -1.101  1.00  0.00    -0.0374  A
ATOM      4 C38  WH0 L   1      -2.291   5.372  -0.325  1.00  0.00    +0.0454  A
ATOM      5 C39  WH0 L   1      -1.282   4.965   0.544  1.00  0.00    -0.0145  A
ATOM      6 C40  WH0 L   1      -0.949   3.628   0.665  1.00  0.00    -0.0483  A
ATOM      7 C41  WH0 L   1      -0.703   6.166   1.231  1.00  0.00    +0.0535  C
ATOM      8 C42  WH0 L   1      -1.528   7.309   0.630  1.00  0.00    +0.2296  C
ATOM      9 O43  WH0 L   1      -1.419   8.497   0.887  1.00  0.00    -0.2725 OA
ATOM     10 N44  WH0 L   1      -2.430   6.749  -0.267  1.00  0.00    -0.3256  N
ATOM     11 H70  WH0 L   1      -3.212   2.407  -1.597  1.00  0.00    +0.0624  H
ATOM     12 H71  WH0 L   1      -3.785   4.816  -1.775  1.00  0.00    +0.0638  H
ATOM     13 H72  WH0 L   1      -0.166   3.315   1.348  1.00  0.00    +0.0627  H
ATOM     14 H73  WH0 L   1       0.350   6.302   0.978  1.00  0.00    +0.0410  H
ATOM     15 H74  WH0 L   1      -0.863   6.123   2.310  1.00  0.00    +0.0410  H
ATOM     16 H75  WH0 L   1      -3.086   7.302  -0.798  1.00  0.00    +0.1686 HD
ENDROOT
BRANCH 1 25
ATOM     17 C19  WH0 L   1      -0.112   0.601  -0.358  1.00  0.00    +0.1018  A
ATOM     18 N20  WH0 L   1      -0.224  -0.727  -0.177  1.00  0.00    -0.1627 NA
ATOM     19 N21  WH0 L   1      -1.524  -0.894   0.207  1.00  0.00    -0.1987  N
ATOM     20 C22  WH0 L   1      -2.138  -2.163   0.446  1.00  0.00    +0.2282  A
ATOM     21 N30  WH0 L   1      -3.362  -2.189   0.925  1.00  0.00    -0.2207 NA
ATOM     22 C31  WH0 L   1      -4.010  -0.993   1.134  1.00  0.00    +0.0334  A
ATOM     23 C32  WH0 L   1      -3.504   0.223   0.877  1.00  0.00    -0.0173  A
ATOM     24 C33  WH0 L   1      -2.188   0.303   0.374  1.00  0.00    +0.0803  A
ATOM     25 C34  WH0 L   1      -1.322   1.289  -0.037  1.00  0.00    +0.0353  A
ATOM     26 H68  WH0 L   1      -5.019  -1.080   1.536  1.00  0.00    +0.0831  H
ATOM     27 H69  WH0 L   1      -4.083   1.121   1.065  1.00  0.00    +0.0654  H
BRANCH 17 33
ATOM     28  C9  WH0 L   1       2.178   1.593  -0.027  1.00  0.00    -0.0375  A
ATOM     29 C10  WH0 L   1       3.255   2.302  -0.595  1.00  0.00    -0.0463  A
ATOM     30 C11  WH0 L   1       3.310   2.588  -1.972  1.00  0.00    +0.0551  A
ATOM     31 C16  WH0 L   1       2.261   2.162  -2.792  1.00  0.00    -0.0495  A
ATOM     32 C17  WH0 L   1       1.173   1.483  -2.244  1.00  0.00    -0.0517  A
ATOM     33 C18  WH0 L   1       1.114   1.208  -0.868  1.00  0.00    +0.0059  A
ATOM     34 H55  WH0 L   1       4.071   2.650   0.040  1.00  0.00    +0.0626  H
ATOM     35 H56  WH0 L   1       2.275   2.371  -3.861  1.00  0.00    +0.0623  H
ATOM     36 H57  WH0 L   1       0.355   1.181  -2.895  1.00  0.00    +0.0624  H
BRANCH 28 37
ATOM     37  C8  WH0 L   1       2.178   1.319   1.463  1.00  0.00    -0.0255  C
ATOM     38 H53  WH0 L   1       1.321   0.707   1.759  1.00  0.00    +0.0314  H
ATOM     39 H54  WH0 L   1       2.042   2.279   1.976  1.00  0.00    +0.0314  H
BRANCH 37 40
ATOM     40  C7  WH0 L   1       3.448   0.654   2.012  1.00  0.00    -0.0315  C
ATOM     41 H51  WH0 L   1       3.283   0.435   3.075  1.00  0.00    +0.0285  H
ATOM     42 H52  WH0 L   1       4.282   1.365   1.978  1.00  0.00    +0.0285  H
BRANCH 40 43
ATOM     43  C6  WH0 L   1       3.878  -0.626   1.299  1.00  0.00    +0.0187  C
ATOM     44 H49  WH0 L   1       4.145  -0.432   0.254  1.00  0.00    +0.0486  H
ATOM     45 H50  WH0 L   1       4.783  -1.009   1.787  1.00  0.00    +0.0486  H
BRANCH 43 48
ATOM     46  C3  WH0 L   1       3.217  -2.978   1.316  1.00  0.00    +0.2443  C
ATOM     47  O4  WH0 L   1       4.347  -3.399   1.518  1.00  0.00    -0.2683 OA
ATOM     48  N5  WH0 L   1       2.858  -1.651   1.296  1.00  0.00    -0.3525  N
ATOM     49 H48  WH0 L   1       1.949  -1.416   0.902  1.00  0.00    +0.1626 HD
BRANCH 46 51
ATOM     50  C1  WH0 L   1       2.282  -5.178   0.770  1.00  0.00    -0.0936  C
ATOM     51  C2  WH0 L   1       2.075  -3.883   1.039  1.00  0.00    -0.0047  C
ATOM     52 H45  WH0 L   1       1.452  -5.843   0.560  1.00  0.00    +0.0536  H
ATOM     53 H46  WH0 L   1       3.285  -5.598   0.751  1.00  0.00    +0.0536  H
ATOM     54 H47  WH0 L   1       1.077  -3.465   1.063  1.00  0.00    +0.0666  H
ENDBRANCH 46 51
ENDBRANCH 43 48
ENDBRANCH 40 43
ENDBRANCH 37 40
ENDBRANCH 28 37
BRANCH 30 55
ATOM     55 C12  WH0 L   1       4.472   3.370  -2.535  1.00  0.00    +0.4174  C
ATOM     56 F13  WH0 L   1       4.499   3.405  -3.897  1.00  0.00    -0.1659  F
ATOM     57 F14  WH0 L   1       4.461   4.669  -2.128  1.00  0.00    -0.1659  F
ATOM     58 F15  WH0 L   1       5.677   2.868  -2.150  1.00  0.00    -0.1659  F
ENDBRANCH 30 55
ENDBRANCH 17 33
BRANCH 20 59
ATOM     59 N23  WH0 L   1      -1.445  -3.349   0.179  1.00  0.00    -0.3401  N
ATOM     60 C24  WH0 L   1      -1.860  -4.581   0.870  1.00  0.00    +0.0237  C
ATOM     61 C25  WH0 L   1      -2.991  -5.282   0.120  1.00  0.00    -0.0090  C
ATOM     62 C26  WH0 L   1      -2.628  -5.517  -1.346  1.00  0.00    +0.0585  C
ATOM     63 O27  WH0 L   1      -1.629  -6.532  -1.439  1.00  0.00    -0.3917 OA
ATOM     64 C28  WH0 L   1      -2.100  -4.246  -2.012  1.00  0.00    -0.0090  C
ATOM     65 C29  WH0 L   1      -0.974  -3.614  -1.192  1.00  0.00    +0.0237  C
ATOM     66 H58  WH0 L   1      -0.998  -5.251   0.948  1.00  0.00    +0.0489  H
ATOM     67 H59  WH0 L   1      -2.163  -4.360   1.902  1.00  0.00    +0.0489  H
ATOM     68 H60  WH0 L   1      -3.206  -6.237   0.617  1.00  0.00    +0.0307  H
ATOM     69 H61  WH0 L   1      -3.904  -4.679   0.167  1.00  0.00    +0.0307  H
ATOM     70 H62  WH0 L   1      -3.507  -5.874  -1.895  1.00  0.00    +0.0594  H
ATOM     71 H63  WH0 L   1      -2.028  -7.367  -1.137  1.00  0.00    +0.2098 HD
ATOM     72 H64  WH0 L   1      -1.722  -4.480  -3.015  1.00  0.00    +0.0307  H
ATOM     73 H65  WH0 L   1      -2.919  -3.526  -2.125  1.00  0.00    +0.0307  H
ATOM     74 H66  WH0 L   1      -0.111  -4.289  -1.154  1.00  0.00    +0.0489  H
ATOM     75 H67  WH0 L   1      -0.632  -2.705  -1.694  1.00  0.00    +0.0489  H
ENDBRANCH 20 59
ENDBRANCH 1 25
TORSDOF 9
