ROOT
ATOM      1 C12  215 L   1       2.761   0.302   0.426  1.00  0.00    +0.0632  C
ATOM      2 C13  215 L   1       3.489  -0.704   1.269  1.00  0.00    -0.0501  C
ATOM      3 C14  215 L   1       4.211  -1.617   0.606  1.00  0.00    +0.0284  C
ATOM      4 S15  215 L   1       4.082  -1.386  -1.105  1.00  0.00    +0.1745  S
ATOM      5 O16  215 L   1       3.105  -2.319  -1.629  1.00  0.00    -0.2226 OA
ATOM      6 O17  215 L   1       5.406  -1.258  -1.676  1.00  0.00    -0.2226 OA
ATOM      7 C18  215 L   1       3.332   0.233  -0.991  1.00  0.00    +0.0776  C
ATOM      8 H27  215 L   1       2.902   1.312   0.827  1.00  0.00    +0.0577  H
ATOM      9 H28  215 L   1       3.427  -0.678   2.350  1.00  0.00    +0.0599  H
ATOM     10 H29  215 L   1       4.801  -2.414   1.026  1.00  0.00    +0.0737  H
ATOM     11 H30  215 L   1       4.137   0.965  -1.118  1.00  0.00    +0.0452  H
ATOM     12 H31  215 L   1       2.594   0.350  -1.788  1.00  0.00    +0.0452  H
ENDROOT
BRANCH 1 15
ATOM     13  C9  215 L   1       0.392   0.888   0.078  1.00  0.00    +0.2627  C
ATOM     14 O10  215 L   1       0.733   2.024  -0.250  1.00  0.00    -0.2669 OA
ATOM     15 N11  215 L   1       1.354  -0.022   0.488  1.00  0.00    -0.3444  N
ATOM     16 H26  215 L   1       1.055  -0.985   0.596  1.00  0.00    +0.1633 HD
BRANCH 13 22
ATOM     17  C3  215 L   1      -2.132   1.071  -0.320  1.00  0.00    +0.1397  A
ATOM     18  C4  215 L   1      -3.300   0.253  -0.220  1.00  0.00    -0.0092  A
ATOM     19  C5  215 L   1      -3.016  -1.022   0.221  1.00  0.00    -0.0090  A
ATOM     20  C6  215 L   1      -3.955  -2.156   0.448  1.00  0.00    -0.0333  C
ATOM     21  S7  215 L   1      -1.348  -1.223   0.513  1.00  0.00    -0.0851  S
ATOM     22  C8  215 L   1      -0.982   0.394   0.051  1.00  0.00    +0.1180  A
ATOM     23 H22  215 L   1      -4.308   0.570  -0.458  1.00  0.00    +0.0662  H
ATOM     24 H23  215 L   1      -3.928  -2.480   1.493  1.00  0.00    +0.0283  H
ATOM     25 H24  215 L   1      -4.985  -1.864   0.215  1.00  0.00    +0.0283  H
ATOM     26 H25  215 L   1      -3.697  -3.008  -0.190  1.00  0.00    +0.0283  H
BRANCH 17 28
ATOM     27  C1  215 L   1      -3.285   2.965  -1.097  1.00  0.00    +0.0788  C
ATOM     28  O2  215 L   1      -2.054   2.368  -0.719  1.00  0.00    -0.4938 OA
ATOM     29 H19  215 L   1      -3.984   2.999  -0.255  1.00  0.00    +0.0660  H
ATOM     30 H20  215 L   1      -3.079   3.996  -1.400  1.00  0.00    +0.0660  H
ATOM     31 H21  215 L   1      -3.729   2.448  -1.955  1.00  0.00    +0.0660  H
ENDBRANCH 17 28
ENDBRANCH 13 22
ENDBRANCH 1 15
TORSDOF 3
