ROOT
ATOM      1  C3  CHE L   1      -4.203   0.213   0.965  1.00  0.00    +0.1635  A
ATOM      2  C4  CHE L   1      -3.878   1.356   0.224  1.00  0.00    +0.0099  A
ATOM      3  C5  CHE L   1      -2.736   1.423  -0.563  1.00  0.00    +0.0812  A
ATOM      4  N6  CHE L   1      -2.491   2.555  -1.226  1.00  0.00    -0.2183 NA
ATOM      5  C7  CHE L   1      -1.371   2.588  -1.963  1.00  0.00    +0.2343  A
ATOM      6 N10  CHE L   1      -0.492   1.587  -2.111  1.00  0.00    -0.2010 NA
ATOM      7 C11  CHE L   1      -0.758   0.445  -1.460  1.00  0.00    +0.1394  A
ATOM      8 C21  CHE L   1      -1.889   0.309  -0.629  1.00  0.00    +0.0461  A
ATOM      9 C22  CHE L   1      -2.202  -0.847   0.131  1.00  0.00    -0.0036  A
ATOM     10 C23  CHE L   1      -3.349  -0.900   0.924  1.00  0.00    +0.1623  A
ATOM     11 H29  CHE L   1      -4.514   2.235   0.246  1.00  0.00    +0.0677  H
ATOM     12 H45  CHE L   1      -1.520  -1.690   0.093  1.00  0.00    +0.0663  H
ENDROOT
BRANCH 1 14
ATOM     13  C1  CHE L   1      -6.207   1.197   1.824  1.00  0.00    +0.0790  C
ATOM     14  O2  CHE L   1      -5.317   0.092   1.757  1.00  0.00    -0.4914 OA
ATOM     15 H26  CHE L   1      -5.713   2.076   2.251  1.00  0.00    +0.0660  H
ATOM     16 H27  CHE L   1      -7.031   0.923   2.490  1.00  0.00    +0.0660  H
ATOM     17 H28  CHE L   1      -6.634   1.420   0.841  1.00  0.00    +0.0660  H
ENDBRANCH 1 14
BRANCH 5 18
ATOM     18  C8  CHE L   1      -1.089   3.811  -2.668  1.00  0.00    +0.1400  C
ATOM     19  N9  CHE L   1      -0.863   4.799  -3.240  1.00  0.00    -0.1876 NA
ENDBRANCH 5 18
BRANCH 7 20
ATOM     20 N12  CHE L   1       0.133  -0.638  -1.586  1.00  0.00    -0.3688  N
ATOM     21 H30  CHE L   1      -0.391  -1.457  -1.884  1.00  0.00    +0.1611 HD
BRANCH 20 22
ATOM     22 C13  CHE L   1       1.336  -0.459  -2.404  1.00  0.00    +0.0198  C
ATOM     23 H31  CHE L   1       1.430  -1.350  -3.039  1.00  0.00    +0.0488  H
ATOM     24 H32  CHE L   1       1.276   0.384  -3.102  1.00  0.00    +0.0488  H
BRANCH 22 25
ATOM     25 C14  CHE L   1       2.606  -0.357  -1.547  1.00  0.00    -0.0213  C
ATOM     26 C15  CHE L   1       2.713   0.965  -0.763  1.00  0.00    -0.0357  C
ATOM     27 C16  CHE L   1       3.585   0.848   0.495  1.00  0.00    -0.0011  C
ATOM     28 N17  CHE L   1       4.665  -0.114   0.284  1.00  0.00    -0.3053 NA
ATOM     29 C18  CHE L   1       5.656  -0.056   1.356  1.00  0.00    -0.0128  C
ATOM     30 C19  CHE L   1       4.150  -1.481   0.117  1.00  0.00    -0.0011  C
ATOM     31 C20  CHE L   1       2.791  -1.546  -0.598  1.00  0.00    -0.0357  C
ATOM     32 H33  CHE L   1       3.449  -0.377  -2.254  1.00  0.00    +0.0319  H
ATOM     33 H34  CHE L   1       1.730   1.330  -0.450  1.00  0.00    +0.0281  H
ATOM     34 H35  CHE L   1       3.128   1.730  -1.431  1.00  0.00    +0.0281  H
ATOM     35 H36  CHE L   1       3.987   1.844   0.720  1.00  0.00    +0.0426  H
ATOM     36 H37  CHE L   1       2.968   0.555   1.355  1.00  0.00    +0.0426  H
ATOM     37 H38  CHE L   1       5.221  -0.292   2.334  1.00  0.00    +0.0391  H
ATOM     38 H39  CHE L   1       6.105   0.942   1.411  1.00  0.00    +0.0391  H
ATOM     39 H40  CHE L   1       6.474  -0.759   1.162  1.00  0.00    +0.0391  H
ATOM     40 H41  CHE L   1       4.044  -1.993   1.083  1.00  0.00    +0.0426  H
ATOM     41 H42  CHE L   1       4.885  -2.051  -0.465  1.00  0.00    +0.0426  H
ATOM     42 H43  CHE L   1       1.993  -1.547   0.156  1.00  0.00    +0.0281  H
ATOM     43 H44  CHE L   1       2.714  -2.493  -1.145  1.00  0.00    +0.0281  H
ENDBRANCH 22 25
ENDBRANCH 20 22
ENDBRANCH 7 20
BRANCH 10 44
ATOM     44 O24  CHE L   1      -3.723  -1.980   1.682  1.00  0.00    -0.4914 OA
ATOM     45 C25  CHE L   1      -2.829  -3.081   1.755  1.00  0.00    +0.0790  C
ATOM     46 H46  CHE L   1      -3.262  -3.819   2.437  1.00  0.00    +0.0660  H
ATOM     47 H47  CHE L   1      -2.714  -3.560   0.777  1.00  0.00    +0.0660  H
ATOM     48 H48  CHE L   1      -1.859  -2.779   2.164  1.00  0.00    +0.0660  H
ENDBRANCH 10 44
TORSDOF 6
