ROOT
ATOM      1  C1  MCU L   1       7.943  -0.994  -0.734  1.00  0.00    -0.0394  C
ATOM      2  C2  MCU L   1       6.480  -0.638  -0.705  1.00  0.00    -0.0456  A
ATOM      3  C3  MCU L   1       6.034   0.411  -1.527  1.00  0.00    -0.0579  A
ATOM      4  C4  MCU L   1       4.691   0.787  -1.548  1.00  0.00    -0.0524  A
ATOM      5  C5  MCU L   1       3.770   0.118  -0.746  1.00  0.00    -0.0009  A
ATOM      6  C6  MCU L   1       2.357   0.499  -0.749  1.00  0.00    -0.0424  A
ATOM      7  C7  MCU L   1       1.451  -0.133   0.024  1.00  0.00    +0.0421  A
ATOM      8 C30  MCU L   1       1.904  -1.260   0.898  1.00  0.00    +0.2543  A
ATOM      9 O31  MCU L   1       1.150  -1.911   1.613  1.00  0.00    -0.2675 OA
ATOM     10 N32  MCU L   1       3.238  -1.574   0.870  1.00  0.00    -0.3216  N
ATOM     11 C33  MCU L   1       4.200  -0.928   0.081  1.00  0.00    +0.0524  A
ATOM     12 C34  MCU L   1       5.556  -1.321   0.119  1.00  0.00    -0.0236  A
ATOM     13 C35  MCU L   1       5.986  -2.458   1.011  1.00  0.00    -0.0375  C
ATOM     14 H36  MCU L   1       8.497  -0.370  -1.443  1.00  0.00    +0.0278  H
ATOM     15 H37  MCU L   1       8.076  -2.035  -1.045  1.00  0.00    +0.0278  H
ATOM     16 H38  MCU L   1       8.391  -0.842   0.253  1.00  0.00    +0.0278  H
ATOM     17 H39  MCU L   1       6.737   0.946  -2.163  1.00  0.00    +0.0620  H
ATOM     18 H40  MCU L   1       4.381   1.602  -2.196  1.00  0.00    +0.0624  H
ATOM     19 H41  MCU L   1       2.068   1.317  -1.400  1.00  0.00    +0.0629  H
ATOM     20 H70  MCU L   1       3.494  -2.337   1.479  1.00  0.00    +0.1689 HD
ATOM     21 H71  MCU L   1       7.068  -2.614   1.021  1.00  0.00    +0.0278  H
ATOM     22 H72  MCU L   1       5.524  -3.391   0.674  1.00  0.00    +0.0278  H
ATOM     23 H73  MCU L   1       5.692  -2.257   2.046  1.00  0.00    +0.0278  H
ENDROOT
BRANCH 7 24
ATOM     24  C8  MCU L   1      -0.018   0.275   0.052  1.00  0.00    +0.1027  C
ATOM     25 H42  MCU L   1      -0.164   0.989  -0.770  1.00  0.00    +0.0596  H
BRANCH 24 26
ATOM     26  C9  MCU L   1      -0.346   1.028   1.326  1.00  0.00    +0.1733  A
ATOM     27 N10  MCU L   1      -0.552   0.533   2.534  1.00  0.00    -0.1114 NA
ATOM     28 N11  MCU L   1      -0.858   1.589   3.349  1.00  0.00    -0.0230 NA
ATOM     29 N12  MCU L   1      -0.842   2.726   2.674  1.00  0.00    -0.0436 NA
ATOM     30 N13  MCU L   1      -0.490   2.392   1.420  1.00  0.00    -0.2244  N
BRANCH 30 31
ATOM     31 C14  MCU L   1      -0.393   3.407   0.393  1.00  0.00    +0.0564  C
ATOM     32 C15  MCU L   1      -1.770   3.733  -0.212  1.00  0.00    -0.0304  C
ATOM     33 C16  MCU L   1      -1.803   5.249  -0.343  1.00  0.00    -0.0511  C
ATOM     34 C17  MCU L   1      -0.984   5.723   0.845  1.00  0.00    -0.0511  C
ATOM     35 C18  MCU L   1       0.190   4.753   0.865  1.00  0.00    -0.0304  C
ATOM     36 H43  MCU L   1       0.278   3.020  -0.381  1.00  0.00    +0.0546  H
ATOM     37 H44  MCU L   1      -2.585   3.407   0.444  1.00  0.00    +0.0286  H
ATOM     38 H45  MCU L   1      -1.917   3.242  -1.178  1.00  0.00    +0.0286  H
ATOM     39 H46  MCU L   1      -1.327   5.559  -1.281  1.00  0.00    +0.0266  H
ATOM     40 H47  MCU L   1      -2.821   5.646  -0.330  1.00  0.00    +0.0266  H
ATOM     41 H48  MCU L   1      -1.566   5.634   1.770  1.00  0.00    +0.0266  H
ATOM     42 H49  MCU L   1      -0.659   6.763   0.740  1.00  0.00    +0.0266  H
ATOM     43 H50  MCU L   1       0.681   4.718   1.843  1.00  0.00    +0.0286  H
ATOM     44 H51  MCU L   1       0.940   5.092   0.140  1.00  0.00    +0.0286  H
ENDBRANCH 30 31
ENDBRANCH 24 26
BRANCH 24 45
ATOM     45 N19  MCU L   1      -0.967  -0.821  -0.276  1.00  0.00    -0.2884 NA
ATOM     46 C20  MCU L   1      -0.711  -1.469  -1.569  1.00  0.00    -0.0001  C
ATOM     47 C21  MCU L   1      -1.870  -1.374  -2.556  1.00  0.00    -0.0396  C
ATOM     48 C22  MCU L   1      -3.181  -1.913  -1.985  1.00  0.00    -0.0450  C
ATOM     49 C23  MCU L   1      -3.349  -1.643  -0.465  1.00  0.00    -0.0164  C
ATOM     50 C24  MCU L   1      -3.012  -2.926   0.359  1.00  0.00    -0.0462  C
ATOM     51 C25  MCU L   1      -4.239  -3.793   0.622  1.00  0.00    -0.0525  C
ATOM     52 C26  MCU L   1      -5.280  -3.049   1.459  1.00  0.00    -0.0530  C
ATOM     53 C27  MCU L   1      -5.285  -1.540   1.214  1.00  0.00    -0.0525  C
ATOM     54 C28  MCU L   1      -4.820  -1.206  -0.199  1.00  0.00    -0.0462  C
ATOM     55 C29  MCU L   1      -2.382  -0.497  -0.046  1.00  0.00    +0.0055  C
ATOM     56 H52  MCU L   1      -0.490  -2.526  -1.379  1.00  0.00    +0.0427  H
ATOM     57 H53  MCU L   1       0.179  -1.068  -2.069  1.00  0.00    +0.0427  H
ATOM     58 H54  MCU L   1      -2.008  -0.324  -2.846  1.00  0.00    +0.0278  H
ATOM     59 H55  MCU L   1      -1.623  -1.914  -3.477  1.00  0.00    +0.0278  H
ATOM     60 H56  MCU L   1      -3.251  -2.989  -2.188  1.00  0.00    +0.0271  H
ATOM     61 H57  MCU L   1      -3.995  -1.454  -2.559  1.00  0.00    +0.0271  H
ATOM     62 H58  MCU L   1      -2.582  -2.650   1.331  1.00  0.00    +0.0271  H
ATOM     63 H59  MCU L   1      -2.248  -3.528  -0.146  1.00  0.00    +0.0271  H
ATOM     64 H60  MCU L   1      -3.948  -4.715   1.138  1.00  0.00    +0.0265  H
ATOM     65 H61  MCU L   1      -4.685  -4.099  -0.332  1.00  0.00    +0.0265  H
ATOM     66 H62  MCU L   1      -6.270  -3.465   1.238  1.00  0.00    +0.0265  H
ATOM     67 H63  MCU L   1      -5.104  -3.233   2.525  1.00  0.00    +0.0265  H
ATOM     68 H64  MCU L   1      -4.634  -1.046   1.945  1.00  0.00    +0.0265  H
ATOM     69 H65  MCU L   1      -6.294  -1.147   1.383  1.00  0.00    +0.0265  H
ATOM     70 H66  MCU L   1      -5.499  -1.706  -0.903  1.00  0.00    +0.0271  H
ATOM     71 H67  MCU L   1      -4.937  -0.130  -0.380  1.00  0.00    +0.0271  H
ATOM     72 H68  MCU L   1      -2.552  -0.292   1.017  1.00  0.00    +0.0432  H
ATOM     73 H69  MCU L   1      -2.646   0.421  -0.590  1.00  0.00    +0.0432  H
ENDBRANCH 24 45
ENDBRANCH 7 24
TORSDOF 4
