ROOT
ATOM      1 C12  CHE L   1      -0.118   0.761  -0.630  1.00  0.00    +0.1625  A
ATOM      2 N13  CHE L   1      -0.264  -0.557  -0.839  1.00  0.00    -0.2104 NA
ATOM      3 C14  CHE L   1      -1.510  -1.026  -0.998  1.00  0.00    +0.1346  A
ATOM      4 C22  CHE L   1      -2.630  -0.208  -1.008  1.00  0.00    +0.0175  A
ATOM      5 C23  CHE L   1      -4.007  -0.723  -1.298  1.00  0.00    -0.0342  C
ATOM      6 C24  CHE L   1      -2.381   1.138  -0.755  1.00  0.00    +0.0797  A
ATOM      7 N35  CHE L   1      -1.137   1.630  -0.571  1.00  0.00    -0.2269 NA
ATOM      8 H61  CHE L   1      -3.982  -1.668  -1.850  1.00  0.00    +0.0279  H
ATOM      9 H62  CHE L   1      -4.558  -0.881  -0.366  1.00  0.00    +0.0279  H
ATOM     10 H63  CHE L   1      -4.565  -0.024  -1.930  1.00  0.00    +0.0279  H
ENDROOT
BRANCH 1 15
ATOM     11  C7  CHE L   1       3.690   0.939  -0.385  1.00  0.00    -0.0329  A
ATOM     12  C8  CHE L   1       3.876   2.295  -0.095  1.00  0.00    -0.0573  A
ATOM     13  C9  CHE L   1       2.779   3.146   0.010  1.00  0.00    -0.0608  A
ATOM     14 C10  CHE L   1       1.485   2.647  -0.168  1.00  0.00    -0.0510  A
ATOM     15 C11  CHE L   1       1.251   1.287  -0.447  1.00  0.00    +0.0195  A
ATOM     16 C36  CHE L   1       2.381   0.450  -0.544  1.00  0.00    -0.0466  A
ATOM     17 H48  CHE L   1       4.876   2.697   0.047  1.00  0.00    +0.0621  H
ATOM     18 H49  CHE L   1       2.925   4.200   0.231  1.00  0.00    +0.0618  H
ATOM     19 H50  CHE L   1       0.646   3.336  -0.081  1.00  0.00    +0.0625  H
ATOM     20 H71  CHE L   1       2.245  -0.612  -0.746  1.00  0.00    +0.0628  H
BRANCH 11 21
ATOM     21  C6  CHE L   1       4.871   0.004  -0.499  1.00  0.00    +0.0213  C
ATOM     22 H46  CHE L   1       4.690  -0.688  -1.331  1.00  0.00    +0.0473  H
ATOM     23 H47  CHE L   1       5.760   0.588  -0.762  1.00  0.00    +0.0473  H
BRANCH 21 24
ATOM     24  N5  CHE L   1       5.066  -0.733   0.747  1.00  0.00    -0.3108 NA
ATOM     25 H45  CHE L   1       5.220  -0.071   1.507  1.00  0.00    +0.1223 HD
BRANCH 24 26
ATOM     26  C4  CHE L   1       6.173  -1.690   0.677  1.00  0.00    +0.0087  C
ATOM     27 H43  CHE L   1       6.043  -2.349  -0.190  1.00  0.00    +0.0437  H
ATOM     28 H44  CHE L   1       6.089  -2.332   1.560  1.00  0.00    +0.0437  H
BRANCH 26 29
ATOM     29  C3  CHE L   1       7.580  -1.049   0.653  1.00  0.00    +0.0082  C
ATOM     30 H41  CHE L   1       7.707  -0.375   1.509  1.00  0.00    +0.0436  H
ATOM     31 H42  CHE L   1       7.674  -0.424  -0.242  1.00  0.00    +0.0436  H
BRANCH 29 33
ATOM     32  C1  CHE L   1       8.922  -2.668   1.879  1.00  0.00    -0.0157  C
ATOM     33  N2  CHE L   1       8.682  -2.014   0.600  1.00  0.00    -0.3178 NA
ATOM     34 H37  CHE L   1       8.078  -3.293   2.188  1.00  0.00    +0.0388  H
ATOM     35 H38  CHE L   1       9.799  -3.317   1.793  1.00  0.00    +0.0388  H
ATOM     36 H39  CHE L   1       9.134  -1.936   2.666  1.00  0.00    +0.0388  H
ATOM     37 H40  CHE L   1       8.492  -2.719  -0.114  1.00  0.00    +0.1217 HD
ENDBRANCH 29 33
ENDBRANCH 26 29
ENDBRANCH 24 26
ENDBRANCH 21 24
ENDBRANCH 11 21
ENDBRANCH 1 15
BRANCH 3 38
ATOM     38 N15  CHE L   1      -1.569  -2.414  -1.170  1.00  0.00    -0.3665  N
ATOM     39 H51  CHE L   1      -0.587  -2.675  -1.281  1.00  0.00    +0.1613 HD
BRANCH 38 40
ATOM     40 C16  CHE L   1      -2.133  -3.149  -0.021  1.00  0.00    +0.0326  C
ATOM     41 C17  CHE L   1      -1.211  -3.084   1.209  1.00  0.00    -0.0090  C
ATOM     42 C18  CHE L   1      -1.327  -4.336   2.070  1.00  0.00    +0.0495  C
ATOM     43 O19  CHE L   1      -2.648  -4.860   1.994  1.00  0.00    -0.3796 OA
ATOM     44 C20  CHE L   1      -2.947  -5.408   0.708  1.00  0.00    +0.0495  C
ATOM     45 C21  CHE L   1      -2.344  -4.604  -0.440  1.00  0.00    -0.0090  C
ATOM     46 H52  CHE L   1      -3.117  -2.742   0.247  1.00  0.00    +0.0523  H
ATOM     47 H53  CHE L   1      -0.158  -2.937   0.939  1.00  0.00    +0.0307  H
ATOM     48 H54  CHE L   1      -1.497  -2.207   1.804  1.00  0.00    +0.0307  H
ATOM     49 H55  CHE L   1      -1.110  -4.095   3.116  1.00  0.00    +0.0560  H
ATOM     50 H56  CHE L   1      -0.609  -5.104   1.758  1.00  0.00    +0.0560  H
ATOM     51 H57  CHE L   1      -2.600  -6.447   0.674  1.00  0.00    +0.0560  H
ATOM     52 H58  CHE L   1      -4.038  -5.430   0.620  1.00  0.00    +0.0560  H
ATOM     53 H59  CHE L   1      -1.376  -5.045  -0.720  1.00  0.00    +0.0307  H
ATOM     54 H60  CHE L   1      -2.979  -4.684  -1.331  1.00  0.00    +0.0307  H
ENDBRANCH 38 40
ENDBRANCH 3 38
BRANCH 6 55
ATOM     55 C25  CHE L   1      -3.431   2.167  -0.680  1.00  0.00    +0.0009  A
ATOM     56 C26  CHE L   1      -4.413   2.140   0.325  1.00  0.00    -0.0514  A
ATOM     57 C27  CHE L   1      -5.402   3.126   0.392  1.00  0.00    -0.0430  A
ATOM     58 C28  CHE L   1      -5.403   4.160  -0.546  1.00  0.00    +0.0663  A
ATOM     59 C33  CHE L   1      -4.444   4.207  -1.558  1.00  0.00    -0.0430  A
ATOM     60 C34  CHE L   1      -3.459   3.219  -1.614  1.00  0.00    -0.0514  A
ATOM     61 H64  CHE L   1      -4.408   1.347   1.071  1.00  0.00    +0.0624  H
ATOM     62 H65  CHE L   1      -6.158   3.076   1.172  1.00  0.00    +0.0630  H
ATOM     63 H69  CHE L   1      -4.454   4.998  -2.305  1.00  0.00    +0.0630  H
ATOM     64 H70  CHE L   1      -2.703   3.264  -2.397  1.00  0.00    +0.0624  H
BRANCH 58 65
ATOM     65 S29  CHE L   1      -6.660   5.413  -0.473  1.00  0.00    +0.1763  S
ATOM     66 C30  CHE L   1      -5.901   6.695   0.490  1.00  0.00    +0.0428  C
ATOM     67 O31  CHE L   1      -7.773   4.876   0.287  1.00  0.00    -0.2223 OA
ATOM     68 O32  CHE L   1      -6.855   5.914  -1.821  1.00  0.00    -0.2223 OA
ATOM     69 H66  CHE L   1      -6.613   7.518   0.581  1.00  0.00    +0.0393  H
ATOM     70 H67  CHE L   1      -5.659   6.303   1.480  1.00  0.00    +0.0393  H
ATOM     71 H68  CHE L   1      -5.000   7.040  -0.022  1.00  0.00    +0.0393  H
ENDBRANCH 58 65
ENDBRANCH 6 55
TORSDOF 10
