ROOT
ATOM      1 C14  187 L   1       1.223  -0.220   0.933  1.00  0.00    +0.0216  C
ATOM      2 C15  187 L   1       1.440  -0.120   2.260  1.00  0.00    -0.0457  C
ATOM      3 C16  187 L   1       2.765   0.436   2.464  1.00  0.00    -0.0211  A
ATOM      4 C17  187 L   1       3.435   0.728   3.637  1.00  0.00    -0.0543  A
ATOM      5 C18  187 L   1       4.716   1.281   3.544  1.00  0.00    -0.0612  A
ATOM      6 C19  187 L   1       5.300   1.533   2.290  1.00  0.00    -0.0615  A
ATOM      7 C20  187 L   1       4.613   1.236   1.110  1.00  0.00    -0.0577  A
ATOM      8 C21  187 L   1       3.346   0.689   1.216  1.00  0.00    -0.0357  A
ATOM      9 C22  187 L   1       2.399   0.269   0.131  1.00  0.00    +0.0033  C
ATOM     10 H36  187 L   1       0.755  -0.366   3.057  1.00  0.00    +0.0628  H
ATOM     11 H37  187 L   1       2.985   0.538   4.605  1.00  0.00    +0.0624  H
ATOM     12 H38  187 L   1       5.267   1.521   4.450  1.00  0.00    +0.0618  H
ATOM     13 H39  187 L   1       6.297   1.966   2.240  1.00  0.00    +0.0618  H
ATOM     14 H40  187 L   1       5.065   1.432   0.142  1.00  0.00    +0.0621  H
ATOM     15 H41  187 L   1       2.130   1.122  -0.499  1.00  0.00    +0.0363  H
ATOM     16 H42  187 L   1       2.861  -0.531  -0.453  1.00  0.00    +0.0363  H
ENDROOT
BRANCH 1 22
ATOM     17  C7  187 L   1      -1.570  -1.631  -1.282  1.00  0.00    +0.1111  C
ATOM     18  C8  187 L   1      -1.222  -2.525  -2.473  1.00  0.00    -0.0220  C
ATOM     19  C9  187 L   1      -0.032  -1.813  -3.099  1.00  0.00    -0.0329  C
ATOM     20 C10  187 L   1       0.732  -1.293  -1.890  1.00  0.00    +0.0223  C
ATOM     21 N11  187 L   1      -0.273  -1.075  -0.859  1.00  0.00    -0.3269  N
ATOM     22 C12  187 L   1      -0.099  -0.668   0.441  1.00  0.00    +0.2515  C
ATOM     23 O13  187 L   1      -1.063  -0.647   1.214  1.00  0.00    -0.2677 OA
ATOM     24 H29  187 L   1      -2.018  -2.227  -0.479  1.00  0.00    +0.0623  H
ATOM     25 H30  187 L   1      -0.904  -3.511  -2.113  1.00  0.00    +0.0290  H
ATOM     26 H31  187 L   1      -2.042  -2.673  -3.181  1.00  0.00    +0.0290  H
ATOM     27 H32  187 L   1      -0.378  -0.975  -3.715  1.00  0.00    +0.0283  H
ATOM     28 H33  187 L   1       0.576  -2.468  -3.728  1.00  0.00    +0.0283  H
ATOM     29 H34  187 L   1       1.251  -0.363  -2.129  1.00  0.00    +0.0489  H
ATOM     30 H35  187 L   1       1.445  -2.039  -1.524  1.00  0.00    +0.0489  H
BRANCH 17 32
ATOM     31  O1  187 L   1      -3.014  -0.352  -2.789  1.00  0.00    -0.2710 OA
ATOM     32  C2  187 L   1      -2.570  -0.510  -1.653  1.00  0.00    +0.2438  C
ATOM     33  N3  187 L   1      -2.947   0.271  -0.576  1.00  0.00    -0.3515  N
ATOM     34 H23  187 L   1      -2.483   0.098   0.318  1.00  0.00    +0.1626 HD
BRANCH 33 35
ATOM     35  C4  187 L   1      -3.841   1.374  -0.694  1.00  0.00    +0.0298  C
ATOM     36  C5  187 L   1      -4.555   1.908   0.517  1.00  0.00    -0.0307  C
ATOM     37  C6  187 L   1      -5.324   1.178  -0.544  1.00  0.00    -0.0307  C
ATOM     38 H24  187 L   1      -3.516   2.104  -1.433  1.00  0.00    +0.0522  H
ATOM     39 H25  187 L   1      -4.686   2.982   0.593  1.00  0.00    +0.0286  H
ATOM     40 H26  187 L   1      -4.411   1.409   1.469  1.00  0.00    +0.0286  H
ATOM     41 H27  187 L   1      -5.688   0.182  -0.321  1.00  0.00    +0.0286  H
ATOM     42 H28  187 L   1      -5.969   1.751  -1.199  1.00  0.00    +0.0286  H
ENDBRANCH 33 35
ENDBRANCH 17 32
ENDBRANCH 1 22
TORSDOF 3
