ROOT
ATOM      1  C9  CHE L   1      -2.775  -0.238  -0.487  1.00  0.00    +0.0901  A
ATOM      2 C10  CHE L   1      -2.266  -0.679  -1.690  1.00  0.00    +0.0371  A
ATOM      3 N11  CHE L   1      -0.912  -0.481  -1.610  1.00  0.00    -0.3059  N
ATOM      4 C12  CHE L   1       0.082  -0.757  -2.537  1.00  0.00    +0.0131  A
ATOM      5 C13  CHE L   1       1.360  -0.475  -2.230  1.00  0.00    -0.0218  A
ATOM      6 C14  CHE L   1       1.703   0.123  -0.928  1.00  0.00    +0.0428  A
ATOM      7 C25  CHE L   1       0.698   0.372  -0.051  1.00  0.00    +0.0044  A
ATOM      8 C26  CHE L   1      -0.657   0.072  -0.365  1.00  0.00    +0.1402  A
ATOM      9 N27  CHE L   1      -1.767   0.225   0.329  1.00  0.00    -0.2277 NA
ATOM     10 H38  CHE L   1      -2.729  -1.109  -2.567  1.00  0.00    +0.0835  H
ATOM     11 H39  CHE L   1      -0.217  -1.202  -3.478  1.00  0.00    +0.0814  H
ATOM     12 H40  CHE L   1       2.146  -0.714  -2.936  1.00  0.00    +0.0653  H
ATOM     13 H52  CHE L   1       0.886   0.837   0.909  1.00  0.00    +0.0675  H
ENDROOT
BRANCH 1 17
ATOM     14  C3  CHE L   1      -6.924  -0.125   0.596  1.00  0.00    +0.1387  A
ATOM     15  C4  CHE L   1      -5.956  -0.446   1.554  1.00  0.00    -0.0125  A
ATOM     16  C5  CHE L   1      -4.585  -0.519   1.222  1.00  0.00    -0.0094  A
ATOM     17  C8  CHE L   1      -4.178  -0.238  -0.100  1.00  0.00    +0.0088  A
ATOM     18 C28  CHE L   1      -5.152   0.078  -1.059  1.00  0.00    -0.0303  A
ATOM     19 C29  CHE L   1      -6.506   0.128  -0.716  1.00  0.00    +0.0831  A
ATOM     20 CL30 CHE L   1      -7.639   0.525  -1.963  1.00  0.00    -0.0797 Cl
ATOM     21 H34  CHE L   1      -6.240  -0.649   2.583  1.00  0.00    +0.0658  H
ATOM     22 H53  CHE L   1      -4.861   0.312  -2.081  1.00  0.00    +0.0640  H
BRANCH 14 24
ATOM     23  C1  CHE L   1      -8.698  -0.162   2.195  1.00  0.00    +0.0789  C
ATOM     24  O2  CHE L   1      -8.269  -0.048   0.845  1.00  0.00    -0.4936 OA
ATOM     25 H31  CHE L   1      -8.497  -1.164   2.588  1.00  0.00    +0.0660  H
ATOM     26 H32  CHE L   1      -8.241   0.610   2.824  1.00  0.00    +0.0660  H
ATOM     27 H33  CHE L   1      -9.781  -0.009   2.216  1.00  0.00    +0.0660  H
ENDBRANCH 14 24
BRANCH 16 28
ATOM     28  C6  CHE L   1      -3.608  -0.894   2.311  1.00  0.00    +0.0700  C
ATOM     29  O7  CHE L   1      -2.935   0.261   2.785  1.00  0.00    -0.3904 OA
ATOM     30 H35  CHE L   1      -2.881  -1.635   1.962  1.00  0.00    +0.0607  H
ATOM     31 H36  CHE L   1      -4.127  -1.351   3.161  1.00  0.00    +0.0607  H
ATOM     32 H37  CHE L   1      -2.394   0.560   2.022  1.00  0.00    +0.2098 HD
ENDBRANCH 16 28
ENDBRANCH 1 17
BRANCH 6 33
ATOM     33 N15  CHE L   1       3.044   0.422  -0.644  1.00  0.00    -0.3671  N
ATOM     34 C16  CHE L   1       3.642   0.005   0.659  1.00  0.00    +0.0363  C
ATOM     35 C17  CHE L   1       4.787   0.948   1.081  1.00  0.00    +0.0388  C
ATOM     36 N18  CHE L   1       5.778   1.061   0.007  1.00  0.00    -0.3370  N
ATOM     37 C19  CHE L   1       6.943   0.314  -0.054  1.00  0.00    +0.2491  C
ATOM     38 O20  CHE L   1       7.574   0.143  -1.101  1.00  0.00    -0.2705 OA
ATOM     39 C23  CHE L   1       5.196   1.546  -1.244  1.00  0.00    +0.0388  C
ATOM     40 C24  CHE L   1       4.065   0.612  -1.715  1.00  0.00    +0.0363  C
ATOM     41 H41  CHE L   1       4.023  -1.018   0.551  1.00  0.00    +0.0505  H
ATOM     42 H42  CHE L   1       2.897  -0.009   1.461  1.00  0.00    +0.0505  H
ATOM     43 H43  CHE L   1       4.394   1.954   1.268  1.00  0.00    +0.0506  H
ATOM     44 H44  CHE L   1       5.241   0.593   2.009  1.00  0.00    +0.0506  H
ATOM     45 H48  CHE L   1       4.799   2.550  -1.052  1.00  0.00    +0.0506  H
ATOM     46 H49  CHE L   1       5.958   1.636  -2.025  1.00  0.00    +0.0506  H
ATOM     47 H50  CHE L   1       4.475  -0.367  -1.994  1.00  0.00    +0.0505  H
ATOM     48 H51  CHE L   1       3.609   1.063  -2.603  1.00  0.00    +0.0505  H
BRANCH 37 49
ATOM     49 C21  CHE L   1       7.470  -0.301   1.248  1.00  0.00    +0.1225  C
ATOM     50 O22  CHE L   1       8.724  -0.946   1.061  1.00  0.00    -0.3856 OA
ATOM     51 H45  CHE L   1       6.763  -1.053   1.607  1.00  0.00    +0.0656  H
ATOM     52 H46  CHE L   1       7.601   0.484   1.997  1.00  0.00    +0.0656  H
ATOM     53 H47  CHE L   1       8.937  -0.846   0.110  1.00  0.00    +0.2101 HD
ENDBRANCH 37 49
ENDBRANCH 6 33
TORSDOF 5
