ROOT
ATOM      1 C10  WH0 L   1       3.803  -0.058   1.237  1.00  0.00    +0.0850  C
ATOM      2 C11  WH0 L   1       2.300  -0.328   1.425  1.00  0.00    -0.0176  C
ATOM      3 C12  WH0 L   1       1.377   0.939   1.323  1.00  0.00    -0.0132  C
ATOM      4 C13  WH0 L   1       0.887   1.274   2.756  1.00  0.00    -0.0583  C
ATOM      5 C14  WH0 L   1       2.163   2.135   0.732  1.00  0.00    +0.0299  C
ATOM      6 C15  WH0 L   1       3.430   2.463   1.548  1.00  0.00    -0.0141  C
ATOM      7 C16  WH0 L   1       4.257   1.233   1.932  1.00  0.00    +0.0820  C
ATOM      8 O17  WH0 L   1       4.187   1.051   3.352  1.00  0.00    -0.3892 OA
ATOM      9 C18  WH0 L   1       2.508   1.879  -0.736  1.00  0.00    +0.1598  C
ATOM     10 O19  WH0 L   1       3.555   2.260  -1.255  1.00  0.00    -0.2924 OA
ATOM     11 C20  WH0 L   1       1.531   1.149  -1.573  1.00  0.00    -0.0167  C
ATOM     12 C21  WH0 L   1       0.425   0.578  -1.063  1.00  0.00    -0.0310  C
ATOM     13 C22  WH0 L   1       0.128   0.616   0.420  1.00  0.00    -0.0107  C
ATOM     14 C23  WH0 L   1      -1.090   1.546   0.624  1.00  0.00    -0.0453  C
ATOM     15 C24  WH0 L   1      -2.127   1.525  -0.517  1.00  0.00    -0.0439  C
ATOM     16 C25  WH0 L   1      -2.135   0.248  -1.399  1.00  0.00    +0.0038  C
ATOM     17 C26  WH0 L   1      -3.137   0.494  -2.545  1.00  0.00    -0.0564  C
ATOM     18 C27  WH0 L   1      -2.453  -1.050  -0.560  1.00  0.00    -0.0277  C
ATOM     19 C38  WH0 L   1      -1.453  -2.127  -1.039  1.00  0.00    -0.0464  C
ATOM     20 C39  WH0 L   1      -0.607  -1.512  -2.140  1.00  0.00    -0.0193  C
ATOM     21 C40  WH0 L   1      -0.682   0.008  -1.959  1.00  0.00    +0.0933  C
ATOM     22 O41  WH0 L   1      -0.506   0.622  -3.240  1.00  0.00    -0.3837 OA
ATOM     23 H52  WH0 L   1       4.012   0.017   0.166  1.00  0.00    +0.0622  H
ATOM     24 H53  WH0 L   1       2.137  -0.839   2.384  1.00  0.00    +0.0297  H
ATOM     25 H54  WH0 L   1       2.016  -1.082   0.679  1.00  0.00    +0.0297  H
ATOM     26 H55  WH0 L   1       0.382   2.245   2.796  1.00  0.00    +0.0235  H
ATOM     27 H56  WH0 L   1       0.187   0.511   3.116  1.00  0.00    +0.0235  H
ATOM     28 H57  WH0 L   1       1.707   1.316   3.477  1.00  0.00    +0.0235  H
ATOM     29 H58  WH0 L   1       1.535   3.035   0.728  1.00  0.00    +0.0387  H
ATOM     30 H59  WH0 L   1       3.142   3.019   2.449  1.00  0.00    +0.0298  H
ATOM     31 H60  WH0 L   1       4.066   3.151   0.978  1.00  0.00    +0.0298  H
ATOM     32 H61  WH0 L   1       5.316   1.417   1.715  1.00  0.00    +0.0619  H
ATOM     33 H62  WH0 L   1       4.548   0.155   3.512  1.00  0.00    +0.2099 HD
ATOM     34 H63  WH0 L   1       1.742   1.159  -2.637  1.00  0.00    +0.0653  H
ATOM     35 H64  WH0 L   1      -0.171  -0.391   0.725  1.00  0.00    +0.0352  H
ATOM     36 H65  WH0 L   1      -0.770   2.585   0.762  1.00  0.00    +0.0271  H
ATOM     37 H66  WH0 L   1      -1.598   1.262   1.555  1.00  0.00    +0.0271  H
ATOM     38 H67  WH0 L   1      -3.121   1.715  -0.094  1.00  0.00    +0.0272  H
ATOM     39 H68  WH0 L   1      -1.917   2.391  -1.162  1.00  0.00    +0.0272  H
ATOM     40 H69  WH0 L   1      -4.146   0.688  -2.174  1.00  0.00    +0.0236  H
ATOM     41 H70  WH0 L   1      -3.174  -0.351  -3.238  1.00  0.00    +0.0236  H
ATOM     42 H71  WH0 L   1      -2.864   1.380  -3.130  1.00  0.00    +0.0236  H
ATOM     43 H72  WH0 L   1      -2.157  -0.851   0.475  1.00  0.00    +0.0310  H
ATOM     44 H90  WH0 L   1      -1.931  -3.047  -1.388  1.00  0.00    +0.0269  H
ATOM     45 H91  WH0 L   1      -0.808  -2.426  -0.203  1.00  0.00    +0.0269  H
ATOM     46 H92  WH0 L   1      -1.018  -1.808  -3.113  1.00  0.00    +0.0296  H
ATOM     47 H93  WH0 L   1       0.422  -1.889  -2.117  1.00  0.00    +0.0296  H
ATOM     48 H94  WH0 L   1      -1.046   0.153  -3.896  1.00  0.00    +0.2106 HD
ENDROOT
BRANCH 1 49
ATOM     49  O9  WH0 L   1       4.540  -1.157   1.803  1.00  0.00    -0.3739 OA
BRANCH 49 50
ATOM     50  C8  WH0 L   1       5.275  -1.916   0.839  1.00  0.00    +0.0497  C
ATOM     51 H50  WH0 L   1       4.617  -2.194   0.008  1.00  0.00    +0.0560  H
ATOM     52 H51  WH0 L   1       5.583  -2.844   1.333  1.00  0.00    +0.0560  H
BRANCH 50 53
ATOM     53  C7  WH0 L   1       6.513  -1.163   0.360  1.00  0.00    -0.0119  C
ATOM     54 H48  WH0 L   1       6.235  -0.185  -0.051  1.00  0.00    +0.0304  H
ATOM     55 H49  WH0 L   1       7.162  -0.941   1.217  1.00  0.00    +0.0304  H
BRANCH 53 56
ATOM     56  C6  WH0 L   1       7.271  -1.954  -0.699  1.00  0.00    +0.0204  C
ATOM     57 H46  WH0 L   1       6.617  -2.193  -1.543  1.00  0.00    +0.0487  H
ATOM     58 H47  WH0 L   1       7.647  -2.895  -0.280  1.00  0.00    +0.0487  H
BRANCH 56 61
ATOM     59  C3  WH0 L   1       9.611  -1.185  -0.626  1.00  0.00    +0.2443  C
ATOM     60  O4  WH0 L   1       9.911  -1.884   0.332  1.00  0.00    -0.2683 OA
ATOM     61  N5  WH0 L   1       8.378  -1.185  -1.232  1.00  0.00    -0.3524  N
ATOM     62 H45  WH0 L   1       8.179  -0.515  -1.963  1.00  0.00    +0.1626 HD
BRANCH 59 64
ATOM     63  C1  WH0 L   1      11.772  -0.022  -0.725  1.00  0.00    -0.0936  C
ATOM     64  C2  WH0 L   1      10.557  -0.227  -1.253  1.00  0.00    -0.0047  C
ATOM     65 H42  WH0 L   1      12.099  -0.549   0.169  1.00  0.00    +0.0536  H
ATOM     66 H43  WH0 L   1      12.465   0.681  -1.175  1.00  0.00    +0.0536  H
ATOM     67 H44  WH0 L   1      10.244   0.308  -2.140  1.00  0.00    +0.0666  H
ENDBRANCH 59 64
ENDBRANCH 56 61
ENDBRANCH 53 56
ENDBRANCH 50 53
ENDBRANCH 49 50
ENDBRANCH 1 49
BRANCH 18 68
ATOM     68 C28  WH0 L   1      -3.908  -1.609  -0.404  1.00  0.00    -0.0144  C
ATOM     69 C29  WH0 L   1      -4.555  -2.129  -1.695  1.00  0.00    -0.0598  C
ATOM     70 H73  WH0 L   1      -3.785  -2.495   0.240  1.00  0.00    +0.0326  H
ATOM     71 H74  WH0 L   1      -5.095  -1.346  -2.232  1.00  0.00    +0.0233  H
ATOM     72 H75  WH0 L   1      -3.831  -2.576  -2.380  1.00  0.00    +0.0233  H
ATOM     73 H76  WH0 L   1      -5.285  -2.911  -1.458  1.00  0.00    +0.0233  H
BRANCH 68 74
ATOM     74 C30  WH0 L   1      -4.840  -0.641   0.379  1.00  0.00    +0.0582  C
ATOM     75 O31  WH0 L   1      -4.219  -0.332   1.631  1.00  0.00    -0.3915 OA
ATOM     76 H77  WH0 L   1      -4.934   0.291  -0.177  1.00  0.00    +0.0596  H
ATOM     77 H78  WH0 L   1      -4.276  -1.121   2.196  1.00  0.00    +0.2098 HD
BRANCH 74 78
ATOM     78 C32  WH0 L   1      -6.241  -1.222   0.646  1.00  0.00    -0.0240  C
ATOM     79 H79  WH0 L   1      -6.737  -1.493  -0.291  1.00  0.00    +0.0291  H
ATOM     80 H80  WH0 L   1      -6.119  -2.157   1.210  1.00  0.00    +0.0291  H
BRANCH 78 81
ATOM     81 C33  WH0 L   1      -7.175  -0.323   1.479  1.00  0.00    -0.0222  C
ATOM     82 H81  WH0 L   1      -8.004  -0.950   1.831  1.00  0.00    +0.0293  H
ATOM     83 H82  WH0 L   1      -6.636   0.001   2.378  1.00  0.00    +0.0293  H
BRANCH 81 84
ATOM     84 C34  WH0 L   1      -7.774   0.914   0.773  1.00  0.00    +0.0606  C
ATOM     85 C35  WH0 L   1      -8.669   1.676   1.759  1.00  0.00    -0.0363  C
ATOM     86 C36  WH0 L   1      -8.579   0.542  -0.474  1.00  0.00    -0.0363  C
ATOM     87 O37  WH0 L   1      -6.723   1.788   0.370  1.00  0.00    -0.3891 OA
ATOM     88 H83  WH0 L   1      -9.512   1.062   2.095  1.00  0.00    +0.0257  H
ATOM     89 H84  WH0 L   1      -9.068   2.591   1.305  1.00  0.00    +0.0257  H
ATOM     90 H85  WH0 L   1      -8.097   1.994   2.638  1.00  0.00    +0.0257  H
ATOM     91 H86  WH0 L   1      -7.935   0.135  -1.261  1.00  0.00    +0.0257  H
ATOM     92 H87  WH0 L   1      -9.051   1.432  -0.908  1.00  0.00    +0.0257  H
ATOM     93 H88  WH0 L   1      -9.364  -0.185  -0.242  1.00  0.00    +0.0257  H
ATOM     94 H89  WH0 L   1      -7.115   2.625   0.068  1.00  0.00    +0.2101 HD
ENDBRANCH 81 84
ENDBRANCH 78 81
ENDBRANCH 74 78
ENDBRANCH 68 74
ENDBRANCH 18 68
TORSDOF 11
