ROOT
ATOM      1  C4  134 L   1       3.307   0.189  -0.267  1.00  0.00    +0.0621  A
ATOM      2  C5  134 L   1       4.484  -0.246  -0.899  1.00  0.00    -0.0474  A
ATOM      3  C6  134 L   1       4.621  -1.578  -1.289  1.00  0.00    -0.0609  A
ATOM      4  C7  134 L   1       3.597  -2.484  -1.025  1.00  0.00    -0.0598  A
ATOM      5  C8  134 L   1       2.423  -2.056  -0.397  1.00  0.00    -0.0375  A
ATOM      6  C9  134 L   1       2.248  -0.709  -0.047  1.00  0.00    +0.0541  A
ATOM      7 H24  134 L   1       5.314   0.442  -1.045  1.00  0.00    +0.0626  H
ATOM      8 H25  134 L   1       5.536  -1.913  -1.769  1.00  0.00    +0.0618  H
ATOM      9 H26  134 L   1       3.709  -3.527  -1.311  1.00  0.00    +0.0618  H
ATOM     10 H27  134 L   1       1.633  -2.782  -0.223  1.00  0.00    +0.0638  H
ENDROOT
BRANCH 1 12
ATOM     11  N1  134 L   1       3.627   2.570  -0.547  1.00  0.00    -0.3658  N
ATOM     12  C2  134 L   1       3.326   1.551   0.318  1.00  0.00    +0.2515  C
ATOM     13  O3  134 L   1       3.098   1.748   1.504  1.00  0.00    -0.2678 OA
ATOM     14 H22  134 L   1       3.412   3.487  -0.176  1.00  0.00    +0.1589 HD
ATOM     15 H23  134 L   1       3.381   2.435  -1.520  1.00  0.00    +0.1589 HD
ENDBRANCH 1 12
BRANCH 6 16
ATOM     16 N10  134 L   1       0.998  -0.361   0.514  1.00  0.00    -0.3254  N
ATOM     17 C11  134 L   1       0.343   0.833   0.267  1.00  0.00    +0.2263  C
ATOM     18 O12  134 L   1       0.666   1.655  -0.587  1.00  0.00    -0.2729 OA
ATOM     19 H28  134 L   1       0.439  -1.118   0.883  1.00  0.00    +0.1686 HD
BRANCH 17 20
ATOM     20 C13  134 L   1      -0.907   1.024   1.108  1.00  0.00    +0.0421  C
ATOM     21 H29  134 L   1      -1.012   2.103   1.280  1.00  0.00    +0.0371  H
ATOM     22 H30  134 L   1      -0.741   0.576   2.096  1.00  0.00    +0.0371  H
BRANCH 20 23
ATOM     23 C14  134 L   1      -2.177   0.458   0.458  1.00  0.00    +0.0760  C
ATOM     24 C18  134 L   1      -2.220  -1.078   0.426  1.00  0.00    -0.0368  C
ATOM     25 C19  134 L   1      -3.700  -1.426   0.281  1.00  0.00    -0.0520  C
ATOM     26 C20  134 L   1      -4.469  -0.249   0.876  1.00  0.00    -0.0520  C
ATOM     27 C21  134 L   1      -3.414   0.760   1.324  1.00  0.00    -0.0368  C
ATOM     28 H32  134 L   1      -1.852  -1.490   1.375  1.00  0.00    +0.0276  H
ATOM     29 H33  134 L   1      -1.628  -1.531  -0.375  1.00  0.00    +0.0276  H
ATOM     30 H34  134 L   1      -3.963  -1.546  -0.777  1.00  0.00    +0.0266  H
ATOM     31 H35  134 L   1      -3.939  -2.367   0.786  1.00  0.00    +0.0266  H
ATOM     32 H36  134 L   1      -5.124   0.191   0.116  1.00  0.00    +0.0266  H
ATOM     33 H37  134 L   1      -5.101  -0.559   1.714  1.00  0.00    +0.0266  H
ATOM     34 H38  134 L   1      -3.189   0.594   2.386  1.00  0.00    +0.0276  H
ATOM     35 H39  134 L   1      -3.781   1.787   1.226  1.00  0.00    +0.0276  H
BRANCH 23 36
ATOM     36 C15  134 L   1      -2.346   1.101  -0.915  1.00  0.00    +0.3114  C
ATOM     37 O16  134 L   1      -2.839   2.194  -1.143  1.00  0.00    -0.2504 OA
ATOM     38 O17  134 L   1      -1.845   0.364  -1.923  1.00  0.00    -0.4802 OA
ATOM     39 H31  134 L   1      -1.915   0.957  -2.701  1.00  0.00    +0.2951 HD
ENDBRANCH 23 36
ENDBRANCH 20 23
ENDBRANCH 17 20
ENDBRANCH 6 16
TORSDOF 5
