ROOT
ATOM      1  C4  CHE L   1       1.105  -1.099   1.375  1.00  0.00    +0.0338  C
ATOM      2  C5  CHE L   1      -0.024  -0.239   1.978  1.00  0.00    -0.0113  C
ATOM      3  C6  CHE L   1      -1.028   0.304   0.951  1.00  0.00    +0.0425  C
ATOM      4  C7  CHE L   1      -0.346   1.221  -0.077  1.00  0.00    -0.0298  C
ATOM      5  C8  CHE L   1       0.151   0.275  -1.179  1.00  0.00    -0.0298  C
ATOM      6  C9  CHE L   1      -0.339  -1.120  -0.757  1.00  0.00    +0.0425  C
ATOM      7 C10  CHE L   1       0.683  -1.869   0.106  1.00  0.00    -0.0113  C
ATOM      8 N11  CHE L   1      -1.516  -0.775   0.069  1.00  0.00    -0.2946 NA
ATOM      9 H31  CHE L   1       1.403  -1.840   2.128  1.00  0.00    +0.0524  H
ATOM     10 H32  CHE L   1      -0.564  -0.847   2.712  1.00  0.00    +0.0305  H
ATOM     11 H33  CHE L   1       0.397   0.595   2.554  1.00  0.00    +0.0305  H
ATOM     12 H34  CHE L   1      -1.848   0.831   1.446  1.00  0.00    +0.0532  H
ATOM     13 H35  CHE L   1       0.452   1.834   0.351  1.00  0.00    +0.0286  H
ATOM     14 H36  CHE L   1      -1.085   1.908  -0.507  1.00  0.00    +0.0286  H
ATOM     15 H37  CHE L   1       1.234   0.323  -1.325  1.00  0.00    +0.0286  H
ATOM     16 H38  CHE L   1      -0.313   0.562  -2.130  1.00  0.00    +0.0286  H
ATOM     17 H39  CHE L   1      -0.616  -1.707  -1.638  1.00  0.00    +0.0532  H
ATOM     18 H40  CHE L   1       0.245  -2.825   0.417  1.00  0.00    +0.0305  H
ATOM     19 H41  CHE L   1       1.556  -2.124  -0.508  1.00  0.00    +0.0305  H
ENDROOT
BRANCH 1 22
ATOM     20  O1  CHE L   1       3.788  -2.049   1.063  1.00  0.00    -0.2658 OA
ATOM     21  C2  CHE L   1       3.564  -0.843   1.016  1.00  0.00    +0.2739  C
ATOM     22  N3  CHE L   1       2.303  -0.296   1.147  1.00  0.00    -0.3478  N
ATOM     23 H30  CHE L   1       2.255   0.717   1.078  1.00  0.00    +0.1629 HD
BRANCH 21 24
ATOM     24 C22  CHE L   1       4.625   0.145   0.812  1.00  0.00    +0.1701  A
ATOM     25 C23  CHE L   1       6.006  -0.106   0.624  1.00  0.00    +0.0132  A
ATOM     26 C24  CHE L   1       6.569   1.136   0.499  1.00  0.00    +0.1411  A
ATOM     27 O28  CHE L   1       5.597   2.080   0.598  1.00  0.00    -0.3586 OA
ATOM     28 N29  CHE L   1       4.370   1.466   0.787  1.00  0.00    -0.0732 NA
ATOM     29 H54  CHE L   1       6.503  -1.064   0.594  1.00  0.00    +0.0676  H
BRANCH 26 30
ATOM     30 C25  CHE L   1       8.076   1.424   0.287  1.00  0.00    +0.0199  C
ATOM     31 C26  CHE L   1       8.587   1.585  -1.122  1.00  0.00    -0.0426  C
ATOM     32 C27  CHE L   1       8.512   2.777  -0.211  1.00  0.00    -0.0426  C
ATOM     33 H55  CHE L   1       8.732   0.931   1.001  1.00  0.00    +0.0380  H
ATOM     34 H56  CHE L   1       7.881   1.531  -1.944  1.00  0.00    +0.0272  H
ATOM     35 H57  CHE L   1       9.566   1.181  -1.354  1.00  0.00    +0.0272  H
ATOM     36 H58  CHE L   1       9.441   3.182   0.174  1.00  0.00    +0.0272  H
ATOM     37 H59  CHE L   1       7.756   3.529  -0.419  1.00  0.00    +0.0272  H
ENDBRANCH 26 30
ENDBRANCH 21 24
ENDBRANCH 1 22
BRANCH 8 38
ATOM     38 S12  CHE L   1      -2.566  -1.976   0.574  1.00  0.00    +0.2330  S
ATOM     39 O13  CHE L   1      -2.094  -2.493   1.840  1.00  0.00    -0.2053 OA
ATOM     40 O14  CHE L   1      -2.777  -2.873  -0.544  1.00  0.00    -0.2053 OA
BRANCH 38 41
ATOM     41 C15  CHE L   1      -4.089  -1.078   0.874  1.00  0.00    +0.0716  C
ATOM     42 H42  CHE L   1      -4.859  -1.832   1.071  1.00  0.00    +0.0446  H
ATOM     43 H43  CHE L   1      -3.928  -0.520   1.803  1.00  0.00    +0.0446  H
BRANCH 41 44
ATOM     44 C16  CHE L   1      -4.526  -0.125  -0.249  1.00  0.00    -0.0234  C
ATOM     45 C17  CHE L   1      -4.829  -0.865  -1.564  1.00  0.00    -0.0366  C
ATOM     46 C18  CHE L   1      -5.773  -0.064  -2.454  1.00  0.00    -0.0038  C
ATOM     47 N19  CHE L   1      -7.069   0.206  -1.832  1.00  0.00    -0.3160 NA
ATOM     48 C20  CHE L   1      -7.050   0.179  -0.371  1.00  0.00    -0.0038  C
ATOM     49 C21  CHE L   1      -5.740   0.716   0.200  1.00  0.00    -0.0366  C
ATOM     50 H44  CHE L   1      -3.710   0.583  -0.438  1.00  0.00    +0.0312  H
ATOM     51 H45  CHE L   1      -3.895  -1.046  -2.108  1.00  0.00    +0.0280  H
ATOM     52 H46  CHE L   1      -5.275  -1.847  -1.363  1.00  0.00    +0.0280  H
ATOM     53 H47  CHE L   1      -5.930  -0.593  -3.399  1.00  0.00    +0.0424  H
ATOM     54 H48  CHE L   1      -5.304   0.895  -2.711  1.00  0.00    +0.0424  H
ATOM     55 H49  CHE L   1      -7.765  -0.459  -2.170  1.00  0.00    +0.1219 HD
ATOM     56 H50  CHE L   1      -7.213  -0.844  -0.019  1.00  0.00    +0.0424  H
ATOM     57 H51  CHE L   1      -7.886   0.780  -0.001  1.00  0.00    +0.0424  H
ATOM     58 H52  CHE L   1      -5.803   0.772   1.294  1.00  0.00    +0.0280  H
ATOM     59 H53  CHE L   1      -5.602   1.752  -0.145  1.00  0.00    +0.0280  H
ENDBRANCH 41 44
ENDBRANCH 38 41
ENDBRANCH 8 38
TORSDOF 6
