ROOT
ATOM      1 N10  CHE L   1       1.670  -0.619  -1.205  1.00  0.00    -0.2953 NA
ATOM      2 C11  CHE L   1       2.925  -0.893  -1.933  1.00  0.00    +0.0033  C
ATOM      3 C12  CHE L   1       4.106  -0.146  -1.299  1.00  0.00    -0.0146  C
ATOM      4 C13  CHE L   1       4.175  -0.334   0.192  1.00  0.00    -0.0418  A
ATOM      5 C14  CHE L   1       5.341   0.001   0.892  1.00  0.00    -0.0582  A
ATOM      6 C15  CHE L   1       5.383  -0.101   2.283  1.00  0.00    -0.0615  A
ATOM      7 C16  CHE L   1       4.260  -0.538   2.985  1.00  0.00    -0.0614  A
ATOM      8 C17  CHE L   1       3.095  -0.874   2.296  1.00  0.00    -0.0571  A
ATOM      9 C18  CHE L   1       3.036  -0.766   0.896  1.00  0.00    -0.0302  A
ATOM     10 C19  CHE L   1       1.772  -1.174   0.164  1.00  0.00    +0.0244  C
ATOM     11 H33  CHE L   1       3.132  -1.973  -1.955  1.00  0.00    +0.0430  H
ATOM     12 H34  CHE L   1       2.840  -0.553  -2.971  1.00  0.00    +0.0430  H
ATOM     13 H35  CHE L   1       4.006   0.930  -1.501  1.00  0.00    +0.0326  H
ATOM     14 H36  CHE L   1       5.039  -0.491  -1.771  1.00  0.00    +0.0326  H
ATOM     15 H37  CHE L   1       6.218   0.362   0.358  1.00  0.00    +0.0620  H
ATOM     16 H38  CHE L   1       6.290   0.170   2.820  1.00  0.00    +0.0618  H
ATOM     17 H39  CHE L   1       4.290  -0.608   4.068  1.00  0.00    +0.0618  H
ATOM     18 H40  CHE L   1       2.225  -1.214   2.857  1.00  0.00    +0.0621  H
ATOM     19 H41  CHE L   1       0.928  -0.811   0.761  1.00  0.00    +0.0476  H
ATOM     20 H42  CHE L   1       1.739  -2.273   0.143  1.00  0.00    +0.0476  H
ENDROOT
BRANCH 1 21
ATOM     21  C9  CHE L   1       0.528  -1.201  -1.941  1.00  0.00    +0.0270  C
ATOM     22 H31  CHE L   1       0.637  -2.292  -2.004  1.00  0.00    +0.0452  H
ATOM     23 H32  CHE L   1       0.560  -0.814  -2.967  1.00  0.00    +0.0452  H
BRANCH 21 24
ATOM     24  C7  CHE L   1      -0.882  -0.863  -1.390  1.00  0.00    +0.0857  C
ATOM     25  O8  CHE L   1      -1.154  -1.678  -0.242  1.00  0.00    -0.3888 OA
ATOM     26 H29  CHE L   1      -1.611  -1.158  -2.154  1.00  0.00    +0.0624  H
ATOM     27 H30  CHE L   1      -2.089  -1.540   0.001  1.00  0.00    +0.2099 HD
BRANCH 24 28
ATOM     28  C6  CHE L   1      -1.026   0.633  -1.078  1.00  0.00    +0.0505  C
ATOM     29 H27  CHE L   1      -0.639   1.245  -1.902  1.00  0.00    +0.0518  H
ATOM     30 H28  CHE L   1      -0.491   0.919  -0.167  1.00  0.00    +0.0518  H
BRANCH 28 33
ATOM     31  C3  CHE L   1      -4.487   1.689  -1.371  1.00  0.00    +0.0769  A
ATOM     32  C4  CHE L   1      -3.249   1.422  -1.915  1.00  0.00    +0.0232  A
ATOM     33  N5  CHE L   1      -2.424   1.018  -0.895  1.00  0.00    -0.3429  N
ATOM     34 C20  CHE L   1      -3.106   1.035   0.307  1.00  0.00    +0.0504  A
ATOM     35 C21  CHE L   1      -2.689   0.717   1.611  1.00  0.00    -0.0376  A
ATOM     36 C22  CHE L   1      -3.620   0.830   2.646  1.00  0.00    -0.0598  A
ATOM     37 C23  CHE L   1      -4.924   1.242   2.396  1.00  0.00    -0.0610  A
ATOM     38 C24  CHE L   1      -5.332   1.555   1.096  1.00  0.00    -0.0513  A
ATOM     39 C25  CHE L   1      -4.412   1.453   0.030  1.00  0.00    +0.0172  A
ATOM     40 H26  CHE L   1      -2.894   1.479  -2.938  1.00  0.00    +0.0822  H
ATOM     41 H43  CHE L   1      -1.672   0.400   1.823  1.00  0.00    +0.0638  H
ATOM     42 H44  CHE L   1      -3.316   0.602   3.666  1.00  0.00    +0.0618  H
ATOM     43 H45  CHE L   1      -5.631   1.328   3.217  1.00  0.00    +0.0618  H
ATOM     44 H46  CHE L   1      -6.353   1.884   0.917  1.00  0.00    +0.0624  H
BRANCH 31 46
ATOM     45  N1  CHE L   1      -6.564   2.460  -2.715  1.00  0.00    -0.1908 NA
ATOM     46  C2  CHE L   1      -5.631   2.124  -2.111  1.00  0.00    +0.1013  C
ENDBRANCH 31 46
ENDBRANCH 28 33
ENDBRANCH 24 28
ENDBRANCH 21 24
ENDBRANCH 1 21
TORSDOF 5
