ROOT
ATOM      1 C21  WH0 L   1      -1.954  -0.554  -0.874  1.00  0.00    +0.0835  C
ATOM      2 C22  WH0 L   1      -2.715  -0.209   0.454  1.00  0.00    +0.0880  C
ATOM      3 N29  WH0 L   1      -4.053   0.423   0.289  1.00  0.00    -0.2915 NA
ATOM      4 C34  WH0 L   1      -4.843   0.158  -0.932  1.00  0.00    +0.0325  C
ATOM      5 C35  WH0 L   1      -4.001   0.092  -2.202  1.00  0.00    -0.0039  C
ATOM      6 C36  WH0 L   1      -2.853  -0.926  -2.082  1.00  0.00    +0.0873  C
ATOM      7 C37  WH0 L   1      -3.389  -2.372  -1.942  1.00  0.00    -0.0340  C
ATOM      8 O38  WH0 L   1      -2.065  -0.864  -3.252  1.00  0.00    -0.3867 OA
ATOM      9 H52  WH0 L   1      -1.311  -1.443  -0.689  1.00  0.00    +0.0575  H
ATOM     10 H53  WH0 L   1      -2.058   0.511   0.995  1.00  0.00    +0.0602  H
ATOM     11 H62  WH0 L   1      -5.396  -0.795  -0.808  1.00  0.00    +0.0496  H
ATOM     12 H63  WH0 L   1      -5.628   0.932  -1.077  1.00  0.00    +0.0496  H
ATOM     13 H64  WH0 L   1      -3.603   1.100  -2.432  1.00  0.00    +0.0311  H
ATOM     14 H65  WH0 L   1      -4.664  -0.187  -3.051  1.00  0.00    +0.0311  H
ATOM     15 H66  WH0 L   1      -2.551  -3.096  -2.038  1.00  0.00    +0.0258  H
ATOM     16 H67  WH0 L   1      -3.878  -2.546  -0.965  1.00  0.00    +0.0258  H
ATOM     17 H68  WH0 L   1      -4.128  -2.593  -2.741  1.00  0.00    +0.0258  H
ATOM     18 H69  WH0 L   1      -2.639  -1.096  -4.028  1.00  0.00    +0.2102 HD
ENDROOT
BRANCH 1 21
ATOM     19 C18  WH0 L   1       0.341   0.572  -0.946  1.00  0.00    +0.2527  C
ATOM     20 O19  WH0 L   1       0.889  -0.455  -0.467  1.00  0.00    -0.2676 OA
ATOM     21 N20  WH0 L   1      -1.068   0.565  -1.232  1.00  0.00    -0.3442  N
ATOM     22 H51  WH0 L   1      -1.498   1.439  -1.603  1.00  0.00    +0.1631 HD
BRANCH 19 29
ATOM     23 C11  WH0 L   1       2.153   2.282  -0.377  1.00  0.00    -0.0323  A
ATOM     24 C12  WH0 L   1       2.878   3.426  -0.759  1.00  0.00    -0.0225  A
ATOM     25 C13  WH0 L   1       2.640   4.050  -1.984  1.00  0.00    +0.1237  A
ATOM     26 F14  WH0 L   1       3.353   5.149  -2.334  1.00  0.00    -0.2055  F
ATOM     27 C15  WH0 L   1       1.670   3.545  -2.846  1.00  0.00    -0.0257  A
ATOM     28 C16  WH0 L   1       0.934   2.416  -2.488  1.00  0.00    -0.0465  A
ATOM     29 C17  WH0 L   1       1.158   1.768  -1.258  1.00  0.00    +0.0423  A
ATOM     30 H48  WH0 L   1       3.629   3.844  -0.099  1.00  0.00    +0.0649  H
ATOM     31 H49  WH0 L   1       1.490   4.026  -3.799  1.00  0.00    +0.0646  H
ATOM     32 H50  WH0 L   1       0.196   2.036  -3.186  1.00  0.00    +0.0626  H
BRANCH 23 33
ATOM     33 C10  WH0 L   1       2.447   1.686   0.988  1.00  0.00    -0.0253  C
ATOM     34 H46  WH0 L   1       2.433   2.510   1.734  1.00  0.00    +0.0314  H
ATOM     35 H47  WH0 L   1       1.666   0.978   1.326  1.00  0.00    +0.0314  H
BRANCH 33 36
ATOM     36  C9  WH0 L   1       3.832   1.017   1.054  1.00  0.00    -0.0315  C
ATOM     37 H44  WH0 L   1       4.034   0.743   2.112  1.00  0.00    +0.0285  H
ATOM     38 H45  WH0 L   1       4.617   1.741   0.743  1.00  0.00    +0.0285  H
BRANCH 36 39
ATOM     39  C8  WH0 L   1       3.925  -0.241   0.181  1.00  0.00    +0.0187  C
ATOM     40 H42  WH0 L   1       3.219  -1.019   0.543  1.00  0.00    +0.0486  H
ATOM     41 H43  WH0 L   1       3.652   0.016  -0.866  1.00  0.00    +0.0486  H
BRANCH 39 44
ATOM     42  C5  WH0 L   1       5.812  -1.533   1.294  1.00  0.00    +0.2618  C
ATOM     43  O6  WH0 L   1       5.088  -1.737   2.308  1.00  0.00    -0.2669 OA
ATOM     44  N7  WH0 L   1       5.289  -0.770   0.193  1.00  0.00    -0.3514  N
ATOM     45 H41  WH0 L   1       5.869  -0.624  -0.663  1.00  0.00    +0.1626 HD
BRANCH 42 47
ATOM     46  C1  WH0 L   1       7.702  -2.756   2.287  1.00  0.00    -0.0760  C
ATOM     47  C2  WH0 L   1       7.187  -2.094   1.246  1.00  0.00    +0.1085  C
ATOM     48 H39  WH0 L   1       7.141  -2.898   3.202  1.00  0.00    +0.0549  H
ATOM     49 H40  WH0 L   1       8.703  -3.171   2.243  1.00  0.00    +0.0549  H
BRANCH 47 50
ATOM     50  C3  WH0 L   1       7.990  -1.953   0.057  1.00  0.00    +0.1040  C
ATOM     51  N4  WH0 L   1       8.634  -1.839  -0.897  1.00  0.00    -0.1907 NA
ENDBRANCH 47 50
ENDBRANCH 42 47
ENDBRANCH 39 44
ENDBRANCH 36 39
ENDBRANCH 33 36
ENDBRANCH 23 33
ENDBRANCH 19 29
ENDBRANCH 1 21
BRANCH 2 52
ATOM     52 C23  WH0 L   1      -2.783  -1.403   1.397  1.00  0.00    -0.0224  A
ATOM     53 C24  WH0 L   1      -3.991  -2.065   1.702  1.00  0.00    -0.0565  A
ATOM     54 C25  WH0 L   1      -3.999  -3.159   2.574  1.00  0.00    -0.0614  A
ATOM     55 C26  WH0 L   1      -2.813  -3.595   3.165  1.00  0.00    -0.0617  A
ATOM     56 C27  WH0 L   1      -1.613  -2.936   2.891  1.00  0.00    -0.0614  A
ATOM     57 C28  WH0 L   1      -1.597  -1.850   2.013  1.00  0.00    -0.0565  A
ATOM     58 H54  WH0 L   1      -4.931  -1.747   1.278  1.00  0.00    +0.0621  H
ATOM     59 H55  WH0 L   1      -4.928  -3.669   2.794  1.00  0.00    +0.0618  H
ATOM     60 H56  WH0 L   1      -2.823  -4.438   3.842  1.00  0.00    +0.0618  H
ATOM     61 H57  WH0 L   1      -0.694  -3.269   3.356  1.00  0.00    +0.0618  H
ATOM     62 H58  WH0 L   1      -0.656  -1.354   1.813  1.00  0.00    +0.0621  H
ENDBRANCH 2 52
BRANCH 3 63
ATOM     63 S30  WH0 L   1      -4.152   2.073   0.871  1.00  0.00    +0.2299  S
ATOM     64 C31  WH0 L   1      -3.164   3.192  -0.098  1.00  0.00    +0.0573  C
ATOM     65 O32  WH0 L   1      -3.672   2.120   2.296  1.00  0.00    -0.2056 OA
ATOM     66 O33  WH0 L   1      -5.582   2.538   0.838  1.00  0.00    -0.2056 OA
ATOM     67 H59  WH0 L   1      -2.088   2.975   0.058  1.00  0.00    +0.0407  H
ATOM     68 H60  WH0 L   1      -3.363   4.233   0.230  1.00  0.00    +0.0407  H
ATOM     69 H61  WH0 L   1      -3.423   3.097  -1.171  1.00  0.00    +0.0407  H
ENDBRANCH 3 63
TORSDOF 10
