ROOT
ATOM      1  C1  788 L   1      -1.849  -2.401   1.493  1.00  0.00    -0.0203  C
ATOM      2  C2  788 L   1      -2.849  -1.389   1.066  1.00  0.00    +0.0658  A
ATOM      3  N3  788 L   1      -4.109  -1.760   0.829  1.00  0.00    -0.1761 NA
ATOM      4  N4  788 L   1      -4.730  -0.621   0.481  1.00  0.00    -0.2710  N
ATOM      5  C5  788 L   1      -6.140  -0.665   0.171  1.00  0.00    +0.0305  C
ATOM      6  C6  788 L   1      -3.903   0.474   0.468  1.00  0.00    +0.0417  A
ATOM      7  C7  788 L   1      -4.362   1.844   0.121  1.00  0.00    -0.0223  C
ATOM      8  C8  788 L   1      -2.651   0.007   0.848  1.00  0.00    +0.0247  A
ATOM      9 H22  788 L   1      -2.323  -3.361   1.724  1.00  0.00    +0.0293  H
ATOM     10 H23  788 L   1      -1.321  -2.065   2.391  1.00  0.00    +0.0293  H
ATOM     11 H24  788 L   1      -1.113  -2.568   0.701  1.00  0.00    +0.0293  H
ATOM     12 H25  788 L   1      -6.276  -0.344  -0.864  1.00  0.00    +0.0473  H
ATOM     13 H26  788 L   1      -6.511  -1.686   0.292  1.00  0.00    +0.0473  H
ATOM     14 H27  788 L   1      -6.666   0.001   0.860  1.00  0.00    +0.0473  H
ATOM     15 H28  788 L   1      -3.781   2.238  -0.719  1.00  0.00    +0.0292  H
ATOM     16 H29  788 L   1      -4.237   2.515   0.976  1.00  0.00    +0.0292  H
ATOM     17 H30  788 L   1      -5.415   1.877  -0.171  1.00  0.00    +0.0292  H
ENDROOT
BRANCH 8 18
ATOM     18  C9  788 L   1      -1.351   0.745   1.019  1.00  0.00    +0.0910  C
ATOM     19 O10  788 L   1      -1.536   2.175   1.103  1.00  0.00    -0.3715 OA
ATOM     20 C11  788 L   1      -0.860   2.801   0.009  1.00  0.00    +0.0488  C
ATOM     21 C12  788 L   1      -0.573   1.718  -1.004  1.00  0.00    -0.0228  C
ATOM     22 C13  788 L   1      -0.366   0.490  -0.135  1.00  0.00    +0.0042  C
ATOM     23 H31  788 L   1      -0.926   0.435   1.981  1.00  0.00    +0.0650  H
ATOM     24 H32  788 L   1      -1.484   3.601  -0.399  1.00  0.00    +0.0560  H
ATOM     25 H33  788 L   1       0.064   3.247   0.393  1.00  0.00    +0.0560  H
ATOM     26 H34  788 L   1       0.258   1.974  -1.665  1.00  0.00    +0.0291  H
ATOM     27 H35  788 L   1      -1.457   1.567  -1.634  1.00  0.00    +0.0291  H
ATOM     28 H36  788 L   1      -0.606  -0.424  -0.694  1.00  0.00    +0.0342  H
BRANCH 22 29
ATOM     29 C14  788 L   1       1.068   0.352   0.414  1.00  0.00    +0.0017  C
ATOM     30 H37  788 L   1       1.373   1.271   0.928  1.00  0.00    +0.0428  H
ATOM     31 H38  788 L   1       1.070  -0.457   1.154  1.00  0.00    +0.0428  H
BRANCH 29 32
ATOM     32 N15  788 L   1       2.022   0.034  -0.655  1.00  0.00    -0.3127 NA
ATOM     33 H39  788 L   1       1.995   0.764  -1.366  1.00  0.00    +0.1222 HD
BRANCH 32 34
ATOM     34 C16  788 L   1       3.404  -0.098  -0.163  1.00  0.00    +0.0118  C
ATOM     35 C17  788 L   1       4.368  -0.186  -1.347  1.00  0.00    -0.0139  C
ATOM     36 C18  788 L   1       5.814  -0.271  -0.858  1.00  0.00    +0.0491  C
ATOM     37 O19  788 L   1       5.928  -0.767   0.478  1.00  0.00    -0.3797 OA
ATOM     38 C20  788 L   1       5.026  -1.838   0.731  1.00  0.00    +0.0491  C
ATOM     39 C21  788 L   1       3.587  -1.331   0.737  1.00  0.00    -0.0139  C
ATOM     40 H40  788 L   1       3.664   0.805   0.407  1.00  0.00    +0.0462  H
ATOM     41 H41  788 L   1       4.262   0.668  -2.028  1.00  0.00    +0.0302  H
ATOM     42 H42  788 L   1       4.140  -1.081  -1.942  1.00  0.00    +0.0302  H
ATOM     43 H43  788 L   1       6.411  -0.901  -1.527  1.00  0.00    +0.0560  H
ATOM     44 H44  788 L   1       6.268   0.726  -0.863  1.00  0.00    +0.0560  H
ATOM     45 H45  788 L   1       5.167  -2.621  -0.024  1.00  0.00    +0.0560  H
ATOM     46 H46  788 L   1       5.273  -2.278   1.703  1.00  0.00    +0.0560  H
ATOM     47 H47  788 L   1       2.924  -2.155   0.444  1.00  0.00    +0.0302  H
ATOM     48 H48  788 L   1       3.304  -1.061   1.763  1.00  0.00    +0.0302  H
ENDBRANCH 32 34
ENDBRANCH 29 32
ENDBRANCH 22 29
ENDBRANCH 8 18
TORSDOF 4
