ROOT
ATOM      1 C11  913 L   1       0.338  -0.390  -0.684  1.00  0.00    +0.0766  A
ATOM      2 C12  913 L   1       0.886   0.213   0.437  1.00  0.00    -0.0388  A
ATOM      3 C13  913 L   1       2.314   0.157   0.453  1.00  0.00    -0.0364  A
ATOM      4 C14  913 L   1       2.802  -0.478  -0.671  1.00  0.00    -0.0063  A
ATOM      5 S15  913 L   1       1.570  -0.998  -1.717  1.00  0.00    -0.0882  S
ATOM      6 C16  913 L   1       4.250  -0.727  -0.962  1.00  0.00    -0.0211  C
ATOM      7 C17  913 L   1       5.138   0.152  -0.066  1.00  0.00    -0.0483  C
ATOM      8 C18  913 L   1       4.647   0.164   1.389  1.00  0.00    -0.0487  C
ATOM      9 C19  913 L   1       3.221   0.728   1.502  1.00  0.00    -0.0269  C
ATOM     10 H26  913 L   1       0.304   0.693   1.213  1.00  0.00    +0.0633  H
ATOM     11 H27  913 L   1       4.482  -0.525  -2.014  1.00  0.00    +0.0318  H
ATOM     12 H28  913 L   1       4.474  -1.783  -0.769  1.00  0.00    +0.0318  H
ATOM     13 H29  913 L   1       5.142   1.181  -0.450  1.00  0.00    +0.0269  H
ATOM     14 H30  913 L   1       6.171  -0.209  -0.110  1.00  0.00    +0.0269  H
ATOM     15 H31  913 L   1       5.325   0.760   2.009  1.00  0.00    +0.0268  H
ATOM     16 H32  913 L   1       4.669  -0.861   1.783  1.00  0.00    +0.0268  H
ATOM     17 H33  913 L   1       3.251   1.817   1.380  1.00  0.00    +0.0313  H
ATOM     18 H34  913 L   1       2.823   0.520   2.502  1.00  0.00    +0.0313  H
ENDROOT
BRANCH 1 20
ATOM     19  O1  913 L   1      -1.428  -0.876  -2.207  1.00  0.00    -0.2670 OA
ATOM     20  C2  913 L   1      -1.054  -0.554  -1.081  1.00  0.00    +0.2591  C
ATOM     21  N3  913 L   1      -1.983  -0.331  -0.076  1.00  0.00    -0.3445  N
ATOM     22 H20  913 L   1      -1.645  -0.264   0.873  1.00  0.00    +0.1632 HD
BRANCH 21 23
ATOM     23  C4  913 L   1      -3.391  -0.576  -0.315  1.00  0.00    +0.0632  C
ATOM     24  C5  913 L   1      -4.124  -0.431   0.990  1.00  0.00    -0.0501  C
ATOM     25  C6  913 L   1      -5.291   0.224   0.934  1.00  0.00    +0.0284  C
ATOM     26  S7  913 L   1      -5.645   0.731  -0.683  1.00  0.00    +0.1745  S
ATOM     27  O8  913 L   1      -6.568  -0.212  -1.279  1.00  0.00    -0.2226 OA
ATOM     28  O9  913 L   1      -5.891   2.158  -0.694  1.00  0.00    -0.2226 OA
ATOM     29 C10  913 L   1      -4.005   0.412  -1.309  1.00  0.00    +0.0776  C
ATOM     30 H21  913 L   1      -3.503  -1.605  -0.676  1.00  0.00    +0.0577  H
ATOM     31 H22  913 L   1      -3.759  -0.875   1.908  1.00  0.00    +0.0599  H
ATOM     32 H23  913 L   1      -5.976   0.411   1.744  1.00  0.00    +0.0737  H
ATOM     33 H24  913 L   1      -4.077   0.006  -2.321  1.00  0.00    +0.0452  H
ATOM     34 H25  913 L   1      -3.467   1.366  -1.333  1.00  0.00    +0.0452  H
ENDBRANCH 21 23
ENDBRANCH 1 20
TORSDOF 2
