ROOT
ATOM      1 C11  WH0 L   1       0.684  -1.517  -0.663  1.00  0.00    -0.0235  A
ATOM      2 C12  WH0 L   1       0.108  -2.763  -0.963  1.00  0.00    -0.0566  A
ATOM      3 C13  WH0 L   1      -1.204  -2.863  -1.464  1.00  0.00    -0.0610  A
ATOM      4 C14  WH0 L   1      -1.978  -1.721  -1.677  1.00  0.00    -0.0530  A
ATOM      5 C15  WH0 L   1      -1.417  -0.489  -1.379  1.00  0.00    +0.0214  A
ATOM      6 C16  WH0 L   1      -0.108  -0.400  -0.882  1.00  0.00    +0.0518  A
ATOM      7 N17  WH0 L   1       0.215   0.930  -0.625  1.00  0.00    -0.3226  N
ATOM      8 C18  WH0 L   1      -0.853   1.783  -0.908  1.00  0.00    +0.2665  C
ATOM      9 O19  WH0 L   1      -0.857   2.990  -0.715  1.00  0.00    -0.2689 OA
ATOM     10 C20  WH0 L   1      -2.000   0.898  -1.512  1.00  0.00    +0.2010  C
ATOM     11 S21  WH0 L   1      -2.130   1.340  -3.285  1.00  0.00    -0.1088 SA
ATOM     12 C22  WH0 L   1      -3.416   2.538  -2.944  1.00  0.00    +0.0758  C
ATOM     13 C23  WH0 L   1      -4.071   2.111  -1.647  1.00  0.00    +0.2395  C
ATOM     14 O24  WH0 L   1      -5.140   2.608  -1.302  1.00  0.00    -0.2717 OA
ATOM     15 N25  WH0 L   1      -3.312   1.162  -0.936  1.00  0.00    -0.2840  N
ATOM     16 H41  WH0 L   1       0.677  -3.679  -0.808  1.00  0.00    +0.0621  H
ATOM     17 H42  WH0 L   1      -1.619  -3.844  -1.686  1.00  0.00    +0.0618  H
ATOM     18 H43  WH0 L   1      -2.990  -1.802  -2.062  1.00  0.00    +0.0622  H
ATOM     19 H44  WH0 L   1       1.086   1.265  -0.242  1.00  0.00    +0.1687 HD
ATOM     20 H45  WH0 L   1      -4.153   2.540  -3.752  1.00  0.00    +0.0474  H
ATOM     21 H46  WH0 L   1      -2.989   3.538  -2.820  1.00  0.00    +0.0474  H
ENDROOT
BRANCH 1 22
ATOM     22 C10  WH0 L   1       2.077  -1.439  -0.096  1.00  0.00    -0.0241  C
ATOM     23 H39  WH0 L   1       2.602  -0.584  -0.540  1.00  0.00    +0.0314  H
ATOM     24 H40  WH0 L   1       2.646  -2.328  -0.400  1.00  0.00    +0.0314  H
BRANCH 22 25
ATOM     25  C9  WH0 L   1       2.055  -1.331   1.433  1.00  0.00    -0.0314  C
ATOM     26 H37  WH0 L   1       1.479  -2.167   1.852  1.00  0.00    +0.0285  H
ATOM     27 H38  WH0 L   1       1.539  -0.411   1.738  1.00  0.00    +0.0285  H
BRANCH 25 28
ATOM     28  C8  WH0 L   1       3.457  -1.361   2.036  1.00  0.00    +0.0187  C
ATOM     29 H35  WH0 L   1       3.383  -1.365   3.129  1.00  0.00    +0.0486  H
ATOM     30 H36  WH0 L   1       3.984  -2.274   1.737  1.00  0.00    +0.0486  H
BRANCH 28 33
ATOM     31  C5  WH0 L   1       5.448  -0.263   1.047  1.00  0.00    +0.2618  C
ATOM     32  O6  WH0 L   1       5.943  -1.333   0.698  1.00  0.00    -0.2669 OA
ATOM     33  N7  WH0 L   1       4.222  -0.179   1.680  1.00  0.00    -0.3514  N
ATOM     34 H34  WH0 L   1       3.878   0.710   2.032  1.00  0.00    +0.1626 HD
BRANCH 31 36
ATOM     35  C1  WH0 L   1       7.386   1.012   0.262  1.00  0.00    -0.0760  C
ATOM     36  C2  WH0 L   1       6.156   1.038   0.806  1.00  0.00    +0.1085  C
ATOM     37 H32  WH0 L   1       7.944   1.923   0.062  1.00  0.00    +0.0549  H
ATOM     38 H33  WH0 L   1       7.873   0.075  -0.002  1.00  0.00    +0.0549  H
BRANCH 36 39
ATOM     39  C3  WH0 L   1       5.532   2.271   1.134  1.00  0.00    +0.1040  C
ATOM     40  N4  WH0 L   1       4.975   3.252   1.410  1.00  0.00    -0.1907 NA
ENDBRANCH 36 39
ENDBRANCH 31 36
ENDBRANCH 28 33
ENDBRANCH 25 28
ENDBRANCH 22 25
ENDBRANCH 1 22
BRANCH 15 41
ATOM     41 C26  WH0 L   1      -3.747   0.637   0.327  1.00  0.00    +0.0468  A
ATOM     42 C27  WH0 L   1      -5.117   0.491   0.604  1.00  0.00    -0.0380  A
ATOM     43 C28  WH0 L   1      -5.569  -0.038   1.818  1.00  0.00    -0.0598  A
ATOM     44 C29  WH0 L   1      -4.659  -0.440   2.786  1.00  0.00    -0.0616  A
ATOM     45 C30  WH0 L   1      -3.298  -0.303   2.541  1.00  0.00    -0.0598  A
ATOM     46 C31  WH0 L   1      -2.849   0.233   1.327  1.00  0.00    -0.0380  A
ATOM     47 H47  WH0 L   1      -5.873   0.764  -0.129  1.00  0.00    +0.0638  H
ATOM     48 H48  WH0 L   1      -6.637  -0.130   2.000  1.00  0.00    +0.0618  H
ATOM     49 H49  WH0 L   1      -5.008  -0.849   3.731  1.00  0.00    +0.0618  H
ATOM     50 H50  WH0 L   1      -2.578  -0.597   3.302  1.00  0.00    +0.0618  H
ATOM     51 H51  WH0 L   1      -1.777   0.362   1.229  1.00  0.00    +0.0638  H
ENDBRANCH 15 41
TORSDOF 7
