ROOT
ATOM      1  C1  825 L   1       3.457   2.705   0.973  1.00  0.00    -0.0226  C
ATOM      2  C2  825 L   1       3.630   1.245   0.809  1.00  0.00    +0.0381  A
ATOM      3  N3  825 L   1       4.742   0.588   1.273  1.00  0.00    -0.2813  N
ATOM      4  N4  825 L   1       4.734  -0.734   1.027  1.00  0.00    -0.1783 NA
ATOM      5  C5  825 L   1       3.574  -0.922   0.396  1.00  0.00    +0.0696  A
ATOM      6  C6  825 L   1       2.841   0.272   0.231  1.00  0.00    +0.0159  A
ATOM      7  C7  825 L   1       1.521   0.341  -0.462  1.00  0.00    +0.0591  C
ATOM      8  N8  825 L   1       0.958  -1.035  -0.610  1.00  0.00    -0.2796 NA
ATOM      9 C19  825 L   1       1.979  -2.020  -1.120  1.00  0.00    +0.0365  C
ATOM     10 C20  825 L   1       3.085  -2.238  -0.075  1.00  0.00    +0.0101  C
ATOM     11 H21  825 L   1       3.337   2.960   2.030  1.00  0.00    +0.0292  H
ATOM     12 H22  825 L   1       2.573   3.061   0.435  1.00  0.00    +0.0292  H
ATOM     13 H23  825 L   1       4.327   3.244   0.583  1.00  0.00    +0.0292  H
ATOM     14 H24  825 L   1       5.543   0.978   1.760  1.00  0.00    +0.1885 HD
ATOM     15 H25  825 L   1       1.654   0.815  -1.440  1.00  0.00    +0.0546  H
ATOM     16 H26  825 L   1       0.849   0.948   0.151  1.00  0.00    +0.0546  H
ATOM     17 H39  825 L   1       1.515  -2.990  -1.325  1.00  0.00    +0.0499  H
ATOM     18 H40  825 L   1       2.404  -1.643  -2.059  1.00  0.00    +0.0499  H
ATOM     19 H41  825 L   1       2.682  -2.795   0.779  1.00  0.00    +0.0346  H
ATOM     20 H42  825 L   1       3.898  -2.829  -0.511  1.00  0.00    +0.0346  H
ENDROOT
BRANCH 8 21
ATOM     21  S9  825 L   1      -0.504  -1.099  -1.463  1.00  0.00    +0.3198  S
ATOM     22 O10  825 L   1      -0.338  -0.340  -2.681  1.00  0.00    -0.1824 OA
ATOM     23 O11  825 L   1      -0.929  -2.480  -1.489  1.00  0.00    -0.1824 OA
BRANCH 21 24
ATOM     24 N12  825 L   1      -1.525  -0.275  -0.424  1.00  0.00    -0.2844 NA
ATOM     25 C13  825 L   1      -1.933   1.095  -0.758  1.00  0.00    +0.0307  C
ATOM     26 C14  825 L   1      -3.017   1.682   0.142  1.00  0.00    -0.0346  C
ATOM     27 C15  825 L   1      -4.290   0.841   0.209  1.00  0.00    -0.0514  C
ATOM     28 C16  825 L   1      -4.235  -0.255   1.270  1.00  0.00    -0.0514  C
ATOM     29 C17  825 L   1      -3.201  -1.348   1.011  1.00  0.00    -0.0346  C
ATOM     30 C18  825 L   1      -1.770  -0.831   0.911  1.00  0.00    +0.0307  C
ATOM     31 H27  825 L   1      -2.313   1.105  -1.787  1.00  0.00    +0.0496  H
ATOM     32 H28  825 L   1      -1.062   1.756  -0.726  1.00  0.00    +0.0496  H
ATOM     33 H29  825 L   1      -2.626   1.871   1.149  1.00  0.00    +0.0282  H
ATOM     34 H30  825 L   1      -3.279   2.666  -0.267  1.00  0.00    +0.0282  H
ATOM     35 H31  825 L   1      -5.124   1.506   0.468  1.00  0.00    +0.0266  H
ATOM     36 H32  825 L   1      -4.526   0.413  -0.772  1.00  0.00    +0.0266  H
ATOM     37 H33  825 L   1      -5.224  -0.726   1.335  1.00  0.00    +0.0266  H
ATOM     38 H34  825 L   1      -4.046   0.197   2.252  1.00  0.00    +0.0266  H
ATOM     39 H35  825 L   1      -3.472  -1.904   0.105  1.00  0.00    +0.0282  H
ATOM     40 H36  825 L   1      -3.255  -2.060   1.844  1.00  0.00    +0.0282  H
ATOM     41 H37  825 L   1      -1.542  -0.095   1.689  1.00  0.00    +0.0496  H
ATOM     42 H38  825 L   1      -1.092  -1.672   1.098  1.00  0.00    +0.0496  H
ENDBRANCH 21 24
ENDBRANCH 8 21
TORSDOF 2
