ROOT
ATOM      1  C1  872 L   1       5.715  -1.027   0.707  1.00  0.00    -0.0397  C
ATOM      2  C2  872 L   1       4.543  -0.125   0.452  1.00  0.00    -0.0497  A
ATOM      3  C3  872 L   1       4.731   1.131  -0.137  1.00  0.00    -0.0553  A
ATOM      4  C4  872 L   1       3.645   1.984  -0.345  1.00  0.00    -0.0191  A
ATOM      5  C5  872 L   1       2.367   1.596   0.054  1.00  0.00    +0.1281  A
ATOM      6  C6  872 L   1       2.163   0.345   0.647  1.00  0.00    +0.0175  A
ATOM      7  C7  872 L   1       3.254  -0.508   0.850  1.00  0.00    -0.0482  A
ATOM      8  C8  872 L   1       0.814  -0.065   1.017  1.00  0.00    -0.0395  C
ATOM      9  C9  872 L   1      -0.146   0.862   0.919  1.00  0.00    +0.0544  C
ATOM     10 C20  872 L   1       0.127   2.275   0.520  1.00  0.00    +0.1197  C
ATOM     11 O21  872 L   1       1.354   2.479  -0.207  1.00  0.00    -0.4866 OA
ATOM     12 H22  872 L   1       6.133  -0.826   1.698  1.00  0.00    +0.0278  H
ATOM     13 H23  872 L   1       6.496  -0.874  -0.045  1.00  0.00    +0.0278  H
ATOM     14 H24  872 L   1       5.416  -2.079   0.654  1.00  0.00    +0.0278  H
ATOM     15 H25  872 L   1       5.724   1.454  -0.441  1.00  0.00    +0.0621  H
ATOM     16 H26  872 L   1       3.796   2.953  -0.812  1.00  0.00    +0.0654  H
ATOM     17 H27  872 L   1       3.104  -1.479   1.319  1.00  0.00    +0.0627  H
ATOM     18 H28  872 L   1       0.629  -1.073   1.368  1.00  0.00    +0.0630  H
ATOM     19 H37  872 L   1       0.149   2.922   1.405  1.00  0.00    +0.0749  H
ATOM     20 H38  872 L   1      -0.675   2.638  -0.132  1.00  0.00    +0.0749  H
ENDROOT
BRANCH 9 21
ATOM     21 C10  872 L   1      -1.536   0.553   1.318  1.00  0.00    +0.2539  C
ATOM     22 O11  872 L   1      -2.022   1.127   2.288  1.00  0.00    -0.2676 OA
ATOM     23 N12  872 L   1      -2.229  -0.346   0.541  1.00  0.00    -0.3376  N
ATOM     24 C13  872 L   1      -1.814  -0.924  -0.729  1.00  0.00    +0.0223  C
ATOM     25 C14  872 L   1      -2.913  -1.923  -1.061  1.00  0.00    -0.0207  C
ATOM     26 C15  872 L   1      -4.166  -1.296  -0.448  1.00  0.00    +0.0754  C
ATOM     27 C19  872 L   1      -3.630  -0.635   0.819  1.00  0.00    +0.0344  C
ATOM     28 H29  872 L   1      -1.759  -0.118  -1.469  1.00  0.00    +0.0489  H
ATOM     29 H30  872 L   1      -0.838  -1.407  -0.654  1.00  0.00    +0.0489  H
ATOM     30 H31  872 L   1      -2.976  -2.130  -2.133  1.00  0.00    +0.0291  H
ATOM     31 H32  872 L   1      -2.704  -2.873  -0.553  1.00  0.00    +0.0291  H
ATOM     32 H33  872 L   1      -4.914  -2.064  -0.225  1.00  0.00    +0.0431  H
ATOM     33 H35  872 L   1      -4.159   0.277   1.114  1.00  0.00    +0.0497  H
ATOM     34 H36  872 L   1      -3.651  -1.335   1.663  1.00  0.00    +0.0497  H
BRANCH 26 35
ATOM     35 C16  872 L   1      -4.859  -0.263  -1.304  1.00  0.00    +0.3096  C
ATOM     36 O17  872 L   1      -5.780   0.453  -0.943  1.00  0.00    -0.2506 OA
ATOM     37 O18  872 L   1      -4.414  -0.187  -2.570  1.00  0.00    -0.4804 OA
ATOM     38 H34  872 L   1      -4.976   0.507  -2.977  1.00  0.00    +0.2951 HD
ENDBRANCH 26 35
ENDBRANCH 9 21
TORSDOF 2
