ROOT
ATOM      1  C3  CHE L   1       2.988   0.789  -0.458  1.00  0.00    +0.1429  A
ATOM      2  N4  CHE L   1       1.692   0.603  -0.101  1.00  0.00    -0.1949 NA
ATOM      3  C5  CHE L   1       1.162  -0.635  -0.069  1.00  0.00    +0.2278  A
ATOM      4 N18  CHE L   1       1.808  -1.773  -0.348  1.00  0.00    -0.1929 NA
ATOM      5 C19  CHE L   1       3.085  -1.567  -0.707  1.00  0.00    +0.1653  A
ATOM      6 C20  CHE L   1       3.730  -0.349  -0.786  1.00  0.00    +0.0806  A
ATOM      7 C21  CHE L   1       5.035  -0.670  -1.212  1.00  0.00    +0.0622  A
ATOM      8 N22  CHE L   1       5.221  -1.985  -1.376  1.00  0.00    -0.1773 NA
ATOM      9 N23  CHE L   1       4.010  -2.507  -1.072  1.00  0.00    -0.2493  N
ATOM     10 C24  CHE L   1       3.811  -3.932  -1.159  1.00  0.00    +0.0324  C
ATOM     11 H39  CHE L   1       5.861   0.002  -1.409  1.00  0.00    +0.0856  H
ATOM     12 H40  CHE L   1       4.509  -4.418  -0.473  1.00  0.00    +0.0473  H
ATOM     13 H41  CHE L   1       2.785  -4.185  -0.885  1.00  0.00    +0.0473  H
ATOM     14 H42  CHE L   1       4.007  -4.244  -2.188  1.00  0.00    +0.0473  H
ENDROOT
BRANCH 1 16
ATOM     15  C1  CHE L   1       2.812   3.091   0.234  1.00  0.00    +0.0054  C
ATOM     16  N2  CHE L   1       3.534   2.073  -0.503  1.00  0.00    -0.3720  N
ATOM     17 H25  CHE L   1       3.340   4.045   0.138  1.00  0.00    +0.0450  H
ATOM     18 H26  CHE L   1       1.802   3.236  -0.163  1.00  0.00    +0.0450  H
ATOM     19 H27  CHE L   1       2.754   2.846   1.300  1.00  0.00    +0.0450  H
ATOM     20 H28  CHE L   1       4.539   2.079  -0.368  1.00  0.00    +0.1607 HD
ENDBRANCH 1 16
BRANCH 3 21
ATOM     21  N6  CHE L   1      -0.174  -0.799   0.283  1.00  0.00    -0.3521  N
ATOM     22 H29  CHE L   1      -0.274  -1.779   0.518  1.00  0.00    +0.1626 HD
BRANCH 21 23
ATOM     23  C7  CHE L   1      -0.644   0.134   1.309  1.00  0.00    +0.0376  C
ATOM     24 H30  CHE L   1      -0.049  -0.019   2.220  1.00  0.00    +0.0505  H
ATOM     25 H31  CHE L   1      -0.514   1.178   0.997  1.00  0.00    +0.0505  H
BRANCH 23 26
ATOM     26  C8  CHE L   1      -2.144  -0.113   1.666  1.00  0.00    +0.0480  C
ATOM     27  N9  CHE L   1      -2.447  -1.545   1.850  1.00  0.00    -0.3222 NA
ATOM     28 H32  CHE L   1      -2.298   0.382   2.635  1.00  0.00    +0.0525  H
ATOM     29 H33  CHE L   1      -1.711  -1.978   2.404  1.00  0.00    +0.1188 HD
ATOM     30 H34  CHE L   1      -2.419  -1.986   0.930  1.00  0.00    +0.1188 HD
BRANCH 26 31
ATOM     31 C10  CHE L   1      -3.168   0.494   0.713  1.00  0.00    -0.0278  A
ATOM     32 C11  CHE L   1      -2.883   0.813  -0.623  1.00  0.00    -0.0570  A
ATOM     33 C12  CHE L   1      -3.864   1.356  -1.457  1.00  0.00    -0.0602  A
ATOM     34 C13  CHE L   1      -5.152   1.580  -0.973  1.00  0.00    -0.0443  A
ATOM     35 C14  CHE L   1      -5.465   1.255   0.349  1.00  0.00    +0.0521  A
ATOM     36 C17  CHE L   1      -4.478   0.714   1.182  1.00  0.00    -0.0396  A
ATOM     37 H35  CHE L   1      -1.894   0.641  -1.043  1.00  0.00    +0.0621  H
ATOM     38 H36  CHE L   1      -3.621   1.599  -2.489  1.00  0.00    +0.0618  H
ATOM     39 H37  CHE L   1      -5.907   2.000  -1.634  1.00  0.00    +0.0630  H
ATOM     40 H38  CHE L   1      -4.728   0.445   2.209  1.00  0.00    +0.0634  H
BRANCH 35 41
ATOM     41 C15  CHE L   1      -6.790   1.473   0.850  1.00  0.00    +0.0992  C
ATOM     42 N16  CHE L   1      -7.862   1.657   1.254  1.00  0.00    -0.1909 NA
ENDBRANCH 35 41
ENDBRANCH 26 31
ENDBRANCH 23 26
ENDBRANCH 21 23
ENDBRANCH 3 21
TORSDOF 6
