ROOT
ATOM      1  C8  490 L   1       0.861  -0.558  -0.383  1.00  0.00    +0.2296  C
ATOM      2  O9  490 L   1       1.521  -1.534  -0.006  1.00  0.00    -0.2726 OA
ATOM      3 N10  490 L   1      -0.466  -0.684  -0.771  1.00  0.00    -0.3082  N
ATOM      4 C11  490 L   1      -1.171  -1.924  -0.442  1.00  0.00    +0.0468  C
ATOM      5 C12  490 L   1      -2.526  -1.658   0.205  1.00  0.00    +0.0480  C
ATOM      6 C13  490 L   1      -2.447  -1.195   1.661  1.00  0.00    -0.0292  C
ATOM      7 C14  490 L   1      -3.831  -0.602   1.868  1.00  0.00    -0.0334  C
ATOM      8 C15  490 L   1      -4.068   0.159   0.565  1.00  0.00    +0.0191  C
ATOM      9 N16  490 L   1      -3.333  -0.612  -0.464  1.00  0.00    -0.3643  N
ATOM     10 C17  490 L   1      -2.661   0.220  -1.388  1.00  0.00    +0.0621  A
ATOM     11 C18  490 L   1      -3.430   1.094  -2.180  1.00  0.00    -0.0365  A
ATOM     12 C19  490 L   1      -2.836   1.950  -3.105  1.00  0.00    -0.0597  A
ATOM     13 C20  490 L   1      -1.457   1.933  -3.271  1.00  0.00    -0.0597  A
ATOM     14 C21  490 L   1      -0.672   1.069  -2.506  1.00  0.00    -0.0361  A
ATOM     15 C22  490 L   1      -1.250   0.224  -1.547  1.00  0.00    +0.0679  A
ATOM     16 H31  490 L   1      -1.304  -2.472  -1.385  1.00  0.00    +0.0513  H
ATOM     17 H32  490 L   1      -0.571  -2.564   0.214  1.00  0.00    +0.0513  H
ATOM     18 H33  490 L   1      -3.106  -2.590   0.175  1.00  0.00    +0.0541  H
ATOM     19 H34  490 L   1      -1.681  -0.423   1.799  1.00  0.00    +0.0286  H
ATOM     20 H35  490 L   1      -2.238  -2.018   2.350  1.00  0.00    +0.0286  H
ATOM     21 H36  490 L   1      -4.573  -1.401   1.982  1.00  0.00    +0.0283  H
ATOM     22 H37  490 L   1      -3.888   0.047   2.747  1.00  0.00    +0.0283  H
ATOM     23 H38  490 L   1      -3.678   1.179   0.673  1.00  0.00    +0.0488  H
ATOM     24 H39  490 L   1      -5.135   0.213   0.325  1.00  0.00    +0.0488  H
ATOM     25 H40  490 L   1      -4.513   1.093  -2.083  1.00  0.00    +0.0639  H
ATOM     26 H41  490 L   1      -3.453   2.610  -3.709  1.00  0.00    +0.0618  H
ATOM     27 H42  490 L   1      -0.992   2.576  -4.014  1.00  0.00    +0.0618  H
ATOM     28 H43  490 L   1       0.389   1.034  -2.727  1.00  0.00    +0.0639  H
ENDROOT
BRANCH 1 29
ATOM     29  C7  490 L   1       1.489   0.829  -0.360  1.00  0.00    +0.0440  C
ATOM     30 H29  490 L   1       0.714   1.587  -0.211  1.00  0.00    +0.0378  H
ATOM     31 H30  490 L   1       1.994   0.998  -1.316  1.00  0.00    +0.0378  H
BRANCH 29 32
ATOM     32  C6  490 L   1       2.500   0.974   0.775  1.00  0.00    +0.0268  C
ATOM     33 H27  490 L   1       2.817   2.020   0.849  1.00  0.00    +0.0491  H
ATOM     34 H28  490 L   1       2.052   0.692   1.735  1.00  0.00    +0.0491  H
BRANCH 32 37
ATOM     35  C3  490 L   1       4.881   0.465   1.144  1.00  0.00    +0.2443  C
ATOM     36  O4  490 L   1       5.131   1.535   1.681  1.00  0.00    -0.2683 OA
ATOM     37  N5  490 L   1       3.669   0.137   0.589  1.00  0.00    -0.3520  N
ATOM     38 H26  490 L   1       3.480  -0.836   0.365  1.00  0.00    +0.1626 HD
BRANCH 35 40
ATOM     39  C1  490 L   1       7.097  -0.501   1.567  1.00  0.00    -0.0936  C
ATOM     40  C2  490 L   1       5.874  -0.635   1.038  1.00  0.00    -0.0047  C
ATOM     41 H23  490 L   1       7.393   0.407   2.086  1.00  0.00    +0.0536  H
ATOM     42 H24  490 L   1       7.828  -1.298   1.491  1.00  0.00    +0.0536  H
ATOM     43 H25  490 L   1       5.590  -1.542   0.521  1.00  0.00    +0.0666  H
ENDBRANCH 35 40
ENDBRANCH 32 37
ENDBRANCH 29 32
ENDBRANCH 1 29
TORSDOF 4
