ROOT
ATOM      1  C7  MCU L   1       1.702  -0.256   1.813  1.00  0.00    +0.2554  C
ATOM      2  O8  MCU L   1       1.190  -0.650   2.858  1.00  0.00    -0.2674 OA
ATOM      3  N9  MCU L   1       1.002   0.410   0.795  1.00  0.00    -0.3270  N
ATOM      4 C10  MCU L   1       1.635   1.545   0.119  1.00  0.00    +0.0264  C
ATOM      5 C11  MCU L   1       0.927   1.927  -1.175  1.00  0.00    -0.0094  C
ATOM      6 C12  MCU L   1      -0.520   2.223  -0.897  1.00  0.00    -0.0366  A
ATOM      7 C13  MCU L   1      -1.218   3.163  -1.669  1.00  0.00    -0.0127  A
ATOM      8 C14  MCU L   1      -2.566   3.436  -1.413  1.00  0.00    +0.1618  A
ATOM      9 C17  MCU L   1      -3.223   2.759  -0.370  1.00  0.00    +0.1623  A
ATOM     10 C22  MCU L   1      -2.532   1.802   0.381  1.00  0.00    -0.0106  A
ATOM     11 C23  MCU L   1      -1.178   1.519   0.123  1.00  0.00    -0.0136  A
ATOM     12 C24  MCU L   1      -0.468   0.426   0.931  1.00  0.00    +0.0838  C
ATOM     13 H44  MCU L   1       1.624   2.382   0.829  1.00  0.00    +0.0492  H
ATOM     14 H45  MCU L   1       2.686   1.337  -0.097  1.00  0.00    +0.0492  H
ATOM     15 H46  MCU L   1       1.422   2.806  -1.605  1.00  0.00    +0.0330  H
ATOM     16 H47  MCU L   1       0.990   1.112  -1.906  1.00  0.00    +0.0330  H
ATOM     17 H48  MCU L   1      -0.685   3.677  -2.463  1.00  0.00    +0.0658  H
ATOM     18 H57  MCU L   1      -3.036   1.240   1.162  1.00  0.00    +0.0659  H
ATOM     19 H58  MCU L   1      -0.684   0.652   1.985  1.00  0.00    +0.0626  H
ENDROOT
BRANCH 1 23
ATOM     20  C3  MCU L   1       5.856  -1.099   1.235  1.00  0.00    +0.1615  A
ATOM     21  C4  MCU L   1       5.411  -0.506   2.423  1.00  0.00    -0.0156  A
ATOM     22  C5  MCU L   1       4.052  -0.237   2.612  1.00  0.00    -0.0457  A
ATOM     23  C6  MCU L   1       3.139  -0.539   1.600  1.00  0.00    +0.0429  A
ATOM     24 C35  MCU L   1       3.564  -1.155   0.419  1.00  0.00    -0.0040  A
ATOM     25 C36  MCU L   1       4.919  -1.444   0.239  1.00  0.00    +0.1622  A
ATOM     26 H42  MCU L   1       6.095  -0.248   3.224  1.00  0.00    +0.0655  H
ATOM     27 H43  MCU L   1       3.709   0.208   3.543  1.00  0.00    +0.0626  H
ATOM     28 H68  MCU L   1       2.830  -1.397  -0.343  1.00  0.00    +0.0663  H
BRANCH 20 30
ATOM     29  C1  MCU L   1       8.138  -1.074   1.942  1.00  0.00    +0.0790  C
ATOM     30  O2  MCU L   1       7.166  -1.398   0.958  1.00  0.00    -0.4915 OA
ATOM     31 H39  MCU L   1       7.965  -1.632   2.868  1.00  0.00    +0.0660  H
ATOM     32 H40  MCU L   1       9.119  -1.370   1.555  1.00  0.00    +0.0660  H
ATOM     33 H41  MCU L   1       8.166   0.006   2.128  1.00  0.00    +0.0660  H
ENDBRANCH 20 30
BRANCH 25 34
ATOM     34 O37  MCU L   1       5.408  -2.017  -0.911  1.00  0.00    -0.4914 OA
ATOM     35 C38  MCU L   1       4.570  -3.010  -1.493  1.00  0.00    +0.0790  C
ATOM     36 H69  MCU L   1       3.763  -2.545  -2.069  1.00  0.00    +0.0660  H
ATOM     37 H70  MCU L   1       4.168  -3.697  -0.740  1.00  0.00    +0.0660  H
ATOM     38 H71  MCU L   1       5.179  -3.595  -2.189  1.00  0.00    +0.0660  H
ENDBRANCH 25 34
ENDBRANCH 1 23
BRANCH 8 39
ATOM     39 O15  MCU L   1      -3.323   4.347  -2.108  1.00  0.00    -0.4914 OA
ATOM     40 C16  MCU L   1      -2.717   5.001  -3.213  1.00  0.00    +0.0790  C
ATOM     41 H49  MCU L   1      -1.887   5.636  -2.886  1.00  0.00    +0.0660  H
ATOM     42 H50  MCU L   1      -2.392   4.281  -3.971  1.00  0.00    +0.0660  H
ATOM     43 H51  MCU L   1      -3.470   5.648  -3.672  1.00  0.00    +0.0660  H
ENDBRANCH 8 39
BRANCH 9 44
ATOM     44 O18  MCU L   1      -4.547   3.070  -0.187  1.00  0.00    -0.4860 OA
BRANCH 44 45
ATOM     45 C19  MCU L   1      -5.141   2.709   1.063  1.00  0.00    +0.1127  C
ATOM     46 H52  MCU L   1      -5.281   1.624   1.114  1.00  0.00    +0.0720  H
ATOM     47 H53  MCU L   1      -4.515   3.061   1.890  1.00  0.00    +0.0720  H
BRANCH 45 48
ATOM     48 C20  MCU L   1      -6.501   3.399   1.131  1.00  0.00    +0.0783  C
ATOM     49 O21  MCU L   1      -6.331   4.816   1.116  1.00  0.00    -0.3917 OA
ATOM     50 H54  MCU L   1      -7.029   3.128   2.049  1.00  0.00    +0.0591  H
ATOM     51 H55  MCU L   1      -7.121   3.131   0.270  1.00  0.00    +0.0591  H
ATOM     52 H56  MCU L   1      -5.738   5.003   0.362  1.00  0.00    +0.2095 HD
ENDBRANCH 45 48
ENDBRANCH 44 45
ENDBRANCH 9 44
BRANCH 12 53
ATOM     53 C25  MCU L   1      -1.024  -0.960   0.581  1.00  0.00    -0.0169  A
ATOM     54 C26  MCU L   1      -1.548  -1.784   1.584  1.00  0.00    -0.0526  A
ATOM     55 C27  MCU L   1      -2.043  -3.055   1.279  1.00  0.00    -0.0160  A
ATOM     56 C28  MCU L   1      -2.022  -3.528  -0.036  1.00  0.00    +0.1615  A
ATOM     57 C31  MCU L   1      -1.496  -2.714  -1.057  1.00  0.00    +0.1618  A
ATOM     58 C34  MCU L   1      -0.995  -1.445  -0.740  1.00  0.00    -0.0108  A
ATOM     59 H59  MCU L   1      -1.553  -1.449   2.621  1.00  0.00    +0.0622  H
ATOM     60 H60  MCU L   1      -2.429  -3.654   2.097  1.00  0.00    +0.0655  H
ATOM     61 H67  MCU L   1      -0.573  -0.809  -1.510  1.00  0.00    +0.0659  H
BRANCH 56 62
ATOM     62 O29  MCU L   1      -2.485  -4.762  -0.425  1.00  0.00    -0.4915 OA
ATOM     63 C30  MCU L   1      -3.016  -5.612   0.581  1.00  0.00    +0.0790  C
ATOM     64 H61  MCU L   1      -3.330  -6.544   0.100  1.00  0.00    +0.0660  H
ATOM     65 H62  MCU L   1      -2.254  -5.865   1.327  1.00  0.00    +0.0660  H
ATOM     66 H63  MCU L   1      -3.899  -5.166   1.049  1.00  0.00    +0.0660  H
ENDBRANCH 56 62
BRANCH 57 67
ATOM     67 O32  MCU L   1      -1.505  -3.248  -2.322  1.00  0.00    -0.4914 OA
ATOM     68 C33  MCU L   1      -1.105  -2.405  -3.394  1.00  0.00    +0.0790  C
ATOM     69 H64  MCU L   1      -1.240  -2.963  -4.326  1.00  0.00    +0.0660  H
ATOM     70 H65  MCU L   1      -0.043  -2.147  -3.315  1.00  0.00    +0.0660  H
ATOM     71 H66  MCU L   1      -1.730  -1.507  -3.451  1.00  0.00    +0.0660  H
ENDBRANCH 57 67
ENDBRANCH 12 53
TORSDOF 10
