ROOT
ATOM      1  C1  CHE L   1      -0.842   2.348   2.144  1.00  0.00    -0.0225  C
ATOM      2  C2  CHE L   1      -2.095   2.061   1.406  1.00  0.00    +0.0411  A
ATOM      3  N3  CHE L   1      -3.176   2.908   1.498  1.00  0.00    -0.2780  N
ATOM      4  N4  CHE L   1      -4.220   2.543   0.735  1.00  0.00    -0.1351 NA
ATOM      5  C5  CHE L   1      -3.777   1.437   0.153  1.00  0.00    +0.2452  A
ATOM      6  C6  CHE L   1      -2.484   1.053   0.533  1.00  0.00    +0.0522  A
ATOM      7  C7  CHE L   1      -1.859  -0.216  -0.038  1.00  0.00    +0.0694  C
ATOM      8 C26  CHE L   1      -2.674  -0.616  -1.314  1.00  0.00    +0.1038  C
ATOM      9 C29  CHE L   1      -3.916  -0.129  -1.582  1.00  0.00    +0.2092  C
ATOM     10 N30  CHE L   1      -4.693  -0.477  -2.667  1.00  0.00    -0.3688  N
ATOM     11 O31  CHE L   1      -4.536   0.821  -0.767  1.00  0.00    -0.4196 OA
ATOM     12 H32  CHE L   1      -0.204   1.466   2.228  1.00  0.00    +0.0292  H
ATOM     13 H33  CHE L   1      -1.060   2.694   3.160  1.00  0.00    +0.0292  H
ATOM     14 H34  CHE L   1      -0.272   3.130   1.631  1.00  0.00    +0.0292  H
ATOM     15 H35  CHE L   1      -3.259   3.757   2.050  1.00  0.00    +0.1886 HD
ATOM     16 H54  CHE L   1      -4.185  -0.792  -3.491  1.00  0.00    +0.1588 HD
ATOM     17 H55  CHE L   1      -5.381   0.242  -2.880  1.00  0.00    +0.1588 HD
ENDROOT
BRANCH 7 18
ATOM     18  C8  CHE L   1      -0.437   0.239  -0.456  1.00  0.00    -0.0288  A
ATOM     19  C9  CHE L   1       0.741  -0.379   0.005  1.00  0.00    -0.0341  A
ATOM     20 C10  CHE L   1       2.038   0.020  -0.376  1.00  0.00    +0.0387  A
ATOM     21 C16  CHE L   1       2.126   1.094  -1.270  1.00  0.00    -0.0268  A
ATOM     22 C17  CHE L   1       0.990   1.734  -1.785  1.00  0.00    +0.0570  A
ATOM     23 C22  CHE L   1      -0.276   1.300  -1.374  1.00  0.00    -0.0456  A
ATOM     24 H36  CHE L   1       0.666  -1.217   0.685  1.00  0.00    +0.0641  H
ATOM     25 H45  CHE L   1       3.102   1.461  -1.581  1.00  0.00    +0.0643  H
ATOM     26 H46  CHE L   1      -1.152   1.815  -1.774  1.00  0.00    +0.0626  H
BRANCH 20 27
ATOM     27 N11  CHE L   1       3.162  -0.603   0.115  1.00  0.00    -0.3706  N
ATOM     28 C12  CHE L   1       4.508  -0.401  -0.425  1.00  0.00    +0.0187  C
ATOM     29 C13  CHE L   1       5.311  -1.582   0.118  1.00  0.00    -0.0337  C
ATOM     30 C14  CHE L   1       4.620  -1.894   1.433  1.00  0.00    -0.0337  C
ATOM     31 C15  CHE L   1       3.147  -1.683   1.100  1.00  0.00    +0.0187  C
ATOM     32 H37  CHE L   1       4.919   0.546  -0.058  1.00  0.00    +0.0488  H
ATOM     33 H38  CHE L   1       4.532  -0.407  -1.521  1.00  0.00    +0.0488  H
ATOM     34 H39  CHE L   1       5.224  -2.438  -0.562  1.00  0.00    +0.0283  H
ATOM     35 H40  CHE L   1       6.372  -1.346   0.237  1.00  0.00    +0.0283  H
ATOM     36 H41  CHE L   1       4.828  -2.905   1.795  1.00  0.00    +0.0283  H
ATOM     37 H42  CHE L   1       4.940  -1.180   2.202  1.00  0.00    +0.0283  H
ATOM     38 H43  CHE L   1       2.587  -1.419   2.003  1.00  0.00    +0.0488  H
ATOM     39 H44  CHE L   1       2.721  -2.592   0.659  1.00  0.00    +0.0488  H
ENDBRANCH 20 27
BRANCH 22 40
ATOM     40 C18  CHE L   1       1.129   2.899  -2.730  1.00  0.00    +0.4175  C
ATOM     41 F19  CHE L   1       2.296   2.892  -3.433  1.00  0.00    -0.1659  F
ATOM     42 F20  CHE L   1       0.136   2.951  -3.662  1.00  0.00    -0.1659  F
ATOM     43 F21  CHE L   1       1.093   4.096  -2.081  1.00  0.00    -0.1659  F
ENDBRANCH 22 40
ENDBRANCH 7 18
BRANCH 7 44
ATOM     44 C23  CHE L   1      -2.053  -1.387   1.038  1.00  0.00    -0.0279  C
ATOM     45 C24  CHE L   1      -1.630  -2.797   0.586  1.00  0.00    -0.0612  C
ATOM     46 C25  CHE L   1      -1.499  -1.117   2.450  1.00  0.00    -0.0612  C
ATOM     47 H47  CHE L   1      -3.141  -1.470   1.198  1.00  0.00    +0.0311  H
ATOM     48 H48  CHE L   1      -1.667  -3.504   1.422  1.00  0.00    +0.0233  H
ATOM     49 H49  CHE L   1      -2.319  -3.191  -0.167  1.00  0.00    +0.0233  H
ATOM     50 H50  CHE L   1      -0.621  -2.832   0.173  1.00  0.00    +0.0233  H
ATOM     51 H51  CHE L   1      -0.422  -0.946   2.467  1.00  0.00    +0.0233  H
ATOM     52 H52  CHE L   1      -1.992  -0.260   2.917  1.00  0.00    +0.0233  H
ATOM     53 H53  CHE L   1      -1.700  -1.970   3.108  1.00  0.00    +0.0233  H
ENDBRANCH 7 44
BRANCH 8 54
ATOM     54 C27  CHE L   1      -2.065  -1.516  -2.244  1.00  0.00    +0.1013  C
ATOM     55 N28  CHE L   1      -1.581  -2.238  -3.013  1.00  0.00    -0.1910 NA
ENDBRANCH 8 54
TORSDOF 5
