ROOT
ATOM      1  C1  MCU L   1       0.832   0.703   1.286  1.00  0.00    -0.0357  C
ATOM      2  C2  MCU L   1       0.766  -0.584   0.495  1.00  0.00    +0.0001  A
ATOM      3  C3  MCU L   1      -0.494  -1.217   0.356  1.00  0.00    +0.0786  A
ATOM      4 C12  MCU L   1      -0.550  -2.577   0.032  1.00  0.00    +0.1475  A
ATOM      5 F13  MCU L   1      -1.740  -3.223  -0.054  1.00  0.00    -0.2033  F
ATOM      6 C14  MCU L   1       0.617  -3.297  -0.196  1.00  0.00    -0.0116  A
ATOM      7 C15  MCU L   1       1.868  -2.659  -0.195  1.00  0.00    +0.0495  A
ATOM      8 C16  MCU L   1       3.042  -3.393  -0.449  1.00  0.00    +0.2035  A
ATOM      9 O17  MCU L   1       2.974  -4.639  -0.645  1.00  0.00    -0.2863 OA
ATOM     10 C18  MCU L   1       4.286  -2.740  -0.480  1.00  0.00    +0.1224  A
ATOM     11 C22  MCU L   1       4.312  -1.349  -0.317  1.00  0.00    +0.0295  A
ATOM     12 N23  MCU L   1       3.170  -0.630  -0.104  1.00  0.00    -0.2971  N
ATOM     13 C33  MCU L   1       1.952  -1.264   0.064  1.00  0.00    +0.0639  A
ATOM     14 H34  MCU L   1       0.067   0.703   2.088  1.00  0.00    +0.0279  H
ATOM     15 H35  MCU L   1       1.792   0.795   1.830  1.00  0.00    +0.0279  H
ATOM     16 H36  MCU L   1       0.671   1.578   0.629  1.00  0.00    +0.0279  H
ATOM     17 H50  MCU L   1       0.532  -4.355  -0.413  1.00  0.00    +0.0655  H
ATOM     18 H52  MCU L   1       5.258  -0.826  -0.422  1.00  0.00    +0.0823  H
ENDROOT
BRANCH 3 19
ATOM     19  N4  MCU L   1      -1.720  -0.484   0.530  1.00  0.00    -0.3650  N
ATOM     20  C5  MCU L   1      -3.143  -0.790   0.788  1.00  0.00    +0.0358  C
ATOM     21  C6  MCU L   1      -3.647   0.609   0.585  1.00  0.00    +0.0430  C
ATOM     22 C11  MCU L   1      -2.204   0.899   0.317  1.00  0.00    +0.0358  C
ATOM     23 H37  MCU L   1      -3.545  -1.518   0.049  1.00  0.00    +0.0504  H
ATOM     24 H38  MCU L   1      -3.284  -1.139   1.835  1.00  0.00    +0.0504  H
ATOM     25 H39  MCU L   1      -4.028   1.096   1.509  1.00  0.00    +0.0495  H
ATOM     26 H48  MCU L   1      -2.001   1.231  -0.728  1.00  0.00    +0.0504  H
ATOM     27 H49  MCU L   1      -1.789   1.604   1.069  1.00  0.00    +0.0504  H
BRANCH 21 28
ATOM     28  N7  MCU L   1      -4.493   0.786  -0.612  1.00  0.00    -0.3078 NA
ATOM     29 H40  MCU L   1      -4.138   0.178  -1.390  1.00  0.00    +0.1226 HD
BRANCH 28 30
ATOM     30  C8  MCU L   1      -5.906   0.471  -0.319  1.00  0.00    +0.0023  C
ATOM     31  C9  MCU L   1      -6.604   1.707   0.263  1.00  0.00    -0.0499  C
ATOM     32 C10  MCU L   1      -6.637   0.025  -1.593  1.00  0.00    -0.0499  C
ATOM     33 H41  MCU L   1      -5.983  -0.363   0.417  1.00  0.00    +0.0455  H
ATOM     34 H42  MCU L   1      -6.557   2.551  -0.458  1.00  0.00    +0.0245  H
ATOM     35 H43  MCU L   1      -7.673   1.482   0.487  1.00  0.00    +0.0245  H
ATOM     36 H44  MCU L   1      -6.120   2.024   1.212  1.00  0.00    +0.0245  H
ATOM     37 H45  MCU L   1      -6.583   0.817  -2.369  1.00  0.00    +0.0245  H
ATOM     38 H46  MCU L   1      -7.702  -0.192  -1.367  1.00  0.00    +0.0245  H
ATOM     39 H47  MCU L   1      -6.175  -0.903  -1.996  1.00  0.00    +0.0245  H
ENDBRANCH 28 30
ENDBRANCH 21 28
ENDBRANCH 3 19
BRANCH 10 40
ATOM     40 C19  MCU L   1       5.560  -3.467  -0.729  1.00  0.00    +0.3420  C
ATOM     41 O20  MCU L   1       5.572  -4.718  -0.901  1.00  0.00    -0.2449 OA
ATOM     42 O21  MCU L   1       6.764  -2.769  -0.776  1.00  0.00    -0.4770 OA
ATOM     43 H51  MCU L   1       7.637  -3.251  -0.951  1.00  0.00    +0.2954 HD
ENDBRANCH 10 40
BRANCH 12 44
ATOM     44 C24  MCU L   1       3.301   0.798  -0.250  1.00  0.00    +0.1760  A
ATOM     45 N25  MCU L   1       4.119   1.492   0.592  1.00  0.00    -0.2070 NA
ATOM     46 C26  MCU L   1       4.304   2.836   0.481  1.00  0.00    +0.1625  A
ATOM     47 N27  MCU L   1       5.172   3.510   1.396  1.00  0.00    -0.3813  N
ATOM     48 C28  MCU L   1       3.645   3.544  -0.534  1.00  0.00    +0.1678  A
ATOM     49 F29  MCU L   1       3.806   4.886  -0.665  1.00  0.00    -0.2016  F
ATOM     50 C30  MCU L   1       2.820   2.854  -1.423  1.00  0.00    +0.0161  A
ATOM     51 C31  MCU L   1       2.653   1.474  -1.294  1.00  0.00    +0.1688  A
ATOM     52 F32  MCU L   1       1.876   0.801  -2.180  1.00  0.00    -0.2016  F
ATOM     53 H53  MCU L   1       5.360   4.534   1.310  1.00  0.00    +0.1574 HD
ATOM     54 H54  MCU L   1       5.672   2.972   2.137  1.00  0.00    +0.1574 HD
ATOM     55 H55  MCU L   1       2.314   3.387  -2.216  1.00  0.00    +0.0677  H
ENDBRANCH 12 44
TORSDOF 5
