ROOT
ATOM      1  F1  SEL L   1      -6.274  -3.537   1.729  1.00  0.00    -0.2055  F
ATOM      2  C2  SEL L   1      -5.394  -2.710   1.148  1.00  0.00    +0.1234  A
ATOM      3  C3  SEL L   1      -5.174  -2.798  -0.221  1.00  0.00    -0.0261  A
ATOM      4  C4  SEL L   1      -4.258  -1.936  -0.828  1.00  0.00    -0.0540  A
ATOM      5  C5  SEL L   1      -3.555  -0.982  -0.069  1.00  0.00    -0.0257  A
ATOM      6 C29  SEL L   1      -3.802  -0.914   1.316  1.00  0.00    -0.0540  A
ATOM      7 C30  SEL L   1      -4.719  -1.776   1.921  1.00  0.00    -0.0261  A
ATOM      8 H31  SEL L   1      -5.716  -3.535  -0.805  1.00  0.00    +0.0646  H
ATOM      9 H32  SEL L   1      -4.097  -2.014  -1.902  1.00  0.00    +0.0622  H
ATOM     10 H54  SEL L   1      -3.285  -0.181   1.932  1.00  0.00    +0.0622  H
ATOM     11 H55  SEL L   1      -4.910  -1.722   2.988  1.00  0.00    +0.0646  H
ENDROOT
BRANCH 5 12
ATOM     12  C6  SEL L   1      -2.550  -0.045  -0.759  1.00  0.00    +0.0610  C
ATOM     13 H33  SEL L   1      -2.807  -0.044  -1.830  1.00  0.00    +0.0562  H
BRANCH 12 14
ATOM     14  C7  SEL L   1      -2.733   1.447  -0.403  1.00  0.00    -0.0257  A
ATOM     15  C8  SEL L   1      -4.029   2.004  -0.345  1.00  0.00    -0.0540  A
ATOM     16  C9  SEL L   1      -4.221   3.358  -0.063  1.00  0.00    -0.0261  A
ATOM     17 C10  SEL L   1      -3.121   4.178   0.143  1.00  0.00    +0.1234  A
ATOM     18 F11  SEL L   1      -3.305   5.477   0.410  1.00  0.00    -0.2055  F
ATOM     19 C12  SEL L   1      -1.832   3.671   0.063  1.00  0.00    -0.0261  A
ATOM     20 C13  SEL L   1      -1.639   2.316  -0.219  1.00  0.00    -0.0540  A
ATOM     21 H34  SEL L   1      -4.905   1.382  -0.519  1.00  0.00    +0.0622  H
ATOM     22 H35  SEL L   1      -5.221   3.777  -0.009  1.00  0.00    +0.0646  H
ATOM     23 H36  SEL L   1      -0.984   4.331   0.211  1.00  0.00    +0.0646  H
ATOM     24 H37  SEL L   1      -0.619   1.947  -0.300  1.00  0.00    +0.0622  H
ENDBRANCH 12 14
BRANCH 12 25
ATOM     25 N14  SEL L   1      -1.147  -0.506  -0.675  1.00  0.00    -0.2891 NA
ATOM     26 C15  SEL L   1      -0.810  -1.574  -1.629  1.00  0.00    +0.0126  C
ATOM     27 C16  SEL L   1       0.538  -2.284  -1.329  1.00  0.00    +0.0121  C
ATOM     28 N17  SEL L   1       1.531  -1.471  -0.601  1.00  0.00    -0.2963 NA
ATOM     29 C27  SEL L   1       0.919  -0.980   0.659  1.00  0.00    +0.0121  C
ATOM     30 C28  SEL L   1      -0.628  -0.818   0.660  1.00  0.00    +0.0126  C
ATOM     31 H38  SEL L   1      -0.753  -1.127  -2.629  1.00  0.00    +0.0439  H
ATOM     32 H39  SEL L   1      -1.584  -2.348  -1.662  1.00  0.00    +0.0439  H
ATOM     33 H40  SEL L   1       0.967  -2.671  -2.261  1.00  0.00    +0.0439  H
ATOM     34 H41  SEL L   1       0.331  -3.173  -0.717  1.00  0.00    +0.0439  H
ATOM     35 H50  SEL L   1       1.178  -1.695   1.450  1.00  0.00    +0.0439  H
ATOM     36 H51  SEL L   1       1.374  -0.030   0.966  1.00  0.00    +0.0439  H
ATOM     37 H52  SEL L   1      -1.071  -1.751   1.030  1.00  0.00    +0.0439  H
ATOM     38 H53  SEL L   1      -0.878  -0.031   1.380  1.00  0.00    +0.0439  H
BRANCH 28 39
ATOM     39 C18  SEL L   1       2.007  -0.357  -1.435  1.00  0.00    +0.0175  C
ATOM     40 H42  SEL L   1       1.274   0.458  -1.476  1.00  0.00    +0.0470  H
ATOM     41 H43  SEL L   1       2.142  -0.701  -2.470  1.00  0.00    +0.0470  H
BRANCH 39 42
ATOM     42 C19  SEL L   1       3.341   0.220  -1.025  1.00  0.00    -0.0695  C
ATOM     43 C20  SEL L   1       4.194  -0.292  -0.122  1.00  0.00    -0.0559  C
ATOM     44 H44  SEL L   1       3.592   1.146  -1.538  1.00  0.00    +0.0585  H
ATOM     45 H45  SEL L   1       3.940  -1.214   0.397  1.00  0.00    +0.0621  H
BRANCH 43 46
ATOM     46 C21  SEL L   1       5.479   0.313   0.252  1.00  0.00    -0.0072  A
ATOM     47 C22  SEL L   1       6.289   1.010  -0.648  1.00  0.00    -0.0517  A
ATOM     48 C23  SEL L   1       7.513   1.529  -0.226  1.00  0.00    -0.0430  A
ATOM     49 C24  SEL L   1       7.897   1.324   1.089  1.00  0.00    +0.0276  A
ATOM     50 N25  SEL L   1       7.156   0.644   1.988  1.00  0.00    -0.2627 NA
ATOM     51 C26  SEL L   1       5.972   0.152   1.546  1.00  0.00    +0.0347  A
ATOM     52 H46  SEL L   1       5.987   1.145  -1.682  1.00  0.00    +0.0624  H
ATOM     53 H47  SEL L   1       8.153   2.074  -0.910  1.00  0.00    +0.0633  H
ATOM     54 H48  SEL L   1       8.842   1.708   1.463  1.00  0.00    +0.0829  H
ATOM     55 H49  SEL L   1       5.406  -0.392   2.298  1.00  0.00    +0.0835  H
ENDBRANCH 43 46
ENDBRANCH 39 42
ENDBRANCH 28 39
ENDBRANCH 12 25
ENDBRANCH 5 12
TORSDOF 6
