ROOT
ATOM      1  C9  CHE L   1      -2.734  -0.658  -0.376  1.00  0.00    +0.0933  A
ATOM      2 C10  CHE L   1      -2.234  -1.483  -1.361  1.00  0.00    +0.0372  A
ATOM      3 N11  CHE L   1      -0.872  -1.361  -1.278  1.00  0.00    -0.3059  N
ATOM      4 C12  CHE L   1       0.120  -1.957  -2.042  1.00  0.00    +0.0131  A
ATOM      5 C13  CHE L   1       1.407  -1.685  -1.770  1.00  0.00    -0.0218  A
ATOM      6 C14  CHE L   1       1.767  -0.771  -0.671  1.00  0.00    +0.0428  A
ATOM      7 C24  CHE L   1       0.761  -0.200   0.039  1.00  0.00    +0.0044  A
ATOM      8 C25  CHE L   1      -0.606  -0.481  -0.241  1.00  0.00    +0.1402  A
ATOM      9 N26  CHE L   1      -1.717  -0.051   0.322  1.00  0.00    -0.2276 NA
ATOM     10 H37  CHE L   1      -2.711  -2.114  -2.097  1.00  0.00    +0.0835  H
ATOM     11 H38  CHE L   1      -0.190  -2.616  -2.843  1.00  0.00    +0.0814  H
ATOM     12 H39  CHE L   1       2.189  -2.119  -2.381  1.00  0.00    +0.0653  H
ATOM     13 H52  CHE L   1       0.955   0.474   0.864  1.00  0.00    +0.0675  H
ENDROOT
BRANCH 1 17
ATOM     14  C3  CHE L   1      -6.898  -0.143   0.478  1.00  0.00    +0.1418  A
ATOM     15  C4  CHE L   1      -6.083   0.971   0.261  1.00  0.00    +0.0239  A
ATOM     16  C5  CHE L   1      -4.715   0.809   0.002  1.00  0.00    +0.1328  A
ATOM     17  C8  CHE L   1      -4.141  -0.467  -0.083  1.00  0.00    +0.0451  A
ATOM     18 C27  CHE L   1      -4.958  -1.584   0.135  1.00  0.00    -0.0271  A
ATOM     19 C28  CHE L   1      -6.319  -1.421   0.416  1.00  0.00    +0.0834  A
ATOM     20 CL29 CHE L   1      -7.262  -2.849   0.674  1.00  0.00    -0.0797 Cl
ATOM     21 H33  CHE L   1      -6.479   1.981   0.274  1.00  0.00    +0.0691  H
ATOM     22 H53  CHE L   1      -4.535  -2.585   0.096  1.00  0.00    +0.0641  H
BRANCH 14 24
ATOM     23  C1  CHE L   1      -8.845   1.202   0.807  1.00  0.00    +0.0789  C
ATOM     24  O2  CHE L   1      -8.240  -0.083   0.746  1.00  0.00    -0.4935 OA
ATOM     25 H30  CHE L   1      -9.907   1.061   1.031  1.00  0.00    +0.0660  H
ATOM     26 H31  CHE L   1      -8.413   1.804   1.613  1.00  0.00    +0.0660  H
ATOM     27 H32  CHE L   1      -8.774   1.717  -0.156  1.00  0.00    +0.0660  H
ENDBRANCH 14 24
BRANCH 16 28
ATOM     28  O6  CHE L   1      -3.978   1.935  -0.268  1.00  0.00    -0.4943 OA
ATOM     29  C7  CHE L   1      -3.547   2.547   0.949  1.00  0.00    +0.0788  C
ATOM     30 H34  CHE L   1      -2.754   3.259   0.704  1.00  0.00    +0.0660  H
ATOM     31 H35  CHE L   1      -3.145   1.822   1.665  1.00  0.00    +0.0660  H
ATOM     32 H36  CHE L   1      -4.373   3.103   1.406  1.00  0.00    +0.0660  H
ENDBRANCH 16 28
ENDBRANCH 1 17
BRANCH 6 33
ATOM     33 N15  CHE L   1       3.126  -0.527  -0.425  1.00  0.00    -0.3680  N
ATOM     34 C16  CHE L   1       3.596   0.659   0.327  1.00  0.00    +0.0314  C
ATOM     35 C17  CHE L   1       5.043   1.049  -0.057  1.00  0.00    +0.0166  C
ATOM     36 N18  CHE L   1       6.061  -0.013   0.111  1.00  0.00    -0.2965 NA
ATOM     37 C22  CHE L   1       5.423  -1.348   0.132  1.00  0.00    +0.0166  C
ATOM     38 C23  CHE L   1       4.204  -1.467  -0.809  1.00  0.00    +0.0314  C
ATOM     39 H40  CHE L   1       3.534   0.455   1.403  1.00  0.00    +0.0500  H
ATOM     40 H41  CHE L   1       2.954   1.521   0.110  1.00  0.00    +0.0500  H
ATOM     41 H42  CHE L   1       5.047   1.320  -1.121  1.00  0.00    +0.0444  H
ATOM     42 H43  CHE L   1       5.316   1.963   0.481  1.00  0.00    +0.0444  H
ATOM     43 H48  CHE L   1       5.091  -1.596   1.150  1.00  0.00    +0.0444  H
ATOM     44 H49  CHE L   1       6.169  -2.097  -0.158  1.00  0.00    +0.0444  H
ATOM     45 H50  CHE L   1       4.505  -1.271  -1.845  1.00  0.00    +0.0500  H
ATOM     46 H51  CHE L   1       3.843  -2.501  -0.750  1.00  0.00    +0.0500  H
BRANCH 36 47
ATOM     47 C19  CHE L   1       6.898   0.173   1.308  1.00  0.00    +0.0273  C
ATOM     48 H44  CHE L   1       6.282   0.342   2.200  1.00  0.00    +0.0452  H
ATOM     49 H45  CHE L   1       7.466  -0.746   1.507  1.00  0.00    +0.0452  H
BRANCH 47 50
ATOM     50 C20  CHE L   1       7.929   1.295   1.169  1.00  0.00    +0.1028  C
ATOM     51 F21  CHE L   1       8.665   1.352   2.314  1.00  0.00    -0.2477  F
ATOM     52 H46  CHE L   1       8.615   1.104   0.338  1.00  0.00    +0.0628  H
ATOM     53 H47  CHE L   1       7.465   2.274   1.028  1.00  0.00    +0.0628  H
ENDBRANCH 47 50
ENDBRANCH 36 47
ENDBRANCH 6 33
TORSDOF 6
