ROOT
ATOM      1  O1  CHE L   1      -5.380   1.648  -1.523  1.00  0.00    -0.2839 OA
ATOM      2  C2  CHE L   1      -4.467   1.053  -0.955  1.00  0.00    +0.2232  A
ATOM      3  C3  CHE L   1      -3.100   0.994  -1.518  1.00  0.00    +0.0094  A
ATOM      4  C4  CHE L   1      -2.142   0.316  -0.856  1.00  0.00    +0.0366  A
ATOM      5  N5  CHE L   1      -2.402  -0.338   0.365  1.00  0.00    -0.3446  N
ATOM      6  C6  CHE L   1      -3.682  -0.269   0.906  1.00  0.00    +0.0504  A
ATOM      7  C7  CHE L   1      -4.716   0.361   0.338  1.00  0.00    +0.1801  A
ATOM      8  O8  CHE L   1      -5.973   0.411   0.900  1.00  0.00    -0.5022 OA
ATOM      9  C9  CHE L   1      -1.285  -0.822   1.202  1.00  0.00    +0.0359  C
ATOM     10 C10  CHE L   1      -0.014  -1.111   0.384  1.00  0.00    +0.0176  C
ATOM     11 N11  CHE L   1       0.336   0.031  -0.482  1.00  0.00    -0.2908 NA
ATOM     12 C21  CHE L   1      -0.747   0.218  -1.465  1.00  0.00    +0.0398  C
ATOM     13 H22  CHE L   1      -2.939   1.499  -2.460  1.00  0.00    +0.0675  H
ATOM     14 H23  CHE L   1      -3.803  -0.768   1.863  1.00  0.00    +0.0847  H
ATOM     15 H24  CHE L   1      -6.501   0.944   0.268  1.00  0.00    +0.2923 HD
ATOM     16 H25  CHE L   1      -1.581  -1.737   1.729  1.00  0.00    +0.0504  H
ATOM     17 H26  CHE L   1      -1.062  -0.060   1.961  1.00  0.00    +0.0504  H
ATOM     18 H27  CHE L   1       0.789  -1.318   1.100  1.00  0.00    +0.0444  H
ATOM     19 H28  CHE L   1      -0.158  -2.020  -0.214  1.00  0.00    +0.0444  H
ATOM     20 H34  CHE L   1      -0.756  -0.618  -2.178  1.00  0.00    +0.0490  H
ATOM     21 H35  CHE L   1      -0.543   1.133  -2.037  1.00  0.00    +0.0490  H
ENDROOT
BRANCH 11 22
ATOM     22 C12  CHE L   1       1.614  -0.178  -1.181  1.00  0.00    +0.0286  C
ATOM     23 H29  CHE L   1       1.726   0.550  -1.996  1.00  0.00    +0.0477  H
ATOM     24 H30  CHE L   1       1.627  -1.157  -1.681  1.00  0.00    +0.0477  H
BRANCH 22 25
ATOM     25 C13  CHE L   1       2.817  -0.024  -0.282  1.00  0.00    +0.0201  A
ATOM     26 C14  CHE L   1       3.521  -1.164   0.124  1.00  0.00    +0.1292  A
ATOM     27 F15  CHE L   1       3.119  -2.377  -0.286  1.00  0.00    -0.2051  F
ATOM     28 C16  CHE L   1       4.634  -1.087   0.958  1.00  0.00    -0.0260  A
ATOM     29 C17  CHE L   1       5.073   0.154   1.409  1.00  0.00    -0.0577  A
ATOM     30 C18  CHE L   1       4.392   1.307   1.018  1.00  0.00    -0.0429  A
ATOM     31 C19  CHE L   1       3.273   1.221   0.179  1.00  0.00    +0.0481  A
ATOM     32 CL20 CHE L   1       2.503   2.703  -0.270  1.00  0.00    -0.0831 Cl
ATOM     33 H31  CHE L   1       5.150  -1.997   1.250  1.00  0.00    +0.0646  H
ATOM     34 H32  CHE L   1       5.940   0.226   2.060  1.00  0.00    +0.0619  H
ATOM     35 H33  CHE L   1       4.738   2.276   1.371  1.00  0.00    +0.0632  H
ENDBRANCH 22 25
ENDBRANCH 11 22
TORSDOF 2
