ROOT
ATOM      1 C13  WH0 L   1      -0.430  -1.113  -1.376  1.00  0.00    +0.0880  C
ATOM      2 C14  WH0 L   1      -1.958  -0.843  -1.347  1.00  0.00    +0.0835  C
ATOM      3 C25  WH0 L   1      -2.779  -2.178  -1.381  1.00  0.00    +0.0873  C
ATOM      4 C26  WH0 L   1      -4.114  -1.951  -2.130  1.00  0.00    -0.0340  C
ATOM      5 O27  WH0 L   1      -3.043  -2.631  -0.071  1.00  0.00    -0.3867 OA
ATOM      6 C28  WH0 L   1      -1.976  -3.297  -2.093  1.00  0.00    -0.0039  C
ATOM      7 C29  WH0 L   1      -1.038  -2.742  -3.174  1.00  0.00    +0.0325  C
ATOM      8 N30  WH0 L   1      -0.036  -1.789  -2.639  1.00  0.00    -0.2915 NA
ATOM      9 H47  WH0 L   1      -0.198  -1.772  -0.511  1.00  0.00    +0.0602  H
ATOM     10 H48  WH0 L   1      -2.184  -0.267  -2.274  1.00  0.00    +0.0575  H
ATOM     11 H54  WH0 L   1      -3.935  -1.690  -3.195  1.00  0.00    +0.0258  H
ATOM     12 H55  WH0 L   1      -4.687  -1.123  -1.665  1.00  0.00    +0.0258  H
ATOM     13 H56  WH0 L   1      -4.735  -2.871  -2.092  1.00  0.00    +0.0258  H
ATOM     14 H57  WH0 L   1      -3.756  -2.066   0.325  1.00  0.00    +0.2102 HD
ATOM     15 H58  WH0 L   1      -2.659  -4.051  -2.545  1.00  0.00    +0.0311  H
ATOM     16 H59  WH0 L   1      -1.361  -3.845  -1.348  1.00  0.00    +0.0311  H
ATOM     17 H60  WH0 L   1      -0.558  -3.596  -3.699  1.00  0.00    +0.0496  H
ATOM     18 H61  WH0 L   1      -1.645  -2.218  -3.940  1.00  0.00    +0.0496  H
ENDROOT
BRANCH 1 23
ATOM     19  C8  WH0 L   1       1.748   1.681   0.080  1.00  0.00    -0.0454  A
ATOM     20  C9  WH0 L   1       1.728   2.616  -0.966  1.00  0.00    -0.0585  A
ATOM     21 C10  WH0 L   1       1.000   2.356  -2.131  1.00  0.00    -0.0612  A
ATOM     22 C11  WH0 L   1       0.304   1.152  -2.268  1.00  0.00    -0.0565  A
ATOM     23 C12  WH0 L   1       0.327   0.196  -1.236  1.00  0.00    -0.0221  A
ATOM     24 C35  WH0 L   1       1.048   0.472  -0.061  1.00  0.00    -0.0533  A
ATOM     25 H44  WH0 L   1       2.278   3.545  -0.879  1.00  0.00    +0.0620  H
ATOM     26 H45  WH0 L   1       0.984   3.084  -2.933  1.00  0.00    +0.0618  H
ATOM     27 H46  WH0 L   1      -0.246   0.957  -3.181  1.00  0.00    +0.0621  H
ATOM     28 H65  WH0 L   1       1.076  -0.257   0.739  1.00  0.00    +0.0624  H
BRANCH 19 29
ATOM     29  C7  WH0 L   1       2.576   1.934   1.311  1.00  0.00    -0.0102  C
ATOM     30 H42  WH0 L   1       2.101   1.451   2.193  1.00  0.00    +0.0330  H
ATOM     31 H43  WH0 L   1       2.624   3.027   1.517  1.00  0.00    +0.0330  H
BRANCH 29 32
ATOM     32  C6  WH0 L   1       3.993   1.384   1.124  1.00  0.00    +0.0223  C
ATOM     33 H40  WH0 L   1       4.479   1.902   0.267  1.00  0.00    +0.0489  H
ATOM     34 H41  WH0 L   1       3.943   0.295   0.900  1.00  0.00    +0.0489  H
BRANCH 32 37
ATOM     35  C3  WH0 L   1       6.166   1.159   2.389  1.00  0.00    +0.2443  C
ATOM     36  O4  WH0 L   1       6.699   0.606   1.388  1.00  0.00    -0.2683 OA
ATOM     37  N5  WH0 L   1       4.799   1.587   2.328  1.00  0.00    -0.3522  N
ATOM     38 H39  WH0 L   1       4.377   2.050   3.166  1.00  0.00    +0.1626 HD
BRANCH 35 40
ATOM     39  C1  WH0 L   1       8.217   0.997   3.741  1.00  0.00    -0.0936  C
ATOM     40  C2  WH0 L   1       6.941   1.365   3.626  1.00  0.00    -0.0047  C
ATOM     41 H36  WH0 L   1       8.747   1.170   4.669  1.00  0.00    +0.0536  H
ATOM     42 H37  WH0 L   1       8.747   0.529   2.920  1.00  0.00    +0.0536  H
ATOM     43 H38  WH0 L   1       6.456   1.834   4.474  1.00  0.00    +0.0666  H
ENDBRANCH 35 40
ENDBRANCH 32 37
ENDBRANCH 29 32
ENDBRANCH 19 29
ENDBRANCH 1 23
BRANCH 2 44
ATOM     44 N15  WH0 L   1      -2.317  -0.035  -0.170  1.00  0.00    -0.3442  N
ATOM     45 C16  WH0 L   1      -3.204   1.093  -0.244  1.00  0.00    +0.2524  C
ATOM     46 O17  WH0 L   1      -3.411   1.653  -1.357  1.00  0.00    -0.2676 OA
ATOM     47 H49  WH0 L   1      -1.943  -0.332   0.760  1.00  0.00    +0.1631 HD
BRANCH 45 48
ATOM     48 C18  WH0 L   1      -3.875   1.617   0.970  1.00  0.00    +0.0391  A
ATOM     49 C19  WH0 L   1      -4.339   2.945   1.002  1.00  0.00    -0.0467  A
ATOM     50 C20  WH0 L   1      -4.998   3.438   2.132  1.00  0.00    -0.0257  A
ATOM     51 C21  WH0 L   1      -5.208   2.613   3.238  1.00  0.00    +0.1234  A
ATOM     52 F22  WH0 L   1      -5.853   3.093   4.331  1.00  0.00    -0.2055  F
ATOM     53 C23  WH0 L   1      -4.759   1.291   3.216  1.00  0.00    -0.0257  A
ATOM     54 C24  WH0 L   1      -4.098   0.792   2.089  1.00  0.00    -0.0467  A
ATOM     55 H50  WH0 L   1      -4.185   3.605   0.156  1.00  0.00    +0.0626  H
ATOM     56 H51  WH0 L   1      -5.349   4.460   2.147  1.00  0.00    +0.0646  H
ATOM     57 H52  WH0 L   1      -4.930   0.650   4.070  1.00  0.00    +0.0646  H
ATOM     58 H53  WH0 L   1      -3.789  -0.244   2.089  1.00  0.00    +0.0626  H
ENDBRANCH 45 48
ENDBRANCH 2 44
BRANCH 8 59
ATOM     59 S31  WH0 L   1       1.546  -2.538  -2.513  1.00  0.00    +0.2299  S
ATOM     60 C32  WH0 L   1       1.538  -3.927  -1.392  1.00  0.00    +0.0573  C
ATOM     61 O33  WH0 L   1       2.560  -1.534  -2.035  1.00  0.00    -0.2056 OA
ATOM     62 O34  WH0 L   1       1.969  -3.024  -3.873  1.00  0.00    -0.2056 OA
ATOM     63 H62  WH0 L   1       2.552  -4.377  -1.353  1.00  0.00    +0.0407  H
ATOM     64 H63  WH0 L   1       0.821  -4.698  -1.747  1.00  0.00    +0.0407  H
ATOM     65 H64  WH0 L   1       1.252  -3.591  -0.372  1.00  0.00    +0.0407  H
ENDBRANCH 8 59
TORSDOF 8
