ROOT
ATOM      1  N8  170 L   1       0.597  -0.396   0.372  1.00  0.00    -0.3539  N
ATOM      2  C9  170 L   1       0.333  -0.527   1.815  1.00  0.00    +0.0200  C
ATOM      3 C10  170 L   1      -1.082  -1.060   2.027  1.00  0.00    -0.0347  C
ATOM      4 C11  170 L   1      -2.119  -0.189   1.315  1.00  0.00    -0.0418  C
ATOM      5 C12  170 L   1      -1.776   0.027  -0.182  1.00  0.00    +0.0143  C
ATOM      6 C13  170 L   1      -2.010  -1.247  -1.020  1.00  0.00    -0.0433  C
ATOM      7 C14  170 L   1      -3.516  -1.277  -1.293  1.00  0.00    -0.0501  C
ATOM      8 C15  170 L   1      -4.009   0.159  -1.120  1.00  0.00    -0.0263  C
ATOM      9 C16  170 L   1      -2.754   0.993  -0.879  1.00  0.00    +0.0625  C
ATOM     10 O17  170 L   1      -3.030   2.148  -0.111  1.00  0.00    -0.3912 OA
ATOM     11 C18  170 L   1      -0.328   0.541  -0.298  1.00  0.00    +0.0280  C
ATOM     12 H24  170 L   1       1.034  -1.235   2.275  1.00  0.00    +0.0488  H
ATOM     13 H25  170 L   1       0.440   0.441   2.324  1.00  0.00    +0.0488  H
ATOM     14 H26  170 L   1      -1.147  -2.091   1.661  1.00  0.00    +0.0282  H
ATOM     15 H27  170 L   1      -1.305  -1.094   3.099  1.00  0.00    +0.0282  H
ATOM     16 H28  170 L   1      -3.109  -0.643   1.438  1.00  0.00    +0.0273  H
ATOM     17 H29  170 L   1      -2.157   0.780   1.829  1.00  0.00    +0.0273  H
ATOM     18 H30  170 L   1      -1.673  -2.168  -0.536  1.00  0.00    +0.0272  H
ATOM     19 H31  170 L   1      -1.479  -1.176  -1.978  1.00  0.00    +0.0272  H
ATOM     20 H32  170 L   1      -4.025  -1.937  -0.582  1.00  0.00    +0.0266  H
ATOM     21 H33  170 L   1      -3.724  -1.658  -2.299  1.00  0.00    +0.0266  H
ATOM     22 H34  170 L   1      -4.707   0.231  -0.277  1.00  0.00    +0.0290  H
ATOM     23 H35  170 L   1      -4.552   0.509  -2.005  1.00  0.00    +0.0290  H
ATOM     24 H36  170 L   1      -2.346   1.320  -1.844  1.00  0.00    +0.0599  H
ATOM     25 H37  170 L   1      -3.751   2.632  -0.550  1.00  0.00    +0.2098 HD
ATOM     26 H38  170 L   1      -0.077   0.655  -1.360  1.00  0.00    +0.0494  H
ATOM     27 H39  170 L   1      -0.243   1.538   0.157  1.00  0.00    +0.0494  H
ENDROOT
BRANCH 1 31
ATOM     28  C4  170 L   1       4.589   0.492  -0.426  1.00  0.00    +0.1697  A
ATOM     29  C5  170 L   1       3.780   0.071  -1.465  1.00  0.00    -0.0240  A
ATOM     30  C6  170 L   1       2.445  -0.220  -1.187  1.00  0.00    -0.0154  A
ATOM     31  C7  170 L   1       1.951  -0.078   0.109  1.00  0.00    +0.1519  A
ATOM     32 N19  170 L   1       2.792   0.323   1.090  1.00  0.00    -0.1310 NA
ATOM     33 N20  170 L   1       4.116   0.619   0.830  1.00  0.00    -0.1407 NA
ATOM     34 H22  170 L   1       4.174  -0.040  -2.470  1.00  0.00    +0.0643  H
ATOM     35 H23  170 L   1       1.799  -0.582  -1.981  1.00  0.00    +0.0655  H
BRANCH 28 37
ATOM     36  O1  170 L   1       6.571   0.744  -1.763  1.00  0.00    -0.2433 OA
ATOM     37  C2  170 L   1       6.016   0.812  -0.679  1.00  0.00    +0.3571  C
ATOM     38  O3  170 L   1       6.686   1.203   0.422  1.00  0.00    -0.4760 OA
ATOM     39 H21  170 L   1       7.599   1.378   0.117  1.00  0.00    +0.2955 HD
ENDBRANCH 28 37
ENDBRANCH 1 31
TORSDOF 2
