ROOT
ATOM      1  C5  275 L   1       1.754  -0.584  -0.654  1.00  0.00    +0.1066  C
ATOM      2  O6  275 L   1       2.175  -1.955  -0.789  1.00  0.00    -0.3698 OA
ATOM      3  C7  275 L   1       1.184  -2.898  -0.408  1.00  0.00    +0.0486  C
ATOM      4  C8  275 L   1       0.915  -2.823   1.090  1.00  0.00    -0.0275  C
ATOM      5  C9  275 L   1       1.088  -1.411   1.649  1.00  0.00    -0.0278  C
ATOM      6 C10  275 L   1       0.829  -0.342   0.583  1.00  0.00    +0.0604  C
ATOM      7 H26  275 L   1       1.201  -0.339  -1.572  1.00  0.00    +0.0668  H
ATOM      8 H27  275 L   1       1.544  -3.899  -0.669  1.00  0.00    +0.0560  H
ATOM      9 H28  275 L   1       0.273  -2.729  -0.992  1.00  0.00    +0.0560  H
ATOM     10 H29  275 L   1       1.604  -3.489   1.623  1.00  0.00    +0.0288  H
ATOM     11 H30  275 L   1      -0.093  -3.201   1.294  1.00  0.00    +0.0288  H
ATOM     12 H31  275 L   1       2.116  -1.300   2.016  1.00  0.00    +0.0287  H
ATOM     13 H32  275 L   1       0.435  -1.279   2.520  1.00  0.00    +0.0287  H
ATOM     14 H33  275 L   1       1.029   0.646   1.017  1.00  0.00    +0.0552  H
ENDROOT
BRANCH 1 18
ATOM     15  C1  275 L   1       4.950   3.286  -1.053  1.00  0.00    +0.0302  C
ATOM     16  N2  275 L   1       4.353   2.000  -0.786  1.00  0.00    -0.2741  N
ATOM     17  C3  275 L   1       3.070   1.617  -1.047  1.00  0.00    +0.0309  A
ATOM     18  C4  275 L   1       2.958   0.309  -0.616  1.00  0.00    +0.0205  A
ATOM     19 C20  275 L   1       4.247   0.006  -0.118  1.00  0.00    +0.0551  A
ATOM     20 N21  275 L   1       5.092   1.035  -0.213  1.00  0.00    -0.1796 NA
ATOM     21 H22  275 L   1       4.209   3.941  -1.517  1.00  0.00    +0.0473  H
ATOM     22 H23  275 L   1       5.795   3.140  -1.729  1.00  0.00    +0.0473  H
ATOM     23 H24  275 L   1       5.285   3.714  -0.105  1.00  0.00    +0.0473  H
ATOM     24 H25  275 L   1       2.356   2.290  -1.502  1.00  0.00    +0.0830  H
ATOM     25 H42  275 L   1       4.597  -0.926   0.309  1.00  0.00    +0.0851  H
ENDBRANCH 1 18
BRANCH 6 26
ATOM     26 N11  275 L   1      -0.595  -0.334   0.209  1.00  0.00    -0.3466  N
ATOM     27 C12  275 L   1      -1.547   0.273   0.990  1.00  0.00    +0.2512  C
ATOM     28 O13  275 L   1      -1.300   0.918   2.001  1.00  0.00    -0.2678 OA
ATOM     29 H34  275 L   1      -0.880  -0.790  -0.647  1.00  0.00    +0.1630 HD
BRANCH 27 30
ATOM     30 C14  275 L   1      -2.938   0.159   0.481  1.00  0.00    +0.0508  C
ATOM     31 C15  275 L   1      -3.406  -0.986  -0.036  1.00  0.00    +0.0928  C
ATOM     32 O16  275 L   1      -4.682  -1.186  -0.501  1.00  0.00    -0.4990 OA
ATOM     33 C17  275 L   1      -5.619  -0.161  -0.140  1.00  0.00    +0.0891  C
ATOM     34 C18  275 L   1      -5.039   1.240  -0.283  1.00  0.00    -0.0144  C
ATOM     35 C19  275 L   1      -3.800   1.378   0.597  1.00  0.00    -0.0166  C
ATOM     36 H35  275 L   1      -2.829  -1.896  -0.151  1.00  0.00    +0.1028  H
ATOM     37 H36  275 L   1      -5.955  -0.344   0.889  1.00  0.00    +0.0696  H
ATOM     38 H37  275 L   1      -6.491  -0.272  -0.792  1.00  0.00    +0.0696  H
ATOM     39 H38  275 L   1      -4.756   1.409  -1.329  1.00  0.00    +0.0301  H
ATOM     40 H39  275 L   1      -5.783   1.997  -0.014  1.00  0.00    +0.0301  H
ATOM     41 H40  275 L   1      -3.246   2.276   0.298  1.00  0.00    +0.0317  H
ATOM     42 H41  275 L   1      -4.100   1.509   1.644  1.00  0.00    +0.0317  H
ENDBRANCH 27 30
ENDBRANCH 6 26
TORSDOF 3
