ROOT
ATOM      1  C4  EUB L   1       3.164   0.271   1.232  1.00  0.00    +0.0907  A
ATOM      2  C5  EUB L   1       2.208   1.200   0.844  1.00  0.00    -0.0232  A
ATOM      3  C6  EUB L   1       1.236   0.550   0.047  1.00  0.00    +0.0272  A
ATOM      4 C20  EUB L   1       1.564  -0.796   0.021  1.00  0.00    +0.1458  A
ATOM      5 N21  EUB L   1       0.943  -1.862  -0.580  1.00  0.00    -0.2369 NA
ATOM      6 C22  EUB L   1       1.459  -3.031  -0.361  1.00  0.00    +0.0313  A
ATOM      7 C23  EUB L   1       2.644  -3.320   0.482  1.00  0.00    -0.0270  A
ATOM      8 C24  EUB L   1       3.231  -2.245   1.025  1.00  0.00    +0.0133  A
ATOM      9 N25  EUB L   1       2.724  -0.966   0.787  1.00  0.00    -0.2975  N
ATOM     10 H29  EUB L   1       2.242   2.255   1.089  1.00  0.00    +0.0647  H
ATOM     11 H42  EUB L   1       0.991  -3.914  -0.828  1.00  0.00    +0.0831  H
ATOM     12 H43  EUB L   1       2.968  -4.340   0.626  1.00  0.00    +0.0647  H
ATOM     13 H44  EUB L   1       4.089  -2.349   1.673  1.00  0.00    +0.0814  H
ENDROOT
BRANCH 1 15
ATOM     14  C1  EUB L   1       5.621  -0.200   1.738  1.00  0.00    +0.0001  C
ATOM     15  C2  EUB L   1       4.362   0.591   1.989  1.00  0.00    +0.1767  C
ATOM     16  O3  EUB L   1       4.390   1.514   2.803  1.00  0.00    -0.2908 OA
ATOM     17 H26  EUB L   1       5.703  -1.009   2.467  1.00  0.00    +0.0310  H
ATOM     18 H27  EUB L   1       6.485   0.464   1.853  1.00  0.00    +0.0310  H
ATOM     19 H28  EUB L   1       5.647  -0.595   0.719  1.00  0.00    +0.0310  H
ENDBRANCH 1 15
BRANCH 3 20
ATOM     20  C7  EUB L   1       0.066   1.115  -0.616  1.00  0.00    -0.0107  A
ATOM     21  C8  EUB L   1      -1.193   0.557  -0.334  1.00  0.00    -0.0413  A
ATOM     22  C9  EUB L   1      -2.352   1.059  -0.935  1.00  0.00    +0.0396  A
ATOM     23 C16  EUB L   1      -2.264   2.160  -1.788  1.00  0.00    -0.0491  A
ATOM     24 C17  EUB L   1      -1.020   2.725  -2.074  1.00  0.00    -0.0575  A
ATOM     25 C18  EUB L   1       0.158   2.201  -1.512  1.00  0.00    -0.0426  A
ATOM     26 C19  EUB L   1       1.470   2.842  -1.878  1.00  0.00    -0.0391  C
ATOM     27 H30  EUB L   1      -1.257  -0.262   0.379  1.00  0.00    +0.0631  H
ATOM     28 H37  EUB L   1      -3.163   2.575  -2.240  1.00  0.00    +0.0625  H
ATOM     29 H38  EUB L   1      -0.975   3.577  -2.749  1.00  0.00    +0.0621  H
ATOM     30 H39  EUB L   1       1.374   3.446  -2.787  1.00  0.00    +0.0278  H
ATOM     31 H40  EUB L   1       2.233   2.085  -2.085  1.00  0.00    +0.0278  H
ATOM     32 H41  EUB L   1       1.809   3.499  -1.072  1.00  0.00    +0.0278  H
BRANCH 22 33
ATOM     33 C10  EUB L   1      -3.689   0.461  -0.676  1.00  0.00    +0.2523  C
ATOM     34 O11  EUB L   1      -4.696   1.159  -0.734  1.00  0.00    -0.2676 OA
ATOM     35 N12  EUB L   1      -3.701  -0.897  -0.417  1.00  0.00    -0.3493  N
ATOM     36 H31  EUB L   1      -2.853  -1.431  -0.565  1.00  0.00    +0.1629 HD
BRANCH 35 37
ATOM     37 C13  EUB L   1      -4.915  -1.614  -0.190  1.00  0.00    +0.0301  C
ATOM     38 C14  EUB L   1      -4.887  -3.018   0.349  1.00  0.00    -0.0307  C
ATOM     39 C15  EUB L   1      -5.379  -1.894   1.213  1.00  0.00    -0.0307  C
ATOM     40 H32  EUB L   1      -5.688  -1.387  -0.922  1.00  0.00    +0.0522  H
ATOM     41 H33  EUB L   1      -5.619  -3.719  -0.034  1.00  0.00    +0.0286  H
ATOM     42 H34  EUB L   1      -3.932  -3.463   0.599  1.00  0.00    +0.0286  H
ATOM     43 H35  EUB L   1      -6.442  -1.823   1.410  1.00  0.00    +0.0286  H
ATOM     44 H36  EUB L   1      -4.754  -1.563   2.033  1.00  0.00    +0.0286  H
ENDBRANCH 35 37
ENDBRANCH 22 33
ENDBRANCH 3 20
TORSDOF 4
