ROOT
ATOM      1 C20  CHE L   1       4.920   0.419  -2.123  1.00  0.00    +0.1351  A
ATOM      2 C21  CHE L   1       6.153   0.522  -2.624  1.00  0.00    +0.0341  A
ATOM      3 C22  CHE L   1       7.232  -0.238  -1.981  1.00  0.00    +0.2590  A
ATOM      4 O23  CHE L   1       8.365  -0.164  -2.446  1.00  0.00    -0.2672 OA
ATOM      5 N24  CHE L   1       6.864  -0.988  -0.871  1.00  0.00    -0.2682  N
ATOM      6 C25  CHE L   1       7.833  -1.726  -0.201  1.00  0.00    +0.0146  A
ATOM      7 C26  CHE L   1       7.537  -2.471   0.870  1.00  0.00    -0.0450  A
ATOM      8 C27  CHE L   1       6.187  -2.506   1.370  1.00  0.00    -0.0569  A
ATOM      9 C28  CHE L   1       5.216  -1.822   0.754  1.00  0.00    -0.0187  A
ATOM     10 C29  CHE L   1       5.537  -1.006  -0.455  1.00  0.00    +0.1410  A
ATOM     11 N30  CHE L   1       4.577  -0.357  -1.039  1.00  0.00    -0.2242 NA
ATOM     12 H48  CHE L   1       6.411   1.135  -3.473  1.00  0.00    +0.0695  H
ATOM     13 H49  CHE L   1       8.844  -1.675  -0.586  1.00  0.00    +0.0814  H
ATOM     14 H50  CHE L   1       8.301  -3.044   1.386  1.00  0.00    +0.0632  H
ATOM     15 H51  CHE L   1       5.980  -3.088   2.270  1.00  0.00    +0.0619  H
ATOM     16 H52  CHE L   1       4.194  -1.811   1.105  1.00  0.00    +0.0654  H
ENDROOT
BRANCH 1 18
ATOM     17  O1  CHE L   1       4.086   2.054  -3.675  1.00  0.00    -0.2659 OA
ATOM     18  C2  CHE L   1       3.845   1.222  -2.811  1.00  0.00    +0.2709  C
ATOM     19  N3  CHE L   1       2.582   0.907  -2.380  1.00  0.00    -0.3452  N
ATOM     20 H31  CHE L   1       2.487   0.083  -1.797  1.00  0.00    +0.1631 HD
BRANCH 19 21
ATOM     21  C4  CHE L   1       1.414   1.406  -3.056  1.00  0.00    +0.0623  C
ATOM     22 H32  CHE L   1       1.487   2.495  -3.146  1.00  0.00    +0.0552  H
ATOM     23 H33  CHE L   1       1.390   0.981  -4.065  1.00  0.00    +0.0552  H
BRANCH 21 24
ATOM     24  C5  CHE L   1       0.209   0.993  -2.285  1.00  0.00    +0.0791  A
ATOM     25  C6  CHE L   1      -0.652   1.766  -1.532  1.00  0.00    +0.0342  A
ATOM     26  N7  CHE L   1      -1.592   0.901  -1.031  1.00  0.00    -0.3060  N
ATOM     27  C8  CHE L   1      -2.691   1.163  -0.215  1.00  0.00    +0.0156  A
ATOM     28  C9  CHE L   1      -3.496   0.149   0.162  1.00  0.00    -0.0170  A
ATOM     29 C16  CHE L   1      -3.175  -1.202  -0.322  1.00  0.00    -0.0525  A
ATOM     30 C17  CHE L   1      -2.106  -1.444  -1.106  1.00  0.00    -0.0185  A
ATOM     31 C18  CHE L   1      -1.258  -0.368  -1.493  1.00  0.00    +0.1379  A
ATOM     32 N19  CHE L   1      -0.174  -0.335  -2.237  1.00  0.00    -0.2310 NA
ATOM     33 H34  CHE L   1      -0.671   2.822  -1.320  1.00  0.00    +0.0832  H
ATOM     34 H35  CHE L   1      -2.847   2.193   0.084  1.00  0.00    +0.0816  H
ATOM     35 H46  CHE L   1      -3.827  -2.021  -0.021  1.00  0.00    +0.0622  H
ATOM     36 H47  CHE L   1      -1.871  -2.448  -1.455  1.00  0.00    +0.0654  H
BRANCH 28 37
ATOM     37 C10  CHE L   1      -4.715   0.331   1.037  1.00  0.00    +0.0229  C
ATOM     38 H36  CHE L   1      -4.867   1.398   1.221  1.00  0.00    +0.0474  H
ATOM     39 H37  CHE L   1      -5.581  -0.034   0.478  1.00  0.00    +0.0474  H
BRANCH 37 40
ATOM     40 N11  CHE L   1      -4.545  -0.389   2.296  1.00  0.00    -0.3092 NA
ATOM     41 H38  CHE L   1      -3.666  -0.093   2.717  1.00  0.00    +0.1225 HD
BRANCH 40 42
ATOM     42 C12  CHE L   1      -5.659  -0.384   3.250  1.00  0.00    +0.0079  C
ATOM     43 C13  CHE L   1      -6.153   1.030   3.598  1.00  0.00    -0.0375  C
ATOM     44 C14  CHE L   1      -7.357   0.818   2.660  1.00  0.00    -0.0502  C
ATOM     45 C15  CHE L   1      -7.027  -0.689   2.625  1.00  0.00    -0.0375  C
ATOM     46 H39  CHE L   1      -5.441  -1.002   4.131  1.00  0.00    +0.0460  H
ATOM     47 H40  CHE L   1      -5.503   1.876   3.363  1.00  0.00    +0.0280  H
ATOM     48 H41  CHE L   1      -6.452   1.124   4.651  1.00  0.00    +0.0280  H
ATOM     49 H42  CHE L   1      -7.266   1.318   1.690  1.00  0.00    +0.0266  H
ATOM     50 H43  CHE L   1      -8.330   1.074   3.091  1.00  0.00    +0.0266  H
ATOM     51 H44  CHE L   1      -7.056  -1.170   1.645  1.00  0.00    +0.0280  H
ATOM     52 H45  CHE L   1      -7.673  -1.270   3.293  1.00  0.00    +0.0280  H
ENDBRANCH 40 42
ENDBRANCH 37 40
ENDBRANCH 28 37
ENDBRANCH 21 24
ENDBRANCH 19 21
ENDBRANCH 1 18
TORSDOF 6
