ROOT
ATOM      1 C20  WH0 L   1      -1.613   0.700   0.510  1.00  0.00    +0.0835  C
ATOM      2 C21  WH0 L   1      -2.417  -0.581   0.865  1.00  0.00    +0.0880  C
ATOM      3 N28  WH0 L   1      -3.799  -0.551   0.297  1.00  0.00    -0.2915 NA
ATOM      4 C33  WH0 L   1      -4.436   0.787   0.289  1.00  0.00    +0.0325  C
ATOM      5 C34  WH0 L   1      -3.835   1.741   1.324  1.00  0.00    -0.0039  C
ATOM      6 C35  WH0 L   1      -2.317   1.987   1.078  1.00  0.00    +0.0873  C
ATOM      7 C36  WH0 L   1      -2.123   3.156   0.086  1.00  0.00    -0.0340  C
ATOM      8 O37  WH0 L   1      -1.722   2.339   2.309  1.00  0.00    -0.3867 OA
ATOM      9 H49  WH0 L   1      -1.581   0.754  -0.598  1.00  0.00    +0.0575  H
ATOM     10 H50  WH0 L   1      -2.536  -0.536   1.972  1.00  0.00    +0.0602  H
ATOM     11 H59  WH0 L   1      -4.360   1.272  -0.707  1.00  0.00    +0.0496  H
ATOM     12 H60  WH0 L   1      -5.517   0.664   0.512  1.00  0.00    +0.0496  H
ATOM     13 H61  WH0 L   1      -3.989   1.300   2.334  1.00  0.00    +0.0311  H
ATOM     14 H62  WH0 L   1      -4.398   2.700   1.313  1.00  0.00    +0.0311  H
ATOM     15 H63  WH0 L   1      -1.043   3.377  -0.040  1.00  0.00    +0.0258  H
ATOM     16 H64  WH0 L   1      -2.555   2.911  -0.907  1.00  0.00    +0.0258  H
ATOM     17 H65  WH0 L   1      -2.615   4.078   0.464  1.00  0.00    +0.0258  H
ATOM     18 H66  WH0 L   1      -2.180   3.150   2.654  1.00  0.00    +0.2102 HD
ENDROOT
BRANCH 1 21
ATOM     19 C17  WH0 L   1       0.893   1.144   0.337  1.00  0.00    +0.2527  C
ATOM     20 O18  WH0 L   1       0.784   1.527  -0.860  1.00  0.00    -0.2676 OA
ATOM     21 N19  WH0 L   1      -0.240   0.603   1.031  1.00  0.00    -0.3442  N
ATOM     22 H48  WH0 L   1      -0.114   0.314   2.028  1.00  0.00    +0.1631 HD
BRANCH 19 29
ATOM     23 C10  WH0 L   1       2.902   0.261   1.623  1.00  0.00    -0.0307  A
ATOM     24 C11  WH0 L   1       4.103   0.538   2.302  1.00  0.00    -0.0225  A
ATOM     25 C12  WH0 L   1       4.582   1.845   2.400  1.00  0.00    +0.1237  A
ATOM     26 F13  WH0 L   1       5.743   2.094   3.054  1.00  0.00    -0.2055  F
ATOM     27 C14  WH0 L   1       3.878   2.893   1.808  1.00  0.00    -0.0257  A
ATOM     28 C15  WH0 L   1       2.686   2.640   1.129  1.00  0.00    -0.0465  A
ATOM     29 C16  WH0 L   1       2.177   1.334   1.040  1.00  0.00    +0.0424  A
ATOM     30 H45  WH0 L   1       4.681  -0.268   2.739  1.00  0.00    +0.0649  H
ATOM     31 H46  WH0 L   1       4.256   3.906   1.876  1.00  0.00    +0.0646  H
ATOM     32 H47  WH0 L   1       2.148   3.469   0.684  1.00  0.00    +0.0626  H
BRANCH 23 33
ATOM     33  C9  WH0 L   1       2.516  -1.190   1.426  1.00  0.00    -0.0094  C
ATOM     34 H43  WH0 L   1       2.744  -1.760   2.352  1.00  0.00    +0.0330  H
ATOM     35 H44  WH0 L   1       1.431  -1.311   1.256  1.00  0.00    +0.0330  H
BRANCH 33 36
ATOM     36  C8  WH0 L   1       3.283  -1.824   0.259  1.00  0.00    +0.0224  C
ATOM     37 H41  WH0 L   1       2.977  -2.888   0.168  1.00  0.00    +0.0489  H
ATOM     38 H42  WH0 L   1       4.375  -1.815   0.466  1.00  0.00    +0.0489  H
BRANCH 36 41
ATOM     39  C5  WH0 L   1       3.838  -0.127  -1.555  1.00  0.00    +0.2618  C
ATOM     40  O6  WH0 L   1       4.932   0.144  -0.987  1.00  0.00    -0.2669 OA
ATOM     41  N7  WH0 L   1       2.980  -1.139  -0.998  1.00  0.00    -0.3511  N
ATOM     42 H40  WH0 L   1       2.021  -1.271  -1.384  1.00  0.00    +0.1627 HD
BRANCH 39 44
ATOM     43  C1  WH0 L   1       2.545   0.194  -3.637  1.00  0.00    -0.0760  C
ATOM     44  C2  WH0 L   1       3.452   0.639  -2.764  1.00  0.00    +0.1085  C
ATOM     45 H38  WH0 L   1       2.286   0.779  -4.512  1.00  0.00    +0.0549  H
ATOM     46 H39  WH0 L   1       2.063  -0.767  -3.527  1.00  0.00    +0.0549  H
BRANCH 44 47
ATOM     47  C3  WH0 L   1       4.099   1.902  -3.024  1.00  0.00    +0.1040  C
ATOM     48  N4  WH0 L   1       4.620   2.915  -3.233  1.00  0.00    -0.1907 NA
ENDBRANCH 44 47
ENDBRANCH 39 44
ENDBRANCH 36 41
ENDBRANCH 33 36
ENDBRANCH 23 33
ENDBRANCH 19 29
ENDBRANCH 1 21
BRANCH 2 49
ATOM     49 C22  WH0 L   1      -1.694  -1.904   0.629  1.00  0.00    -0.0224  A
ATOM     50 C23  WH0 L   1      -2.039  -3.016   1.421  1.00  0.00    -0.0565  A
ATOM     51 C24  WH0 L   1      -1.415  -4.251   1.226  1.00  0.00    -0.0614  A
ATOM     52 C25  WH0 L   1      -0.446  -4.397   0.233  1.00  0.00    -0.0617  A
ATOM     53 C26  WH0 L   1      -0.100  -3.308  -0.568  1.00  0.00    -0.0614  A
ATOM     54 C27  WH0 L   1      -0.718  -2.069  -0.376  1.00  0.00    -0.0565  A
ATOM     55 H51  WH0 L   1      -2.797  -2.926   2.189  1.00  0.00    +0.0621  H
ATOM     56 H52  WH0 L   1      -1.687  -5.098   1.844  1.00  0.00    +0.0618  H
ATOM     57 H53  WH0 L   1       0.036  -5.354   0.084  1.00  0.00    +0.0618  H
ATOM     58 H54  WH0 L   1       0.651  -3.424  -1.339  1.00  0.00    +0.0618  H
ATOM     59 H55  WH0 L   1      -0.416  -1.244  -1.003  1.00  0.00    +0.0621  H
ENDBRANCH 2 49
BRANCH 3 60
ATOM     60 S29  WH0 L   1      -4.034  -1.316  -1.271  1.00  0.00    +0.2299  S
ATOM     61 C30  WH0 L   1      -3.089  -0.551  -2.580  1.00  0.00    +0.0573  C
ATOM     62 O31  WH0 L   1      -5.488  -1.207  -1.639  1.00  0.00    -0.2056 OA
ATOM     63 O32  WH0 L   1      -3.687  -2.776  -1.201  1.00  0.00    -0.2056 OA
ATOM     64 H56  WH0 L   1      -3.131   0.553  -2.502  1.00  0.00    +0.0407  H
ATOM     65 H57  WH0 L   1      -2.037  -0.885  -2.545  1.00  0.00    +0.0407  H
ATOM     66 H58  WH0 L   1      -3.515  -0.853  -3.558  1.00  0.00    +0.0407  H
ENDBRANCH 3 60
TORSDOF 9
