ROOT
ATOM      1 N21  CHE L   1       1.940  -0.249  -0.007  1.00  0.00    -0.3547  N
ATOM      2 C22  CHE L   1       2.615  -0.740   1.203  1.00  0.00    +0.0214  C
ATOM      3 C23  CHE L   1       3.905  -1.498   0.864  1.00  0.00    -0.0200  C
ATOM      4 C24  CHE L   1       3.680  -2.440  -0.322  1.00  0.00    +0.0080  C
ATOM      5 N25  CHE L   1       4.909  -3.170  -0.658  1.00  0.00    -0.3271 NA
ATOM      6 C26  CHE L   1       3.139  -1.701  -1.560  1.00  0.00    -0.0200  C
ATOM      7 C27  CHE L   1       2.704  -0.267  -1.252  1.00  0.00    +0.0214  C
ATOM      8 H44  CHE L   1       1.925  -1.419   1.724  1.00  0.00    +0.0489  H
ATOM      9 H45  CHE L   1       2.859   0.072   1.904  1.00  0.00    +0.0489  H
ATOM     10 H46  CHE L   1       4.702  -0.779   0.634  1.00  0.00    +0.0297  H
ATOM     11 H47  CHE L   1       4.236  -2.060   1.747  1.00  0.00    +0.0297  H
ATOM     12 H48  CHE L   1       2.932  -3.190  -0.029  1.00  0.00    +0.0459  H
ATOM     13 H49  CHE L   1       5.243  -3.682   0.159  1.00  0.00    +0.1185 HD
ATOM     14 H50  CHE L   1       5.650  -2.514  -0.913  1.00  0.00    +0.1185 HD
ATOM     15 H51  CHE L   1       3.877  -1.668  -2.373  1.00  0.00    +0.0297  H
ATOM     16 H52  CHE L   1       2.284  -2.269  -1.953  1.00  0.00    +0.0297  H
ATOM     17 H53  CHE L   1       2.100   0.105  -2.089  1.00  0.00    +0.0489  H
ATOM     18 H54  CHE L   1       3.595   0.368  -1.182  1.00  0.00    +0.0489  H
ENDROOT
BRANCH 1 23
ATOM     19  C3  CHE L   1       0.547   3.198   0.445  1.00  0.00    -0.0068  A
ATOM     20  C4  CHE L   1      -0.818   2.826   0.479  1.00  0.00    +0.0881  A
ATOM     21  C7  CHE L   1      -1.146   1.470   0.400  1.00  0.00    +0.1179  A
ATOM     22 N19  CHE L   1      -0.201   0.506   0.289  1.00  0.00    -0.2211 NA
ATOM     23 C20  CHE L   1       1.107   0.842   0.206  1.00  0.00    +0.1487  A
ATOM     24 C28  CHE L   1       1.521   2.179   0.302  1.00  0.00    +0.0982  A
BRANCH 19 26
ATOM     25  C1  CHE L   1       1.053   5.297  -0.866  1.00  0.00    -0.0612  C
ATOM     26  C2  CHE L   1       0.960   4.664   0.518  1.00  0.00    -0.0279  C
ATOM     27 H31  CHE L   1       1.394   6.332  -0.785  1.00  0.00    +0.0233  H
ATOM     28 H32  CHE L   1       0.077   5.297  -1.370  1.00  0.00    +0.0233  H
ATOM     29 H33  CHE L   1       1.754   4.755  -1.507  1.00  0.00    +0.0233  H
ATOM     30 H34  CHE L   1       0.258   5.232   1.138  1.00  0.00    +0.0311  H
ATOM     31 H35  CHE L   1       1.922   4.767   1.037  1.00  0.00    +0.0311  H
ENDBRANCH 19 26
BRANCH 20 32
ATOM     32  C5  CHE L   1      -1.848   3.822   0.590  1.00  0.00    +0.1021  C
ATOM     33  N6  CHE L   1      -2.636   4.667   0.683  1.00  0.00    -0.1908 NA
ENDBRANCH 20 32
BRANCH 21 34
ATOM     34  S8  CHE L   1      -2.841   0.899   0.462  1.00  0.00    -0.0868 SA
BRANCH 34 35
ATOM     35  C9  CHE L   1      -2.667  -0.868  -0.038  1.00  0.00    +0.1141  C
ATOM     36 H36  CHE L   1      -1.929  -1.321   0.634  1.00  0.00    +0.0563  H
BRANCH 35 37
ATOM     37 C10  CHE L   1      -2.137  -0.963  -1.480  1.00  0.00    +0.2362  C
ATOM     38 N11  CHE L   1      -0.891  -1.523  -1.614  1.00  0.00    -0.3686  N
ATOM     39 O12  CHE L   1      -2.730  -0.579  -2.482  1.00  0.00    -0.2719 OA
ATOM     40 H37  CHE L   1      -0.222  -1.305  -0.879  1.00  0.00    +0.1586 HD
ATOM     41 H38  CHE L   1      -0.514  -1.457  -2.549  1.00  0.00    +0.1586 HD
ENDBRANCH 35 37
BRANCH 35 42
ATOM     42 C13  CHE L   1      -3.983  -1.618   0.150  1.00  0.00    -0.0251  A
ATOM     43 C14  CHE L   1      -4.070  -2.645   1.108  1.00  0.00    -0.0570  A
ATOM     44 C15  CHE L   1      -5.263  -3.347   1.297  1.00  0.00    -0.0615  A
ATOM     45 C16  CHE L   1      -6.384  -3.037   0.533  1.00  0.00    -0.0617  A
ATOM     46 C17  CHE L   1      -6.319  -2.020  -0.417  1.00  0.00    -0.0615  A
ATOM     47 C18  CHE L   1      -5.129  -1.314  -0.605  1.00  0.00    -0.0570  A
ATOM     48 H39  CHE L   1      -3.207  -2.908   1.715  1.00  0.00    +0.0621  H
ATOM     49 H40  CHE L   1      -5.315  -4.142   2.038  1.00  0.00    +0.0618  H
ATOM     50 H41  CHE L   1      -7.310  -3.587   0.676  1.00  0.00    +0.0618  H
ATOM     51 H42  CHE L   1      -7.192  -1.778  -1.016  1.00  0.00    +0.0618  H
ATOM     52 H43  CHE L   1      -5.100  -0.524  -1.356  1.00  0.00    +0.0621  H
ENDBRANCH 35 42
ENDBRANCH 34 35
ENDBRANCH 21 34
BRANCH 24 53
ATOM     53 C29  CHE L   1       2.918   2.507   0.278  1.00  0.00    +0.1031  C
ATOM     54 N30  CHE L   1       4.046   2.776   0.266  1.00  0.00    -0.1907 NA
ENDBRANCH 24 53
ENDBRANCH 1 23
TORSDOF 8
