ROOT
ATOM      1  C1  CHE L   1      -2.194  -1.168  -0.178  1.00  0.00    -0.0438  C
ATOM      2  C2  CHE L   1      -1.807  -0.626  -1.554  1.00  0.00    +0.0410  C
ATOM      3  C3  CHE L   1      -3.008  -0.100  -2.346  1.00  0.00    -0.0115  C
ATOM      4  C4  CHE L   1      -3.591   1.219  -1.819  1.00  0.00    +0.0335  C
ATOM      5 C16  CHE L   1      -2.552   2.071  -1.092  1.00  0.00    -0.0141  C
ATOM      6 C17  CHE L   1      -1.168   1.815  -1.667  1.00  0.00    +0.0329  C
ATOM      7 N18  CHE L   1      -0.747   0.419  -1.365  1.00  0.00    -0.2815 NA
ATOM      8 H36  CHE L   1      -3.009  -1.897  -0.255  1.00  0.00    +0.0250  H
ATOM      9 H37  CHE L   1      -2.500  -0.376   0.512  1.00  0.00    +0.0250  H
ATOM     10 H38  CHE L   1      -1.339  -1.681   0.277  1.00  0.00    +0.0250  H
ATOM     11 H39  CHE L   1      -1.406  -1.473  -2.127  1.00  0.00    +0.0529  H
ATOM     12 H40  CHE L   1      -2.664   0.079  -3.375  1.00  0.00    +0.0305  H
ATOM     13 H41  CHE L   1      -3.780  -0.875  -2.422  1.00  0.00    +0.0305  H
ATOM     14 H42  CHE L   1      -3.932   1.785  -2.698  1.00  0.00    +0.0524  H
ATOM     15 H50  CHE L   1      -2.548   1.862  -0.015  1.00  0.00    +0.0302  H
ATOM     16 H51  CHE L   1      -2.813   3.131  -1.192  1.00  0.00    +0.0302  H
ATOM     17 H52  CHE L   1      -1.162   2.004  -2.746  1.00  0.00    +0.0496  H
ATOM     18 H53  CHE L   1      -0.468   2.514  -1.194  1.00  0.00    +0.0496  H
ENDROOT
BRANCH 4 19
ATOM     19  N5  CHE L   1      -4.767   1.013  -0.978  1.00  0.00    -0.3478  N
ATOM     20  C6  CHE L   1      -6.015   0.775  -1.541  1.00  0.00    +0.2739  C
ATOM     21  O7  CHE L   1      -6.181   0.775  -2.759  1.00  0.00    -0.2658 OA
ATOM     22 H43  CHE L   1      -4.628   0.821   0.004  1.00  0.00    +0.1629 HD
BRANCH 20 23
ATOM     23  C8  CHE L   1      -7.103   0.519  -0.585  1.00  0.00    +0.1701  A
ATOM     24  C9  CHE L   1      -7.085   0.536   0.840  1.00  0.00    +0.0132  A
ATOM     25 C10  CHE L   1      -8.372   0.228   1.213  1.00  0.00    +0.1411  A
ATOM     26 O14  CHE L   1      -9.122   0.042   0.096  1.00  0.00    -0.3586 OA
ATOM     27 N15  CHE L   1      -8.341   0.225  -1.025  1.00  0.00    -0.0732 NA
ATOM     28 H44  CHE L   1      -6.256   0.739   1.501  1.00  0.00    +0.0676  H
BRANCH 25 29
ATOM     29 C11  CHE L   1      -8.943   0.097   2.649  1.00  0.00    +0.0199  C
ATOM     30 C12  CHE L   1      -8.091   0.314   3.871  1.00  0.00    -0.0426  C
ATOM     31 C13  CHE L   1      -8.504  -1.078   3.486  1.00  0.00    -0.0426  C
ATOM     32 H45  CHE L   1      -9.985   0.393   2.725  1.00  0.00    +0.0380  H
ATOM     33 H46  CHE L   1      -8.566   0.758   4.741  1.00  0.00    +0.0272  H
ATOM     34 H47  CHE L   1      -7.047   0.579   3.764  1.00  0.00    +0.0272  H
ATOM     35 H48  CHE L   1      -7.749  -1.747   3.088  1.00  0.00    +0.0272  H
ATOM     36 H49  CHE L   1      -9.260  -1.576   4.085  1.00  0.00    +0.0272  H
ENDBRANCH 25 29
ENDBRANCH 20 23
ENDBRANCH 4 19
BRANCH 7 37
ATOM     37 S19  CHE L   1       0.770  -0.008  -2.009  1.00  0.00    +0.3197  S
ATOM     38 O20  CHE L   1       0.734   0.295  -3.421  1.00  0.00    -0.1824 OA
ATOM     39 O21  CHE L   1       1.120  -1.322  -1.530  1.00  0.00    -0.1824 OA
BRANCH 37 40
ATOM     40 N22  CHE L   1       1.749   1.121  -1.231  1.00  0.00    -0.2843 NA
ATOM     41 C23  CHE L   1       1.860   1.034   0.245  1.00  0.00    +0.0321  C
ATOM     42 C24  CHE L   1       2.991   0.112   0.688  1.00  0.00    -0.0190  C
ATOM     43 C25  CHE L   1       4.318   0.494   0.019  1.00  0.00    +0.0112  C
ATOM     44 C34  CHE L   1       4.139   0.502  -1.505  1.00  0.00    -0.0190  C
ATOM     45 C35  CHE L   1       3.025   1.465  -1.897  1.00  0.00    +0.0321  C
ATOM     46 H54  CHE L   1       0.915   0.704   0.689  1.00  0.00    +0.0496  H
ATOM     47 H55  CHE L   1       2.032   2.046   0.627  1.00  0.00    +0.0496  H
ATOM     48 H56  CHE L   1       3.089   0.172   1.780  1.00  0.00    +0.0298  H
ATOM     49 H57  CHE L   1       2.734  -0.930   0.455  1.00  0.00    +0.0298  H
ATOM     50 H58  CHE L   1       4.584   1.504   0.358  1.00  0.00    +0.0461  H
ATOM     51 H67  CHE L   1       5.062   0.817  -2.004  1.00  0.00    +0.0298  H
ATOM     52 H68  CHE L   1       3.907  -0.507  -1.868  1.00  0.00    +0.0298  H
ATOM     53 H69  CHE L   1       2.910   1.488  -2.985  1.00  0.00    +0.0496  H
ATOM     54 H70  CHE L   1       3.292   2.487  -1.606  1.00  0.00    +0.0496  H
BRANCH 43 55
ATOM     55 N26  CHE L   1       5.344  -0.445   0.482  1.00  0.00    -0.3092 NA
ATOM     56 H59  CHE L   1       5.179  -1.375   0.098  1.00  0.00    +0.1225 HD
BRANCH 55 57
ATOM     57 C27  CHE L   1       6.706  -0.031   0.154  1.00  0.00    +0.0215  C
ATOM     58 H60  CHE L   1       6.913   0.969   0.558  1.00  0.00    +0.0474  H
ATOM     59 H61  CHE L   1       6.857   0.030  -0.930  1.00  0.00    +0.0474  H
BRANCH 57 60
ATOM     60 C28  CHE L   1       7.709  -0.998   0.734  1.00  0.00    -0.0336  A
ATOM     61 C29  CHE L   1       8.264  -2.012  -0.060  1.00  0.00    -0.0573  A
ATOM     62 C30  CHE L   1       9.181  -2.914   0.483  1.00  0.00    -0.0615  A
ATOM     63 C31  CHE L   1       9.548  -2.816   1.826  1.00  0.00    -0.0617  A
ATOM     64 C32  CHE L   1       8.988  -1.823   2.629  1.00  0.00    -0.0615  A
ATOM     65 C33  CHE L   1       8.068  -0.924   2.088  1.00  0.00    -0.0573  A
ATOM     66 H62  CHE L   1       7.980  -2.108  -1.106  1.00  0.00    +0.0621  H
ATOM     67 H63  CHE L   1       9.605  -3.697  -0.141  1.00  0.00    +0.0618  H
ATOM     68 H64  CHE L   1      10.258  -3.521   2.250  1.00  0.00    +0.0618  H
ATOM     69 H65  CHE L   1       9.256  -1.755   3.680  1.00  0.00    +0.0618  H
ATOM     70 H66  CHE L   1       7.618  -0.169   2.729  1.00  0.00    +0.0621  H
ENDBRANCH 57 60
ENDBRANCH 55 57
ENDBRANCH 43 55
ENDBRANCH 37 40
ENDBRANCH 7 37
TORSDOF 8
