ROOT
ATOM      1  C8  157 L   1       1.677  -1.610   0.401  1.00  0.00    +0.2252  C
ATOM      2  O9  157 L   1       1.925  -2.743   0.817  1.00  0.00    -0.2730 OA
ATOM      3 N10  157 L   1       0.370  -1.119   0.320  1.00  0.00    -0.3420  N
ATOM      4 C11  157 L   1      -0.708  -2.057   0.633  1.00  0.00    +0.0235  C
ATOM      5 C12  157 L   1      -1.966  -1.361   1.131  1.00  0.00    -0.0088  C
ATOM      6 C13  157 L   1      -2.394  -0.262   0.167  1.00  0.00    +0.0623  C
ATOM      7 C19  157 L   1      -1.253   0.732  -0.018  1.00  0.00    -0.0088  C
ATOM      8 C20  157 L   1       0.007   0.033  -0.509  1.00  0.00    +0.0235  C
ATOM      9 H29  157 L   1      -0.921  -2.621  -0.284  1.00  0.00    +0.0489  H
ATOM     10 H30  157 L   1      -0.377  -2.779   1.387  1.00  0.00    +0.0489  H
ATOM     11 H31  157 L   1      -1.788  -0.930   2.125  1.00  0.00    +0.0307  H
ATOM     12 H32  157 L   1      -2.774  -2.090   1.261  1.00  0.00    +0.0307  H
ATOM     13 H33  157 L   1      -2.662  -0.694  -0.806  1.00  0.00    +0.0597  H
ATOM     14 H41  157 L   1      -1.051   1.242   0.933  1.00  0.00    +0.0307  H
ATOM     15 H42  157 L   1      -1.550   1.518  -0.723  1.00  0.00    +0.0307  H
ATOM     16 H43  157 L   1       0.819   0.763  -0.544  1.00  0.00    +0.0489  H
ATOM     17 H44  157 L   1      -0.136  -0.340  -1.530  1.00  0.00    +0.0489  H
ENDROOT
BRANCH 1 18
ATOM     18  C7  157 L   1       2.789  -0.686  -0.061  1.00  0.00    +0.0437  C
ATOM     19 H27  157 L   1       2.697   0.272   0.463  1.00  0.00    +0.0378  H
ATOM     20 H28  157 L   1       2.676  -0.514  -1.138  1.00  0.00    +0.0378  H
BRANCH 18 21
ATOM     21  C6  157 L   1       4.162  -1.291   0.214  1.00  0.00    +0.0268  C
ATOM     22 H25  157 L   1       4.248  -2.288  -0.233  1.00  0.00    +0.0491  H
ATOM     23 H26  157 L   1       4.327  -1.393   1.294  1.00  0.00    +0.0491  H
BRANCH 21 26
ATOM     24  C3  157 L   1       5.625   0.699   0.224  1.00  0.00    +0.2443  C
ATOM     25  O4  157 L   1       5.074   1.215   1.186  1.00  0.00    -0.2683 OA
ATOM     26  N5  157 L   1       5.242  -0.492  -0.342  1.00  0.00    -0.3520  N
ATOM     27 H24  157 L   1       5.766  -0.877  -1.115  1.00  0.00    +0.1626 HD
BRANCH 24 29
ATOM     28  C1  157 L   1       7.276   2.492  -0.052  1.00  0.00    -0.0936  C
ATOM     29  C2  157 L   1       6.790   1.314  -0.463  1.00  0.00    -0.0047  C
ATOM     30 H21  157 L   1       6.837   3.025   0.788  1.00  0.00    +0.0536  H
ATOM     31 H22  157 L   1       8.127   2.948  -0.547  1.00  0.00    +0.0536  H
ATOM     32 H23  157 L   1       7.237   0.793  -1.300  1.00  0.00    +0.0666  H
ENDBRANCH 24 29
ENDBRANCH 21 26
ENDBRANCH 18 21
ENDBRANCH 1 18
BRANCH 6 33
ATOM     33 O14  157 L   1      -3.513   0.442   0.710  1.00  0.00    -0.3732 OA
BRANCH 33 34
ATOM     34 C15  157 L   1      -4.823   0.010   0.277  1.00  0.00    +0.0591  C
ATOM     35 C16  157 L   1      -6.007   0.803   0.879  1.00  0.00    -0.0265  C
ATOM     36 C17  157 L   1      -5.989   1.680  -0.386  1.00  0.00    -0.0484  C
ATOM     37 C18  157 L   1      -5.291   0.516  -1.110  1.00  0.00    -0.0265  C
ATOM     38 H34  157 L   1      -4.932  -1.072   0.411  1.00  0.00    +0.0596  H
ATOM     39 H35  157 L   1      -6.920   0.208   0.997  1.00  0.00    +0.0290  H
ATOM     40 H36  157 L   1      -5.805   1.332   1.814  1.00  0.00    +0.0290  H
ATOM     41 H37  157 L   1      -5.365   2.576  -0.292  1.00  0.00    +0.0267  H
ATOM     42 H38  157 L   1      -6.967   1.968  -0.780  1.00  0.00    +0.0267  H
ATOM     43 H39  157 L   1      -4.504   0.812  -1.809  1.00  0.00    +0.0290  H
ATOM     44 H40  157 L   1      -5.977  -0.172  -1.618  1.00  0.00    +0.0290  H
ENDBRANCH 33 34
ENDBRANCH 6 33
TORSDOF 6
