ROOT
ATOM      1  C3  CHE L   1      -3.526  -0.729   0.428  1.00  0.00    +0.1635  A
ATOM      2  C4  CHE L   1      -3.086  -1.450  -0.688  1.00  0.00    +0.0099  A
ATOM      3  C5  CHE L   1      -1.810  -1.292  -1.212  1.00  0.00    +0.0812  A
ATOM      4  N6  CHE L   1      -1.479  -2.003  -2.291  1.00  0.00    -0.2183 NA
ATOM      5  C7  CHE L   1      -0.246  -1.809  -2.783  1.00  0.00    +0.2343  A
ATOM      6 N10  CHE L   1       0.688  -0.992  -2.278  1.00  0.00    -0.2008 NA
ATOM      7 C11  CHE L   1       0.358  -0.300  -1.175  1.00  0.00    +0.1421  A
ATOM      8 C19  CHE L   1      -0.928  -0.395  -0.597  1.00  0.00    +0.0463  A
ATOM      9 C20  CHE L   1      -1.375   0.357   0.519  1.00  0.00    -0.0036  A
ATOM     10 C21  CHE L   1      -2.661   0.194   1.035  1.00  0.00    +0.1623  A
ATOM     11 H27  CHE L   1      -3.739  -2.160  -1.187  1.00  0.00    +0.0677  H
ATOM     12 H39  CHE L   1      -0.691   1.078   0.956  1.00  0.00    +0.0663  H
ENDROOT
BRANCH 1 14
ATOM     13  C1  CHE L   1      -5.680  -1.770   0.398  1.00  0.00    +0.0790  C
ATOM     14  O2  CHE L   1      -4.773  -0.847   0.987  1.00  0.00    -0.4914 OA
ATOM     15 H24  CHE L   1      -6.611  -1.735   0.971  1.00  0.00    +0.0660  H
ATOM     16 H25  CHE L   1      -5.913  -1.489  -0.634  1.00  0.00    +0.0660  H
ATOM     17 H26  CHE L   1      -5.294  -2.793   0.454  1.00  0.00    +0.0660  H
ENDBRANCH 1 14
BRANCH 5 18
ATOM     18  C8  CHE L   1       0.113  -2.558  -3.959  1.00  0.00    +0.1400  C
ATOM     19  N9  CHE L   1       0.402  -3.165  -4.909  1.00  0.00    -0.1876 NA
ENDBRANCH 5 18
BRANCH 7 20
ATOM     20 N12  CHE L   1       1.339   0.527  -0.590  1.00  0.00    -0.3528  N
ATOM     21 C13  CHE L   1       1.895  -0.034   0.669  1.00  0.00    +0.0328  C
ATOM     22 C14  CHE L   1       3.426  -0.247   0.601  1.00  0.00    +0.0163  C
ATOM     23 N15  CHE L   1       4.214   0.932   0.184  1.00  0.00    -0.3020 NA
ATOM     24 C16  CHE L   1       4.676   1.716   1.326  1.00  0.00    -0.0126  C
ATOM     25 C17  CHE L   1       3.459   1.782  -0.765  1.00  0.00    +0.0163  C
ATOM     26 C18  CHE L   1       2.367   1.012  -1.540  1.00  0.00    +0.0328  C
ATOM     27 H28  CHE L   1       1.426  -0.988   0.941  1.00  0.00    +0.0501  H
ATOM     28 H29  CHE L   1       1.673   0.673   1.477  1.00  0.00    +0.0501  H
ATOM     29 H30  CHE L   1       3.625  -1.043  -0.130  1.00  0.00    +0.0444  H
ATOM     30 H31  CHE L   1       3.786  -0.640   1.560  1.00  0.00    +0.0444  H
ATOM     31 H32  CHE L   1       5.280   2.566   0.989  1.00  0.00    +0.0391  H
ATOM     32 H33  CHE L   1       3.845   2.098   1.930  1.00  0.00    +0.0391  H
ATOM     33 H34  CHE L   1       5.320   1.110   1.972  1.00  0.00    +0.0391  H
ATOM     34 H35  CHE L   1       2.971   2.613  -0.237  1.00  0.00    +0.0444  H
ATOM     35 H36  CHE L   1       4.168   2.222  -1.476  1.00  0.00    +0.0444  H
ATOM     36 H37  CHE L   1       1.899   1.689  -2.265  1.00  0.00    +0.0501  H
ATOM     37 H38  CHE L   1       2.839   0.191  -2.097  1.00  0.00    +0.0501  H
ENDBRANCH 7 20
BRANCH 10 38
ATOM     38 O22  CHE L   1      -3.160   0.876   2.114  1.00  0.00    -0.4914 OA
ATOM     39 C23  CHE L   1      -2.345   1.884   2.696  1.00  0.00    +0.0790  C
ATOM     40 H40  CHE L   1      -1.435   1.454   3.128  1.00  0.00    +0.0660  H
ATOM     41 H41  CHE L   1      -2.912   2.345   3.510  1.00  0.00    +0.0660  H
ATOM     42 H42  CHE L   1      -2.106   2.669   1.971  1.00  0.00    +0.0660  H
ENDBRANCH 10 38
TORSDOF 4
