ROOT
ATOM      1  C5  MCU L   1       5.854   0.033  -0.796  1.00  0.00    +0.2291  C
ATOM      2  O6  MCU L   1       6.375   0.362  -1.898  1.00  0.00    -0.2725 OA
ATOM      3  N7  MCU L   1       4.470   0.359  -0.572  1.00  0.00    -0.3361  N
ATOM      4  C8  MCU L   1       3.460  -0.613  -0.180  1.00  0.00    +0.0451  C
ATOM      5  C9  MCU L   1       2.136   0.142  -0.203  1.00  0.00    +0.0859  C
ATOM      6 N10  MCU L   1       1.059  -0.713  -0.708  1.00  0.00    -0.3439  N
ATOM      7 C11  MCU L   1       0.371  -1.638   0.143  1.00  0.00    +0.2552  C
ATOM      8 O12  MCU L   1       0.755  -1.832   1.330  1.00  0.00    -0.2675 OA
ATOM      9 C13  MCU L   1      -0.827  -2.329  -0.354  1.00  0.00    +0.0746  A
ATOM     10 C14  MCU L   1      -2.068  -2.057   0.234  1.00  0.00    -0.0389  A
ATOM     11 C15  MCU L   1      -3.256  -2.581  -0.315  1.00  0.00    -0.0169  A
ATOM     12 C16  MCU L   1      -3.161  -3.439  -1.432  1.00  0.00    -0.0513  A
ATOM     13 C17  MCU L   1      -1.915  -3.747  -1.994  1.00  0.00    -0.0251  A
ATOM     14 C18  MCU L   1      -0.752  -3.177  -1.473  1.00  0.00    +0.1357  A
ATOM     15 F19  MCU L   1       0.448  -3.450  -2.056  1.00  0.00    -0.2047  F
ATOM     16 C20  MCU L   1      -4.586  -2.182   0.235  1.00  0.00    -0.0144  A
ATOM     17 C21  MCU L   1      -5.676  -3.069   0.193  1.00  0.00    -0.0538  A
ATOM     18 C22  MCU L   1      -6.933  -2.666   0.650  1.00  0.00    -0.0577  A
ATOM     19 C23  MCU L   1      -7.118  -1.385   1.170  1.00  0.00    -0.0199  A
ATOM     20 C24  MCU L   1      -6.041  -0.497   1.259  1.00  0.00    +0.1218  A
ATOM     21 C25  MCU L   1      -4.780  -0.896   0.779  1.00  0.00    -0.0122  A
ATOM     22 O26  MCU L   1      -6.266   0.770   1.827  1.00  0.00    -0.4825 OA
ATOM     23 C27  MCU L   1      -5.255   1.632   2.346  1.00  0.00    +0.1672  C
ATOM     24 C28  MCU L   1      -4.960   2.770   1.410  1.00  0.00    +0.2588  C
ATOM     25 O29  MCU L   1      -4.933   3.944   1.868  1.00  0.00    -0.2695 OA
ATOM     26 N30  MCU L   1      -4.671   2.536   0.020  1.00  0.00    -0.3492  N
ATOM     27 C31  MCU L   1      -3.958   3.512  -0.800  1.00  0.00    +0.0435  C
ATOM     28 C32  MCU L   1      -2.480   3.237  -0.757  1.00  0.00    -0.0280  A
ATOM     29 C33  MCU L   1      -1.895   2.355  -1.679  1.00  0.00    -0.0534  A
ATOM     30 C34  MCU L   1      -0.519   2.106  -1.639  1.00  0.00    -0.0196  A
ATOM     31 C35  MCU L   1       0.292   2.727  -0.669  1.00  0.00    +0.1211  A
ATOM     32 C36  MCU L   1      -0.298   3.606   0.248  1.00  0.00    -0.0196  A
ATOM     33 C37  MCU L   1      -1.675   3.850   0.216  1.00  0.00    -0.0534  A
ATOM     34 O38  MCU L   1       1.677   2.517  -0.590  1.00  0.00    -0.4850 OA
ATOM     35 C39  MCU L   1       2.374   1.372  -1.094  1.00  0.00    +0.1393  C
ATOM     36 C40  MCU L   1       3.885   1.607  -1.042  1.00  0.00    +0.0602  C
ATOM     37 H50  MCU L   1       3.458  -1.449  -0.910  1.00  0.00    +0.0510  H
ATOM     38 H51  MCU L   1       3.639  -1.005   0.840  1.00  0.00    +0.0510  H
ATOM     39 H52  MCU L   1       1.893   0.491   0.827  1.00  0.00    +0.0577  H
ATOM     40 H53  MCU L   1       0.718  -0.603  -1.690  1.00  0.00    +0.1631 HD
ATOM     41 H54  MCU L   1      -2.097  -1.408   1.102  1.00  0.00    +0.0632  H
ATOM     42 H55  MCU L   1      -4.049  -3.842  -1.899  1.00  0.00    +0.0624  H
ATOM     43 H56  MCU L   1      -1.859  -4.409  -2.853  1.00  0.00    +0.0647  H
ATOM     44 H57  MCU L   1      -5.562  -4.074  -0.195  1.00  0.00    +0.0624  H
ATOM     45 H58  MCU L   1      -7.767  -3.350   0.602  1.00  0.00    +0.0619  H
ATOM     46 H59  MCU L   1      -8.102  -1.087   1.517  1.00  0.00    +0.0654  H
ATOM     47 H60  MCU L   1      -3.959  -0.196   0.783  1.00  0.00    +0.0660  H
ATOM     48 H61  MCU L   1      -4.321   1.079   2.590  1.00  0.00    +0.0797  H
ATOM     49 H62  MCU L   1      -5.628   2.046   3.312  1.00  0.00    +0.0797  H
ATOM     50 H63  MCU L   1      -4.818   1.586  -0.384  1.00  0.00    +0.1627 HD
ATOM     51 H64  MCU L   1      -4.176   4.548  -0.456  1.00  0.00    +0.0536  H
ATOM     52 H65  MCU L   1      -4.321   3.447  -1.851  1.00  0.00    +0.0536  H
ATOM     53 H66  MCU L   1      -2.505   1.864  -2.434  1.00  0.00    +0.0622  H
ATOM     54 H67  MCU L   1      -0.105   1.443  -2.385  1.00  0.00    +0.0654  H
ATOM     55 H68  MCU L   1       0.314   4.102   0.993  1.00  0.00    +0.0654  H
ATOM     56 H69  MCU L   1      -2.108   4.521   0.948  1.00  0.00    +0.0622  H
ATOM     57 H70  MCU L   1       2.101   1.164  -2.152  1.00  0.00    +0.0772  H
ATOM     58 H71  MCU L   1       4.146   2.422  -0.328  1.00  0.00    +0.0526  H
ATOM     59 H72  MCU L   1       4.269   1.870  -2.058  1.00  0.00    +0.0526  H
ENDROOT
BRANCH 1 61
ATOM     60  C1  MCU L   1       6.435  -2.198   0.217  1.00  0.00    -0.0515  C
ATOM     61  C2  MCU L   1       6.707  -0.683   0.254  1.00  0.00    +0.0409  C
ATOM     62  C3  MCU L   1       6.419  -0.114   1.660  1.00  0.00    -0.0515  C
ATOM     63  C4  MCU L   1       8.207  -0.459  -0.039  1.00  0.00    -0.0515  C
ATOM     64 H41  MCU L   1       7.098  -2.726   0.933  1.00  0.00    +0.0240  H
ATOM     65 H42  MCU L   1       6.621  -2.608  -0.803  1.00  0.00    +0.0240  H
ATOM     66 H43  MCU L   1       5.392  -2.430   0.505  1.00  0.00    +0.0240  H
ATOM     67 H44  MCU L   1       5.380  -0.305   1.993  1.00  0.00    +0.0240  H
ATOM     68 H45  MCU L   1       7.093  -0.578   2.415  1.00  0.00    +0.0240  H
ATOM     69 H46  MCU L   1       6.582   0.985   1.668  1.00  0.00    +0.0240  H
ATOM     70 H47  MCU L   1       8.493  -0.897  -1.019  1.00  0.00    +0.0240  H
ATOM     71 H48  MCU L   1       8.441   0.627  -0.059  1.00  0.00    +0.0240  H
ATOM     72 H49  MCU L   1       8.836  -0.938   0.739  1.00  0.00    +0.0240  H
ENDBRANCH 1 61
TORSDOF 1
