ROOT
ATOM      1  C9  CHE L   1      -2.745   0.273  -0.370  1.00  0.00    +0.0901  A
ATOM      2 C10  CHE L   1      -2.164   0.646  -1.563  1.00  0.00    +0.0371  A
ATOM      3 N11  CHE L   1      -0.822   0.417  -1.401  1.00  0.00    -0.3059  N
ATOM      4 C12  CHE L   1       0.223   0.599  -2.294  1.00  0.00    +0.0131  A
ATOM      5 C13  CHE L   1       1.475   0.308  -1.903  1.00  0.00    -0.0218  A
ATOM      6 C14  CHE L   1       1.741  -0.191  -0.542  1.00  0.00    +0.0428  A
ATOM      7 C25  CHE L   1       0.684  -0.368   0.292  1.00  0.00    +0.0044  A
ATOM      8 C26  CHE L   1      -0.646  -0.062  -0.113  1.00  0.00    +0.1402  A
ATOM      9 N27  CHE L   1      -1.793  -0.144   0.530  1.00  0.00    -0.2277 NA
ATOM     10 H38  CHE L   1      -2.567   1.041  -2.484  1.00  0.00    +0.0835  H
ATOM     11 H39  CHE L   1      -0.020   0.961  -3.285  1.00  0.00    +0.0814  H
ATOM     12 H40  CHE L   1       2.294   0.412  -2.604  1.00  0.00    +0.0653  H
ATOM     13 H53  CHE L   1       0.810  -0.724   1.306  1.00  0.00    +0.0675  H
ENDROOT
BRANCH 1 17
ATOM     14  C3  CHE L   1      -6.856   0.656   0.767  1.00  0.00    +0.1387  A
ATOM     15  C4  CHE L   1      -6.532   0.033  -0.443  1.00  0.00    -0.0125  A
ATOM     16  C5  CHE L   1      -5.188  -0.137  -0.850  1.00  0.00    -0.0094  A
ATOM     17  C8  CHE L   1      -4.155   0.361  -0.034  1.00  0.00    +0.0088  A
ATOM     18 C28  CHE L   1      -4.483   0.969   1.188  1.00  0.00    -0.0303  A
ATOM     19 C29  CHE L   1      -5.814   1.117   1.582  1.00  0.00    +0.0831  A
ATOM     20 CL30 CHE L   1      -6.129   1.893   3.096  1.00  0.00    -0.0797 Cl
ATOM     21 H34  CHE L   1      -7.312  -0.344  -1.099  1.00  0.00    +0.0658  H
ATOM     22 H54  CHE L   1      -3.687   1.333   1.836  1.00  0.00    +0.0640  H
BRANCH 14 24
ATOM     23  C1  CHE L   1      -9.204   0.344   0.440  1.00  0.00    +0.0789  C
ATOM     24  O2  CHE L   1      -8.133   0.852   1.222  1.00  0.00    -0.4936 OA
ATOM     25 H31  CHE L   1      -9.246   0.835  -0.538  1.00  0.00    +0.0660  H
ATOM     26 H32  CHE L   1      -9.136  -0.744   0.335  1.00  0.00    +0.0660  H
ATOM     27 H33  CHE L   1     -10.138   0.569   0.965  1.00  0.00    +0.0660  H
ENDBRANCH 14 24
BRANCH 16 28
ATOM     28  C6  CHE L   1      -4.938  -0.846  -2.159  1.00  0.00    +0.0700  C
ATOM     29  O7  CHE L   1      -5.001   0.065  -3.250  1.00  0.00    -0.3904 OA
ATOM     30 H35  CHE L   1      -3.976  -1.366  -2.177  1.00  0.00    +0.0607  H
ATOM     31 H36  CHE L   1      -5.700  -1.618  -2.321  1.00  0.00    +0.0607  H
ATOM     32 H37  CHE L   1      -5.297   0.926  -2.909  1.00  0.00    +0.2098 HD
ENDBRANCH 16 28
ENDBRANCH 1 17
BRANCH 6 33
ATOM     33 N15  CHE L   1       3.066  -0.472  -0.178  1.00  0.00    -0.3680  N
ATOM     34 C16  CHE L   1       3.401  -1.391   0.935  1.00  0.00    +0.0314  C
ATOM     35 C17  CHE L   1       4.817  -1.991   0.779  1.00  0.00    +0.0166  C
ATOM     36 N18  CHE L   1       5.916  -1.003   0.698  1.00  0.00    -0.2980 NA
ATOM     37 C23  CHE L   1       5.429   0.276   0.136  1.00  0.00    +0.0166  C
ATOM     38 C24  CHE L   1       4.243   0.129  -0.845  1.00  0.00    +0.0314  C
ATOM     39 H41  CHE L   1       3.326  -0.851   1.886  1.00  0.00    +0.0500  H
ATOM     40 H42  CHE L   1       2.688  -2.223   0.961  1.00  0.00    +0.0500  H
ATOM     41 H43  CHE L   1       4.840  -2.570  -0.153  1.00  0.00    +0.0444  H
ATOM     42 H44  CHE L   1       4.994  -2.721   1.579  1.00  0.00    +0.0444  H
ATOM     43 H49  CHE L   1       6.256   0.768  -0.389  1.00  0.00    +0.0444  H
ATOM     44 H50  CHE L   1       5.108   0.948   0.944  1.00  0.00    +0.0444  H
ATOM     45 H51  CHE L   1       4.533  -0.488  -1.704  1.00  0.00    +0.0500  H
ATOM     46 H52  CHE L   1       4.001   1.132  -1.216  1.00  0.00    +0.0500  H
BRANCH 36 47
ATOM     47 C19  CHE L   1       6.595  -0.831   1.994  1.00  0.00    +0.0118  C
ATOM     48 H45  CHE L   1       6.885  -1.818   2.377  1.00  0.00    +0.0436  H
ATOM     49 H46  CHE L   1       5.896  -0.404   2.725  1.00  0.00    +0.0436  H
BRANCH 47 50
ATOM     50 C20  CHE L   1       7.860   0.039   1.954  1.00  0.00    +0.0475  C
ATOM     51 H47  CHE L   1       8.212   0.182   2.983  1.00  0.00    +0.0430  H
ATOM     52 H48  CHE L   1       7.639   1.038   1.565  1.00  0.00    +0.0430  H
BRANCH 50 53
ATOM     53 C21  CHE L   1       8.936  -0.585   1.172  1.00  0.00    +0.0638  C
ATOM     54 N22  CHE L   1       9.813  -1.057   0.577  1.00  0.00    -0.1965 NA
ENDBRANCH 50 53
ENDBRANCH 47 50
ENDBRANCH 36 47
ENDBRANCH 6 33
TORSDOF 7
