ROOT
ATOM      1 N12  CHE L   1      -3.874   0.852  -0.064  1.00  0.00    -0.2864 NA
ATOM      2 C13  CHE L   1      -4.316   0.262   1.222  1.00  0.00    +0.0666  C
ATOM      3 C14  CHE L   1      -3.957  -1.240   1.252  1.00  0.00    +0.0689  C
ATOM      4 O15  CHE L   1      -4.533  -1.942   0.139  1.00  0.00    -0.3757 OA
ATOM      5 C16  CHE L   1      -4.071  -1.383  -1.100  1.00  0.00    +0.0689  C
ATOM      6 C17  CHE L   1      -4.426   0.115  -1.220  1.00  0.00    +0.0666  C
ATOM      7 C18  CHE L   1      -5.956   0.323  -1.230  1.00  0.00    -0.0034  C
ATOM      8 C19  CHE L   1      -6.526   0.932   0.058  1.00  0.00    +0.0592  C
ATOM      9 O20  CHE L   1      -6.440   2.360   0.015  1.00  0.00    -0.3916 OA
ATOM     10 C21  CHE L   1      -5.843   0.453   1.343  1.00  0.00    -0.0034  C
ATOM     11 H38  CHE L   1      -3.830   0.753   2.071  1.00  0.00    +0.0555  H
ATOM     12 H39  CHE L   1      -2.875  -1.398   1.241  1.00  0.00    +0.0580  H
ATOM     13 H40  CHE L   1      -4.340  -1.703   2.168  1.00  0.00    +0.0580  H
ATOM     14 H41  CHE L   1      -4.539  -1.950  -1.912  1.00  0.00    +0.0580  H
ATOM     15 H42  CHE L   1      -2.992  -1.549  -1.175  1.00  0.00    +0.0580  H
ATOM     16 H43  CHE L   1      -4.017   0.490  -2.164  1.00  0.00    +0.0555  H
ATOM     17 H44  CHE L   1      -6.205   0.976  -2.076  1.00  0.00    +0.0311  H
ATOM     18 H45  CHE L   1      -6.459  -0.631  -1.428  1.00  0.00    +0.0311  H
ATOM     19 H46  CHE L   1      -7.597   0.706   0.119  1.00  0.00    +0.0594  H
ATOM     20 H47  CHE L   1      -6.838   2.667  -0.816  1.00  0.00    +0.2098 HD
ATOM     21 H48  CHE L   1      -6.313  -0.481   1.674  1.00  0.00    +0.0311  H
ATOM     22 H49  CHE L   1      -6.033   1.184   2.141  1.00  0.00    +0.0311  H
ENDROOT
BRANCH 1 23
ATOM     23  S9  CHE L   1      -2.486   1.778  -0.185  1.00  0.00    +0.2618  S
ATOM     24 O10  CHE L   1      -2.480   2.411  -1.489  1.00  0.00    -0.2001 OA
ATOM     25 O11  CHE L   1      -2.344   2.558   1.025  1.00  0.00    -0.2001 OA
BRANCH 23 29
ATOM     26  C5  CHE L   1       0.971  -1.223  -0.199  1.00  0.00    -0.0282  A
ATOM     27  C6  CHE L   1       0.391  -0.804  -1.406  1.00  0.00    -0.0556  A
ATOM     28  C7  CHE L   1      -0.671   0.102  -1.404  1.00  0.00    -0.0415  A
ATOM     29  C8  CHE L   1      -1.166   0.585  -0.188  1.00  0.00    +0.0867  A
ATOM     30 C22  CHE L   1      -0.573   0.208   1.019  1.00  0.00    -0.0415  A
ATOM     31 C23  CHE L   1       0.485  -0.702   1.011  1.00  0.00    -0.0556  A
ATOM     32 H36  CHE L   1       0.769  -1.175  -2.357  1.00  0.00    +0.0621  H
ATOM     33 H37  CHE L   1      -1.100   0.432  -2.348  1.00  0.00    +0.0631  H
ATOM     34 H50  CHE L   1      -0.921   0.619   1.964  1.00  0.00    +0.0631  H
ATOM     35 H51  CHE L   1       0.946  -0.995   1.955  1.00  0.00    +0.0621  H
BRANCH 26 36
ATOM     36  C4  CHE L   1       2.136  -2.181  -0.196  1.00  0.00    +0.0437  C
ATOM     37 H34  CHE L   1       2.013  -2.925   0.600  1.00  0.00    +0.0536  H
ATOM     38 H35  CHE L   1       2.185  -2.726  -1.145  1.00  0.00    +0.0536  H
BRANCH 36 41
ATOM     39  O1  CHE L   1       3.607  -1.898   2.198  1.00  0.00    -0.2676 OA
ATOM     40  C2  CHE L   1       4.003  -1.354   1.173  1.00  0.00    +0.2537  C
ATOM     41  N3  CHE L   1       3.385  -1.469  -0.049  1.00  0.00    -0.3480  N
ATOM     42 H33  CHE L   1       3.636  -0.824  -0.785  1.00  0.00    +0.1630 HD
BRANCH 40 43
ATOM     43 C24  CHE L   1       5.189  -0.445   1.191  1.00  0.00    +0.0556  A
ATOM     44 C25  CHE L   1       5.437   0.406   2.355  1.00  0.00    -0.0446  A
ATOM     45 C26  CHE L   1       6.506   1.224   2.422  1.00  0.00    -0.0181  A
ATOM     46 C27  CHE L   1       7.432   1.260   1.343  1.00  0.00    +0.1375  A
ATOM     47 N28  CHE L   1       8.533   1.959   1.160  1.00  0.00    -0.2361 NA
ATOM     48 C29  CHE L   1       9.017   1.563  -0.061  1.00  0.00    +0.0464  A
ATOM     49 C30  CHE L   1       8.202   0.613  -0.632  1.00  0.00    +0.0293  A
ATOM     50 N31  CHE L   1       7.182   0.420   0.263  1.00  0.00    -0.3059  N
ATOM     51 C32  CHE L   1       6.080  -0.429   0.180  1.00  0.00    +0.0235  A
ATOM     52 H52  CHE L   1       4.728   0.355   3.178  1.00  0.00    +0.0627  H
ATOM     53 H53  CHE L   1       6.690   1.853   3.285  1.00  0.00    +0.0654  H
ATOM     54 H54  CHE L   1       9.929   1.984  -0.464  1.00  0.00    +0.0845  H
ATOM     55 H55  CHE L   1       8.261   0.078  -1.568  1.00  0.00    +0.0829  H
ATOM     56 H56  CHE L   1       6.009  -1.050  -0.704  1.00  0.00    +0.0821  H
ENDBRANCH 40 43
ENDBRANCH 36 41
ENDBRANCH 26 36
ENDBRANCH 23 29
ENDBRANCH 1 23
TORSDOF 5
