ROOT
ATOM      1  O1  CHE L   1       5.690  -0.093   3.934  1.00  0.00    -0.2839 OA
ATOM      2  C2  CHE L   1       5.089  -0.140   2.865  1.00  0.00    +0.2229  A
ATOM      3  C3  CHE L   1       5.684  -0.729   1.647  1.00  0.00    +0.0053  A
ATOM      4  C4  CHE L   1       4.939  -0.744   0.533  1.00  0.00    +0.0150  A
ATOM      5  N5  CHE L   1       3.633  -0.256   0.430  1.00  0.00    -0.3043  N
ATOM      6 C24  CHE L   1       3.087   0.330   1.572  1.00  0.00    +0.0564  A
ATOM      7 C25  CHE L   1       3.710   0.418   2.755  1.00  0.00    +0.1805  A
ATOM      8 O26  CHE L   1       3.141   1.013   3.861  1.00  0.00    -0.5022 OA
ATOM      9 H27  CHE L   1       6.689  -1.120   1.703  1.00  0.00    +0.0672  H
ATOM     10 H28  CHE L   1       5.344  -1.175  -0.380  1.00  0.00    +0.0814  H
ATOM     11 H41  CHE L   1       2.102   0.769   1.476  1.00  0.00    +0.0852  H
ATOM     12 H42  CHE L   1       3.820   0.931   4.564  1.00  0.00    +0.2923 HD
ENDROOT
BRANCH 5 13
ATOM     13  C6  CHE L   1       2.947  -0.335  -0.834  1.00  0.00    +0.1381  A
ATOM     14  C7  CHE L   1       1.557  -0.195  -0.923  1.00  0.00    -0.0110  A
ATOM     15  C8  CHE L   1       0.910  -0.271  -2.165  1.00  0.00    -0.0101  A
ATOM     16 C21  CHE L   1       1.674  -0.501  -3.303  1.00  0.00    -0.0356  A
ATOM     17 C22  CHE L   1       3.037  -0.645  -3.148  1.00  0.00    +0.0305  A
ATOM     18 N23  CHE L   1       3.670  -0.573  -1.959  1.00  0.00    -0.2375 NA
ATOM     19 H29  CHE L   1       0.955  -0.071  -0.031  1.00  0.00    +0.0660  H
ATOM     20 H39  CHE L   1       1.234  -0.562  -4.292  1.00  0.00    +0.0639  H
ATOM     21 H40  CHE L   1       3.681  -0.827  -4.004  1.00  0.00    +0.0830  H
BRANCH 15 22
ATOM     22  C9  CHE L   1      -0.532  -0.129  -2.270  1.00  0.00    +0.0197  A
ATOM     23 C10  CHE L   1      -1.454  -0.689  -3.185  1.00  0.00    +0.0571  A
ATOM     24 N11  CHE L   1      -2.711  -0.300  -2.959  1.00  0.00    -0.1787 NA
ATOM     25 N12  CHE L   1      -2.605   0.505  -1.881  1.00  0.00    -0.2665  N
ATOM     26 C20  CHE L   1      -1.315   0.655  -1.448  1.00  0.00    +0.0336  A
ATOM     27 H30  CHE L   1      -1.262  -1.367  -4.006  1.00  0.00    +0.0854  H
ATOM     28 H38  CHE L   1      -1.081   1.293  -0.608  1.00  0.00    +0.0832  H
BRANCH 25 29
ATOM     29 C13  CHE L   1      -3.790   1.153  -1.333  1.00  0.00    +0.0665  C
ATOM     30 H31  CHE L   1      -4.626   0.996  -2.024  1.00  0.00    +0.0558  H
ATOM     31 H32  CHE L   1      -3.578   2.229  -1.308  1.00  0.00    +0.0558  H
BRANCH 29 32
ATOM     32 C14  CHE L   1      -4.136   0.621   0.036  1.00  0.00    -0.0261  A
ATOM     33 C15  CHE L   1      -4.025   1.438   1.171  1.00  0.00    -0.0568  A
ATOM     34 C16  CHE L   1      -4.345   0.940   2.435  1.00  0.00    -0.0614  A
ATOM     35 C17  CHE L   1      -4.780  -0.376   2.578  1.00  0.00    -0.0617  A
ATOM     36 C18  CHE L   1      -4.897  -1.197   1.458  1.00  0.00    -0.0614  A
ATOM     37 C19  CHE L   1      -4.579  -0.702   0.193  1.00  0.00    -0.0568  A
ATOM     38 H33  CHE L   1      -3.688   2.469   1.082  1.00  0.00    +0.0621  H
ATOM     39 H34  CHE L   1      -4.255   1.579   3.310  1.00  0.00    +0.0618  H
ATOM     40 H35  CHE L   1      -5.029  -0.763   3.563  1.00  0.00    +0.0618  H
ATOM     41 H36  CHE L   1      -5.235  -2.224   1.569  1.00  0.00    +0.0618  H
ATOM     42 H37  CHE L   1      -4.670  -1.356  -0.673  1.00  0.00    +0.0621  H
ENDBRANCH 29 32
ENDBRANCH 25 29
ENDBRANCH 15 22
ENDBRANCH 5 13
TORSDOF 4
