ROOT
ATOM      1  C6  CHE L   1       3.063   1.199   0.087  1.00  0.00    +0.0374  A
ATOM      2  C7  CHE L   1       4.081   1.705   0.897  1.00  0.00    -0.0386  A
ATOM      3  C8  CHE L   1       3.988   1.633   2.291  1.00  0.00    -0.0578  A
ATOM      4  C9  CHE L   1       2.847   1.100   2.893  1.00  0.00    -0.0361  A
ATOM      5 C10  CHE L   1       1.784   0.636   2.109  1.00  0.00    +0.0681  A
ATOM      6 C32  CHE L   1       1.896   0.723   0.714  1.00  0.00    -0.0132  A
ATOM      7 H42  CHE L   1       4.962   2.163   0.465  1.00  0.00    +0.0638  H
ATOM      8 H43  CHE L   1       4.811   1.988   2.910  1.00  0.00    +0.0619  H
ATOM      9 H44  CHE L   1       2.806   1.054   3.980  1.00  0.00    +0.0639  H
ATOM     10 H56  CHE L   1       1.068   0.461   0.062  1.00  0.00    +0.0659  H
ENDROOT
BRANCH 1 11
ATOM     11  N5  CHE L   1       3.071   1.249  -1.315  1.00  0.00    -0.3831  N
ATOM     12 H41  CHE L   1       2.501   0.475  -1.678  1.00  0.00    +0.1597 HD
BRANCH 11 13
ATOM     13  C4  CHE L   1       4.330   1.299  -2.058  1.00  0.00    +0.0280  C
ATOM     14 H39  CHE L   1       5.215   1.113  -1.428  1.00  0.00    +0.0498  H
ATOM     15 H40  CHE L   1       4.442   2.302  -2.498  1.00  0.00    +0.0498  H
BRANCH 13 16
ATOM     16  C3  CHE L   1       4.303   0.255  -3.213  1.00  0.00    +0.0130  C
ATOM     17 H37  CHE L   1       5.275   0.239  -3.721  1.00  0.00    +0.0441  H
ATOM     18 H38  CHE L   1       3.556   0.583  -3.957  1.00  0.00    +0.0441  H
BRANCH 16 20
ATOM     19  C1  CHE L   1       4.858  -1.700  -1.836  1.00  0.00    -0.0157  C
ATOM     20  N2  CHE L   1       3.915  -1.112  -2.787  1.00  0.00    -0.3173 NA
ATOM     21 H33  CHE L   1       4.530  -2.713  -1.533  1.00  0.00    +0.0388  H
ATOM     22 H34  CHE L   1       4.939  -1.098  -0.915  1.00  0.00    +0.0388  H
ATOM     23 H35  CHE L   1       5.854  -1.791  -2.293  1.00  0.00    +0.0388  H
ATOM     24 H36  CHE L   1       3.861  -1.711  -3.616  1.00  0.00    +0.1217 HD
ENDBRANCH 16 20
ENDBRANCH 13 16
ENDBRANCH 11 13
ENDBRANCH 1 11
BRANCH 5 25
ATOM     25 N11  CHE L   1       0.600   0.153   2.750  1.00  0.00    -0.2268  N
ATOM     26 N12  CHE L   1       0.420   0.425   4.079  1.00  0.00    -0.1616 NA
ATOM     27 C13  CHE L   1      -0.843   0.073   4.360  1.00  0.00    +0.1663  A
ATOM     28 C18  CHE L   1      -1.462  -0.502   3.228  1.00  0.00    +0.0008  A
ATOM     29 C19  CHE L   1      -0.506  -0.508   2.228  1.00  0.00    +0.1318  A
ATOM     30 H45  CHE L   1      -2.455  -0.929   3.170  1.00  0.00    +0.0662  H
BRANCH 27 31
ATOM     31 C14  CHE L   1      -1.461   0.265   5.720  1.00  0.00    +0.4360  C
ATOM     32 F15  CHE L   1      -1.192   1.483   6.263  1.00  0.00    -0.1644  F
ATOM     33 F16  CHE L   1      -2.818   0.171   5.665  1.00  0.00    -0.1644  F
ATOM     34 F17  CHE L   1      -1.048  -0.672   6.614  1.00  0.00    -0.1644  F
ENDBRANCH 27 31
BRANCH 29 35
ATOM     35 C20  CHE L   1      -0.604  -1.135   0.938  1.00  0.00    +0.2707  C
ATOM     36 O21  CHE L   1       0.273  -1.845   0.463  1.00  0.00    -0.2659 OA
ATOM     37 N22  CHE L   1      -1.783  -0.867   0.284  1.00  0.00    -0.3466  N
ATOM     38 H46  CHE L   1      -2.354  -0.107   0.631  1.00  0.00    +0.1630 HD
BRANCH 37 39
ATOM     39 C23  CHE L   1      -1.940  -1.171  -1.122  1.00  0.00    +0.0472  C
ATOM     40 H47  CHE L   1      -1.382  -0.423  -1.704  1.00  0.00    +0.0537  H
ATOM     41 H48  CHE L   1      -1.481  -2.147  -1.336  1.00  0.00    +0.0537  H
BRANCH 39 42
ATOM     42 C24  CHE L   1      -3.402  -1.158  -1.506  1.00  0.00    +0.0133  A
ATOM     43 C25  CHE L   1      -4.029  -2.368  -1.845  1.00  0.00    -0.0534  A
ATOM     44 C26  CHE L   1      -5.385  -2.399  -2.183  1.00  0.00    -0.0612  A
ATOM     45 C27  CHE L   1      -6.128  -1.225  -2.181  1.00  0.00    -0.0583  A
ATOM     46 C28  CHE L   1      -5.517  -0.012  -1.847  1.00  0.00    -0.0196  A
ATOM     47 C29  CHE L   1      -4.156   0.032  -1.510  1.00  0.00    +0.1249  A
ATOM     48 H49  CHE L   1      -3.462  -3.296  -1.837  1.00  0.00    +0.0622  H
ATOM     49 H50  CHE L   1      -5.860  -3.345  -2.435  1.00  0.00    +0.0618  H
ATOM     50 H51  CHE L   1      -7.189  -1.250  -2.435  1.00  0.00    +0.0619  H
ATOM     51 H52  CHE L   1      -6.140   0.877  -1.845  1.00  0.00    +0.0654  H
BRANCH 47 52
ATOM     52 O30  CHE L   1      -3.479   1.168  -1.145  1.00  0.00    -0.4948 OA
ATOM     53 C31  CHE L   1      -4.174   2.409  -1.243  1.00  0.00    +0.0788  C
ATOM     54 H53  CHE L   1      -4.507   2.594  -2.273  1.00  0.00    +0.0660  H
ATOM     55 H54  CHE L   1      -5.011   2.442  -0.535  1.00  0.00    +0.0660  H
ATOM     56 H55  CHE L   1      -3.482   3.218  -0.969  1.00  0.00    +0.0660  H
ENDBRANCH 47 52
ENDBRANCH 39 42
ENDBRANCH 37 39
ENDBRANCH 29 35
ENDBRANCH 5 25
TORSDOF 10
