ROOT
ATOM      1  C3  MCU L   1       4.384  -2.375  -0.197  1.00  0.00    +0.1616  A
ATOM      2  C4  MCU L   1       3.236  -3.033   0.278  1.00  0.00    -0.0156  A
ATOM      3  C5  MCU L   1       1.969  -2.686  -0.199  1.00  0.00    -0.0457  A
ATOM      4  C6  MCU L   1       1.818  -1.667  -1.157  1.00  0.00    +0.0427  A
ATOM      5  C7  MCU L   1       2.973  -1.023  -1.637  1.00  0.00    -0.0040  A
ATOM      6  C8  MCU L   1       4.240  -1.357  -1.152  1.00  0.00    +0.1633  A
ATOM      7  O9  MCU L   1       5.350  -0.661  -1.641  1.00  0.00    -0.4789 OA
ATOM      8 C10  MCU L   1       6.110   0.230  -0.828  1.00  0.00    +0.1674  C
ATOM      9 C11  MCU L   1       5.265   1.400  -0.420  1.00  0.00    +0.2588  C
ATOM     10 O12  MCU L   1       4.915   2.244  -1.289  1.00  0.00    -0.2695 OA
ATOM     11 N13  MCU L   1       4.819   1.529   0.937  1.00  0.00    -0.3492  N
ATOM     12 C14  MCU L   1       3.885   2.571   1.357  1.00  0.00    +0.0436  C
ATOM     13 C15  MCU L   1       2.477   2.218   0.954  1.00  0.00    -0.0246  A
ATOM     14 C16  MCU L   1       1.910   1.007   1.375  1.00  0.00    -0.0532  A
ATOM     15 C17  MCU L   1       0.583   0.704   1.070  1.00  0.00    -0.0160  A
ATOM     16 C18  MCU L   1      -0.211   1.614   0.344  1.00  0.00    +0.1625  A
ATOM     17 C19  MCU L   1       0.353   2.825  -0.090  1.00  0.00    +0.1618  A
ATOM     18 C22  MCU L   1       1.697   3.121   0.216  1.00  0.00    -0.0114  A
ATOM     19 O23  MCU L   1      -1.566   1.371   0.052  1.00  0.00    -0.4813 OA
ATOM     20 C24  MCU L   1      -2.218   0.100   0.127  1.00  0.00    +0.1395  C
ATOM     21 C25  MCU L   1      -3.733   0.267   0.141  1.00  0.00    +0.0605  C
ATOM     22 N26  MCU L   1      -4.246  -0.883  -0.591  1.00  0.00    -0.3326  N
ATOM     23 C27  MCU L   1      -5.646  -1.147  -0.798  1.00  0.00    +0.2548  C
ATOM     24 O28  MCU L   1      -6.017  -1.745  -1.843  1.00  0.00    -0.2674 OA
ATOM     25 C35  MCU L   1      -3.196  -1.600  -1.298  1.00  0.00    +0.0454  C
ATOM     26 C36  MCU L   1      -1.945  -0.742  -1.123  1.00  0.00    +0.0860  C
ATOM     27 N37  MCU L   1      -0.738  -1.558  -0.968  1.00  0.00    -0.3440  N
ATOM     28 C38  MCU L   1       0.485  -1.230  -1.656  1.00  0.00    +0.2525  C
ATOM     29 O39  MCU L   1       0.431  -0.509  -2.689  1.00  0.00    -0.2676 OA
ATOM     30 H43  MCU L   1       3.310  -3.821   1.015  1.00  0.00    +0.0655  H
ATOM     31 H44  MCU L   1       1.124  -3.237   0.184  1.00  0.00    +0.0626  H
ATOM     32 H45  MCU L   1       2.895  -0.224  -2.364  1.00  0.00    +0.0663  H
ATOM     33 H46  MCU L   1       6.506  -0.299   0.064  1.00  0.00    +0.0797  H
ATOM     34 H47  MCU L   1       6.979   0.596  -1.414  1.00  0.00    +0.0797  H
ATOM     35 H48  MCU L   1       5.145   0.839   1.650  1.00  0.00    +0.1627 HD
ATOM     36 H49  MCU L   1       4.202   3.550   0.935  1.00  0.00    +0.0536  H
ATOM     37 H50  MCU L   1       3.919   2.666   2.464  1.00  0.00    +0.0536  H
ATOM     38 H51  MCU L   1       2.494   0.301   1.954  1.00  0.00    +0.0622  H
ATOM     39 H52  MCU L   1       0.189  -0.236   1.425  1.00  0.00    +0.0655  H
ATOM     40 H56  MCU L   1       2.136   4.057  -0.104  1.00  0.00    +0.0659  H
ATOM     41 H57  MCU L   1      -1.940  -0.450   1.051  1.00  0.00    +0.0772  H
ATOM     42 H58  MCU L   1      -4.105   0.286   1.185  1.00  0.00    +0.0526  H
ATOM     43 H59  MCU L   1      -4.037   1.201  -0.381  1.00  0.00    +0.0526  H
ATOM     44 H64  MCU L   1      -3.441  -1.702  -2.378  1.00  0.00    +0.0510  H
ATOM     45 H65  MCU L   1      -3.073  -2.608  -0.846  1.00  0.00    +0.0510  H
ATOM     46 H66  MCU L   1      -1.866  -0.065  -2.004  1.00  0.00    +0.0577  H
ATOM     47 H67  MCU L   1      -0.741  -2.260  -0.199  1.00  0.00    +0.1631 HD
ENDROOT
BRANCH 1 49
ATOM     48  C1  MCU L   1       5.959  -3.728   1.200  1.00  0.00    +0.0790  C
ATOM     49  O2  MCU L   1       5.674  -2.713   0.243  1.00  0.00    -0.4915 OA
ATOM     50 H40  MCU L   1       5.480  -3.481   2.171  1.00  0.00    +0.0660  H
ATOM     51 H41  MCU L   1       5.600  -4.713   0.832  1.00  0.00    +0.0660  H
ATOM     52 H42  MCU L   1       7.056  -3.786   1.351  1.00  0.00    +0.0660  H
ENDBRANCH 1 49
BRANCH 17 53
ATOM     53 O20  MCU L   1      -0.457   3.709  -0.821  1.00  0.00    -0.4914 OA
ATOM     54 C21  MCU L   1      -0.026   4.968  -1.327  1.00  0.00    +0.0790  C
ATOM     55 H53  MCU L   1      -0.868   5.450  -1.864  1.00  0.00    +0.0660  H
ATOM     56 H54  MCU L   1       0.288   5.627  -0.490  1.00  0.00    +0.0660  H
ATOM     57 H55  MCU L   1       0.815   4.827  -2.039  1.00  0.00    +0.0660  H
ENDBRANCH 17 53
BRANCH 23 58
ATOM     58 C29  MCU L   1      -6.664  -0.734   0.188  1.00  0.00    +0.0420  A
ATOM     59 C30  MCU L   1      -7.871  -0.163  -0.242  1.00  0.00    -0.0313  A
ATOM     60 C31  MCU L   1      -8.834   0.205   0.701  1.00  0.00    +0.0283  A
ATOM     61 N32  MCU L   1      -8.608  -0.006   2.025  1.00  0.00    -0.2632 NA
ATOM     62 C33  MCU L   1      -7.456  -0.575   2.469  1.00  0.00    +0.0283  A
ATOM     63 C34  MCU L   1      -6.466  -0.956   1.559  1.00  0.00    -0.0313  A
ATOM     64 H60  MCU L   1      -8.061   0.008  -1.295  1.00  0.00    +0.0640  H
ATOM     65 H61  MCU L   1      -9.763   0.654   0.379  1.00  0.00    +0.0830  H
ATOM     66 H62  MCU L   1      -7.311  -0.738   3.528  1.00  0.00    +0.0830  H
ATOM     67 H63  MCU L   1      -5.564  -1.435   1.919  1.00  0.00    +0.0640  H
ENDBRANCH 23 58
TORSDOF 3
