ROOT
ATOM      1  C1  SEL L   1      -0.941  -2.139  -3.757  1.00  0.00    -0.0471  C
ATOM      2  C2  SEL L   1      -0.712  -2.206  -2.246  1.00  0.00    +0.0711  C
ATOM      3  C3  SEL L   1      -0.500  -3.645  -1.773  1.00  0.00    -0.0471  C
ATOM      4  C4  SEL L   1       0.520  -1.352  -1.872  1.00  0.00    +0.2434  C
ATOM      5  O5  SEL L   1       1.649  -1.581  -2.285  1.00  0.00    -0.2713 OA
ATOM      6  N6  SEL L   1       0.059  -0.295  -1.065  1.00  0.00    -0.2627  N
ATOM      7 C19  SEL L   1      -1.319  -0.418  -0.794  1.00  0.00    +0.0559  A
ATOM      8 C20  SEL L   1      -2.143   0.298   0.065  1.00  0.00    -0.0297  A
ATOM      9 C21  SEL L   1      -3.506  -0.045   0.175  1.00  0.00    -0.0159  A
ATOM     10 C28  SEL L   1      -3.998  -1.131  -0.580  1.00  0.00    -0.0536  A
ATOM     11 C29  SEL L   1      -3.160  -1.881  -1.406  1.00  0.00    -0.0550  A
ATOM     12 C30  SEL L   1      -1.823  -1.520  -1.490  1.00  0.00    -0.0087  A
ATOM     13 H31  SEL L   1      -1.047  -1.103  -4.102  1.00  0.00    +0.0243  H
ATOM     14 H32  SEL L   1      -1.848  -2.681  -4.051  1.00  0.00    +0.0243  H
ATOM     15 H33  SEL L   1      -0.097  -2.577  -4.302  1.00  0.00    +0.0243  H
ATOM     16 H34  SEL L   1      -1.378  -4.268  -1.976  1.00  0.00    +0.0243  H
ATOM     17 H35  SEL L   1      -0.304  -3.688  -0.695  1.00  0.00    +0.0243  H
ATOM     18 H36  SEL L   1       0.359  -4.103  -2.277  1.00  0.00    +0.0243  H
ATOM     19 H47  SEL L   1      -1.763   1.103   0.684  1.00  0.00    +0.0644  H
ATOM     20 H53  SEL L   1      -5.045  -1.417  -0.497  1.00  0.00    +0.0624  H
ATOM     21 H54  SEL L   1      -3.550  -2.735  -1.951  1.00  0.00    +0.0621  H
ENDROOT
BRANCH 6 22
ATOM     22  C7  SEL L   1       0.906   0.719  -0.573  1.00  0.00    +0.1610  A
ATOM     23  C8  SEL L   1       0.472   2.027  -0.379  1.00  0.00    +0.0706  A
ATOM     24  N9  SEL L   1       1.264   3.022   0.085  1.00  0.00    -0.2560 NA
ATOM     25 C10  SEL L   1       2.547   2.655   0.321  1.00  0.00    +0.0698  A
ATOM     26 C11  SEL L   1       3.041   1.363   0.130  1.00  0.00    +0.1503  A
ATOM     27 N18  SEL L   1       2.202   0.408  -0.331  1.00  0.00    -0.2093 NA
ATOM     28 H37  SEL L   1      -0.527   2.352  -0.646  1.00  0.00    +0.0867  H
ATOM     29 H38  SEL L   1       3.193   3.461   0.651  1.00  0.00    +0.0867  H
BRANCH 26 30
ATOM     30 N12  SEL L   1       4.372   1.033   0.352  1.00  0.00    -0.3503  N
ATOM     31 C13  SEL L   1       5.082   1.604   1.507  1.00  0.00    +0.0435  C
ATOM     32 C14  SEL L   1       5.786   0.501   2.316  1.00  0.00    +0.0653  C
ATOM     33 O15  SEL L   1       6.713  -0.277   1.547  1.00  0.00    -0.3763 OA
ATOM     34 C16  SEL L   1       6.281  -0.501   0.194  1.00  0.00    +0.0653  C
ATOM     35 C17  SEL L   1       4.768  -0.336  -0.022  1.00  0.00    +0.0435  C
ATOM     36 H39  SEL L   1       5.829   2.310   1.125  1.00  0.00    +0.0511  H
ATOM     37 H40  SEL L   1       4.413   2.149   2.182  1.00  0.00    +0.0511  H
ATOM     38 H41  SEL L   1       5.049  -0.186   2.750  1.00  0.00    +0.0577  H
ATOM     39 H42  SEL L   1       6.342   0.944   3.147  1.00  0.00    +0.0577  H
ATOM     40 H43  SEL L   1       6.832   0.203  -0.442  1.00  0.00    +0.0577  H
ATOM     41 H44  SEL L   1       6.594  -1.512  -0.087  1.00  0.00    +0.0577  H
ATOM     42 H45  SEL L   1       4.540  -0.530  -1.076  1.00  0.00    +0.0511  H
ATOM     43 H46  SEL L   1       4.232  -1.067   0.597  1.00  0.00    +0.0511  H
ENDBRANCH 26 30
ENDBRANCH 6 22
BRANCH 9 44
ATOM     44 C22  SEL L   1      -4.398   0.707   1.073  1.00  0.00    -0.0178  A
ATOM     45 C23  SEL L   1      -4.096   0.854   2.437  1.00  0.00    -0.0540  A
ATOM     46 C24  SEL L   1      -4.943   1.568   3.289  1.00  0.00    -0.0612  A
ATOM     47 C25  SEL L   1      -6.107   2.148   2.790  1.00  0.00    -0.0617  A
ATOM     48 C26  SEL L   1      -6.425   2.013   1.440  1.00  0.00    -0.0612  A
ATOM     49 C27  SEL L   1      -5.578   1.299   0.590  1.00  0.00    -0.0540  A
ATOM     50 H48  SEL L   1      -3.199   0.400   2.851  1.00  0.00    +0.0624  H
ATOM     51 H49  SEL L   1      -4.695   1.668   4.342  1.00  0.00    +0.0618  H
ATOM     52 H50  SEL L   1      -6.767   2.703   3.451  1.00  0.00    +0.0618  H
ATOM     53 H51  SEL L   1      -7.333   2.466   1.048  1.00  0.00    +0.0618  H
ATOM     54 H52  SEL L   1      -5.841   1.215  -0.463  1.00  0.00    +0.0624  H
ENDBRANCH 9 44
TORSDOF 3
