ROOT
ATOM      1  N4  656 L   1      -2.544  -0.682  -0.023  1.00  0.00    -0.3333  N
ATOM      2  C5  656 L   1      -3.326  -0.528  -1.254  1.00  0.00    +0.0217  C
ATOM      3  C6  656 L   1      -3.785   0.882  -1.590  1.00  0.00    -0.0352  C
ATOM      4  C7  656 L   1      -5.043   1.284  -0.828  1.00  0.00    -0.0510  C
ATOM      5  C8  656 L   1      -5.018   0.893   0.645  1.00  0.00    -0.0445  C
ATOM      6  C9  656 L   1      -3.668   1.169   1.281  1.00  0.00    +0.0263  C
ATOM      7 C10  656 L   1      -2.636   0.066   1.136  1.00  0.00    +0.2239  C
ATOM      8 O11  656 L   1      -1.816  -0.098   2.049  1.00  0.00    -0.2730 OA
ATOM      9 H24  656 L   1      -2.682  -0.859  -2.079  1.00  0.00    +0.0489  H
ATOM     10 H25  656 L   1      -4.169  -1.226  -1.205  1.00  0.00    +0.0489  H
ATOM     11 H26  656 L   1      -4.011   0.942  -2.662  1.00  0.00    +0.0282  H
ATOM     12 H27  656 L   1      -2.977   1.600  -1.407  1.00  0.00    +0.0282  H
ATOM     13 H28  656 L   1      -5.176   2.369  -0.920  1.00  0.00    +0.0266  H
ATOM     14 H29  656 L   1      -5.923   0.827  -1.297  1.00  0.00    +0.0266  H
ATOM     15 H30  656 L   1      -5.288  -0.164   0.761  1.00  0.00    +0.0270  H
ATOM     16 H31  656 L   1      -5.794   1.469   1.164  1.00  0.00    +0.0270  H
ATOM     17 H32  656 L   1      -3.232   2.110   0.930  1.00  0.00    +0.0360  H
ATOM     18 H33  656 L   1      -3.835   1.282   2.361  1.00  0.00    +0.0360  H
ENDROOT
BRANCH 1 19
ATOM     19  C3  656 L   1      -1.615  -1.824  -0.016  1.00  0.00    +0.0995  C
ATOM     20 H22  656 L   1      -1.534  -2.244   0.993  1.00  0.00    +0.0587  H
ATOM     21 H23  656 L   1      -2.012  -2.611  -0.667  1.00  0.00    +0.0587  H
BRANCH 19 23
ATOM     22  O1  656 L   1       0.413  -2.121  -1.305  1.00  0.00    -0.2713 OA
ATOM     23  C2  656 L   1      -0.204  -1.447  -0.484  1.00  0.00    +0.2404  C
ATOM     24 N12  656 L   1       0.345  -0.363   0.167  1.00  0.00    -0.3542  N
ATOM     25 H34  656 L   1      -0.148  -0.031   0.997  1.00  0.00    +0.1624 HD
BRANCH 24 26
ATOM     26 C13  656 L   1       1.717   0.050  -0.043  1.00  0.00    +0.0221  C
ATOM     27 H35  656 L   1       1.930   0.011  -1.118  1.00  0.00    +0.0489  H
ATOM     28 H36  656 L   1       1.788   1.096   0.274  1.00  0.00    +0.0489  H
BRANCH 26 29
ATOM     29 C14  656 L   1       2.707  -0.821   0.734  1.00  0.00    -0.0101  C
ATOM     30 H37  656 L   1       2.613  -1.873   0.436  1.00  0.00    +0.0330  H
ATOM     31 H38  656 L   1       2.464  -0.798   1.805  1.00  0.00    +0.0330  H
BRANCH 29 32
ATOM     32 C15  656 L   1       4.131  -0.370   0.526  1.00  0.00    -0.0430  A
ATOM     33 C16  656 L   1       4.861  -0.822  -0.584  1.00  0.00    -0.0583  A
ATOM     34 C17  656 L   1       6.175  -0.394  -0.793  1.00  0.00    -0.0588  A
ATOM     35 C18  656 L   1       6.769   0.492   0.104  1.00  0.00    -0.0264  A
ATOM     36 C19  656 L   1       6.044   0.943   1.200  1.00  0.00    +0.1237  A
ATOM     37 F20  656 L   1       6.614   1.797   2.060  1.00  0.00    -0.2055  F
ATOM     38 C21  656 L   1       4.735   0.524   1.419  1.00  0.00    -0.0232  A
ATOM     39 H39  656 L   1       4.407  -1.512  -1.294  1.00  0.00    +0.0620  H
ATOM     40 H40  656 L   1       6.732  -0.753  -1.655  1.00  0.00    +0.0619  H
ATOM     41 H41  656 L   1       7.788   0.833  -0.045  1.00  0.00    +0.0646  H
ATOM     42 H42  656 L   1       4.201   0.900   2.286  1.00  0.00    +0.0649  H
ENDBRANCH 29 32
ENDBRANCH 26 29
ENDBRANCH 24 26
ENDBRANCH 19 23
ENDBRANCH 1 19
TORSDOF 5
