ROOT
ATOM      1  N5  LIG L   1      -2.674   3.651 -10.882  1.00  0.00    -0.3067  N
ATOM      2  C6  LIG L   1      -2.810   3.172  -9.613  1.00  0.00    +0.1566  A
ATOM      3  N7  LIG L   1      -3.868   2.539  -9.305  1.00  0.00    -0.1898 NA
ATOM      4  C8  LIG L   1      -4.200   1.969  -8.059  1.00  0.00    +0.2794  C
ATOM      5  O9  LIG L   1      -4.762   2.711  -7.214  1.00  0.00    -0.2652 OA
ATOM      6 C19  LIG L   1      -1.851   3.345  -8.660  1.00  0.00    +0.0951  A
ATOM      7 C22  LIG L   1      -0.707   4.049  -9.056  1.00  0.00    -0.0249  A
ATOM      8 C23  LIG L   1      -0.593   4.524 -10.350  1.00  0.00    +0.0837  A
ATOM      9 C24  LIG L   1       0.567   5.198 -10.663  1.00  0.00    +0.2676  A
ATOM     10 O25  LIG L   1       1.480   5.386  -9.824  1.00  0.00    -0.2665 OA
ATOM     11 N26  LIG L   1       0.684   5.654 -11.922  1.00  0.00    -0.2674  N
ATOM     12 C27  LIG L   1       1.854   6.290 -12.219  1.00  0.00    +0.0146  A
ATOM     13 C28  LIG L   1       2.124   6.781 -13.474  1.00  0.00    -0.0447  A
ATOM     14 C29  LIG L   1       1.155   6.605 -14.437  1.00  0.00    -0.0537  A
ATOM     15 C30  LIG L   1      -0.047   5.954 -14.133  1.00  0.00    -0.0044  A
ATOM     16 C32  LIG L   1      -0.275   5.473 -12.848  1.00  0.00    +0.1457  A
ATOM     17 N33  LIG L   1      -1.426   4.803 -12.536  1.00  0.00    -0.2110 NA
ATOM     18 C34  LIG L   1      -1.608   4.319 -11.293  1.00  0.00    +0.1499  A
ATOM     19 H50  LIG L   1       0.086   4.217  -8.328  1.00  0.00    +0.0640  H
ATOM     20 H51  LIG L   1       2.605   6.420 -11.441  1.00  0.00    +0.0814  H
ATOM     21 H52  LIG L   1       3.058   7.288 -13.688  1.00  0.00    +0.0632  H
ATOM     22 H53  LIG L   1       1.331   7.002 -15.433  1.00  0.00    +0.0622  H
ENDROOT
BRANCH 1 23
ATOM     23  C4  LIG L   1      -3.749   3.414 -11.825  1.00  0.00    +0.0500  C
ATOM     24 H43  LIG L   1      -4.269   2.467 -11.636  1.00  0.00    +0.0515  H
ATOM     25 H44  LIG L   1      -3.396   3.344 -12.862  1.00  0.00    +0.0515  H
BRANCH 23 26
ATOM     26  C3  LIG L   1      -4.708   4.592 -11.680  1.00  0.00    +0.0653  C
ATOM     27 H41  LIG L   1      -4.207   5.539 -11.912  1.00  0.00    +0.0577  H
ATOM     28 H42  LIG L   1      -5.545   4.463 -12.376  1.00  0.00    +0.0577  H
BRANCH 26 30
ATOM     29  C1  LIG L   1      -6.069   5.660 -10.136  1.00  0.00    +0.0365  C
ATOM     30  O2  LIG L   1      -5.181   4.609 -10.355  1.00  0.00    -0.3812 OA
ATOM     31 H38  LIG L   1      -6.406   5.624  -9.096  1.00  0.00    +0.0523  H
ATOM     32 H39  LIG L   1      -5.583   6.627 -10.301  1.00  0.00    +0.0523  H
ATOM     33 H40  LIG L   1      -6.949   5.574 -10.781  1.00  0.00    +0.0523  H
ENDBRANCH 26 30
ENDBRANCH 23 26
ENDBRANCH 1 23
BRANCH 4 34
ATOM     34 C10  LIG L   1      -3.881   0.565  -7.818  1.00  0.00    +0.0450  A
ATOM     35 C11  LIG L   1      -3.951  -0.019  -6.567  1.00  0.00    -0.0457  A
ATOM     36 C12  LIG L   1      -3.655  -1.344  -6.332  1.00  0.00    -0.0154  A
ATOM     37 C13  LIG L   1      -3.265  -2.136  -7.400  1.00  0.00    +0.1663  A
ATOM     38 C14  LIG L   1      -3.188  -1.579  -8.654  1.00  0.00    +0.1670  A
ATOM     39 C15  LIG L   1      -3.491  -0.250  -8.857  1.00  0.00    -0.0038  A
ATOM     40 O16  LIG L   1      -2.778  -2.586  -9.528  1.00  0.00    -0.4526 OA
ATOM     41 C17  LIG L   1      -2.269  -3.687  -8.775  1.00  0.00    +0.2332  C
ATOM     42 O18  LIG L   1      -2.898  -3.488  -7.526  1.00  0.00    -0.4526 OA
ATOM     43 H45  LIG L   1      -4.251   0.602  -5.720  1.00  0.00    +0.0626  H
ATOM     44 H46  LIG L   1      -3.719  -1.767  -5.335  1.00  0.00    +0.0655  H
ATOM     45 H47  LIG L   1      -3.428   0.131  -9.874  1.00  0.00    +0.0663  H
ATOM     46 H48  LIG L   1      -1.180  -3.631  -8.688  1.00  0.00    +0.1166  H
ATOM     47 H49  LIG L   1      -2.589  -4.631  -9.223  1.00  0.00    +0.1166  H
ENDBRANCH 4 34
BRANCH 6 48
ATOM     48 C20  LIG L   1      -1.890   2.892  -7.325  1.00  0.00    +0.1028  C
ATOM     49 N21  LIG L   1      -1.904   2.529  -6.221  1.00  0.00    -0.1908 NA
ENDBRANCH 6 48
BRANCH 15 50
ATOM     50 C31  LIG L   1      -1.041   5.862 -15.194  1.00  0.00    -0.0235  C
ATOM     51 H54  LIG L   1      -0.538   5.605 -16.138  1.00  0.00    +0.0315  H
ATOM     52 H55  LIG L   1      -1.724   5.019 -15.028  1.00  0.00    +0.0315  H
BRANCH 50 53
ATOM     53 C35  LIG L   1      -1.876   7.130 -15.452  1.00  0.00    -0.0401  C
ATOM     54 H56  LIG L   1      -2.476   6.927 -16.349  1.00  0.00    +0.0276  H
ATOM     55 H57  LIG L   1      -1.228   7.975 -15.715  1.00  0.00    +0.0276  H
BRANCH 53 56
ATOM     56 C36  LIG L   1      -2.852   7.511 -14.339  1.00  0.00    -0.0090  C
ATOM     57 S37  LIG L   1      -2.085   8.499 -13.021  1.00  0.00    -0.1782 SA
ATOM     58 H58  LIG L   1      -3.320   6.623 -13.905  1.00  0.00    +0.0374  H
ATOM     59 H59  LIG L   1      -3.653   8.125 -14.762  1.00  0.00    +0.0374  H
ATOM     60 H60  LIG L   1      -3.180   8.608 -12.253  1.00  0.00    +0.1016 HD
ENDBRANCH 53 56
ENDBRANCH 50 53
ENDBRANCH 15 50
TORSDOF 8
