ROOT
ATOM      1 C26  WH0 L   1      -1.301   2.804  -0.510  1.00  0.00    -0.0133  A
ATOM      2 C27  WH0 L   1      -0.495   3.281  -1.569  1.00  0.00    -0.0519  A
ATOM      3 C28  WH0 L   1      -0.212   4.644  -1.699  1.00  0.00    -0.0374  A
ATOM      4 C29  WH0 L   1      -0.746   5.492  -0.754  1.00  0.00    +0.0454  A
ATOM      5 C30  WH0 L   1      -1.545   5.041   0.296  1.00  0.00    -0.0145  A
ATOM      6 C31  WH0 L   1      -1.836   3.695   0.434  1.00  0.00    -0.0483  A
ATOM      7 C32  WH0 L   1      -1.956   6.207   1.146  1.00  0.00    +0.0535  C
ATOM      8 C33  WH0 L   1      -1.276   7.382   0.429  1.00  0.00    +0.2296  C
ATOM      9 O34  WH0 L   1      -1.316   8.559   0.753  1.00  0.00    -0.2725 OA
ATOM     10 N35  WH0 L   1      -0.597   6.867  -0.669  1.00  0.00    -0.3256  N
ATOM     11 H58  WH0 L   1      -0.085   2.583  -2.296  1.00  0.00    +0.0624  H
ATOM     12 H59  WH0 L   1       0.407   5.009  -2.511  1.00  0.00    +0.0638  H
ATOM     13 H60  WH0 L   1      -2.449   3.339   1.256  1.00  0.00    +0.0627  H
ATOM     14 H61  WH0 L   1      -1.562   6.116   2.163  1.00  0.00    +0.0410  H
ATOM     15 H62  WH0 L   1      -3.040   6.344   1.136  1.00  0.00    +0.0410  H
ATOM     16 H63  WH0 L   1      -0.068   7.447  -1.304  1.00  0.00    +0.1686 HD
ENDROOT
BRANCH 1 25
ATOM     17 C11  WH0 L   1      -0.644   0.290  -0.184  1.00  0.00    +0.1015  A
ATOM     18 N12  WH0 L   1      -1.296  -0.884  -0.189  1.00  0.00    -0.1627 NA
ATOM     19 N13  WH0 L   1      -2.596  -0.564  -0.402  1.00  0.00    -0.1987  N
ATOM     20 C14  WH0 L   1      -3.661  -1.524  -0.498  1.00  0.00    +0.2283  A
ATOM     21 N21  WH0 L   1      -4.872  -1.070  -0.749  1.00  0.00    -0.2207 NA
ATOM     22 C22  WH0 L   1      -5.057   0.285  -0.900  1.00  0.00    +0.0334  A
ATOM     23 C23  WH0 L   1      -4.101   1.219  -0.804  1.00  0.00    -0.0173  A
ATOM     24 C24  WH0 L   1      -2.782   0.795  -0.538  1.00  0.00    +0.0803  A
ATOM     25 C25  WH0 L   1      -1.545   1.380  -0.386  1.00  0.00    +0.0353  A
ATOM     26 H56  WH0 L   1      -6.078   0.591  -1.115  1.00  0.00    +0.0831  H
ATOM     27 H57  WH0 L   1      -4.337   2.269  -0.943  1.00  0.00    +0.0654  H
BRANCH 17 30
ATOM     28  C8  WH0 L   1       3.005  -0.668  -0.455  1.00  0.00    -0.0099  A
ATOM     29  C9  WH0 L   1       1.608  -0.674  -0.596  1.00  0.00    -0.0465  A
ATOM     30 C10  WH0 L   1       0.811   0.320  -0.000  1.00  0.00    +0.0032  A
ATOM     31 C36  WH0 L   1       1.429   1.319   0.763  1.00  0.00    -0.0498  A
ATOM     32 C37  WH0 L   1       2.818   1.334   0.911  1.00  0.00    -0.0256  A
ATOM     33 C38  WH0 L   1       3.589   0.347   0.305  1.00  0.00    +0.1266  A
ATOM     34 F39  WH0 L   1       4.918   0.370   0.482  1.00  0.00    -0.2052  F
ATOM     35 H47  WH0 L   1       1.129  -1.459  -1.182  1.00  0.00    +0.0628  H
ATOM     36 H64  WH0 L   1       0.838   2.088   1.257  1.00  0.00    +0.0625  H
ATOM     37 H65  WH0 L   1       3.307   2.104   1.498  1.00  0.00    +0.0646  H
BRANCH 28 38
ATOM     38  C7  WH0 L   1       3.843  -1.753  -1.091  1.00  0.00    -0.0074  C
ATOM     39 H45  WH0 L   1       3.273  -2.194  -1.919  1.00  0.00    +0.0331  H
ATOM     40 H46  WH0 L   1       4.738  -1.309  -1.545  1.00  0.00    +0.0331  H
BRANCH 38 41
ATOM     41  C6  WH0 L   1       4.213  -2.862  -0.098  1.00  0.00    +0.0222  C
ATOM     42 H43  WH0 L   1       3.368  -3.113   0.552  1.00  0.00    +0.0489  H
ATOM     43 H44  WH0 L   1       4.491  -3.767  -0.650  1.00  0.00    +0.0489  H
BRANCH 41 46
ATOM     44  O1  WH0 L   1       6.932  -3.335  -0.642  1.00  0.00    -0.2720 OA
ATOM     45  C2  WH0 L   1       6.631  -2.729   0.383  1.00  0.00    +0.2356  C
ATOM     46  N5  WH0 L   1       5.323  -2.495   0.766  1.00  0.00    -0.3547  N
ATOM     47 H42  WH0 L   1       5.163  -1.739   1.421  1.00  0.00    +0.1623 HD
BRANCH 45 48
ATOM     48  C3  WH0 L   1       7.669  -2.186   1.342  1.00  0.00    +0.1010  C
ATOM     49 CL4  WH0 L   1       8.153  -0.563   0.825  1.00  0.00    -0.1154 Cl
ATOM     50 H40  WH0 L   1       7.264  -2.134   2.358  1.00  0.00    +0.0527  H
ATOM     51 H41  WH0 L   1       8.541  -2.851   1.358  1.00  0.00    +0.0527  H
ENDBRANCH 45 48
ENDBRANCH 41 46
ENDBRANCH 38 41
ENDBRANCH 28 38
ENDBRANCH 17 30
BRANCH 20 52
ATOM     52 N15  WH0 L   1      -3.457  -2.904  -0.338  1.00  0.00    -0.3359  N
ATOM     53 C16  WH0 L   1      -2.210  -3.492   0.185  1.00  0.00    +0.0449  C
ATOM     54 C17  WH0 L   1      -2.319  -5.019   0.335  1.00  0.00    +0.0653  C
ATOM     55 O18  WH0 L   1      -3.403  -5.430   1.178  1.00  0.00    -0.3763 OA
ATOM     56 C19  WH0 L   1      -4.586  -4.634   1.001  1.00  0.00    +0.0653  C
ATOM     57 C20  WH0 L   1      -4.608  -3.826  -0.307  1.00  0.00    +0.0449  C
ATOM     58 H48  WH0 L   1      -1.998  -3.063   1.172  1.00  0.00    +0.0511  H
ATOM     59 H49  WH0 L   1      -1.377  -3.292  -0.498  1.00  0.00    +0.0511  H
ATOM     60 H50  WH0 L   1      -2.447  -5.496  -0.645  1.00  0.00    +0.0577  H
ATOM     61 H51  WH0 L   1      -1.395  -5.416   0.767  1.00  0.00    +0.0577  H
ATOM     62 H52  WH0 L   1      -4.659  -3.958   1.863  1.00  0.00    +0.0577  H
ATOM     63 H53  WH0 L   1      -5.444  -5.311   1.044  1.00  0.00    +0.0577  H
ATOM     64 H54  WH0 L   1      -5.571  -3.308  -0.384  1.00  0.00    +0.0511  H
ATOM     65 H55  WH0 L   1      -4.534  -4.497  -1.172  1.00  0.00    +0.0511  H
ENDBRANCH 20 52
ENDBRANCH 1 25
TORSDOF 7
