ROOT
ATOM      1 C13  187 L   1      -1.484  -0.041   0.664  1.00  0.00    +0.1964  A
ATOM      2 N14  187 L   1      -1.266  -0.316  -0.634  1.00  0.00    -0.0588 NA
ATOM      3 O15  187 L   1      -2.551  -0.470  -1.151  1.00  0.00    -0.3374 OA
ATOM      4 C16  187 L   1      -3.419  -0.277  -0.113  1.00  0.00    +0.2328  A
ATOM      5 N21  187 L   1      -2.812  -0.013   1.023  1.00  0.00    -0.1932 NA
ENDROOT
BRANCH 1 6
ATOM      6 C10  187 L   1      -0.356   0.204   1.659  1.00  0.00    +0.0984  C
ATOM      7 C11  187 L   1      -0.573   1.565   2.344  1.00  0.00    -0.0348  C
ATOM      8 C12  187 L   1      -0.361  -0.923   2.708  1.00  0.00    -0.0348  C
ATOM      9 H33  187 L   1      -1.542   1.607   2.855  1.00  0.00    +0.0256  H
ATOM     10 H34  187 L   1      -0.551   2.382   1.613  1.00  0.00    +0.0256  H
ATOM     11 H35  187 L   1       0.197   1.776   3.094  1.00  0.00    +0.0256  H
ATOM     12 H36  187 L   1      -0.180  -1.898   2.239  1.00  0.00    +0.0256  H
ATOM     13 H37  187 L   1       0.411  -0.778   3.470  1.00  0.00    +0.0256  H
ATOM     14 H38  187 L   1      -1.325  -0.982   3.227  1.00  0.00    +0.0256  H
BRANCH 6 17
ATOM     15  C7  187 L   1       2.150   0.394   1.436  1.00  0.00    +0.2453  C
ATOM     16  O8  187 L   1       2.383   0.590   2.621  1.00  0.00    -0.2682 OA
ATOM     17  N9  187 L   1       0.909   0.201   0.901  1.00  0.00    -0.3405  N
ATOM     18 H32  187 L   1       0.833  -0.094  -0.066  1.00  0.00    +0.1636 HD
BRANCH 15 20
ATOM     19  C5  187 L   1       3.214   0.670  -0.812  1.00  0.00    -0.0650  C
ATOM     20  C6  187 L   1       3.277   0.285   0.474  1.00  0.00    -0.0003  C
ATOM     21 H30  187 L   1       2.281   1.090  -1.183  1.00  0.00    +0.0586  H
ATOM     22 H31  187 L   1       4.188  -0.077   0.930  1.00  0.00    +0.0669  H
BRANCH 19 23
ATOM     23  C4  187 L   1       4.285   0.646  -1.872  1.00  0.00    +0.0170  C
ATOM     24 H28  187 L   1       4.378   1.672  -2.255  1.00  0.00    +0.0470  H
ATOM     25 H29  187 L   1       3.878   0.078  -2.720  1.00  0.00    +0.0470  H
BRANCH 23 27
ATOM     26  C1  187 L   1       5.702  -1.279  -1.316  1.00  0.00    -0.0127  C
ATOM     27  N2  187 L   1       5.625   0.145  -1.602  1.00  0.00    -0.3047 NA
ATOM     28  C3  187 L   1       6.413   0.963  -0.694  1.00  0.00    -0.0127  C
ATOM     29 H22  187 L   1       5.302  -1.546  -0.334  1.00  0.00    +0.0391  H
ATOM     30 H23  187 L   1       6.744  -1.617  -1.353  1.00  0.00    +0.0391  H
ATOM     31 H24  187 L   1       5.164  -1.859  -2.074  1.00  0.00    +0.0391  H
ATOM     32 H25  187 L   1       6.075   0.907   0.344  1.00  0.00    +0.0391  H
ATOM     33 H26  187 L   1       6.397   2.014  -1.003  1.00  0.00    +0.0391  H
ATOM     34 H27  187 L   1       7.463   0.651  -0.717  1.00  0.00    +0.0391  H
ENDBRANCH 23 27
ENDBRANCH 19 23
ENDBRANCH 15 20
ENDBRANCH 6 17
ENDBRANCH 1 6
BRANCH 4 35
ATOM     35 C17  187 L   1      -4.885  -0.393  -0.417  1.00  0.00    +0.0411  C
ATOM     36 C18  187 L   1      -5.199  -1.802  -0.945  1.00  0.00    -0.0515  C
ATOM     37 C19  187 L   1      -5.711  -0.148   0.860  1.00  0.00    -0.0515  C
ATOM     38 C20  187 L   1      -5.283   0.654  -1.471  1.00  0.00    -0.0515  C
ATOM     39 H39  187 L   1      -6.269  -1.919  -1.152  1.00  0.00    +0.0240  H
ATOM     40 H40  187 L   1      -4.658  -2.013  -1.875  1.00  0.00    +0.0240  H
ATOM     41 H41  187 L   1      -4.912  -2.572  -0.219  1.00  0.00    +0.0240  H
ATOM     42 H42  187 L   1      -5.524   0.851   1.271  1.00  0.00    +0.0240  H
ATOM     43 H43  187 L   1      -6.785  -0.228   0.658  1.00  0.00    +0.0240  H
ATOM     44 H44  187 L   1      -5.464  -0.876   1.641  1.00  0.00    +0.0240  H
ATOM     45 H45  187 L   1      -4.744   0.501  -2.413  1.00  0.00    +0.0240  H
ATOM     46 H46  187 L   1      -5.058   1.670  -1.127  1.00  0.00    +0.0240  H
ATOM     47 H47  187 L   1      -6.355   0.605  -1.692  1.00  0.00    +0.0240  H
ENDBRANCH 4 35
TORSDOF 6
