ROOT
ATOM      1  C1  T40 L   1       1.505  -2.095  -2.829  1.00  0.00    -0.0261  C
ATOM      2  C2  T40 L   1       0.988  -1.582  -1.485  1.00  0.00    +0.1146  C
ATOM      3  C3  T40 L   1       0.437  -2.745  -0.633  1.00  0.00    +0.0551  C
ATOM      4  N4  T40 L   1      -0.584  -2.246   0.287  1.00  0.00    -0.3483  N
ATOM      5  C5  T40 L   1      -1.969  -2.272  -0.067  1.00  0.00    +0.2573  C
ATOM      6  O6  T40 L   1      -2.473  -3.319  -0.555  1.00  0.00    -0.2674 OA
ATOM      7  C7  T40 L   1      -2.817  -1.089   0.139  1.00  0.00    +0.1027  A
ATOM      8  C8  T40 L   1      -4.207  -1.057   0.235  1.00  0.00    +0.0643  A
ATOM      9  N9  T40 L   1      -4.633   0.224   0.361  1.00  0.00    -0.1726 NA
ATOM     10 N10  T40 L   1      -3.554   0.987   0.336  1.00  0.00    -0.2209  N
ATOM     11 C11  T40 L   1      -3.513   2.338   0.394  1.00  0.00    +0.0349  A
ATOM     12 C12  T40 L   1      -2.263   2.960   0.295  1.00  0.00    -0.0014  A
ATOM     13 C13  T40 L   1      -1.107   2.163   0.129  1.00  0.00    +0.1313  A
ATOM     14 N14  T40 L   1      -1.223   0.799   0.080  1.00  0.00    -0.2104 NA
ATOM     15 C15  T40 L   1      -2.454   0.239   0.201  1.00  0.00    +0.1699  A
ATOM     16 N16  T40 L   1       0.179   2.800   0.030  1.00  0.00    -0.3630  N
ATOM     17 C17  T40 L   1       1.445   2.106  -0.239  1.00  0.00    +0.0544  C
ATOM     18 C18  T40 L   1       1.546   1.777  -1.731  1.00  0.00    -0.0404  C
ATOM     19 C19  T40 L   1       1.686   0.985   0.774  1.00  0.00    +0.0188  A
ATOM     20 C20  T40 L   1       1.665   1.372   2.131  1.00  0.00    -0.0178  A
ATOM     21 C21  T40 L   1       1.987   0.473   3.147  1.00  0.00    +0.1240  A
ATOM     22 F22  T40 L   1       1.960   0.875   4.442  1.00  0.00    -0.2055  F
ATOM     23 C23  T40 L   1       2.373  -0.825   2.831  1.00  0.00    -0.0230  A
ATOM     24 C24  T40 L   1       2.408  -1.235   1.500  1.00  0.00    -0.0169  A
ATOM     25 C25  T40 L   1       2.024  -0.366   0.464  1.00  0.00    +0.1263  A
ATOM     26 O26  T40 L   1       2.055  -0.861  -0.846  1.00  0.00    -0.4870 OA
ATOM     27 H27  T40 L   1       1.894  -1.245  -3.430  1.00  0.00    +0.0266  H
ATOM     28 H28  T40 L   1       0.685  -2.579  -3.401  1.00  0.00    +0.0266  H
ATOM     29 H29  T40 L   1       2.325  -2.827  -2.672  1.00  0.00    +0.0266  H
ATOM     30 H30  T40 L   1       0.148  -0.892  -1.700  1.00  0.00    +0.0748  H
ATOM     31 H31  T40 L   1       1.248  -3.247  -0.070  1.00  0.00    +0.0522  H
ATOM     32 H32  T40 L   1      -0.010  -3.525  -1.288  1.00  0.00    +0.0522  H
ATOM     33 H33  T40 L   1      -0.293  -1.628   1.076  1.00  0.00    +0.1628 HD
ATOM     34 H34  T40 L   1      -4.867  -1.913   0.209  1.00  0.00    +0.0856  H
ATOM     35 H35  T40 L   1      -4.420   2.920   0.502  1.00  0.00    +0.0832  H
ATOM     36 H36  T40 L   1      -2.192   4.040   0.338  1.00  0.00    +0.0669  H
ATOM     37 H37  T40 L   1       0.225   3.837   0.160  1.00  0.00    +0.1616 HD
ATOM     38 H38  T40 L   1       2.266   2.838  -0.062  1.00  0.00    +0.0571  H
ATOM     39 H39  T40 L   1       0.682   1.180  -2.071  1.00  0.00    +0.0253  H
ATOM     40 H40  T40 L   1       2.505   1.272  -1.966  1.00  0.00    +0.0253  H
ATOM     41 H41  T40 L   1       1.527   2.724  -2.312  1.00  0.00    +0.0253  H
ATOM     42 H42  T40 L   1       1.416   2.390   2.404  1.00  0.00    +0.0651  H
ATOM     43 H43  T40 L   1       2.655  -1.514   3.617  1.00  0.00    +0.0647  H
ATOM     44 H44  T40 L   1       2.745  -2.237   1.275  1.00  0.00    +0.0655  H
ENDROOT
TORSDOF 0
