ROOT
ATOM      1 C10  WH0 L   1       2.594  -1.171   0.566  1.00  0.00    -0.0359  A
ATOM      2 C11  WH0 L   1       3.859  -1.769   0.387  1.00  0.00    -0.0342  A
ATOM      3 C12  WH0 L   1       4.075  -2.515  -0.752  1.00  0.00    +0.0457  A
ATOM      4 C13  WH0 L   1       3.098  -2.698  -1.722  1.00  0.00    -0.0145  A
ATOM      5 C14  WH0 L   1       1.846  -2.134  -1.572  1.00  0.00    -0.0480  A
ATOM      6 C15  WH0 L   1       1.583  -1.367  -0.419  1.00  0.00    -0.0101  A
ATOM      7 C39  WH0 L   1       3.643  -3.551  -2.828  1.00  0.00    +0.0535  C
ATOM      8 C40  WH0 L   1       5.072  -3.823  -2.346  1.00  0.00    +0.2296  C
ATOM      9 O41  WH0 L   1       5.923  -4.481  -2.919  1.00  0.00    -0.2725 OA
ATOM     10 N42  WH0 L   1       5.232  -3.177  -1.125  1.00  0.00    -0.3256  N
ATOM     11 H50  WH0 L   1       4.647  -1.648   1.123  1.00  0.00    +0.0641  H
ATOM     12 H51  WH0 L   1       1.079  -2.291  -2.327  1.00  0.00    +0.0627  H
ATOM     13 H69  WH0 L   1       3.096  -4.493  -2.911  1.00  0.00    +0.0410  H
ATOM     14 H70  WH0 L   1       3.671  -3.005  -3.775  1.00  0.00    +0.0410  H
ATOM     15 H71  WH0 L   1       6.092  -3.218  -0.599  1.00  0.00    +0.1686 HD
ENDROOT
BRANCH 1 16
ATOM     16  C9  WH0 L   1       2.389  -0.315   1.804  1.00  0.00    -0.0095  C
ATOM     17 H48  WH0 L   1       3.168  -0.554   2.539  1.00  0.00    +0.0330  H
ATOM     18 H49  WH0 L   1       1.448  -0.586   2.292  1.00  0.00    +0.0330  H
BRANCH 16 19
ATOM     19  C8  WH0 L   1       2.415   1.193   1.535  1.00  0.00    +0.0224  C
ATOM     20 H46  WH0 L   1       1.626   1.497   0.842  1.00  0.00    +0.0489  H
ATOM     21 H47  WH0 L   1       2.242   1.728   2.476  1.00  0.00    +0.0489  H
BRANCH 19 24
ATOM     22  C5  WH0 L   1       4.042   2.970   1.040  1.00  0.00    +0.2618  C
ATOM     23  O6  WH0 L   1       3.421   3.809   1.682  1.00  0.00    -0.2669 OA
ATOM     24  N7  WH0 L   1       3.677   1.642   0.968  1.00  0.00    -0.3511  N
ATOM     25 H45  WH0 L   1       4.057   1.092   0.209  1.00  0.00    +0.1627 HD
BRANCH 22 27
ATOM     26  C1  WH0 L   1       6.283   2.506   0.105  1.00  0.00    -0.0760  C
ATOM     27  C2  WH0 L   1       5.237   3.343   0.229  1.00  0.00    +0.1085  C
ATOM     28 H43  WH0 L   1       7.166   2.792  -0.462  1.00  0.00    +0.0549  H
ATOM     29 H44  WH0 L   1       6.310   1.536   0.589  1.00  0.00    +0.0549  H
BRANCH 27 30
ATOM     30  C3  WH0 L   1       5.267   4.642  -0.353  1.00  0.00    +0.1040  C
ATOM     31  N4  WH0 L   1       5.337   5.677  -0.875  1.00  0.00    -0.1907 NA
ENDBRANCH 27 30
ENDBRANCH 22 27
ENDBRANCH 19 24
ENDBRANCH 16 19
ENDBRANCH 1 16
BRANCH 6 32
ATOM     32 C16  WH0 L   1       0.247  -0.814  -0.279  1.00  0.00    +0.0356  A
ATOM     33 C17  WH0 L   1      -0.829  -1.145   0.605  1.00  0.00    +0.1015  A
ATOM     34 N25  WH0 L   1      -1.884  -0.338   0.404  1.00  0.00    -0.1627 NA
ATOM     35 N26  WH0 L   1      -1.524   0.458  -0.634  1.00  0.00    -0.1987  N
ATOM     36 C27  WH0 L   1      -2.366   1.467  -1.203  1.00  0.00    +0.2282  A
ATOM     37 N35  WH0 L   1      -1.866   2.227  -2.154  1.00  0.00    -0.2207 NA
ATOM     38 C36  WH0 L   1      -0.574   1.999  -2.568  1.00  0.00    +0.0334  A
ATOM     39 C37  WH0 L   1       0.248   1.055  -2.085  1.00  0.00    -0.0173  A
ATOM     40 C38  WH0 L   1      -0.233   0.222  -1.051  1.00  0.00    +0.0803  A
ATOM     41 H67  WH0 L   1      -0.223   2.660  -3.358  1.00  0.00    +0.0831  H
ATOM     42 H68  WH0 L   1       1.256   0.942  -2.468  1.00  0.00    +0.0654  H
BRANCH 33 43
ATOM     43 C18  WH0 L   1      -0.881  -2.177   1.643  1.00  0.00    +0.0029  A
ATOM     44 C19  WH0 L   1      -0.312  -3.444   1.441  1.00  0.00    -0.0498  A
ATOM     45 C20  WH0 L   1      -0.350  -4.405   2.455  1.00  0.00    -0.0258  A
ATOM     46 C21  WH0 L   1      -0.959  -4.103   3.667  1.00  0.00    +0.1234  A
ATOM     47 F22  WH0 L   1      -0.989  -5.025   4.638  1.00  0.00    -0.2055  F
ATOM     48 C23  WH0 L   1      -1.541  -2.861   3.884  1.00  0.00    -0.0258  A
ATOM     49 C24  WH0 L   1      -1.505  -1.900   2.872  1.00  0.00    -0.0498  A
ATOM     50 H52  WH0 L   1       0.153  -3.704   0.494  1.00  0.00    +0.0625  H
ATOM     51 H53  WH0 L   1       0.089  -5.386   2.304  1.00  0.00    +0.0646  H
ATOM     52 H54  WH0 L   1      -2.016  -2.647   4.836  1.00  0.00    +0.0646  H
ATOM     53 H55  WH0 L   1      -1.962  -0.927   3.045  1.00  0.00    +0.0625  H
ENDBRANCH 33 43
BRANCH 36 54
ATOM     54 N28  WH0 L   1      -3.682   1.663  -0.763  1.00  0.00    -0.3402  N
ATOM     55 C29  WH0 L   1      -4.382   2.895  -1.143  1.00  0.00    +0.0228  C
ATOM     56 C30  WH0 L   1      -5.488   3.212  -0.140  1.00  0.00    -0.0199  C
ATOM     57 C31  WH0 L   1      -6.508   2.074  -0.019  1.00  0.00    +0.0080  C
ATOM     58 N32  WH0 L   1      -7.784   2.405  -0.662  1.00  0.00    -0.3271 NA
ATOM     59 C33  WH0 L   1      -5.979   0.759  -0.596  1.00  0.00    -0.0199  C
ATOM     60 C34  WH0 L   1      -4.507   0.565  -0.243  1.00  0.00    +0.0228  C
ATOM     61 H56  WH0 L   1      -3.686   3.742  -1.150  1.00  0.00    +0.0489  H
ATOM     62 H57  WH0 L   1      -4.791   2.797  -2.156  1.00  0.00    +0.0489  H
ATOM     63 H58  WH0 L   1      -5.032   3.376   0.846  1.00  0.00    +0.0297  H
ATOM     64 H59  WH0 L   1      -5.971   4.160  -0.406  1.00  0.00    +0.0297  H
ATOM     65 H60  WH0 L   1      -6.722   1.925   1.047  1.00  0.00    +0.0459  H
ATOM     66 H61  WH0 L   1      -7.638   2.605  -1.651  1.00  0.00    +0.1185 HD
ATOM     67 H62  WH0 L   1      -8.162   3.261  -0.254  1.00  0.00    +0.1185 HD
ATOM     68 H63  WH0 L   1      -6.569  -0.083  -0.213  1.00  0.00    +0.0297  H
ATOM     69 H64  WH0 L   1      -6.087   0.743  -1.690  1.00  0.00    +0.0297  H
ATOM     70 H65  WH0 L   1      -4.392   0.507   0.846  1.00  0.00    +0.0489  H
ATOM     71 H66  WH0 L   1      -4.195  -0.391  -0.679  1.00  0.00    +0.0489  H
ENDBRANCH 36 54
ENDBRANCH 6 32
TORSDOF 8
