ROOT
ATOM      1  C3  408 L   1       3.174   0.475  -0.432  1.00  0.00    +0.0697  C
ATOM      2  O4  408 L   1       4.270  -0.457  -0.469  1.00  0.00    -0.3758 OA
ATOM      3  C5  408 L   1       4.664  -0.928   0.817  1.00  0.00    +0.0481  C
ATOM      4  C6  408 L   1       3.570  -1.802   1.420  1.00  0.00    -0.0287  C
ATOM      5  C7  408 L   1       2.173  -1.372   0.975  1.00  0.00    -0.0372  C
ATOM      6  C8  408 L   1       2.144   0.126   0.662  1.00  0.00    +0.0638  C
ATOM      7 H27  408 L   1       2.708   0.400  -1.422  1.00  0.00    +0.0603  H
ATOM      8 H28  408 L   1       4.898  -0.079   1.469  1.00  0.00    +0.0560  H
ATOM      9 H29  408 L   1       5.586  -1.507   0.703  1.00  0.00    +0.0560  H
ATOM     10 H30  408 L   1       3.722  -2.846   1.120  1.00  0.00    +0.0288  H
ATOM     11 H31  408 L   1       3.653  -1.781   2.512  1.00  0.00    +0.0288  H
ATOM     12 H32  408 L   1       1.436  -1.628   1.745  1.00  0.00    +0.0274  H
ATOM     13 H33  408 L   1       1.898  -1.952   0.085  1.00  0.00    +0.0274  H
ATOM     14 H34  408 L   1       2.412   0.654   1.589  1.00  0.00    +0.0422  H
ENDROOT
BRANCH 1 16
ATOM     15  C1  408 L   1       4.658   2.301  -1.398  1.00  0.00    -0.0629  C
ATOM     16  C2  408 L   1       3.696   1.914  -0.282  1.00  0.00    -0.0287  C
ATOM     17 H22  408 L   1       4.978   3.341  -1.276  1.00  0.00    +0.0231  H
ATOM     18 H23  408 L   1       5.553   1.671  -1.389  1.00  0.00    +0.0231  H
ATOM     19 H24  408 L   1       4.179   2.207  -2.378  1.00  0.00    +0.0231  H
ATOM     20 H25  408 L   1       4.221   2.030   0.673  1.00  0.00    +0.0288  H
ATOM     21 H26  408 L   1       2.855   2.616  -0.279  1.00  0.00    +0.0288  H
ENDBRANCH 1 16
BRANCH 6 22
ATOM     22  C9  408 L   1       0.747   0.602   0.290  1.00  0.00    +0.2269  C
ATOM     23 O10  408 L   1       0.171   1.465   0.948  1.00  0.00    -0.2728 OA
ATOM     24 N11  408 L   1       0.191   0.027  -0.827  1.00  0.00    -0.3486  N
ATOM     25 H35  408 L   1       0.578  -0.847  -1.163  1.00  0.00    +0.1627 HD
BRANCH 24 26
ATOM     26 C12  408 L   1      -1.207   0.227  -1.152  1.00  0.00    +0.0778  C
ATOM     27 H36  408 L   1      -1.277   0.291  -2.242  1.00  0.00    +0.0567  H
ATOM     28 H37  408 L   1      -1.552   1.167  -0.727  1.00  0.00    +0.0567  H
BRANCH 26 29
ATOM     29 C13  408 L   1      -1.957  -0.970  -0.679  1.00  0.00    +0.1472  A
ATOM     30 N14  408 L   1      -1.513  -2.213  -0.785  1.00  0.00    -0.2175 NA
ATOM     31 C15  408 L   1      -2.506  -2.956  -0.233  1.00  0.00    +0.1384  A
ATOM     32 N16  408 L   1      -3.552  -2.263   0.205  1.00  0.00    -0.1576 NA
ATOM     33 N17  408 L   1      -3.202  -0.986  -0.083  1.00  0.00    -0.2422  N
ATOM     34 H38  408 L   1      -2.468  -4.034  -0.148  1.00  0.00    +0.1066  H
BRANCH 33 35
ATOM     35 C18  408 L   1      -4.127   0.111   0.256  1.00  0.00    +0.0573  C
ATOM     36 C19  408 L   1      -4.449   0.967  -0.985  1.00  0.00    -0.0402  C
ATOM     37 C20  408 L   1      -3.538   0.980   1.381  1.00  0.00    -0.0402  C
ATOM     38 C21  408 L   1      -5.486  -0.434   0.774  1.00  0.00    -0.0402  C
ATOM     39 H39  408 L   1      -4.820   0.343  -1.807  1.00  0.00    +0.0253  H
ATOM     40 H40  408 L   1      -3.582   1.517  -1.358  1.00  0.00    +0.0253  H
ATOM     41 H41  408 L   1      -5.219   1.714  -0.759  1.00  0.00    +0.0253  H
ATOM     42 H42  408 L   1      -2.621   1.491   1.081  1.00  0.00    +0.0253  H
ATOM     43 H43  408 L   1      -4.247   1.755   1.694  1.00  0.00    +0.0253  H
ATOM     44 H44  408 L   1      -3.296   0.373   2.262  1.00  0.00    +0.0253  H
ATOM     45 H45  408 L   1      -5.362  -1.028   1.688  1.00  0.00    +0.0253  H
ATOM     46 H46  408 L   1      -5.976  -1.067   0.025  1.00  0.00    +0.0253  H
ATOM     47 H47  408 L   1      -6.176   0.384   1.013  1.00  0.00    +0.0253  H
ENDBRANCH 33 35
ENDBRANCH 26 29
ENDBRANCH 24 26
ENDBRANCH 6 22
TORSDOF 5
