ROOT
ATOM      1 C22  CHE L   1       3.604   0.510  -0.405  1.00  0.00    +0.0823  C
ATOM      2 C23  CHE L   1       4.631   1.619  -0.119  1.00  0.00    -0.0219  C
ATOM      3 C24  CHE L   1       5.797   1.561  -1.095  1.00  0.00    -0.0002  C
ATOM      4 N25  CHE L   1       6.520   0.286  -1.056  1.00  0.00    -0.3053 NA
ATOM      5 C26  CHE L   1       7.784   0.398  -0.331  1.00  0.00    -0.0128  C
ATOM      6 C27  CHE L   1       5.731  -0.840  -0.538  1.00  0.00    -0.0002  C
ATOM      7 C28  CHE L   1       4.275  -0.745  -0.984  1.00  0.00    -0.0219  C
ATOM      8 H47  CHE L   1       2.867   0.897  -1.119  1.00  0.00    +0.0480  H
ATOM      9 H48  CHE L   1       5.022   1.544   0.903  1.00  0.00    +0.0290  H
ATOM     10 H49  CHE L   1       4.137   2.595  -0.186  1.00  0.00    +0.0290  H
ATOM     11 H50  CHE L   1       5.411   1.696  -2.113  1.00  0.00    +0.0427  H
ATOM     12 H51  CHE L   1       6.468   2.412  -0.924  1.00  0.00    +0.0427  H
ATOM     13 H52  CHE L   1       7.630   0.671   0.718  1.00  0.00    +0.0391  H
ATOM     14 H53  CHE L   1       8.335  -0.549  -0.366  1.00  0.00    +0.0391  H
ATOM     15 H54  CHE L   1       8.429   1.153  -0.795  1.00  0.00    +0.0391  H
ATOM     16 H55  CHE L   1       5.770  -0.886   0.558  1.00  0.00    +0.0427  H
ATOM     17 H56  CHE L   1       6.163  -1.776  -0.913  1.00  0.00    +0.0427  H
ATOM     18 H57  CHE L   1       4.243  -0.695  -2.082  1.00  0.00    +0.0290  H
ATOM     19 H58  CHE L   1       3.749  -1.665  -0.708  1.00  0.00    +0.0290  H
ENDROOT
BRANCH 1 20
ATOM     20 S19  CHE L   1       2.673   0.151   1.113  1.00  0.00    +0.2354  S
ATOM     21 O20  CHE L   1       3.185  -1.053   1.735  1.00  0.00    -0.2051 OA
ATOM     22 O21  CHE L   1       2.558   1.378   1.875  1.00  0.00    -0.2051 OA
BRANCH 20 29
ATOM     23  C1  CHE L   1      -0.827   1.113   1.341  1.00  0.00    -0.0438  C
ATOM     24  C2  CHE L   1       0.044  -0.110   1.622  1.00  0.00    +0.0394  C
ATOM     25  C3  CHE L   1      -0.766  -1.401   1.755  1.00  0.00    -0.0116  C
ATOM     26  C4  CHE L   1      -1.369  -1.904   0.438  1.00  0.00    +0.0335  C
ATOM     27 C16  CHE L   1      -0.496  -1.549  -0.766  1.00  0.00    -0.0141  C
ATOM     28 C17  CHE L   1       0.961  -1.381  -0.353  1.00  0.00    +0.0313  C
ATOM     29 N18  CHE L   1       1.096  -0.205   0.545  1.00  0.00    -0.2977 NA
ATOM     30 H29  CHE L   1      -1.631   1.198   2.078  1.00  0.00    +0.0250  H
ATOM     31 H30  CHE L   1      -1.278   1.084   0.345  1.00  0.00    +0.0250  H
ATOM     32 H31  CHE L   1      -0.226   2.027   1.392  1.00  0.00    +0.0250  H
ATOM     33 H32  CHE L   1       0.519   0.049   2.596  1.00  0.00    +0.0529  H
ATOM     34 H33  CHE L   1      -0.086  -2.178   2.131  1.00  0.00    +0.0305  H
ATOM     35 H34  CHE L   1      -1.537  -1.283   2.527  1.00  0.00    +0.0305  H
ATOM     36 H35  CHE L   1      -1.423  -2.998   0.507  1.00  0.00    +0.0524  H
ATOM     37 H43  CHE L   1      -0.844  -0.627  -1.247  1.00  0.00    +0.0302  H
ATOM     38 H44  CHE L   1      -0.582  -2.337  -1.523  1.00  0.00    +0.0302  H
ATOM     39 H45  CHE L   1       1.336  -2.289   0.130  1.00  0.00    +0.0496  H
ATOM     40 H46  CHE L   1       1.540  -1.205  -1.263  1.00  0.00    +0.0496  H
BRANCH 26 41
ATOM     41  N5  CHE L   1      -2.740  -1.439   0.243  1.00  0.00    -0.3478  N
ATOM     42  C6  CHE L   1      -3.790  -1.994   0.963  1.00  0.00    +0.2739  C
ATOM     43  O7  CHE L   1      -3.625  -2.968   1.692  1.00  0.00    -0.2658 OA
ATOM     44 H36  CHE L   1      -2.878  -0.524  -0.165  1.00  0.00    +0.1629 HD
BRANCH 42 45
ATOM     45  C8  CHE L   1      -5.082  -1.309   0.816  1.00  0.00    +0.1701  A
ATOM     46  C9  CHE L   1      -5.493  -0.359  -0.160  1.00  0.00    +0.0132  A
ATOM     47 C10  CHE L   1      -6.778  -0.026   0.191  1.00  0.00    +0.1411  A
ATOM     48 O14  CHE L   1      -7.133  -0.736   1.289  1.00  0.00    -0.3586 OA
ATOM     49 N15  CHE L   1      -6.084  -1.542   1.679  1.00  0.00    -0.0732 NA
ATOM     50 H37  CHE L   1      -4.936   0.023  -0.998  1.00  0.00    +0.0676  H
BRANCH 47 51
ATOM     51 C11  CHE L   1      -7.720   0.985  -0.512  1.00  0.00    +0.0199  C
ATOM     52 C12  CHE L   1      -7.190   2.083  -1.390  1.00  0.00    -0.0426  C
ATOM     53 C13  CHE L   1      -7.708   2.407  -0.020  1.00  0.00    -0.0426  C
ATOM     54 H38  CHE L   1      -8.688   0.570  -0.775  1.00  0.00    +0.0380  H
ATOM     55 H39  CHE L   1      -6.123   2.171  -1.557  1.00  0.00    +0.0272  H
ATOM     56 H40  CHE L   1      -7.795   2.385  -2.241  1.00  0.00    +0.0272  H
ATOM     57 H41  CHE L   1      -8.660   2.921   0.059  1.00  0.00    +0.0272  H
ATOM     58 H42  CHE L   1      -6.989   2.689   0.743  1.00  0.00    +0.0272  H
ENDBRANCH 47 51
ENDBRANCH 42 45
ENDBRANCH 26 41
ENDBRANCH 20 29
ENDBRANCH 1 20
TORSDOF 5
