ROOT
ATOM      1 C14  WH0 L   1      -1.702  -2.092   0.451  1.00  0.00    -0.0133  A
ATOM      2 C15  WH0 L   1      -1.924  -2.550   1.771  1.00  0.00    -0.0519  A
ATOM      3 C16  WH0 L   1      -2.358  -3.866   2.002  1.00  0.00    -0.0374  A
ATOM      4 C17  WH0 L   1      -2.575  -4.693   0.903  1.00  0.00    +0.0454  A
ATOM      5 C18  WH0 L   1      -2.374  -4.247  -0.388  1.00  0.00    -0.0145  A
ATOM      6 C19  WH0 L   1      -1.924  -2.951  -0.643  1.00  0.00    -0.0483  A
ATOM      7 C20  WH0 L   1      -2.705  -5.316  -1.379  1.00  0.00    +0.0535  C
ATOM      8 C21  WH0 L   1      -3.098  -6.419  -0.442  1.00  0.00    +0.2296  C
ATOM      9 O22  WH0 L   1      -3.452  -7.566  -0.814  1.00  0.00    -0.2725 OA
ATOM     10 N23  WH0 L   1      -3.018  -6.037   0.932  1.00  0.00    -0.3256  N
ATOM     11 H52  WH0 L   1      -1.756  -1.887   2.613  1.00  0.00    +0.0624  H
ATOM     12 H53  WH0 L   1      -2.526  -4.228   3.009  1.00  0.00    +0.0638  H
ATOM     13 H54  WH0 L   1      -1.762  -2.616  -1.660  1.00  0.00    +0.0627  H
ATOM     14 H55  WH0 L   1      -3.560  -5.014  -2.020  1.00  0.00    +0.0410  H
ATOM     15 H56  WH0 L   1      -1.809  -5.592  -1.973  1.00  0.00    +0.0410  H
ATOM     16 H57  WH0 L   1      -3.232  -6.623   1.776  1.00  0.00    +0.1686 HD
ENDROOT
BRANCH 1 20
ATOM     17 C10  WH0 L   1       2.437  -0.300  -0.147  1.00  0.00    +0.0488  A
ATOM     18 C11  WH0 L   1       1.232  -1.027  -0.042  1.00  0.00    -0.0140  A
ATOM     19 C12  WH0 L   1       0.052  -0.289   0.031  1.00  0.00    +0.0806  A
ATOM     20 C13  WH0 L   1      -1.249  -0.713   0.220  1.00  0.00    +0.0353  A
ATOM     21 C24  WH0 L   1      -1.973   0.473   0.371  1.00  0.00    +0.1015  A
ATOM     22 N33  WH0 L   1      -1.139   1.533   0.257  1.00  0.00    -0.1627 NA
ATOM     23 N34  WH0 L   1       0.072   1.049   0.037  1.00  0.00    -0.1987  N
ATOM     24 C35  WH0 L   1       1.229   1.755  -0.050  1.00  0.00    +0.2285  A
ATOM     25 N43  WH0 L   1       2.403   1.068  -0.134  1.00  0.00    -0.2172 NA
ATOM     26 H51  WH0 L   1       1.214  -2.108   0.008  1.00  0.00    +0.0657  H
BRANCH 17 27
ATOM     27  C9  WH0 L   1       3.783  -0.981  -0.131  1.00  0.00    +0.0073  C
ATOM     28 H49  WH0 L   1       4.026  -1.283   0.911  1.00  0.00    +0.0345  H
ATOM     29 H50  WH0 L   1       4.549  -0.245  -0.453  1.00  0.00    +0.0345  H
BRANCH 27 30
ATOM     30  C8  WH0 L   1       3.864  -2.206  -1.055  1.00  0.00    +0.0238  C
ATOM     31 H47  WH0 L   1       3.277  -3.037  -0.606  1.00  0.00    +0.0490  H
ATOM     32 H48  WH0 L   1       3.435  -1.981  -2.058  1.00  0.00    +0.0490  H
BRANCH 30 35
ATOM     33  C5  WH0 L   1       6.196  -1.922  -2.019  1.00  0.00    +0.2618  C
ATOM     34  O6  WH0 L   1       5.769  -1.063  -2.839  1.00  0.00    -0.2669 OA
ATOM     35  N7  WH0 L   1       5.256  -2.631  -1.192  1.00  0.00    -0.3511  N
ATOM     36 H46  WH0 L   1       5.564  -3.478  -0.657  1.00  0.00    +0.1627 HD
BRANCH 33 38
ATOM     37  C1  WH0 L   1       8.525  -1.619  -2.753  1.00  0.00    -0.0760  C
ATOM     38  C2  WH0 L   1       7.655  -2.191  -1.920  1.00  0.00    +0.1085  C
ATOM     39 H44  WH0 L   1       9.589  -1.819  -2.671  1.00  0.00    +0.0549  H
ATOM     40 H45  WH0 L   1       8.201  -0.960  -3.550  1.00  0.00    +0.0549  H
BRANCH 38 41
ATOM     41  C3  WH0 L   1       8.164  -3.060  -0.882  1.00  0.00    +0.1040  C
ATOM     42  N4  WH0 L   1       8.570  -3.752  -0.047  1.00  0.00    -0.1907 NA
ENDBRANCH 38 41
ENDBRANCH 33 38
ENDBRANCH 30 35
ENDBRANCH 27 30
ENDBRANCH 17 27
BRANCH 21 43
ATOM     43 C25  WH0 L   1      -3.410   0.613   0.686  1.00  0.00    +0.0030  A
ATOM     44 C26  WH0 L   1      -4.361  -0.286   0.174  1.00  0.00    -0.0490  A
ATOM     45 C27  WH0 L   1      -5.721  -0.111   0.457  1.00  0.00    -0.0193  A
ATOM     46 C28  WH0 L   1      -6.152   0.953   1.258  1.00  0.00    +0.1201  A
ATOM     47 C31  WH0 L   1      -5.200   1.855   1.774  1.00  0.00    -0.0193  A
ATOM     48 C32  WH0 L   1      -3.845   1.692   1.474  1.00  0.00    -0.0490  A
ATOM     49 H58  WH0 L   1      -4.064  -1.105  -0.466  1.00  0.00    +0.0625  H
ATOM     50 H59  WH0 L   1      -6.442  -0.805   0.050  1.00  0.00    +0.0654  H
ATOM     51 H63  WH0 L   1      -5.504   2.689   2.394  1.00  0.00    +0.0654  H
ATOM     52 H64  WH0 L   1      -3.129   2.405   1.870  1.00  0.00    +0.0625  H
BRANCH 46 53
ATOM     53 O29  WH0 L   1      -7.527   1.078   1.518  1.00  0.00    -0.4951 OA
ATOM     54 C30  WH0 L   1      -8.105   2.088   2.344  1.00  0.00    +0.0788  C
ATOM     55 H60  WH0 L   1      -7.692   2.023   3.374  1.00  0.00    +0.0660  H
ATOM     56 H61  WH0 L   1      -7.904   3.092   1.910  1.00  0.00    +0.0660  H
ATOM     57 H62  WH0 L   1      -9.203   1.929   2.385  1.00  0.00    +0.0660  H
ENDBRANCH 46 53
ENDBRANCH 21 43
BRANCH 24 58
ATOM     58 N36  WH0 L   1       1.238   3.187   0.012  1.00  0.00    -0.3401  N
ATOM     59 C37  WH0 L   1       1.965   3.866   1.082  1.00  0.00    +0.0237  C
ATOM     60 C38  WH0 L   1       2.751   5.043   0.506  1.00  0.00    -0.0090  C
ATOM     61 C39  WH0 L   1       1.833   5.965  -0.307  1.00  0.00    +0.0585  C
ATOM     62 O40  WH0 L   1       2.598   7.002  -0.860  1.00  0.00    -0.3917 OA
ATOM     63 C41  WH0 L   1       1.125   5.175  -1.422  1.00  0.00    -0.0090  C
ATOM     64 C42  WH0 L   1       0.358   3.980  -0.847  1.00  0.00    +0.0237  C
ATOM     65 H65  WH0 L   1       2.660   3.169   1.590  1.00  0.00    +0.0489  H
ATOM     66 H66  WH0 L   1       1.242   4.232   1.838  1.00  0.00    +0.0489  H
ATOM     67 H67  WH0 L   1       3.215   5.615   1.338  1.00  0.00    +0.0307  H
ATOM     68 H68  WH0 L   1       3.560   4.651  -0.150  1.00  0.00    +0.0307  H
ATOM     69 H69  WH0 L   1       1.065   6.393   0.377  1.00  0.00    +0.0594  H
ATOM     70 H70  WH0 L   1       1.969   7.742  -1.070  1.00  0.00    +0.2098 HD
ATOM     71 H71  WH0 L   1       1.879   4.807  -2.160  1.00  0.00    +0.0307  H
ATOM     72 H72  WH0 L   1       0.413   5.841  -1.953  1.00  0.00    +0.0307  H
ATOM     73 H73  WH0 L   1      -0.027   3.363  -1.689  1.00  0.00    +0.0489  H
ATOM     74 H74  WH0 L   1      -0.510   4.339  -0.253  1.00  0.00    +0.0489  H
ENDBRANCH 24 58
ENDBRANCH 1 20
TORSDOF 9
