ROOT
ATOM      1  O1  SEL L   1      -8.088   2.003   1.031  1.00  0.00    -0.2725 OA
ATOM      2  C2  SEL L   1      -6.932   1.629   1.126  1.00  0.00    +0.2297  C
ATOM      3  C3  SEL L   1      -5.815   1.823   0.091  1.00  0.00    +0.0536  C
ATOM      4  C4  SEL L   1      -4.648   1.167   0.764  1.00  0.00    -0.0115  A
ATOM      5  C5  SEL L   1      -3.342   1.016   0.342  1.00  0.00    -0.0300  A
ATOM      6  C6  SEL L   1      -2.476   0.348   1.210  1.00  0.00    +0.0755  A
ATOM      7 N30  SEL L   1      -2.855  -0.144   2.428  1.00  0.00    -0.2528 NA
ATOM      8 C31  SEL L   1      -4.144   0.025   2.805  1.00  0.00    +0.0519  A
ATOM      9 C32  SEL L   1      -5.045   0.670   1.996  1.00  0.00    +0.0637  A
ATOM     10 N33  SEL L   1      -6.387   0.941   2.205  1.00  0.00    -0.3244  N
ATOM     11 H34  SEL L   1      -5.639   2.890  -0.066  1.00  0.00    +0.0410  H
ATOM     12 H35  SEL L   1      -6.081   1.309  -0.836  1.00  0.00    +0.0410  H
ATOM     13 H36  SEL L   1      -3.009   1.405  -0.613  1.00  0.00    +0.0642  H
ATOM     14 H53  SEL L   1      -4.411  -0.377   3.775  1.00  0.00    +0.0851  H
ATOM     15 H54  SEL L   1      -6.927   0.694   3.021  1.00  0.00    +0.1686 HD
ENDROOT
BRANCH 6 16
ATOM     16  C7  SEL L   1      -1.087   0.137   0.847  1.00  0.00    +0.0535  A
ATOM     17  C8  SEL L   1      -0.497  -0.367  -0.353  1.00  0.00    +0.1030  A
ATOM     18 N16  SEL L   1       0.844  -0.325  -0.295  1.00  0.00    -0.1626 NA
ATOM     19 N17  SEL L   1       1.124   0.160   0.942  1.00  0.00    -0.1986  N
ATOM     20 C18  SEL L   1       2.451   0.351   1.452  1.00  0.00    +0.2282  A
ATOM     21 N26  SEL L   1       2.579   0.808   2.681  1.00  0.00    -0.2207 NA
ATOM     22 C27  SEL L   1       1.441   1.092   3.402  1.00  0.00    +0.0334  A
ATOM     23 C28  SEL L   1       0.182   0.940   2.967  1.00  0.00    -0.0172  A
ATOM     24 C29  SEL L   1      -0.016   0.439   1.662  1.00  0.00    +0.0818  A
ATOM     25 H51  SEL L   1       1.616   1.468   4.407  1.00  0.00    +0.0831  H
ATOM     26 H52  SEL L   1      -0.665   1.180   3.601  1.00  0.00    +0.0654  H
BRANCH 17 27
ATOM     27  C9  SEL L   1      -1.159  -0.884  -1.551  1.00  0.00    +0.0029  A
ATOM     28 C10  SEL L   1      -0.707  -0.499  -2.823  1.00  0.00    -0.0498  A
ATOM     29 C11  SEL L   1      -1.338  -0.978  -3.973  1.00  0.00    -0.0258  A
ATOM     30 C12  SEL L   1      -2.415  -1.846  -3.850  1.00  0.00    +0.1234  A
ATOM     31 F13  SEL L   1      -3.022  -2.305  -4.953  1.00  0.00    -0.2055  F
ATOM     32 C14  SEL L   1      -2.871  -2.250  -2.601  1.00  0.00    -0.0258  A
ATOM     33 C15  SEL L   1      -2.240  -1.773  -1.449  1.00  0.00    -0.0498  A
ATOM     34 H37  SEL L   1       0.141   0.176  -2.921  1.00  0.00    +0.0625  H
ATOM     35 H38  SEL L   1      -0.993  -0.683  -4.959  1.00  0.00    +0.0646  H
ATOM     36 H39  SEL L   1      -3.706  -2.939  -2.530  1.00  0.00    +0.0646  H
ATOM     37 H40  SEL L   1      -2.591  -2.113  -0.477  1.00  0.00    +0.0625  H
ENDBRANCH 17 27
BRANCH 20 38
ATOM     38 N19  SEL L   1       3.596   0.057   0.694  1.00  0.00    -0.3401  N
ATOM     39 C20  SEL L   1       3.592   0.012  -0.772  1.00  0.00    +0.0237  C
ATOM     40 C21  SEL L   1       4.981   0.251  -1.351  1.00  0.00    -0.0090  C
ATOM     41 C22  SEL L   1       5.985  -0.752  -0.799  1.00  0.00    +0.0585  C
ATOM     42 O23  SEL L   1       7.297  -0.263  -1.072  1.00  0.00    -0.3917 OA
ATOM     43 C24  SEL L   1       5.815  -0.996   0.699  1.00  0.00    -0.0090  C
ATOM     44 C25  SEL L   1       4.909   0.047   1.349  1.00  0.00    +0.0237  C
ATOM     45 H41  SEL L   1       3.228  -0.966  -1.106  1.00  0.00    +0.0489  H
ATOM     46 H42  SEL L   1       2.936   0.792  -1.175  1.00  0.00    +0.0489  H
ATOM     47 H43  SEL L   1       5.310   1.276  -1.131  1.00  0.00    +0.0307  H
ATOM     48 H44  SEL L   1       4.954   0.182  -2.446  1.00  0.00    +0.0307  H
ATOM     49 H45  SEL L   1       5.884  -1.704  -1.333  1.00  0.00    +0.0594  H
ATOM     50 H46  SEL L   1       7.930  -0.953  -0.807  1.00  0.00    +0.2098 HD
ATOM     51 H47  SEL L   1       5.353  -1.982   0.841  1.00  0.00    +0.0307  H
ATOM     52 H48  SEL L   1       6.782  -1.019   1.213  1.00  0.00    +0.0307  H
ATOM     53 H49  SEL L   1       4.818  -0.214   2.410  1.00  0.00    +0.0489  H
ATOM     54 H50  SEL L   1       5.359   1.046   1.298  1.00  0.00    +0.0489  H
ENDBRANCH 20 38
ENDBRANCH 6 16
TORSDOF 3
