ROOT
ATOM      1  C4  MCU L   1      -3.585   2.380   0.293  1.00  0.00    +0.1622  A
ATOM      2  C5  MCU L   1      -2.874   1.264  -0.166  1.00  0.00    -0.0106  A
ATOM      3  C6  MCU L   1      -1.521   1.360  -0.542  1.00  0.00    -0.0136  A
ATOM      4  C7  MCU L   1      -0.911   2.633  -0.536  1.00  0.00    -0.0366  A
ATOM      5  C8  MCU L   1      -1.622   3.751  -0.070  1.00  0.00    -0.0127  A
ATOM      6  C9  MCU L   1      -2.949   3.633   0.353  1.00  0.00    +0.1618  A
ATOM      7 C12  MCU L   1       0.521   2.819  -0.995  1.00  0.00    -0.0094  C
ATOM      8 C13  MCU L   1       1.040   1.624  -1.805  1.00  0.00    +0.0264  C
ATOM      9 N14  MCU L   1       0.704   0.374  -1.123  1.00  0.00    -0.3270  N
ATOM     10 C15  MCU L   1       1.467   0.091   0.023  1.00  0.00    +0.2554  C
ATOM     11 O16  MCU L   1       1.015  -0.058   1.152  1.00  0.00    -0.2674 OA
ATOM     12 C27  MCU L   1      -0.754   0.150  -1.091  1.00  0.00    +0.0838  C
ATOM     13 H43  MCU L   1      -3.367   0.300  -0.245  1.00  0.00    +0.0659  H
ATOM     14 H44  MCU L   1      -1.117   4.712  -0.058  1.00  0.00    +0.0658  H
ATOM     15 H48  MCU L   1       0.608   3.725  -1.606  1.00  0.00    +0.0330  H
ATOM     16 H49  MCU L   1       1.144   2.958  -0.102  1.00  0.00    +0.0330  H
ATOM     17 H50  MCU L   1       0.587   1.601  -2.803  1.00  0.00    +0.0492  H
ATOM     18 H51  MCU L   1       2.120   1.728  -1.946  1.00  0.00    +0.0492  H
ATOM     19 H61  MCU L   1      -1.045   0.161  -2.154  1.00  0.00    +0.0626  H
ENDROOT
BRANCH 1 20
ATOM     20  O3  MCU L   1      -4.897   2.351   0.699  1.00  0.00    -0.4886 OA
BRANCH 20 22
ATOM     21  C1  MCU L   1      -6.939   1.307   1.332  1.00  0.00    -0.0307  C
ATOM     22  C2  MCU L   1      -5.550   1.086   0.759  1.00  0.00    +0.0870  C
ATOM     23 H38  MCU L   1      -7.496   0.367   1.379  1.00  0.00    +0.0262  H
ATOM     24 H39  MCU L   1      -6.874   1.730   2.340  1.00  0.00    +0.0262  H
ATOM     25 H40  MCU L   1      -7.500   2.024   0.723  1.00  0.00    +0.0262  H
ATOM     26 H41  MCU L   1      -5.001   0.396   1.412  1.00  0.00    +0.0694  H
ATOM     27 H42  MCU L   1      -5.642   0.662  -0.248  1.00  0.00    +0.0694  H
ENDBRANCH 20 22
ENDBRANCH 1 20
BRANCH 6 28
ATOM     28 O10  MCU L   1      -3.712   4.680   0.810  1.00  0.00    -0.4914 OA
ATOM     29 C11  MCU L   1      -3.041   5.893   1.113  1.00  0.00    +0.0790  C
ATOM     30 H45  MCU L   1      -2.232   5.733   1.836  1.00  0.00    +0.0660  H
ATOM     31 H46  MCU L   1      -2.666   6.373   0.203  1.00  0.00    +0.0660  H
ATOM     32 H47  MCU L   1      -3.767   6.572   1.572  1.00  0.00    +0.0660  H
ENDBRANCH 6 28
BRANCH 10 33
ATOM     33 C17  MCU L   1       2.942  -0.014  -0.159  1.00  0.00    +0.0429  A
ATOM     34 C18  MCU L   1       3.490  -0.566  -1.319  1.00  0.00    -0.0457  A
ATOM     35 C19  MCU L   1       4.877  -0.641  -1.467  1.00  0.00    -0.0156  A
ATOM     36 C20  MCU L   1       5.723  -0.175  -0.453  1.00  0.00    +0.1615  A
ATOM     37 C23  MCU L   1       5.168   0.357   0.731  1.00  0.00    +0.1622  A
ATOM     38 C26  MCU L   1       3.778   0.428   0.873  1.00  0.00    -0.0040  A
ATOM     39 H52  MCU L   1       2.845  -0.947  -2.108  1.00  0.00    +0.0626  H
ATOM     40 H53  MCU L   1       5.267  -1.075  -2.381  1.00  0.00    +0.0655  H
ATOM     41 H60  MCU L   1       3.317   0.830   1.770  1.00  0.00    +0.0663  H
BRANCH 36 42
ATOM     42 O21  MCU L   1       7.094  -0.197  -0.516  1.00  0.00    -0.4915 OA
ATOM     43 C22  MCU L   1       7.694  -0.700  -1.702  1.00  0.00    +0.0790  C
ATOM     44 H54  MCU L   1       7.455  -1.760  -1.845  1.00  0.00    +0.0660  H
ATOM     45 H55  MCU L   1       8.780  -0.617  -1.589  1.00  0.00    +0.0660  H
ATOM     46 H56  MCU L   1       7.402  -0.108  -2.575  1.00  0.00    +0.0660  H
ENDBRANCH 36 42
BRANCH 37 47
ATOM     47 O24  MCU L   1       6.065   0.784   1.680  1.00  0.00    -0.4914 OA
ATOM     48 C25  MCU L   1       5.546   1.250   2.917  1.00  0.00    +0.0790  C
ATOM     49 H57  MCU L   1       4.936   2.148   2.776  1.00  0.00    +0.0660  H
ATOM     50 H58  MCU L   1       6.394   1.522   3.553  1.00  0.00    +0.0660  H
ATOM     51 H59  MCU L   1       4.981   0.466   3.430  1.00  0.00    +0.0660  H
ENDBRANCH 37 47
ENDBRANCH 10 33
BRANCH 12 52
ATOM     52 C28  MCU L   1      -1.139  -1.254  -0.625  1.00  0.00    -0.0169  A
ATOM     53 C29  MCU L   1      -1.458  -1.552   0.709  1.00  0.00    -0.0526  A
ATOM     54 C30  MCU L   1      -1.808  -2.850   1.104  1.00  0.00    -0.0160  A
ATOM     55 C31  MCU L   1      -1.833  -3.890   0.175  1.00  0.00    +0.1615  A
ATOM     56 C34  MCU L   1      -1.471  -3.607  -1.149  1.00  0.00    +0.1618  A
ATOM     57 C37  MCU L   1      -1.145  -2.309  -1.551  1.00  0.00    -0.0108  A
ATOM     58 H62  MCU L   1      -1.424  -0.769   1.466  1.00  0.00    +0.0622  H
ATOM     59 H63  MCU L   1      -2.048  -3.008   2.150  1.00  0.00    +0.0655  H
ATOM     60 H70  MCU L   1      -0.891  -2.130  -2.593  1.00  0.00    +0.0659  H
BRANCH 55 61
ATOM     61 O32  MCU L   1      -2.181  -5.186   0.452  1.00  0.00    -0.4915 OA
ATOM     62 C33  MCU L   1      -2.615  -5.472   1.775  1.00  0.00    +0.0790  C
ATOM     63 H64  MCU L   1      -3.495  -4.875   2.044  1.00  0.00    +0.0660  H
ATOM     64 H65  MCU L   1      -2.906  -6.528   1.811  1.00  0.00    +0.0660  H
ATOM     65 H66  MCU L   1      -1.801  -5.326   2.495  1.00  0.00    +0.0660  H
ENDBRANCH 55 61
BRANCH 56 66
ATOM     66 O35  MCU L   1      -1.486  -4.578  -2.121  1.00  0.00    -0.4914 OA
ATOM     67 C36  MCU L   1      -0.285  -5.347  -2.061  1.00  0.00    +0.0790  C
ATOM     68 H67  MCU L   1      -0.356  -6.135  -2.817  1.00  0.00    +0.0660  H
ATOM     69 H68  MCU L   1      -0.144  -5.827  -1.086  1.00  0.00    +0.0660  H
ATOM     70 H69  MCU L   1       0.584  -4.724  -2.304  1.00  0.00    +0.0660  H
ENDBRANCH 56 66
ENDBRANCH 12 52
TORSDOF 9
