ROOT
ATOM      1  C8  962 L   1       0.826  -1.343   1.620  1.00  0.00    +0.0439  C
ATOM      2  C9  962 L   1       0.093  -1.403   2.933  1.00  0.00    -0.0347  C
ATOM      3 C10  962 L   1      -0.664  -0.996   1.687  1.00  0.00    -0.0140  C
ATOM      4 C11  962 L   1      -1.133   0.445   1.621  1.00  0.00    -0.0288  C
ATOM      5 C12  962 L   1      -1.635   0.815   0.220  1.00  0.00    +0.0210  C
ATOM      6 N13  962 L   1      -2.555  -0.188  -0.324  1.00  0.00    -0.3489  N
ATOM      7 C19  962 L   1      -2.902  -1.328   0.529  1.00  0.00    +0.0210  C
ATOM      8 C20  962 L   1      -1.623  -1.992   1.056  1.00  0.00    -0.0288  C
ATOM      9 H29  962 L   1       1.104  -2.310   1.210  1.00  0.00    +0.0402  H
ATOM     10 H30  962 L   1       0.326  -0.647   3.678  1.00  0.00    +0.0278  H
ATOM     11 H31  962 L   1      -0.087  -2.382   3.365  1.00  0.00    +0.0278  H
ATOM     12 H32  962 L   1      -0.349   1.148   1.924  1.00  0.00    +0.0288  H
ATOM     13 H33  962 L   1      -1.949   0.574   2.344  1.00  0.00    +0.0288  H
ATOM     14 H34  962 L   1      -0.778   0.908  -0.456  1.00  0.00    +0.0488  H
ATOM     15 H35  962 L   1      -2.120   1.797   0.288  1.00  0.00    +0.0488  H
ATOM     16 H37  962 L   1      -3.474  -2.091  -0.013  1.00  0.00    +0.0488  H
ATOM     17 H38  962 L   1      -3.529  -0.985   1.362  1.00  0.00    +0.0488  H
ATOM     18 H39  962 L   1      -1.897  -2.772   1.776  1.00  0.00    +0.0288  H
ATOM     19 H40  962 L   1      -1.118  -2.489   0.217  1.00  0.00    +0.0288  H
ENDROOT
BRANCH 1 21
ATOM     20  O1  962 L   1       2.497   0.206   2.248  1.00  0.00    -0.2729 OA
ATOM     21  C2  962 L   1       1.841  -0.295   1.347  1.00  0.00    +0.2248  C
ATOM     22  N3  962 L   1       1.943   0.030   0.016  1.00  0.00    -0.3530  N
ATOM     23 H21  962 L   1       1.340  -0.469  -0.628  1.00  0.00    +0.1626 HD
BRANCH 22 24
ATOM     24  C4  962 L   1       2.878   1.052  -0.469  1.00  0.00    +0.0296  C
ATOM     25  C5  962 L   1       4.334   0.561  -0.649  1.00  0.00    -0.0325  C
ATOM     26  C6  962 L   1       4.384   1.415  -1.933  1.00  0.00    -0.0493  C
ATOM     27  C7  962 L   1       2.850   1.267  -2.001  1.00  0.00    -0.0325  C
ATOM     28 H22  962 L   1       2.796   1.990   0.095  1.00  0.00    +0.0522  H
ATOM     29 H23  962 L   1       4.436  -0.515  -0.834  1.00  0.00    +0.0285  H
ATOM     30 H24  962 L   1       5.034   0.854   0.137  1.00  0.00    +0.0285  H
ATOM     31 H25  962 L   1       4.721   2.444  -1.766  1.00  0.00    +0.0267  H
ATOM     32 H26  962 L   1       4.941   0.986  -2.769  1.00  0.00    +0.0267  H
ATOM     33 H27  962 L   1       2.520   0.398  -2.583  1.00  0.00    +0.0285  H
ATOM     34 H28  962 L   1       2.307   2.151  -2.346  1.00  0.00    +0.0285  H
ENDBRANCH 22 24
ENDBRANCH 1 21
BRANCH 6 35
ATOM     35 C14  962 L   1      -3.371   0.099  -1.385  1.00  0.00    +0.1919  A
ATOM     36 N15  962 L   1      -4.428  -0.615  -1.733  1.00  0.00    -0.1237 NA
ATOM     37 N16  962 L   1      -5.086  -0.137  -2.847  1.00  0.00    -0.1479 NA
ATOM     38 C17  962 L   1      -4.498   0.932  -3.329  1.00  0.00    +0.0904  A
ATOM     39 S18  962 L   1      -3.110   1.434  -2.469  1.00  0.00    -0.0366  S
ATOM     40 H36  962 L   1      -4.864   1.452  -4.202  1.00  0.00    +0.0927  H
ENDBRANCH 6 35
TORSDOF 3
