ROOT
ATOM      1 C11  WH0 L   1       4.715   0.705  -1.594  1.00  0.00    +0.0852  C
ATOM      2 C12  WH0 L   1       3.909   1.606  -0.643  1.00  0.00    -0.0138  C
ATOM      3 C13  WH0 L   1       2.395   1.309  -0.608  1.00  0.00    +0.0300  C
ATOM      4 C14  WH0 L   1       1.692   1.937  -1.812  1.00  0.00    +0.1598  C
ATOM      5 O15  WH0 L   1       2.144   2.905  -2.418  1.00  0.00    -0.2924 OA
ATOM      6 C16  WH0 L   1       0.377   1.397  -2.233  1.00  0.00    -0.0167  C
ATOM      7 C17  WH0 L   1      -0.183   0.332  -1.635  1.00  0.00    -0.0310  C
ATOM      8 C18  WH0 L   1       0.538  -0.447  -0.553  1.00  0.00    -0.0107  C
ATOM      9 C19  WH0 L   1      -0.231  -0.277   0.772  1.00  0.00    -0.0453  C
ATOM     10 C20  WH0 L   1      -1.637   0.321   0.640  1.00  0.00    -0.0439  C
ATOM     11 C21  WH0 L   1      -2.510  -0.079  -0.609  1.00  0.00    +0.0038  C
ATOM     12 C22  WH0 L   1      -3.570   1.037  -0.678  1.00  0.00    -0.0564  C
ATOM     13 C23  WH0 L   1      -3.086  -1.540  -0.401  1.00  0.00    -0.0277  C
ATOM     14 C34  WH0 L   1      -2.077  -2.429  -1.162  1.00  0.00    -0.0464  C
ATOM     15 C35  WH0 L   1      -1.664  -1.618  -2.375  1.00  0.00    -0.0193  C
ATOM     16 C36  WH0 L   1      -1.611  -0.151  -1.911  1.00  0.00    +0.0933  C
ATOM     17 O37  WH0 L   1      -2.165   0.606  -2.987  1.00  0.00    -0.3837 OA
ATOM     18 C38  WH0 L   1       2.092  -0.203  -0.507  1.00  0.00    -0.0132  C
ATOM     19 C39  WH0 L   1       2.672  -0.785   0.808  1.00  0.00    -0.0583  C
ATOM     20 C40  WH0 L   1       2.770  -0.973  -1.693  1.00  0.00    -0.0178  C
ATOM     21 C41  WH0 L   1       3.821  -0.183  -2.481  1.00  0.00    +0.0819  C
ATOM     22 O42  WH0 L   1       4.589  -1.125  -3.239  1.00  0.00    -0.3892 OA
ATOM     23 H50  WH0 L   1       5.351   1.316  -2.249  1.00  0.00    +0.0622  H
ATOM     24 H51  WH0 L   1       4.300   1.520   0.378  1.00  0.00    +0.0298  H
ATOM     25 H52  WH0 L   1       4.076   2.653  -0.927  1.00  0.00    +0.0298  H
ATOM     26 H53  WH0 L   1       1.981   1.828   0.268  1.00  0.00    +0.0387  H
ATOM     27 H54  WH0 L   1      -0.108   1.959  -3.022  1.00  0.00    +0.0653  H
ATOM     28 H55  WH0 L   1       0.460  -1.509  -0.805  1.00  0.00    +0.0352  H
ATOM     29 H56  WH0 L   1      -0.305  -1.254   1.267  1.00  0.00    +0.0271  H
ATOM     30 H57  WH0 L   1       0.320   0.369   1.466  1.00  0.00    +0.0271  H
ATOM     31 H58  WH0 L   1      -2.195   0.128   1.567  1.00  0.00    +0.0272  H
ATOM     32 H59  WH0 L   1      -1.493   1.411   0.626  1.00  0.00    +0.0272  H
ATOM     33 H60  WH0 L   1      -4.187   1.053   0.219  1.00  0.00    +0.0236  H
ATOM     34 H61  WH0 L   1      -4.215   0.971  -1.553  1.00  0.00    +0.0236  H
ATOM     35 H62  WH0 L   1      -3.096   2.025  -0.741  1.00  0.00    +0.0236  H
ATOM     36 H63  WH0 L   1      -2.972  -1.808   0.658  1.00  0.00    +0.0310  H
ATOM     37 H81  WH0 L   1      -1.224  -2.653  -0.516  1.00  0.00    +0.0269  H
ATOM     38 H82  WH0 L   1      -2.470  -3.404  -1.460  1.00  0.00    +0.0269  H
ATOM     39 H83  WH0 L   1      -0.712  -1.972  -2.788  1.00  0.00    +0.0296  H
ATOM     40 H84  WH0 L   1      -2.402  -1.750  -3.176  1.00  0.00    +0.0296  H
ATOM     41 H85  WH0 L   1      -2.238   1.532  -2.705  1.00  0.00    +0.2106 HD
ATOM     42 H86  WH0 L   1       2.409  -0.175   1.677  1.00  0.00    +0.0235  H
ATOM     43 H87  WH0 L   1       3.764  -0.845   0.787  1.00  0.00    +0.0235  H
ATOM     44 H88  WH0 L   1       2.303  -1.801   0.981  1.00  0.00    +0.0235  H
ATOM     45 H89  WH0 L   1       2.022  -1.315  -2.420  1.00  0.00    +0.0297  H
ATOM     46 H90  WH0 L   1       3.215  -1.907  -1.326  1.00  0.00    +0.0297  H
ATOM     47 H91  WH0 L   1       3.317   0.450  -3.218  1.00  0.00    +0.0619  H
ATOM     48 H92  WH0 L   1       5.527  -0.864  -3.165  1.00  0.00    +0.2099 HD
ENDROOT
BRANCH 1 49
ATOM     49 O10  WH0 L   1       5.574  -0.167  -0.837  1.00  0.00    -0.3723 OA
BRANCH 49 50
ATOM     50  C9  WH0 L   1       6.806   0.446  -0.446  1.00  0.00    +0.0655  C
ATOM     51 H48  WH0 L   1       7.407   0.623  -1.344  1.00  0.00    +0.0577  H
ATOM     52 H49  WH0 L   1       6.623   1.405   0.048  1.00  0.00    +0.0577  H
BRANCH 50 53
ATOM     53  C8  WH0 L   1       7.538  -0.509   0.498  1.00  0.00    +0.0418  C
ATOM     54 H46  WH0 L   1       7.538  -1.522   0.081  1.00  0.00    +0.0509  H
ATOM     55 H47  WH0 L   1       7.006  -0.560   1.454  1.00  0.00    +0.0509  H
BRANCH 53 58
ATOM     56  C5  WH0 L   1       9.252   0.923   1.549  1.00  0.00    +0.2618  C
ATOM     57  O6  WH0 L   1       8.400   1.646   2.062  1.00  0.00    -0.2669 OA
ATOM     58  N7  WH0 L   1       8.921  -0.144   0.746  1.00  0.00    -0.3492  N
ATOM     59 H45  WH0 L   1       9.633  -0.725   0.319  1.00  0.00    +0.1627 HD
BRANCH 56 61
ATOM     60  C1  WH0 L   1      11.087   2.183   2.563  1.00  0.00    -0.0760  C
ATOM     61  C2  WH0 L   1      10.717   1.163   1.768  1.00  0.00    +0.1085  C
ATOM     62 H43  WH0 L   1      12.133   2.406   2.762  1.00  0.00    +0.0549  H
ATOM     63 H44  WH0 L   1      10.350   2.826   3.042  1.00  0.00    +0.0549  H
BRANCH 61 64
ATOM     64  C3  WH0 L   1      11.694   0.333   1.155  1.00  0.00    +0.1040  C
ATOM     65  N4  WH0 L   1      12.461  -0.365   0.632  1.00  0.00    -0.1907 NA
ENDBRANCH 61 64
ENDBRANCH 56 61
ENDBRANCH 53 58
ENDBRANCH 50 53
ENDBRANCH 49 50
ENDBRANCH 1 49
BRANCH 13 66
ATOM     66 C24  WH0 L   1      -4.547  -1.976  -0.789  1.00  0.00    -0.0144  C
ATOM     67 C25  WH0 L   1      -5.231  -1.299  -1.977  1.00  0.00    -0.0598  C
ATOM     68 H64  WH0 L   1      -4.447  -3.006  -1.164  1.00  0.00    +0.0326  H
ATOM     69 H65  WH0 L   1      -5.750  -0.384  -1.705  1.00  0.00    +0.0233  H
ATOM     70 H66  WH0 L   1      -5.993  -1.964  -2.402  1.00  0.00    +0.0233  H
ATOM     71 H67  WH0 L   1      -4.526  -1.079  -2.782  1.00  0.00    +0.0233  H
BRANCH 66 72
ATOM     72 C26  WH0 L   1      -5.469  -2.202   0.444  1.00  0.00    +0.0582  C
ATOM     73 O27  WH0 L   1      -6.674  -2.842   0.013  1.00  0.00    -0.3915 OA
ATOM     74 H68  WH0 L   1      -4.955  -2.940   1.077  1.00  0.00    +0.0596  H
ATOM     75 H69  WH0 L   1      -7.136  -3.155   0.811  1.00  0.00    +0.2098 HD
BRANCH 72 76
ATOM     76 C28  WH0 L   1      -5.819  -1.017   1.351  1.00  0.00    -0.0240  C
ATOM     77 H70  WH0 L   1      -4.905  -0.499   1.661  1.00  0.00    +0.0291  H
ATOM     78 H71  WH0 L   1      -6.244  -1.451   2.268  1.00  0.00    +0.0291  H
BRANCH 76 79
ATOM     79 C29  WH0 L   1      -6.850  -0.020   0.794  1.00  0.00    -0.0222  C
ATOM     80 H72  WH0 L   1      -7.635  -0.576   0.265  1.00  0.00    +0.0293  H
ATOM     81 H73  WH0 L   1      -6.375   0.637   0.059  1.00  0.00    +0.0293  H
BRANCH 79 82
ATOM     82 C30  WH0 L   1      -7.531   0.849   1.874  1.00  0.00    +0.0606  C
ATOM     83 C31  WH0 L   1      -6.526   1.634   2.719  1.00  0.00    -0.0363  C
ATOM     84 C32  WH0 L   1      -8.525   1.814   1.219  1.00  0.00    -0.0363  C
ATOM     85 O33  WH0 L   1      -8.265  -0.003   2.759  1.00  0.00    -0.3891 OA
ATOM     86 H74  WH0 L   1      -5.891   0.965   3.310  1.00  0.00    +0.0257  H
ATOM     87 H75  WH0 L   1      -7.047   2.267   3.445  1.00  0.00    +0.0257  H
ATOM     88 H76  WH0 L   1      -5.887   2.270   2.096  1.00  0.00    +0.0257  H
ATOM     89 H77  WH0 L   1      -8.018   2.548   0.587  1.00  0.00    +0.0257  H
ATOM     90 H78  WH0 L   1      -9.252   1.273   0.602  1.00  0.00    +0.0257  H
ATOM     91 H79  WH0 L   1      -9.104   2.347   1.977  1.00  0.00    +0.0257  H
ATOM     92 H80  WH0 L   1      -8.945  -0.462   2.233  1.00  0.00    +0.2101 HD
ENDBRANCH 79 82
ENDBRANCH 76 79
ENDBRANCH 72 76
ENDBRANCH 66 72
ENDBRANCH 13 66
TORSDOF 11
