ROOT
ATOM      1 C10  WH0 L   1       1.533  -0.492  -2.046  1.00  0.00    +0.0796  A
ATOM      2 N11  WH0 L   1       1.103   0.204  -3.112  1.00  0.00    -0.1691 NA
ATOM      3 N12  WH0 L   1       0.042   0.913  -2.659  1.00  0.00    -0.2206  N
ATOM      4 C13  WH0 L   1      -0.736   1.838  -3.345  1.00  0.00    +0.0349  A
ATOM      5 C14  WH0 L   1      -1.752   2.460  -2.728  1.00  0.00    -0.0014  A
ATOM      6 C15  WH0 L   1      -2.000   2.097  -1.287  1.00  0.00    +0.1313  A
ATOM      7 N16  WH0 L   1      -1.267   1.213  -0.659  1.00  0.00    -0.2104 NA
ATOM      8 C17  WH0 L   1      -0.234   0.625  -1.332  1.00  0.00    +0.1702  A
ATOM      9 C18  WH0 L   1       0.719  -0.279  -0.902  1.00  0.00    +0.1060  A
ATOM     10 C19  WH0 L   1       0.829  -0.816   0.447  1.00  0.00    +0.2576  C
ATOM     11 O20  WH0 L   1       1.798  -1.461   0.828  1.00  0.00    -0.2674 OA
ATOM     12 N21  WH0 L   1      -0.242  -0.514   1.259  1.00  0.00    -0.3483  N
ATOM     13 C22  WH0 L   1      -0.162  -0.541   2.703  1.00  0.00    +0.0551  C
ATOM     14 C23  WH0 L   1      -1.549  -0.389   3.364  1.00  0.00    +0.1146  C
ATOM     15 C24  WH0 L   1      -2.338  -1.694   3.239  1.00  0.00    -0.0261  C
ATOM     16 O25  WH0 L   1      -2.360   0.623   2.733  1.00  0.00    -0.4870 OA
ATOM     17 C26  WH0 L   1      -2.000   1.941   2.807  1.00  0.00    +0.1263  A
ATOM     18 C27  WH0 L   1      -1.180   2.466   3.813  1.00  0.00    -0.0169  A
ATOM     19 C28  WH0 L   1      -0.857   3.824   3.823  1.00  0.00    -0.0230  A
ATOM     20 C29  WH0 L   1      -1.360   4.657   2.835  1.00  0.00    +0.1240  A
ATOM     21 F30  WH0 L   1      -1.050   5.959   2.846  1.00  0.00    -0.2055  F
ATOM     22 C31  WH0 L   1      -2.190   4.160   1.839  1.00  0.00    -0.0178  A
ATOM     23 C32  WH0 L   1      -2.530   2.793   1.810  1.00  0.00    +0.0188  A
ATOM     24 C33  WH0 L   1      -3.464   2.269   0.723  1.00  0.00    +0.0544  C
ATOM     25 C34  WH0 L   1      -4.895   2.752   0.974  1.00  0.00    -0.0404  C
ATOM     26 N35  WH0 L   1      -3.028   2.708  -0.607  1.00  0.00    -0.3630  N
ATOM     27 H43  WH0 L   1      -0.460   2.018  -4.374  1.00  0.00    +0.0832  H
ATOM     28 H44  WH0 L   1      -2.380   3.195  -3.210  1.00  0.00    +0.0669  H
ATOM     29 H45  WH0 L   1      -0.899   0.165   0.870  1.00  0.00    +0.1628 HD
ATOM     30 H46  WH0 L   1       0.487   0.296   2.985  1.00  0.00    +0.0522  H
ATOM     31 H47  WH0 L   1       0.339  -1.459   3.027  1.00  0.00    +0.0522  H
ATOM     32 H48  WH0 L   1      -1.443  -0.184   4.435  1.00  0.00    +0.0748  H
ATOM     33 H49  WH0 L   1      -2.534  -1.941   2.190  1.00  0.00    +0.0266  H
ATOM     34 H50  WH0 L   1      -3.315  -1.593   3.724  1.00  0.00    +0.0266  H
ATOM     35 H51  WH0 L   1      -1.805  -2.528   3.705  1.00  0.00    +0.0266  H
ATOM     36 H52  WH0 L   1      -0.782   1.848   4.610  1.00  0.00    +0.0655  H
ATOM     37 H53  WH0 L   1      -0.217   4.236   4.597  1.00  0.00    +0.0647  H
ATOM     38 H54  WH0 L   1      -2.565   4.844   1.084  1.00  0.00    +0.0651  H
ATOM     39 H55  WH0 L   1      -3.495   1.174   0.727  1.00  0.00    +0.0571  H
ATOM     40 H56  WH0 L   1      -5.251   2.433   1.960  1.00  0.00    +0.0253  H
ATOM     41 H57  WH0 L   1      -5.577   2.343   0.220  1.00  0.00    +0.0253  H
ATOM     42 H58  WH0 L   1      -4.974   3.844   0.925  1.00  0.00    +0.0253  H
ATOM     43 H59  WH0 L   1      -3.710   3.229  -1.144  1.00  0.00    +0.1616 HD
ENDROOT
BRANCH 1 44
ATOM     44  C9  WH0 L   1       2.738  -1.366  -2.187  1.00  0.00    +0.0096  C
ATOM     45 H41  WH0 L   1       3.330  -1.362  -1.265  1.00  0.00    +0.0346  H
ATOM     46 H42  WH0 L   1       3.396  -0.941  -2.958  1.00  0.00    +0.0346  H
BRANCH 44 47
ATOM     47  C8  WH0 L   1       2.364  -2.798  -2.572  1.00  0.00    +0.0239  C
ATOM     48 H39  WH0 L   1       1.937  -3.325  -1.710  1.00  0.00    +0.0490  H
ATOM     49 H40  WH0 L   1       1.614  -2.805  -3.371  1.00  0.00    +0.0490  H
BRANCH 47 52
ATOM     50  C5  WH0 L   1       4.414  -4.145  -2.232  1.00  0.00    +0.2618  C
ATOM     51  O6  WH0 L   1       4.325  -4.114  -1.012  1.00  0.00    -0.2669 OA
ATOM     52  N7  WH0 L   1       3.500  -3.556  -3.077  1.00  0.00    -0.3511  N
ATOM     53 H38  WH0 L   1       3.710  -3.472  -4.063  1.00  0.00    +0.1627 HD
BRANCH 50 55
ATOM     54  C1  WH0 L   1       5.414  -5.479  -4.058  1.00  0.00    -0.0760  C
ATOM     55  C2  WH0 L   1       5.571  -4.803  -2.906  1.00  0.00    +0.1085  C
ATOM     56 H36  WH0 L   1       6.253  -5.984  -4.530  1.00  0.00    +0.0549  H
ATOM     57 H37  WH0 L   1       4.450  -5.582  -4.545  1.00  0.00    +0.0549  H
BRANCH 55 58
ATOM     58  C3  WH0 L   1       6.835  -4.761  -2.251  1.00  0.00    +0.1040  C
ATOM     59  N4  WH0 L   1       7.896  -4.744  -1.781  1.00  0.00    -0.1907 NA
ENDBRANCH 55 58
ENDBRANCH 50 55
ENDBRANCH 47 52
ENDBRANCH 44 47
ENDBRANCH 1 44
TORSDOF 5
