ROOT
ATOM      1 N13  CHE L   1       0.924  -1.829   0.318  1.00  0.00    -0.3335  N
ATOM      2 C14  CHE L   1       0.557  -2.166   1.682  1.00  0.00    +0.0259  C
ATOM      3 C15  CHE L   1      -0.795  -2.867   1.713  1.00  0.00    -0.0078  C
ATOM      4 C16  CHE L   1      -1.829  -1.995   1.044  1.00  0.00    -0.0136  A
ATOM      5 C17  CHE L   1      -3.171  -1.999   1.444  1.00  0.00    +0.0456  A
ATOM      6 CL18 CHE L   1      -3.751  -3.026   2.705  1.00  0.00    -0.0832 Cl
ATOM      7 C19  CHE L   1      -4.098  -1.166   0.821  1.00  0.00    -0.0338  A
ATOM      8 C20  CHE L   1      -3.703  -0.300  -0.208  1.00  0.00    +0.0077  A
ATOM      9 C28  CHE L   1      -2.362  -0.295  -0.642  1.00  0.00    +0.0615  A
ATOM     10 CL29 CHE L   1      -1.879   0.879  -1.832  1.00  0.00    -0.0821 Cl
ATOM     11 C30  CHE L   1      -1.434  -1.176  -0.044  1.00  0.00    +0.0626  A
ATOM     12 C31  CHE L   1      -0.032  -1.321  -0.561  1.00  0.00    +0.2566  C
ATOM     13 O32  CHE L   1       0.228  -1.055  -1.726  1.00  0.00    -0.2673 OA
ATOM     14 H45  CHE L   1       0.524  -1.237   2.262  1.00  0.00    +0.0492  H
ATOM     15 H46  CHE L   1       1.311  -2.832   2.114  1.00  0.00    +0.0492  H
ATOM     16 H47  CHE L   1      -0.748  -3.827   1.186  1.00  0.00    +0.0331  H
ATOM     17 H48  CHE L   1      -1.042  -3.062   2.761  1.00  0.00    +0.0331  H
ATOM     18 H49  CHE L   1      -5.140  -1.188   1.142  1.00  0.00    +0.0639  H
ENDROOT
BRANCH 1 19
ATOM     19 C12  CHE L   1       2.337  -1.887  -0.086  1.00  0.00    +0.0528  C
ATOM     20 H43  CHE L   1       2.373  -2.292  -1.103  1.00  0.00    +0.0540  H
ATOM     21 H44  CHE L   1       2.856  -2.628   0.532  1.00  0.00    +0.0540  H
BRANCH 19 30
ATOM     22  C3  CHE L   1       3.478   0.073   1.111  1.00  0.00    +0.0193  A
ATOM     23  C4  CHE L   1       3.986   1.426   1.052  1.00  0.00    -0.0286  A
ATOM     24  C5  CHE L   1       4.030   2.113  -0.099  1.00  0.00    +0.0197  A
ATOM     25  C6  CHE L   1       4.522   3.535  -0.131  1.00  0.00    -0.0241  C
ATOM     26  N7  CHE L   1       3.639   1.488  -1.279  1.00  0.00    -0.3154  N
ATOM     27  C8  CHE L   1       3.762   2.177  -2.559  1.00  0.00    +0.0149  C
ATOM     28  C9  CHE L   1       3.256   0.143  -1.314  1.00  0.00    +0.2572  A
ATOM     29 O10  CHE L   1       3.178  -0.497  -2.362  1.00  0.00    -0.2673 OA
ATOM     30 C11  CHE L   1       2.999  -0.535   0.007  1.00  0.00    +0.0497  A
ATOM     31 H36  CHE L   1       4.296   1.899   1.980  1.00  0.00    +0.0646  H
ATOM     32 H37  CHE L   1       5.382   3.635  -0.800  1.00  0.00    +0.0292  H
ATOM     33 H38  CHE L   1       3.729   4.211  -0.465  1.00  0.00    +0.0292  H
ATOM     34 H39  CHE L   1       4.843   3.878   0.859  1.00  0.00    +0.0292  H
ATOM     35 H40  CHE L   1       4.823   2.275  -2.808  1.00  0.00    +0.0457  H
ATOM     36 H41  CHE L   1       3.297   3.164  -2.499  1.00  0.00    +0.0457  H
ATOM     37 H42  CHE L   1       3.265   1.629  -3.364  1.00  0.00    +0.0457  H
BRANCH 22 39
ATOM     38  C1  CHE L   1       5.144  -1.405   2.659  1.00  0.00    -0.0134  C
ATOM     39  S2  CHE L   1       3.489  -0.668   2.690  1.00  0.00    -0.1280 SA
ATOM     40 H33  CHE L   1       5.908  -0.634   2.524  1.00  0.00    +0.0344  H
ATOM     41 H34  CHE L   1       5.329  -1.913   3.609  1.00  0.00    +0.0344  H
ATOM     42 H35  CHE L   1       5.222  -2.138   1.852  1.00  0.00    +0.0344  H
ENDBRANCH 22 39
ENDBRANCH 19 30
ENDBRANCH 1 19
BRANCH 8 43
ATOM     43 C21  CHE L   1      -4.722   0.548  -0.796  1.00  0.00    +0.0480  A
ATOM     44 C22  CHE L   1      -5.351   0.508  -2.069  1.00  0.00    +0.0885  A
ATOM     45 C23  CHE L   1      -5.118  -0.426  -3.194  1.00  0.00    -0.0185  C
ATOM     46 N24  CHE L   1      -6.266   1.479  -2.186  1.00  0.00    -0.0827 NA
ATOM     47 O25  CHE L   1      -6.238   2.172  -0.991  1.00  0.00    -0.3591 OA
ATOM     48 C26  CHE L   1      -5.313   1.618  -0.162  1.00  0.00    +0.1422  A
ATOM     49 C27  CHE L   1      -5.161   2.257   1.159  1.00  0.00    -0.0031  C
ATOM     50 H50  CHE L   1      -6.046  -0.620  -3.743  1.00  0.00    +0.0294  H
ATOM     51 H51  CHE L   1      -4.737  -1.389  -2.838  1.00  0.00    +0.0294  H
ATOM     52 H52  CHE L   1      -4.389  -0.005  -3.892  1.00  0.00    +0.0294  H
ATOM     53 H53  CHE L   1      -5.669   1.666   1.928  1.00  0.00    +0.0309  H
ATOM     54 H54  CHE L   1      -5.588   3.264   1.165  1.00  0.00    +0.0309  H
ATOM     55 H55  CHE L   1      -4.104   2.340   1.431  1.00  0.00    +0.0309  H
ENDBRANCH 8 43
TORSDOF 4
