ROOT
ATOM      1 N12  CHE L   1      -1.003  -0.313  -1.178  1.00  0.00    -0.3334  N
ATOM      2 C13  CHE L   1      -1.071  -1.663  -0.641  1.00  0.00    +0.0259  C
ATOM      3 C14  CHE L   1       0.187  -2.450  -0.988  1.00  0.00    -0.0078  C
ATOM      4 C15  CHE L   1       1.399  -1.692  -0.511  1.00  0.00    -0.0137  A
ATOM      5 C16  CHE L   1       2.549  -2.338  -0.050  1.00  0.00    +0.0453  A
ATOM      6 CL17 CHE L   1       2.700  -4.061  -0.048  1.00  0.00    -0.0832 Cl
ATOM      7 C18  CHE L   1       3.631  -1.596   0.429  1.00  0.00    -0.0360  A
ATOM      8 C19  CHE L   1       3.607  -0.184   0.472  1.00  0.00    +0.0017  A
ATOM      9 C26  CHE L   1       2.462   0.474  -0.034  1.00  0.00    +0.0592  A
ATOM     10 CL27 CHE L   1       2.371   2.211   0.078  1.00  0.00    -0.0824 Cl
ATOM     11 C28  CHE L   1       1.381  -0.277  -0.559  1.00  0.00    +0.0624  A
ATOM     12 C29  CHE L   1       0.203   0.380  -1.218  1.00  0.00    +0.2566  C
ATOM     13 O30  CHE L   1       0.337   1.436  -1.822  1.00  0.00    -0.2673 OA
ATOM     14 H41  CHE L   1      -1.937  -2.178  -1.067  1.00  0.00    +0.0492  H
ATOM     15 H42  CHE L   1      -1.203  -1.587   0.444  1.00  0.00    +0.0492  H
ATOM     16 H43  CHE L   1       0.106  -3.432  -0.515  1.00  0.00    +0.0331  H
ATOM     17 H44  CHE L   1       0.266  -2.597  -2.071  1.00  0.00    +0.0331  H
ATOM     18 H45  CHE L   1       4.506  -2.131   0.799  1.00  0.00    +0.0636  H
ENDROOT
BRANCH 1 19
ATOM     19 C11  CHE L   1      -2.240   0.360  -1.579  1.00  0.00    +0.0552  C
ATOM     20 H39  CHE L   1      -2.682  -0.241  -2.382  1.00  0.00    +0.0541  H
ATOM     21 H40  CHE L   1      -2.029   1.341  -2.018  1.00  0.00    +0.0541  H
BRANCH 19 29
ATOM     22  C3  CHE L   1      -4.252  -0.277  -0.188  1.00  0.00    +0.1317  A
ATOM     23  C4  CHE L   1      -5.070  -0.120   0.995  1.00  0.00    -0.0005  A
ATOM     24  C5  CHE L   1      -4.842   0.890   1.846  1.00  0.00    +0.0195  A
ATOM     25  C6  CHE L   1      -5.641   1.134   3.087  1.00  0.00    -0.0242  C
ATOM     26  N7  CHE L   1      -3.806   1.754   1.584  1.00  0.00    -0.3260  N
ATOM     27  C8  CHE L   1      -2.942   1.645   0.519  1.00  0.00    +0.2573  A
ATOM     28  O9  CHE L   1      -2.036   2.457   0.364  1.00  0.00    -0.2674 OA
ATOM     29 C10  CHE L   1      -3.177   0.505  -0.417  1.00  0.00    +0.0776  A
ATOM     30 H34  CHE L   1      -5.860  -0.842   1.175  1.00  0.00    +0.0671  H
ATOM     31 H35  CHE L   1      -6.181   2.085   3.009  1.00  0.00    +0.0292  H
ATOM     32 H36  CHE L   1      -6.378   0.340   3.261  1.00  0.00    +0.0292  H
ATOM     33 H37  CHE L   1      -4.985   1.179   3.966  1.00  0.00    +0.0292  H
ATOM     34 H38  CHE L   1      -3.617   2.531   2.205  1.00  0.00    +0.1686 HD
BRANCH 22 36
ATOM     35  C1  CHE L   1      -5.664  -1.053  -1.856  1.00  0.00    +0.0788  C
ATOM     36  O2  CHE L   1      -4.568  -1.356  -0.986  1.00  0.00    -0.4945 OA
ATOM     37 H31  CHE L   1      -5.404  -0.236  -2.535  1.00  0.00    +0.0660  H
ATOM     38 H32  CHE L   1      -6.568  -0.805  -1.290  1.00  0.00    +0.0660  H
ATOM     39 H33  CHE L   1      -5.874  -1.944  -2.454  1.00  0.00    +0.0660  H
ENDBRANCH 22 36
ENDBRANCH 19 29
ENDBRANCH 1 19
BRANCH 8 40
ATOM     40 C20  CHE L   1       4.820   0.502   1.087  1.00  0.00    +0.0886  C
ATOM     41 O21  CHE L   1       4.464   1.523   2.021  1.00  0.00    -0.3867 OA
ATOM     42 H46  CHE L   1       5.346  -0.233   1.711  1.00  0.00    +0.0648  H
ATOM     43 H47  CHE L   1       3.790   2.093   1.611  1.00  0.00    +0.2102 HD
BRANCH 40 44
ATOM     44 C22  CHE L   1       5.830   1.055   0.087  1.00  0.00    +0.0360  C
ATOM     45 C23  CHE L   1       5.487   1.724  -1.258  1.00  0.00    +0.0553  C
ATOM     46 O24  CHE L   1       6.583   1.013  -1.901  1.00  0.00    -0.3789 OA
ATOM     47 C25  CHE L   1       6.593   0.061  -0.804  1.00  0.00    +0.0553  C
ATOM     48 H48  CHE L   1       6.551   1.678   0.645  1.00  0.00    +0.0374  H
ATOM     49 H49  CHE L   1       5.631   2.808  -1.286  1.00  0.00    +0.0564  H
ATOM     50 H50  CHE L   1       4.542   1.463  -1.743  1.00  0.00    +0.0564  H
ATOM     51 H51  CHE L   1       6.076  -0.861  -1.090  1.00  0.00    +0.0564  H
ATOM     52 H52  CHE L   1       7.609  -0.175  -0.474  1.00  0.00    +0.0564  H
ENDBRANCH 40 44
ENDBRANCH 8 40
TORSDOF 5
