ROOT
ATOM      1 N12  WH0 L   1      -1.904   1.652  -0.864  1.00  0.00    -0.2840  N
ATOM      2 C13  WH0 L   1      -2.355   2.559  -1.838  1.00  0.00    +0.2395  C
ATOM      3 O14  WH0 L   1      -1.697   3.449  -2.372  1.00  0.00    -0.2717 OA
ATOM      4 C15  WH0 L   1      -3.817   2.374  -2.184  1.00  0.00    +0.0758  C
ATOM      5 S16  WH0 L   1      -4.305   0.784  -1.520  1.00  0.00    -0.1088 SA
ATOM      6 C17  WH0 L   1      -2.952   0.821  -0.286  1.00  0.00    +0.2010  C
ATOM      7 C18  WH0 L   1      -3.565   1.399   1.042  1.00  0.00    +0.2665  C
ATOM      8 O19  WH0 L   1      -3.936   2.542   1.263  1.00  0.00    -0.2689 OA
ATOM      9 N20  WH0 L   1      -3.620   0.346   1.958  1.00  0.00    -0.3228  N
ATOM     10 C21  WH0 L   1      -3.048  -0.808   1.436  1.00  0.00    +0.0486  A
ATOM     11 C22  WH0 L   1      -2.878  -2.013   2.083  1.00  0.00    -0.0379  A
ATOM     12 C23  WH0 L   1      -2.230  -3.033   1.381  1.00  0.00    -0.0598  A
ATOM     13 C24  WH0 L   1      -1.774  -2.826   0.067  1.00  0.00    -0.0613  A
ATOM     14 C25  WH0 L   1      -1.961  -1.598  -0.574  1.00  0.00    -0.0531  A
ATOM     15 C26  WH0 L   1      -2.603  -0.589   0.127  1.00  0.00    +0.0211  A
ATOM     16 H38  WH0 L   1      -3.945   2.381  -3.269  1.00  0.00    +0.0474  H
ATOM     17 H39  WH0 L   1      -4.402   3.178  -1.731  1.00  0.00    +0.0474  H
ATOM     18 H40  WH0 L   1      -3.985   0.452   2.893  1.00  0.00    +0.1687 HD
ATOM     19 H41  WH0 L   1      -3.222  -2.172   3.099  1.00  0.00    +0.0638  H
ATOM     20 H42  WH0 L   1      -2.073  -3.999   1.856  1.00  0.00    +0.0618  H
ATOM     21 H43  WH0 L   1      -1.268  -3.635  -0.459  1.00  0.00    +0.0618  H
ATOM     22 H44  WH0 L   1      -1.606  -1.445  -1.589  1.00  0.00    +0.0622  H
ENDROOT
BRANCH 1 26
ATOM     23  C8  WH0 L   1       2.178   1.495   0.400  1.00  0.00    -0.0456  A
ATOM     24  C9  WH0 L   1       1.148   1.204   1.297  1.00  0.00    -0.0566  A
ATOM     25 C10  WH0 L   1      -0.192   1.273   0.894  1.00  0.00    -0.0378  A
ATOM     26 C11  WH0 L   1      -0.546   1.639  -0.411  1.00  0.00    +0.0468  A
ATOM     27 C27  WH0 L   1       0.498   1.963  -1.290  1.00  0.00    -0.0378  A
ATOM     28 C28  WH0 L   1       1.839   1.891  -0.895  1.00  0.00    -0.0566  A
ATOM     29 H36  WH0 L   1       1.374   0.917   2.322  1.00  0.00    +0.0621  H
ATOM     30 H37  WH0 L   1      -0.934   1.062   1.655  1.00  0.00    +0.0638  H
ATOM     31 H45  WH0 L   1       0.298   2.244  -2.321  1.00  0.00    +0.0638  H
ATOM     32 H46  WH0 L   1       2.612   2.136  -1.621  1.00  0.00    +0.0621  H
BRANCH 23 33
ATOM     33  C7  WH0 L   1       3.627   1.358   0.807  1.00  0.00    -0.0102  C
ATOM     34 H34  WH0 L   1       3.807   1.992   1.684  1.00  0.00    +0.0330  H
ATOM     35 H35  WH0 L   1       4.273   1.743   0.009  1.00  0.00    +0.0330  H
BRANCH 33 36
ATOM     36  C6  WH0 L   1       4.028  -0.086   1.125  1.00  0.00    +0.0221  C
ATOM     37 H32  WH0 L   1       5.087  -0.122   1.403  1.00  0.00    +0.0489  H
ATOM     38 H33  WH0 L   1       3.455  -0.480   1.973  1.00  0.00    +0.0489  H
BRANCH 36 41
ATOM     39  O1  WH0 L   1       5.111  -2.662   0.884  1.00  0.00    -0.2720 OA
ATOM     40  C2  WH0 L   1       4.308  -2.276   0.038  1.00  0.00    +0.2356  C
ATOM     41  N5  WH0 L   1       3.814  -0.987   0.005  1.00  0.00    -0.3547  N
ATOM     42 H31  WH0 L   1       2.948  -0.871  -0.515  1.00  0.00    +0.1623 HD
BRANCH 40 43
ATOM     43  C3  WH0 L   1       3.857  -3.166  -1.105  1.00  0.00    +0.1010  C
ATOM     44 CL4  WH0 L   1       2.113  -2.968  -1.410  1.00  0.00    -0.1154 Cl
ATOM     45 H29  WH0 L   1       4.408  -2.907  -2.013  1.00  0.00    +0.0527  H
ATOM     46 H30  WH0 L   1       4.034  -4.214  -0.847  1.00  0.00    +0.0527  H
ENDBRANCH 40 43
ENDBRANCH 36 41
ENDBRANCH 33 36
ENDBRANCH 23 33
ENDBRANCH 1 26
TORSDOF 5
