ROOT
ATOM      1 N19  EUB L   1      -2.437   0.093   1.058  1.00  0.00    -0.3267  N
ATOM      2 C20  EUB L   1      -2.284   0.398  -0.269  1.00  0.00    +0.3195  C
ATOM      3 O21  EUB L   1      -1.414  -0.127  -0.963  1.00  0.00    -0.2473 OA
ATOM      4 N22  EUB L   1      -3.147   1.353  -0.749  1.00  0.00    -0.3202  N
ATOM      5 C23  EUB L   1      -2.938   1.859  -2.106  1.00  0.00    +0.0463  C
ATOM      6 C24  EUB L   1      -3.698   3.167  -2.331  1.00  0.00    +0.0654  C
ATOM      7 O25  EUB L   1      -5.115   3.020  -2.148  1.00  0.00    -0.3763 OA
ATOM      8 C26  EUB L   1      -5.477   2.089  -1.114  1.00  0.00    +0.0654  C
ATOM      9 C27  EUB L   1      -4.368   1.818  -0.087  1.00  0.00    +0.0463  C
ATOM     10 H54  EUB L   1      -2.666   0.905   1.619  1.00  0.00    +0.1649 HD
ATOM     11 H55  EUB L   1      -3.312   1.084  -2.787  1.00  0.00    +0.0512  H
ATOM     12 H56  EUB L   1      -1.866   1.992  -2.285  1.00  0.00    +0.0512  H
ATOM     13 H57  EUB L   1      -3.362   3.941  -1.633  1.00  0.00    +0.0577  H
ATOM     14 H58  EUB L   1      -3.528   3.539  -3.348  1.00  0.00    +0.0577  H
ATOM     15 H59  EUB L   1      -6.365   2.483  -0.612  1.00  0.00    +0.0577  H
ATOM     16 H60  EUB L   1      -5.768   1.155  -1.608  1.00  0.00    +0.0577  H
ATOM     17 H61  EUB L   1      -4.714   1.088   0.652  1.00  0.00    +0.0512  H
ATOM     18 H62  EUB L   1      -4.108   2.744   0.437  1.00  0.00    +0.0512  H
ENDROOT
BRANCH 1 19
ATOM     19 C13  EUB L   1      -1.565  -0.863   1.746  1.00  0.00    +0.1101  C
ATOM     20 H42  EUB L   1      -1.934  -0.894   2.775  1.00  0.00    +0.0622  H
BRANCH 19 22
ATOM     21 N10  EUB L   1       0.652  -0.434   0.741  1.00  0.00    -0.3363  N
ATOM     22 C11  EUB L   1      -0.152  -0.235   1.851  1.00  0.00    +0.2446  C
ATOM     23 O12  EUB L   1       0.161   0.486   2.797  1.00  0.00    -0.2709 OA
ATOM     24 H41  EUB L   1       0.080  -0.514  -0.105  1.00  0.00    +0.1639 HD
BRANCH 21 28
ATOM     25  N4  EUB L   1       4.575   1.004   0.134  1.00  0.00    -0.3021 NA
ATOM     26  C5  EUB L   1       4.328   0.267   1.371  1.00  0.00    +0.0020  C
ATOM     27  C6  EUB L   1       2.840   0.294   1.737  1.00  0.00    -0.0035  C
ATOM     28  C7  EUB L   1       1.898   0.338   0.513  1.00  0.00    +0.1299  C
ATOM     29 C28  EUB L   1       2.611  -0.318  -0.687  1.00  0.00    -0.0035  C
ATOM     30 C29  EUB L   1       3.948   0.352  -1.019  1.00  0.00    +0.0020  C
ATOM     31 H37  EUB L   1       4.675  -0.773   1.278  1.00  0.00    +0.0428  H
ATOM     32 H38  EUB L   1       4.885   0.704   2.211  1.00  0.00    +0.0428  H
ATOM     33 H39  EUB L   1       2.648  -0.608   2.333  1.00  0.00    +0.0310  H
ATOM     34 H40  EUB L   1       2.647   1.147   2.399  1.00  0.00    +0.0310  H
ATOM     35 H63  EUB L   1       2.791  -1.380  -0.456  1.00  0.00    +0.0310  H
ATOM     36 H64  EUB L   1       1.969  -0.306  -1.579  1.00  0.00    +0.0310  H
ATOM     37 H65  EUB L   1       4.608  -0.417  -1.446  1.00  0.00    +0.0428  H
ATOM     38 H66  EUB L   1       3.774   1.106  -1.799  1.00  0.00    +0.0428  H
BRANCH 25 39
ATOM     39  C3  EUB L   1       6.004   1.285  -0.057  1.00  0.00    -0.0014  C
ATOM     40 H35  EUB L   1       6.370   1.769   0.856  1.00  0.00    +0.0426  H
ATOM     41 H36  EUB L   1       6.576   0.353  -0.169  1.00  0.00    +0.0426  H
BRANCH 39 43
ATOM     42  C1  EUB L   1       6.645   1.562  -2.525  1.00  0.00    -0.0641  C
ATOM     43  C2  EUB L   1       6.317   2.252  -1.209  1.00  0.00    -0.0431  C
ATOM     44 H30  EUB L   1       7.013   2.299  -3.246  1.00  0.00    +0.0230  H
ATOM     45 H31  EUB L   1       7.430   0.815  -2.390  1.00  0.00    +0.0230  H
ATOM     46 H32  EUB L   1       5.769   1.084  -2.972  1.00  0.00    +0.0230  H
ATOM     47 H33  EUB L   1       7.192   2.849  -0.927  1.00  0.00    +0.0275  H
ATOM     48 H34  EUB L   1       5.495   2.962  -1.355  1.00  0.00    +0.0275  H
ENDBRANCH 39 43
ENDBRANCH 25 39
BRANCH 28 49
ATOM     49  C8  EUB L   1       1.543   1.745   0.158  1.00  0.00    +0.0907  C
ATOM     50  N9  EUB L   1       1.222   2.806  -0.199  1.00  0.00    -0.1941 NA
ENDBRANCH 28 49
ENDBRANCH 21 28
ENDBRANCH 19 22
BRANCH 19 51
ATOM     51 C14  EUB L   1      -1.558  -2.302   1.189  1.00  0.00    -0.0189  C
ATOM     52 H43  EUB L   1      -0.713  -2.831   1.654  1.00  0.00    +0.0295  H
ATOM     53 H44  EUB L   1      -1.331  -2.295   0.116  1.00  0.00    +0.0295  H
BRANCH 51 54
ATOM     54 C15  EUB L   1      -2.833  -3.168   1.407  1.00  0.00    -0.0354  C
ATOM     55 C16  EUB L   1      -3.152  -3.328   2.902  1.00  0.00    -0.0600  C
ATOM     56 C17  EUB L   1      -4.058  -2.592   0.680  1.00  0.00    -0.0600  C
ATOM     57 C18  EUB L   1      -2.546  -4.567   0.825  1.00  0.00    -0.0600  C
ATOM     58 H45  EUB L   1      -3.467  -2.380   3.351  1.00  0.00    +0.0235  H
ATOM     59 H46  EUB L   1      -2.273  -3.690   3.452  1.00  0.00    +0.0235  H
ATOM     60 H47  EUB L   1      -3.960  -4.050   3.060  1.00  0.00    +0.0235  H
ATOM     61 H48  EUB L   1      -3.849  -2.434  -0.384  1.00  0.00    +0.0235  H
ATOM     62 H49  EUB L   1      -4.380  -1.640   1.109  1.00  0.00    +0.0235  H
ATOM     63 H50  EUB L   1      -4.913  -3.277   0.748  1.00  0.00    +0.0235  H
ATOM     64 H51  EUB L   1      -1.714  -5.044   1.351  1.00  0.00    +0.0235  H
ATOM     65 H52  EUB L   1      -2.280  -4.514  -0.235  1.00  0.00    +0.0235  H
ATOM     66 H53  EUB L   1      -3.417  -5.226   0.922  1.00  0.00    +0.0235  H
ENDBRANCH 51 54
ENDBRANCH 19 51
ENDBRANCH 1 19
TORSDOF 8
