ROOT
ATOM      1  N4  CHE L   1      -1.329   0.191  -0.776  1.00  0.00    -0.3046  N
ATOM      2  C5  CHE L   1      -0.159   0.330  -1.510  1.00  0.00    +0.2319  C
ATOM      3  O6  CHE L   1      -0.096   0.942  -2.577  1.00  0.00    -0.2725 OA
ATOM      4  C7  CHE L   1       1.107  -0.237  -0.925  1.00  0.00    +0.0653  C
ATOM      5 C16  CHE L   1       0.723  -1.495  -0.188  1.00  0.00    +0.0626  C
ATOM      6 O17  CHE L   1      -0.157  -1.150   0.866  1.00  0.00    -0.3461 OA
ATOM      7 C18  CHE L   1      -1.409  -0.618   0.444  1.00  0.00    +0.1844  C
ATOM      8 C19  CHE L   1      -2.344  -1.780   0.234  1.00  0.00    -0.0242  C
ATOM      9 C20  CHE L   1      -3.444  -2.006   0.968  1.00  0.00    -0.0141  C
ATOM     10 C21  CHE L   1      -3.821  -1.090   2.070  1.00  0.00    +0.1787  C
ATOM     11 O22  CHE L   1      -4.832  -1.277   2.733  1.00  0.00    -0.2879 OA
ATOM     12 C23  CHE L   1      -2.932   0.065   2.332  1.00  0.00    -0.0141  C
ATOM     13 C24  CHE L   1      -1.838   0.270   1.582  1.00  0.00    -0.0242  C
ATOM     14 H32  CHE L   1       1.766  -0.514  -1.758  1.00  0.00    +0.0422  H
ATOM     15 H39  CHE L   1       0.253  -2.231  -0.851  1.00  0.00    +0.0568  H
ATOM     16 H40  CHE L   1       1.600  -1.981   0.249  1.00  0.00    +0.0568  H
ATOM     17 H41  CHE L   1      -2.100  -2.476  -0.562  1.00  0.00    +0.0624  H
ATOM     18 H42  CHE L   1      -4.099  -2.852   0.798  1.00  0.00    +0.0654  H
ATOM     19 H43  CHE L   1      -3.212   0.717   3.150  1.00  0.00    +0.0654  H
ATOM     20 H44  CHE L   1      -1.199   1.118   1.807  1.00  0.00    +0.0624  H
ENDROOT
BRANCH 1 22
ATOM     21  C1  CHE L   1      -3.025   0.232  -2.632  1.00  0.00    -0.0447  C
ATOM     22  C2  CHE L   1      -2.577   0.816  -1.289  1.00  0.00    +0.0301  C
ATOM     23  C3  CHE L   1      -2.481   2.344  -1.347  1.00  0.00    -0.0447  C
ATOM     24 H25  CHE L   1      -3.078  -0.861  -2.586  1.00  0.00    +0.0249  H
ATOM     25 H26  CHE L   1      -2.349   0.498  -3.450  1.00  0.00    +0.0249  H
ATOM     26 H27  CHE L   1      -4.020   0.606  -2.897  1.00  0.00    +0.0249  H
ATOM     27 H28  CHE L   1      -3.382   0.595  -0.580  1.00  0.00    +0.0520  H
ATOM     28 H29  CHE L   1      -3.459   2.778  -1.583  1.00  0.00    +0.0249  H
ATOM     29 H30  CHE L   1      -2.157   2.750  -0.383  1.00  0.00    +0.0249  H
ATOM     30 H31  CHE L   1      -1.777   2.690  -2.108  1.00  0.00    +0.0249  H
ENDBRANCH 1 22
BRANCH 4 31
ATOM     31  C8  CHE L   1       1.769   0.843  -0.058  1.00  0.00    -0.0142  C
ATOM     32 H33  CHE L   1       1.135   1.117   0.794  1.00  0.00    +0.0321  H
ATOM     33 H34  CHE L   1       1.872   1.772  -0.636  1.00  0.00    +0.0321  H
BRANCH 31 34
ATOM     34  C9  CHE L   1       3.140   0.445   0.436  1.00  0.00    -0.0464  A
ATOM     35 C10  CHE L   1       4.252   0.529  -0.417  1.00  0.00    -0.0558  A
ATOM     36 C11  CHE L   1       5.515   0.148   0.035  1.00  0.00    -0.0262  A
ATOM     37 C12  CHE L   1       5.667  -0.318   1.336  1.00  0.00    +0.1234  A
ATOM     38 F13  CHE L   1       6.881  -0.686   1.768  1.00  0.00    -0.2055  F
ATOM     39 C14  CHE L   1       4.578  -0.411   2.194  1.00  0.00    -0.0262  A
ATOM     40 C15  CHE L   1       3.313  -0.030   1.745  1.00  0.00    -0.0558  A
ATOM     41 H35  CHE L   1       4.139   0.895  -1.435  1.00  0.00    +0.0621  H
ATOM     42 H36  CHE L   1       6.381   0.212  -0.617  1.00  0.00    +0.0646  H
ATOM     43 H37  CHE L   1       4.721  -0.779   3.205  1.00  0.00    +0.0646  H
ATOM     44 H38  CHE L   1       2.463  -0.110   2.420  1.00  0.00    +0.0621  H
ENDBRANCH 31 34
ENDBRANCH 4 31
TORSDOF 3
