ROOT
ATOM      1 C32  WH0 L   1      -0.337  -1.629   0.342  1.00  0.00    -0.0133  A
ATOM      2 C33  WH0 L   1       0.140  -1.978   1.628  1.00  0.00    -0.0519  A
ATOM      3 C34  WH0 L   1       0.861  -3.165   1.825  1.00  0.00    -0.0374  A
ATOM      4 C35  WH0 L   1       1.100  -3.982   0.723  1.00  0.00    +0.0454  A
ATOM      5 C36  WH0 L   1       0.648  -3.649  -0.536  1.00  0.00    -0.0145  A
ATOM      6 C37  WH0 L   1      -0.081  -2.479  -0.753  1.00  0.00    -0.0483  A
ATOM      7 C38  WH0 L   1       1.111  -4.650  -1.544  1.00  0.00    +0.0535  C
ATOM      8 C39  WH0 L   1       1.880  -5.577  -0.649  1.00  0.00    +0.2296  C
ATOM      9 O40  WH0 L   1       2.509  -6.589  -1.055  1.00  0.00    -0.2725 OA
ATOM     10 N41  WH0 L   1       1.857  -5.178   0.717  1.00  0.00    -0.3256  N
ATOM     11 H62  WH0 L   1      -0.052  -1.332   2.476  1.00  0.00    +0.0624  H
ATOM     12 H63  WH0 L   1       1.238  -3.431   2.804  1.00  0.00    +0.0638  H
ATOM     13 H64  WH0 L   1      -0.404  -2.216  -1.753  1.00  0.00    +0.0627  H
ATOM     14 H65  WH0 L   1       1.781  -4.178  -2.295  1.00  0.00    +0.0410  H
ATOM     15 H66  WH0 L   1       0.251  -5.171  -2.018  1.00  0.00    +0.0410  H
ATOM     16 H67  WH0 L   1       2.403  -5.584   1.505  1.00  0.00    +0.1686 HD
ENDROOT
BRANCH 1 25
ATOM     17 C17  WH0 L   1      -0.696   0.910   0.598  1.00  0.00    +0.1018  A
ATOM     18 N18  WH0 L   1      -1.641   1.815   0.262  1.00  0.00    -0.1627 NA
ATOM     19 N19  WH0 L   1      -2.579   1.158  -0.401  1.00  0.00    -0.1987  N
ATOM     20 C20  WH0 L   1      -3.738   1.666  -0.900  1.00  0.00    +0.2283  A
ATOM     21 N27  WH0 L   1      -4.615   0.807  -1.498  1.00  0.00    -0.2207 NA
ATOM     22 C28  WH0 L   1      -4.336  -0.527  -1.610  1.00  0.00    +0.0334  A
ATOM     23 C29  WH0 L   1      -3.139  -1.048  -1.097  1.00  0.00    -0.0173  A
ATOM     24 C30  WH0 L   1      -2.270  -0.145  -0.489  1.00  0.00    +0.0803  A
ATOM     25 C31  WH0 L   1      -1.061  -0.359   0.146  1.00  0.00    +0.0353  A
ATOM     26 H60  WH0 L   1      -5.049  -1.185  -2.088  1.00  0.00    +0.0831  H
ATOM     27 H61  WH0 L   1      -2.917  -2.105  -1.158  1.00  0.00    +0.0654  H
BRANCH 17 34
ATOM     28 C10  WH0 L   1       1.790   1.386   0.534  1.00  0.00    -0.0338  A
ATOM     29 C11  WH0 L   1       2.935   1.843   1.214  1.00  0.00    -0.0226  A
ATOM     30 C12  WH0 L   1       2.887   2.130   2.580  1.00  0.00    +0.1237  A
ATOM     31 F13  WH0 L   1       4.003   2.555   3.221  1.00  0.00    -0.2055  F
ATOM     32 C14  WH0 L   1       1.690   2.000   3.282  1.00  0.00    -0.0258  A
ATOM     33 C15  WH0 L   1       0.535   1.590   2.621  1.00  0.00    -0.0495  A
ATOM     34 C16  WH0 L   1       0.570   1.280   1.254  1.00  0.00    +0.0061  A
ATOM     35 H49  WH0 L   1       3.869   1.991   0.690  1.00  0.00    +0.0649  H
ATOM     36 H50  WH0 L   1       1.653   2.233   4.338  1.00  0.00    +0.0646  H
ATOM     37 H51  WH0 L   1      -0.393   1.514   3.176  1.00  0.00    +0.0625  H
BRANCH 28 38
ATOM     38  C9  WH0 L   1       1.863   1.139  -0.967  1.00  0.00    -0.0095  C
ATOM     39 H47  WH0 L   1       0.955   0.625  -1.342  1.00  0.00    +0.0330  H
ATOM     40 H48  WH0 L   1       1.905   2.124  -1.479  1.00  0.00    +0.0330  H
BRANCH 38 41
ATOM     41  C8  WH0 L   1       3.074   0.300  -1.413  1.00  0.00    +0.0224  C
ATOM     42 H45  WH0 L   1       4.008   0.889  -1.306  1.00  0.00    +0.0489  H
ATOM     43 H46  WH0 L   1       2.958   0.062  -2.491  1.00  0.00    +0.0489  H
BRANCH 41 46
ATOM     44  C5  WH0 L   1       4.287  -1.854  -0.908  1.00  0.00    +0.2618  C
ATOM     45  O6  WH0 L   1       4.963  -1.735  -1.971  1.00  0.00    -0.2669 OA
ATOM     46  N7  WH0 L   1       3.198  -0.948  -0.658  1.00  0.00    -0.3511  N
ATOM     47 H44  WH0 L   1       2.499  -1.174   0.083  1.00  0.00    +0.1627 HD
BRANCH 44 49
ATOM     48  C1  WH0 L   1       4.277  -2.875   1.340  1.00  0.00    -0.0760  C
ATOM     49  C2  WH0 L   1       4.643  -2.923   0.054  1.00  0.00    +0.1085  C
ATOM     50 H42  WH0 L   1       4.573  -3.657   2.029  1.00  0.00    +0.0549  H
ATOM     51 H43  WH0 L   1       3.695  -2.056   1.744  1.00  0.00    +0.0549  H
BRANCH 49 52
ATOM     52  C3  WH0 L   1       5.493  -4.004  -0.386  1.00  0.00    +0.1040  C
ATOM     53  N4  WH0 L   1       6.188  -4.862  -0.742  1.00  0.00    -0.1907 NA
ENDBRANCH 49 52
ENDBRANCH 44 49
ENDBRANCH 41 46
ENDBRANCH 38 41
ENDBRANCH 28 38
ENDBRANCH 17 34
BRANCH 20 54
ATOM     54 N21  WH0 L   1      -4.061   3.060  -0.769  1.00  0.00    -0.3359  N
ATOM     55 C22  WH0 L   1      -5.445   3.453  -0.494  1.00  0.00    +0.0449  C
ATOM     56 C23  WH0 L   1      -5.458   4.821   0.197  1.00  0.00    +0.0653  C
ATOM     57 O24  WH0 L   1      -4.725   5.770  -0.556  1.00  0.00    -0.3763 OA
ATOM     58 C25  WH0 L   1      -3.358   5.403  -0.589  1.00  0.00    +0.0653  C
ATOM     59 C26  WH0 L   1      -3.170   4.077  -1.335  1.00  0.00    +0.0449  C
ATOM     60 H52  WH0 L   1      -5.940   2.704   0.163  1.00  0.00    +0.0511  H
ATOM     61 H53  WH0 L   1      -6.007   3.515  -1.450  1.00  0.00    +0.0511  H
ATOM     62 H54  WH0 L   1      -6.508   5.170   0.279  1.00  0.00    +0.0577  H
ATOM     63 H55  WH0 L   1      -5.058   4.742   1.236  1.00  0.00    +0.0577  H
ATOM     64 H56  WH0 L   1      -2.935   5.330   0.439  1.00  0.00    +0.0577  H
ATOM     65 H57  WH0 L   1      -2.792   6.195  -1.120  1.00  0.00    +0.0577  H
ATOM     66 H58  WH0 L   1      -2.107   3.770  -1.269  1.00  0.00    +0.0511  H
ATOM     67 H59  WH0 L   1      -3.419   4.218  -2.408  1.00  0.00    +0.0511  H
ENDBRANCH 20 54
ENDBRANCH 1 25
TORSDOF 8
