ROOT
ATOM      1 C18  CHE L   1       0.743  -0.135  -0.219  1.00  0.00    +0.0392  A
ATOM      2 C19  CHE L   1       1.233  -1.069   0.704  1.00  0.00    -0.0491  A
ATOM      3 C20  CHE L   1       2.503  -0.916   1.264  1.00  0.00    -0.0559  A
ATOM      4 C21  CHE L   1       3.308   0.175   0.911  1.00  0.00    -0.0248  A
ATOM      5 C22  CHE L   1       2.812   1.133   0.002  1.00  0.00    -0.0401  A
ATOM      6 C23  CHE L   1       1.535   0.969  -0.561  1.00  0.00    -0.0459  A
ATOM      7 C24  CHE L   1       3.671   2.308  -0.418  1.00  0.00    -0.0096  C
ATOM      8 C25  CHE L   1       4.780   2.579   0.597  1.00  0.00    +0.0258  C
ATOM      9 N26  CHE L   1       5.492   1.346   0.907  1.00  0.00    -0.3337  N
ATOM     10 C27  CHE L   1       6.666   1.068   0.211  1.00  0.00    +0.2549  C
ATOM     11 O28  CHE L   1       7.108   1.780  -0.690  1.00  0.00    -0.2674 OA
ATOM     12 C36  CHE L   1       4.673   0.323   1.558  1.00  0.00    +0.0468  C
ATOM     13 H54  CHE L   1       0.624  -1.925   0.991  1.00  0.00    +0.0625  H
ATOM     14 H55  CHE L   1       2.856  -1.657   1.978  1.00  0.00    +0.0621  H
ATOM     15 H56  CHE L   1       1.170   1.728  -1.246  1.00  0.00    +0.0628  H
ATOM     16 H57  CHE L   1       4.110   2.073  -1.396  1.00  0.00    +0.0330  H
ATOM     17 H58  CHE L   1       3.056   3.209  -0.526  1.00  0.00    +0.0330  H
ATOM     18 H59  CHE L   1       4.362   2.965   1.535  1.00  0.00    +0.0492  H
ATOM     19 H60  CHE L   1       5.468   3.338   0.211  1.00  0.00    +0.0492  H
ATOM     20 H65  CHE L   1       5.169  -0.651   1.542  1.00  0.00    +0.0538  H
ATOM     21 H66  CHE L   1       4.538   0.635   2.600  1.00  0.00    +0.0538  H
ENDROOT
BRANCH 1 23
ATOM     22  O1  CHE L   1      -1.387  -1.135  -0.206  1.00  0.00    -0.2676 OA
ATOM     23  C2  CHE L   1      -0.627  -0.357  -0.770  1.00  0.00    +0.2521  C
ATOM     24  N3  CHE L   1      -0.965   0.333  -1.917  1.00  0.00    -0.3495  N
ATOM     25 H37  CHE L   1      -0.234   0.770  -2.459  1.00  0.00    +0.1627 HD
BRANCH 24 26
ATOM     26  C4  CHE L   1      -2.232   0.108  -2.614  1.00  0.00    +0.0456  C
ATOM     27 H38  CHE L   1      -2.514  -0.948  -2.552  1.00  0.00    +0.0512  H
ATOM     28 H39  CHE L   1      -2.014   0.333  -3.666  1.00  0.00    +0.0512  H
BRANCH 26 29
ATOM     29  C5  CHE L   1      -3.365   1.044  -2.147  1.00  0.00    +0.0852  C
ATOM     30  O6  CHE L   1      -2.834   2.365  -1.946  1.00  0.00    -0.3888 OA
ATOM     31 H40  CHE L   1      -4.098   1.131  -2.956  1.00  0.00    +0.0624  H
ATOM     32 H41  CHE L   1      -2.093   2.246  -1.322  1.00  0.00    +0.2099 HD
BRANCH 29 33
ATOM     33  C7  CHE L   1      -4.089   0.574  -0.866  1.00  0.00    +0.0269  C
ATOM     34 H42  CHE L   1      -3.335   0.493  -0.076  1.00  0.00    +0.0452  H
ATOM     35 H43  CHE L   1      -4.757   1.369  -0.512  1.00  0.00    +0.0452  H
BRANCH 33 36
ATOM     36  N8  CHE L   1      -4.798  -0.704  -1.044  1.00  0.00    -0.2953 NA
ATOM     37  C9  CHE L   1      -6.095  -0.576  -1.724  1.00  0.00    +0.0033  C
ATOM     38 C10  CHE L   1      -7.167   0.187  -0.928  1.00  0.00    -0.0146  C
ATOM     39 C11  CHE L   1      -7.181  -0.175   0.537  1.00  0.00    -0.0418  A
ATOM     40 C12  CHE L   1      -8.238   0.253   1.353  1.00  0.00    -0.0582  A
ATOM     41 C13  CHE L   1      -8.247  -0.054   2.713  1.00  0.00    -0.0615  A
ATOM     42 C14  CHE L   1      -7.201  -0.786   3.270  1.00  0.00    -0.0614  A
ATOM     43 C15  CHE L   1      -6.139  -1.207   2.467  1.00  0.00    -0.0571  A
ATOM     44 C16  CHE L   1      -6.112  -0.896   1.099  1.00  0.00    -0.0302  A
ATOM     45 C17  CHE L   1      -4.980  -1.413   0.236  1.00  0.00    +0.0244  C
ATOM     46 H44  CHE L   1      -6.466  -1.589  -1.931  1.00  0.00    +0.0430  H
ATOM     47 H45  CHE L   1      -5.974  -0.115  -2.710  1.00  0.00    +0.0430  H
ATOM     48 H46  CHE L   1      -6.994   1.267  -1.014  1.00  0.00    +0.0326  H
ATOM     49 H47  CHE L   1      -8.149  -0.026  -1.367  1.00  0.00    +0.0326  H
ATOM     50 H48  CHE L   1      -9.059   0.827   0.930  1.00  0.00    +0.0620  H
ATOM     51 H49  CHE L   1      -9.072   0.276   3.339  1.00  0.00    +0.0618  H
ATOM     52 H50  CHE L   1      -7.212  -1.032   4.329  1.00  0.00    +0.0618  H
ATOM     53 H51  CHE L   1      -5.331  -1.786   2.912  1.00  0.00    +0.0621  H
ATOM     54 H52  CHE L   1      -4.042  -1.413   0.803  1.00  0.00    +0.0476  H
ATOM     55 H53  CHE L   1      -5.194  -2.466   0.013  1.00  0.00    +0.0476  H
ENDBRANCH 33 36
ENDBRANCH 29 33
ENDBRANCH 26 29
ENDBRANCH 24 26
ENDBRANCH 1 23
BRANCH 10 56
ATOM     56 C29  CHE L   1       7.454  -0.126   0.593  1.00  0.00    +0.0392  A
ATOM     57 C30  CHE L   1       7.838  -0.327   1.925  1.00  0.00    -0.0484  A
ATOM     58 C31  CHE L   1       8.598  -1.448   2.265  1.00  0.00    -0.0470  A
ATOM     59 C32  CHE L   1       8.979  -2.351   1.272  1.00  0.00    +0.0179  A
ATOM     60 BR33 CHE L   1      10.005  -3.871   1.735  1.00  0.00    -0.0503 Br
ATOM     61 C34  CHE L   1       8.618  -2.141  -0.060  1.00  0.00    -0.0470  A
ATOM     62 C35  CHE L   1       7.859  -1.020  -0.403  1.00  0.00    -0.0484  A
ATOM     63 H61  CHE L   1       7.560   0.392   2.693  1.00  0.00    +0.0625  H
ATOM     64 H62  CHE L   1       8.893  -1.604   3.300  1.00  0.00    +0.0629  H
ATOM     65 H63  CHE L   1       8.927  -2.838  -0.835  1.00  0.00    +0.0629  H
ATOM     66 H64  CHE L   1       7.586  -0.842  -1.441  1.00  0.00    +0.0625  H
ENDBRANCH 10 56
TORSDOF 6
