ROOT
ATOM      1 C12  WH0 L   1      -2.192   1.414   0.264  1.00  0.00    -0.0133  A
ATOM      2 C13  WH0 L   1      -2.838   1.757   1.473  1.00  0.00    -0.0519  A
ATOM      3 C14  WH0 L   1      -3.549   2.955   1.593  1.00  0.00    -0.0374  A
ATOM      4 C15  WH0 L   1      -3.590   3.778   0.490  1.00  0.00    +0.0454  A
ATOM      5 C16  WH0 L   1      -2.957   3.459  -0.709  1.00  0.00    -0.0145  A
ATOM      6 C17  WH0 L   1      -2.251   2.277  -0.843  1.00  0.00    -0.0483  A
ATOM      7 C18  WH0 L   1      -3.196   4.555  -1.704  1.00  0.00    +0.0535  C
ATOM      8 C19  WH0 L   1      -4.054   5.538  -0.901  1.00  0.00    +0.2296  C
ATOM      9 O20  WH0 L   1      -4.508   6.600  -1.296  1.00  0.00    -0.2725 OA
ATOM     10 N21  WH0 L   1      -4.231   5.000   0.368  1.00  0.00    -0.3256  N
ATOM     11 H48  WH0 L   1      -2.786   1.086   2.328  1.00  0.00    +0.0624  H
ATOM     12 H49  WH0 L   1      -4.046   3.221   2.519  1.00  0.00    +0.0638  H
ATOM     13 H50  WH0 L   1      -1.770   2.023  -1.783  1.00  0.00    +0.0627  H
ATOM     14 H51  WH0 L   1      -3.766   4.195  -2.564  1.00  0.00    +0.0410  H
ATOM     15 H52  WH0 L   1      -2.262   5.041  -1.998  1.00  0.00    +0.0410  H
ATOM     16 H53  WH0 L   1      -4.765   5.463   1.087  1.00  0.00    +0.1686 HD
ENDROOT
BRANCH 1 20
ATOM     17  C8  WH0 L   1       2.169   0.374  -0.529  1.00  0.00    +0.0488  A
ATOM     18  C9  WH0 L   1       0.953   0.904  -0.300  1.00  0.00    -0.0140  A
ATOM     19 C10  WH0 L   1      -0.134   0.034  -0.070  1.00  0.00    +0.0806  A
ATOM     20 C11  WH0 L   1      -1.488   0.149   0.163  1.00  0.00    +0.0353  A
ATOM     21 C22  WH0 L   1      -1.951  -1.195   0.306  1.00  0.00    +0.1015  A
ATOM     22 N30  WH0 L   1      -0.941  -2.071   0.179  1.00  0.00    -0.1627 NA
ATOM     23 N31  WH0 L   1       0.158  -1.312  -0.050  1.00  0.00    -0.1987  N
ATOM     24 C32  WH0 L   1       1.469  -1.838  -0.287  1.00  0.00    +0.2286  A
ATOM     25 N39  WH0 L   1       2.437  -0.982  -0.543  1.00  0.00    -0.2172 NA
ATOM     26 H47  WH0 L   1       0.797   1.979  -0.290  1.00  0.00    +0.0657  H
BRANCH 17 27
ATOM     27  C7  WH0 L   1       3.360   1.268  -0.800  1.00  0.00    +0.0073  C
ATOM     28 H45  WH0 L   1       3.052   2.322  -0.852  1.00  0.00    +0.0345  H
ATOM     29 H46  WH0 L   1       3.771   1.028  -1.791  1.00  0.00    +0.0345  H
BRANCH 27 30
ATOM     30  C6  WH0 L   1       4.451   1.104   0.262  1.00  0.00    +0.0235  C
ATOM     31 H43  WH0 L   1       4.882   0.098   0.225  1.00  0.00    +0.0490  H
ATOM     32 H44  WH0 L   1       4.039   1.264   1.264  1.00  0.00    +0.0490  H
BRANCH 30 35
ATOM     33  O1  WH0 L   1       4.519   3.798   1.097  1.00  0.00    -0.2720 OA
ATOM     34  C2  WH0 L   1       5.467   3.351   0.456  1.00  0.00    +0.2356  C
ATOM     35  N5  WH0 L   1       5.552   2.031   0.057  1.00  0.00    -0.3546  N
ATOM     36 H42  WH0 L   1       6.247   1.794  -0.645  1.00  0.00    +0.1623 HD
BRANCH 34 37
ATOM     37  C3  WH0 L   1       6.674   4.197   0.106  1.00  0.00    +0.1010  C
ATOM     38 CL4  WH0 L   1       6.994   4.099  -1.643  1.00  0.00    -0.1154 Cl
ATOM     39 H40  WH0 L   1       7.551   3.831   0.650  1.00  0.00    +0.0527  H
ATOM     40 H41  WH0 L   1       6.486   5.244   0.366  1.00  0.00    +0.0527  H
ENDBRANCH 34 37
ENDBRANCH 30 35
ENDBRANCH 27 30
ENDBRANCH 17 27
BRANCH 21 41
ATOM     41 C23  WH0 L   1      -3.313  -1.677   0.553  1.00  0.00    +0.0029  A
ATOM     42 C24  WH0 L   1      -3.527  -2.751   1.432  1.00  0.00    -0.0498  A
ATOM     43 C25  WH0 L   1      -4.819  -3.222   1.673  1.00  0.00    -0.0258  A
ATOM     44 C26  WH0 L   1      -5.898  -2.624   1.033  1.00  0.00    +0.1234  A
ATOM     45 F27  WH0 L   1      -7.137  -3.078   1.263  1.00  0.00    -0.2055  F
ATOM     46 C28  WH0 L   1      -5.709  -1.568   0.150  1.00  0.00    -0.0258  A
ATOM     47 C29  WH0 L   1      -4.417  -1.095  -0.091  1.00  0.00    -0.0498  A
ATOM     48 H54  WH0 L   1      -2.684  -3.227   1.929  1.00  0.00    +0.0625  H
ATOM     49 H55  WH0 L   1      -4.987  -4.053   2.350  1.00  0.00    +0.0646  H
ATOM     50 H56  WH0 L   1      -6.565  -1.124  -0.349  1.00  0.00    +0.0646  H
ATOM     51 H57  WH0 L   1      -4.283  -0.280  -0.799  1.00  0.00    +0.0625  H
ENDBRANCH 21 41
BRANCH 24 52
ATOM     52 N33  WH0 L   1       1.767  -3.213  -0.266  1.00  0.00    -0.3359  N
ATOM     53 C34  WH0 L   1       2.788  -3.696  -1.222  1.00  0.00    +0.0449  C
ATOM     54 C35  WH0 L   1       3.388  -5.030  -0.772  1.00  0.00    +0.0653  C
ATOM     55 O36  WH0 L   1       2.364  -6.016  -0.581  1.00  0.00    -0.3763 OA
ATOM     56 C37  WH0 L   1       1.474  -5.580   0.454  1.00  0.00    +0.0653  C
ATOM     57 C38  WH0 L   1       0.788  -4.252   0.100  1.00  0.00    +0.0449  C
ATOM     58 H58  WH0 L   1       2.309  -3.821  -2.199  1.00  0.00    +0.0511  H
ATOM     59 H59  WH0 L   1       3.606  -2.978  -1.332  1.00  0.00    +0.0511  H
ATOM     60 H60  WH0 L   1       4.074  -5.406  -1.538  1.00  0.00    +0.0577  H
ATOM     61 H61  WH0 L   1       3.955  -4.917   0.161  1.00  0.00    +0.0577  H
ATOM     62 H62  WH0 L   1       0.715  -6.359   0.592  1.00  0.00    +0.0577  H
ATOM     63 H63  WH0 L   1       2.035  -5.494   1.394  1.00  0.00    +0.0577  H
ATOM     64 H64  WH0 L   1       0.222  -3.961   0.989  1.00  0.00    +0.0511  H
ATOM     65 H65  WH0 L   1       0.105  -4.411  -0.742  1.00  0.00    +0.0511  H
ENDBRANCH 24 52
ENDBRANCH 1 20
TORSDOF 7
