ROOT
ATOM      1 C11  CHE L   1      -1.407  -0.481   0.482  1.00  0.00    +0.2291  C
ATOM      2 O12  CHE L   1      -1.991   0.234   1.300  1.00  0.00    -0.2726 OA
ATOM      3 N13  CHE L   1      -0.051  -0.276   0.221  1.00  0.00    -0.3418  N
ATOM      4 C14  CHE L   1       0.808  -1.083  -0.644  1.00  0.00    +0.0230  C
ATOM      5 C15  CHE L   1       2.097  -1.496   0.063  1.00  0.00    -0.0148  C
ATOM      6 C16  CHE L   1       2.781  -0.335   0.806  1.00  0.00    +0.0332  C
ATOM      7 C28  CHE L   1       2.064   0.997   0.590  1.00  0.00    -0.0148  C
ATOM      8 C29  CHE L   1       0.584   0.846   0.914  1.00  0.00    +0.0230  C
ATOM      9 H48  CHE L   1       1.040  -0.473  -1.526  1.00  0.00    +0.0489  H
ATOM     10 H49  CHE L   1       0.301  -1.977  -1.007  1.00  0.00    +0.0489  H
ATOM     11 H50  CHE L   1       2.771  -1.957  -0.671  1.00  0.00    +0.0302  H
ATOM     12 H51  CHE L   1       1.861  -2.281   0.794  1.00  0.00    +0.0302  H
ATOM     13 H52  CHE L   1       2.747  -0.564   1.880  1.00  0.00    +0.0524  H
ATOM     14 H60  CHE L   1       2.190   1.333  -0.447  1.00  0.00    +0.0302  H
ATOM     15 H61  CHE L   1       2.507   1.776   1.222  1.00  0.00    +0.0302  H
ATOM     16 H62  CHE L   1       0.046   1.763   0.648  1.00  0.00    +0.0489  H
ATOM     17 H63  CHE L   1       0.451   0.691   1.992  1.00  0.00    +0.0489  H
ENDROOT
BRANCH 1 18
ATOM     18  C8  CHE L   1      -2.143  -1.593  -0.266  1.00  0.00    +0.0648  C
ATOM     19 H44  CHE L   1      -1.504  -2.484  -0.203  1.00  0.00    +0.0422  H
BRANCH 18 20
ATOM     20  C7  CHE L   1      -3.450  -2.037   0.438  1.00  0.00    -0.0142  C
ATOM     21 H42  CHE L   1      -3.652  -3.078   0.148  1.00  0.00    +0.0321  H
ATOM     22 H43  CHE L   1      -3.286  -2.084   1.524  1.00  0.00    +0.0321  H
BRANCH 20 25
ATOM     23  C4  CHE L   1      -6.231   0.597   0.751  1.00  0.00    -0.0031  A
ATOM     24  C5  CHE L   1      -5.059  -0.150   0.982  1.00  0.00    -0.0517  A
ATOM     25  C6  CHE L   1      -4.710  -1.243   0.175  1.00  0.00    -0.0461  A
ATOM     26 C30  CHE L   1      -5.562  -1.598  -0.878  1.00  0.00    -0.0551  A
ATOM     27 C31  CHE L   1      -6.730  -0.875  -1.122  1.00  0.00    -0.0196  A
ATOM     28 C32  CHE L   1      -7.057   0.212  -0.312  1.00  0.00    +0.1203  A
ATOM     29 O33  CHE L   1      -8.205   0.911  -0.560  1.00  0.00    -0.5065 OA
ATOM     30 H41  CHE L   1      -4.407   0.125   1.810  1.00  0.00    +0.0624  H
ATOM     31 H64  CHE L   1      -5.315  -2.439  -1.523  1.00  0.00    +0.0621  H
ATOM     32 H65  CHE L   1      -7.366  -1.171  -1.950  1.00  0.00    +0.0654  H
ATOM     33 H66  CHE L   1      -8.685   0.471  -1.279  1.00  0.00    +0.2921 HD
BRANCH 23 35
ATOM     34  C1  CHE L   1      -5.498   2.869   1.575  1.00  0.00    -0.0585  C
ATOM     35  C2  CHE L   1      -6.578   1.783   1.637  1.00  0.00    -0.0181  C
ATOM     36  C3  CHE L   1      -6.832   1.347   3.083  1.00  0.00    -0.0585  C
ATOM     37 H34  CHE L   1      -4.547   2.528   2.000  1.00  0.00    +0.0235  H
ATOM     38 H35  CHE L   1      -5.813   3.756   2.135  1.00  0.00    +0.0235  H
ATOM     39 H36  CHE L   1      -5.311   3.177   0.540  1.00  0.00    +0.0235  H
ATOM     40 H37  CHE L   1      -7.506   2.246   1.281  1.00  0.00    +0.0345  H
ATOM     41 H38  CHE L   1      -7.144   2.202   3.692  1.00  0.00    +0.0235  H
ATOM     42 H39  CHE L   1      -7.628   0.596   3.129  1.00  0.00    +0.0235  H
ATOM     43 H40  CHE L   1      -5.939   0.918   3.549  1.00  0.00    +0.0235  H
ENDBRANCH 23 35
ENDBRANCH 20 25
ENDBRANCH 18 20
BRANCH 18 44
ATOM     44  C9  CHE L   1      -2.333  -1.214  -1.736  1.00  0.00    +0.0558  C
ATOM     45 O10  CHE L   1      -2.718  -2.352  -2.505  1.00  0.00    -0.3942 OA
ATOM     46 H45  CHE L   1      -3.093  -0.436  -1.861  1.00  0.00    +0.0565  H
ATOM     47 H46  CHE L   1      -1.421  -0.811  -2.185  1.00  0.00    +0.0565  H
ATOM     48 H47  CHE L   1      -1.955  -2.952  -2.555  1.00  0.00    +0.2094 HD
ENDBRANCH 18 44
ENDBRANCH 1 18
BRANCH 6 49
ATOM     49 N17  CHE L   1       4.191  -0.220   0.448  1.00  0.00    -0.3478  N
ATOM     50 C18  CHE L   1       5.134  -1.102   0.965  1.00  0.00    +0.2739  C
ATOM     51 O19  CHE L   1       4.817  -1.980   1.767  1.00  0.00    -0.2658 OA
ATOM     52 H53  CHE L   1       4.443   0.342  -0.352  1.00  0.00    +0.1629 HD
BRANCH 50 53
ATOM     53 C20  CHE L   1       6.507  -0.908   0.481  1.00  0.00    +0.1701  A
ATOM     54 C21  CHE L   1       7.066   0.200  -0.217  1.00  0.00    +0.0132  A
ATOM     55 C22  CHE L   1       8.388  -0.126  -0.399  1.00  0.00    +0.1411  A
ATOM     56 O26  CHE L   1       8.614  -1.352   0.140  1.00  0.00    -0.3586 OA
ATOM     57 N27  CHE L   1       7.450  -1.842   0.693  1.00  0.00    -0.0732 NA
ATOM     58 H54  CHE L   1       6.581   1.115  -0.518  1.00  0.00    +0.0676  H
BRANCH 55 59
ATOM     59 C23  CHE L   1       9.498   0.719  -1.079  1.00  0.00    +0.0199  C
ATOM     60 C24  CHE L   1       9.326   1.135  -2.516  1.00  0.00    -0.0426  C
ATOM     61 C25  CHE L   1       9.287   2.168  -1.426  1.00  0.00    -0.0426  C
ATOM     62 H55  CHE L   1      10.501   0.435  -0.770  1.00  0.00    +0.0380  H
ATOM     63 H56  CHE L   1      10.200   1.104  -3.158  1.00  0.00    +0.0272  H
ATOM     64 H57  CHE L   1       8.399   0.894  -3.024  1.00  0.00    +0.0272  H
ATOM     65 H58  CHE L   1      10.137   2.836  -1.331  1.00  0.00    +0.0272  H
ATOM     66 H59  CHE L   1       8.339   2.643  -1.208  1.00  0.00    +0.0272  H
ENDBRANCH 55 59
ENDBRANCH 50 53
ENDBRANCH 6 49
TORSDOF 8
