ROOT
ATOM      1 C12  WH0 L   1      -1.980   1.462   0.018  1.00  0.00    -0.0133  A
ATOM      2 C13  WH0 L   1      -1.719   2.420   1.024  1.00  0.00    -0.0519  A
ATOM      3 C14  WH0 L   1      -2.211   3.725   0.922  1.00  0.00    -0.0374  A
ATOM      4 C15  WH0 L   1      -2.959   4.032  -0.193  1.00  0.00    +0.0454  A
ATOM      5 C16  WH0 L   1      -3.234   3.100  -1.190  1.00  0.00    -0.0145  A
ATOM      6 C17  WH0 L   1      -2.752   1.807  -1.102  1.00  0.00    -0.0483  A
ATOM      7 C18  WH0 L   1      -4.073   3.743  -2.255  1.00  0.00    +0.0535  C
ATOM      8 C19  WH0 L   1      -4.239   5.169  -1.715  1.00  0.00    +0.2296  C
ATOM      9 O20  WH0 L   1      -4.868   6.077  -2.233  1.00  0.00    -0.2725 OA
ATOM     10 N21  WH0 L   1      -3.548   5.244  -0.511  1.00  0.00    -0.3256  N
ATOM     11 H49  WH0 L   1      -1.128   2.150   1.897  1.00  0.00    +0.0624  H
ATOM     12 H50  WH0 L   1      -2.008   4.459   1.692  1.00  0.00    +0.0638  H
ATOM     13 H51  WH0 L   1      -2.964   1.086  -1.886  1.00  0.00    +0.0627  H
ATOM     14 H52  WH0 L   1      -3.551   3.764  -3.213  1.00  0.00    +0.0410  H
ATOM     15 H53  WH0 L   1      -5.052   3.266  -2.330  1.00  0.00    +0.0410  H
ATOM     16 H54  WH0 L   1      -3.519   6.083   0.048  1.00  0.00    +0.1686 HD
ENDROOT
BRANCH 1 20
ATOM     17  C8  WH0 L   1       2.243  -0.175   0.559  1.00  0.00    +0.0488  A
ATOM     18  C9  WH0 L   1       1.102   0.515   0.363  1.00  0.00    -0.0140  A
ATOM     19 C10  WH0 L   1      -0.119  -0.191   0.267  1.00  0.00    +0.0806  A
ATOM     20 C11  WH0 L   1      -1.456   0.112   0.139  1.00  0.00    +0.0353  A
ATOM     21 C22  WH0 L   1      -2.122  -1.157   0.142  1.00  0.00    +0.1015  A
ATOM     22 N30  WH0 L   1      -1.240  -2.169   0.204  1.00  0.00    -0.1627 NA
ATOM     23 N31  WH0 L   1      -0.033  -1.559   0.311  1.00  0.00    -0.1987  N
ATOM     24 C32  WH0 L   1       1.195  -2.258   0.492  1.00  0.00    +0.2286  A
ATOM     25 N39  WH0 L   1       2.297  -1.560   0.647  1.00  0.00    -0.2172 NA
ATOM     26 H48  WH0 L   1       1.083   1.596   0.291  1.00  0.00    +0.0657  H
BRANCH 17 27
ATOM     27  C7  WH0 L   1       3.608   0.484   0.675  1.00  0.00    +0.0073  C
ATOM     28 H46  WH0 L   1       3.955   0.367   1.707  1.00  0.00    +0.0345  H
ATOM     29 H47  WH0 L   1       4.315  -0.076   0.053  1.00  0.00    +0.0345  H
BRANCH 27 30
ATOM     30  C6  WH0 L   1       3.703   1.963   0.291  1.00  0.00    +0.0238  C
ATOM     31 H44  WH0 L   1       3.289   2.132  -0.708  1.00  0.00    +0.0490  H
ATOM     32 H45  WH0 L   1       3.136   2.575   0.997  1.00  0.00    +0.0490  H
BRANCH 30 35
ATOM     33  C3  WH0 L   1       5.417   3.696   0.610  1.00  0.00    +0.2443  C
ATOM     34  O4  WH0 L   1       4.641   4.491   1.130  1.00  0.00    -0.2683 OA
ATOM     35  N5  WH0 L   1       5.081   2.419   0.237  1.00  0.00    -0.3521  N
ATOM     36 H43  WH0 L   1       5.696   1.935  -0.396  1.00  0.00    +0.1626 HD
BRANCH 33 38
ATOM     37  C1  WH0 L   1       7.824   3.352  -0.098  1.00  0.00    -0.0936  C
ATOM     38  C2  WH0 L   1       6.810   4.122   0.312  1.00  0.00    -0.0047  C
ATOM     39 H40  WH0 L   1       7.739   2.287  -0.269  1.00  0.00    +0.0536  H
ATOM     40 H41  WH0 L   1       8.801   3.797  -0.269  1.00  0.00    +0.0536  H
ATOM     41 H42  WH0 L   1       6.988   5.179   0.493  1.00  0.00    +0.0666  H
ENDBRANCH 33 38
ENDBRANCH 30 35
ENDBRANCH 27 30
ENDBRANCH 17 27
BRANCH 21 42
ATOM     42 C23  WH0 L   1      -3.560  -1.428   0.098  1.00  0.00    +0.0029  A
ATOM     43 C24  WH0 L   1      -4.059  -2.460  -0.710  1.00  0.00    -0.0498  A
ATOM     44 C25  WH0 L   1      -5.433  -2.710  -0.766  1.00  0.00    -0.0258  A
ATOM     45 C26  WH0 L   1      -6.304  -1.937  -0.010  1.00  0.00    +0.1234  A
ATOM     46 F27  WH0 L   1      -7.622  -2.169  -0.072  1.00  0.00    -0.2055  F
ATOM     47 C28  WH0 L   1      -5.830  -0.923   0.810  1.00  0.00    -0.0258  A
ATOM     48 C29  WH0 L   1      -4.457  -0.668   0.865  1.00  0.00    -0.0498  A
ATOM     49 H55  WH0 L   1      -3.378  -3.067  -1.301  1.00  0.00    +0.0625  H
ATOM     50 H56  WH0 L   1      -5.829  -3.498  -1.395  1.00  0.00    +0.0646  H
ATOM     51 H57  WH0 L   1      -6.531  -0.340   1.399  1.00  0.00    +0.0646  H
ATOM     52 H58  WH0 L   1      -4.097   0.121   1.519  1.00  0.00    +0.0625  H
ENDBRANCH 21 42
BRANCH 24 53
ATOM     53 N33  WH0 L   1       1.220  -3.651   0.525  1.00  0.00    -0.3359  N
ATOM     54 C34  WH0 L   1       0.522  -4.446  -0.508  1.00  0.00    +0.0449  C
ATOM     55 C35  WH0 L   1       1.509  -5.423  -1.174  1.00  0.00    +0.0653  C
ATOM     56 O36  WH0 L   1       2.094  -6.363  -0.256  1.00  0.00    -0.3763 OA
ATOM     57 C37  WH0 L   1       2.165  -5.863   1.096  1.00  0.00    +0.0653  C
ATOM     58 C38  WH0 L   1       2.355  -4.340   1.167  1.00  0.00    +0.0449  C
ATOM     59 H59  WH0 L   1       0.092  -3.811  -1.288  1.00  0.00    +0.0511  H
ATOM     60 H60  WH0 L   1      -0.294  -5.001  -0.028  1.00  0.00    +0.0511  H
ATOM     61 H61  WH0 L   1       1.013  -5.994  -1.964  1.00  0.00    +0.0577  H
ATOM     62 H62  WH0 L   1       2.333  -4.867  -1.641  1.00  0.00    +0.0577  H
ATOM     63 H63  WH0 L   1       2.997  -6.371   1.599  1.00  0.00    +0.0577  H
ATOM     64 H64  WH0 L   1       1.239  -6.167   1.609  1.00  0.00    +0.0577  H
ATOM     65 H65  WH0 L   1       2.413  -4.032   2.222  1.00  0.00    +0.0511  H
ATOM     66 H66  WH0 L   1       3.293  -4.059   0.667  1.00  0.00    +0.0511  H
ENDBRANCH 24 53
ENDBRANCH 1 20
TORSDOF 7
