ROOT
ATOM      1 C21  CHE L   1       5.028  -0.255   0.134  1.00  0.00    +0.0389  A
ATOM      2 C22  CHE L   1       5.535   0.938   0.520  1.00  0.00    -0.0388  A
ATOM      3 C23  CHE L   1       5.405   2.222  -0.252  1.00  0.00    -0.0392  C
ATOM      4 C24  CHE L   1       6.268   1.049   1.774  1.00  0.00    -0.0393  A
ATOM      5 C25  CHE L   1       6.467  -0.020   2.558  1.00  0.00    +0.0162  A
ATOM      6 C26  CHE L   1       7.225   0.021   3.848  1.00  0.00    -0.0244  C
ATOM      7 N27  CHE L   1       5.948  -1.231   2.175  1.00  0.00    -0.3262  N
ATOM      8 C28  CHE L   1       5.218  -1.438   1.032  1.00  0.00    +0.2540  A
ATOM      9 O29  CHE L   1       4.739  -2.537   0.773  1.00  0.00    -0.2675 OA
ATOM     10 H56  CHE L   1       6.391   2.573  -0.576  1.00  0.00    +0.0278  H
ATOM     11 H57  CHE L   1       4.776   2.132  -1.141  1.00  0.00    +0.0278  H
ATOM     12 H58  CHE L   1       4.952   2.998   0.375  1.00  0.00    +0.0278  H
ATOM     13 H59  CHE L   1       6.668   2.021   2.051  1.00  0.00    +0.0637  H
ATOM     14 H60  CHE L   1       8.121  -0.606   3.783  1.00  0.00    +0.0292  H
ATOM     15 H61  CHE L   1       7.543   1.038   4.101  1.00  0.00    +0.0292  H
ATOM     16 H62  CHE L   1       6.603  -0.348   4.671  1.00  0.00    +0.0292  H
ATOM     17 H63  CHE L   1       6.074  -2.046   2.761  1.00  0.00    +0.1686 HD
ENDROOT
BRANCH 1 18
ATOM     18 C20  CHE L   1       4.313  -0.535  -1.152  1.00  0.00    +0.0491  C
ATOM     19 H54  CHE L   1       4.650   0.124  -1.959  1.00  0.00    +0.0538  H
ATOM     20 H55  CHE L   1       4.495  -1.556  -1.508  1.00  0.00    +0.0538  H
BRANCH 18 23
ATOM     21 C17  CHE L   1       2.068   0.130  -1.910  1.00  0.00    +0.2526  C
ATOM     22 O18  CHE L   1       2.444   0.663  -2.944  1.00  0.00    -0.2676 OA
ATOM     23 N19  CHE L   1       2.891  -0.391  -0.941  1.00  0.00    -0.3478  N
ATOM     24 H53  CHE L   1       2.475  -0.919  -0.182  1.00  0.00    +0.1630 HD
BRANCH 21 29
ATOM     25  C4  CHE L   1      -1.461  -1.136  -1.294  1.00  0.00    +0.0423  A
ATOM     26  C5  CHE L   1      -2.067   0.093  -0.966  1.00  0.00    -0.0305  A
ATOM     27  C6  CHE L   1      -1.353   1.302  -0.942  1.00  0.00    -0.0152  A
ATOM     28 C15  CHE L   1       0.007   1.264  -1.255  1.00  0.00    -0.0413  A
ATOM     29 C16  CHE L   1       0.627   0.055  -1.589  1.00  0.00    +0.0444  A
ATOM     30 C30  CHE L   1      -0.089  -1.157  -1.628  1.00  0.00    -0.0149  A
ATOM     31 C31  CHE L   1       0.560  -2.417  -2.142  1.00  0.00    -0.0370  C
ATOM     32 H43  CHE L   1      -3.128   0.115  -0.731  1.00  0.00    +0.0644  H
ATOM     33 H52  CHE L   1       0.591   2.184  -1.266  1.00  0.00    +0.0631  H
ATOM     34 H64  CHE L   1       0.047  -3.323  -1.801  1.00  0.00    +0.0278  H
ATOM     35 H65  CHE L   1       1.595  -2.516  -1.798  1.00  0.00    +0.0278  H
ATOM     36 H66  CHE L   1       0.551  -2.414  -3.239  1.00  0.00    +0.0278  H
BRANCH 25 37
ATOM     37  N3  CHE L   1      -2.209  -2.329  -1.339  1.00  0.00    -0.3675  N
BRANCH 37 39
ATOM     38  C1  CHE L   1      -3.632  -3.706  -2.835  1.00  0.00    -0.0475  C
ATOM     39  C2  CHE L   1      -3.224  -2.304  -2.408  1.00  0.00    +0.0161  C
ATOM     40 H38  CHE L   1      -4.202  -4.216  -2.051  1.00  0.00    +0.0247  H
ATOM     41 H39  CHE L   1      -2.757  -4.318  -3.076  1.00  0.00    +0.0247  H
ATOM     42 H40  CHE L   1      -4.270  -3.656  -3.722  1.00  0.00    +0.0247  H
ATOM     43 H41  CHE L   1      -4.108  -1.733  -2.105  1.00  0.00    +0.0485  H
ATOM     44 H42  CHE L   1      -2.811  -1.806  -3.297  1.00  0.00    +0.0485  H
ENDBRANCH 37 39
BRANCH 37 45
ATOM     45 C32  CHE L   1      -2.559  -2.979  -0.045  1.00  0.00    +0.0341  C
ATOM     46 C33  CHE L   1      -3.778  -2.380   0.662  1.00  0.00    -0.0089  C
ATOM     47 C34  CHE L   1      -4.072  -3.167   1.932  1.00  0.00    +0.0495  C
ATOM     48 O35  CHE L   1      -2.938  -3.178   2.796  1.00  0.00    -0.3796 OA
ATOM     49 C36  CHE L   1      -1.804  -3.803   2.196  1.00  0.00    +0.0495  C
ATOM     50 C37  CHE L   1      -1.379  -3.062   0.936  1.00  0.00    -0.0089  C
ATOM     51 H67  CHE L   1      -2.809  -4.020  -0.291  1.00  0.00    +0.0525  H
ATOM     52 H68  CHE L   1      -3.576  -1.340   0.940  1.00  0.00    +0.0307  H
ATOM     53 H69  CHE L   1      -4.661  -2.388   0.015  1.00  0.00    +0.0307  H
ATOM     54 H70  CHE L   1      -4.369  -4.198   1.704  1.00  0.00    +0.0560  H
ATOM     55 H71  CHE L   1      -4.899  -2.700   2.476  1.00  0.00    +0.0560  H
ATOM     56 H72  CHE L   1      -2.038  -4.853   1.983  1.00  0.00    +0.0560  H
ATOM     57 H73  CHE L   1      -0.990  -3.789   2.928  1.00  0.00    +0.0560  H
ATOM     58 H74  CHE L   1      -1.054  -2.054   1.221  1.00  0.00    +0.0307  H
ATOM     59 H75  CHE L   1      -0.523  -3.572   0.482  1.00  0.00    +0.0307  H
ENDBRANCH 37 45
ENDBRANCH 25 37
BRANCH 27 60
ATOM     60  C7  CHE L   1      -2.017   2.571  -0.615  1.00  0.00    -0.0178  A
ATOM     61  C8  CHE L   1      -3.094   3.039  -1.382  1.00  0.00    -0.0537  A
ATOM     62  C9  CHE L   1      -3.715   4.256  -1.084  1.00  0.00    -0.0568  A
ATOM     63 C10  CHE L   1      -3.271   5.037  -0.010  1.00  0.00    -0.0338  A
ATOM     64 C13  CHE L   1      -2.205   4.570   0.769  1.00  0.00    -0.0568  A
ATOM     65 C14  CHE L   1      -1.583   3.355   0.466  1.00  0.00    -0.0537  A
ATOM     66 H44  CHE L   1      -3.448   2.462  -2.235  1.00  0.00    +0.0624  H
ATOM     67 H45  CHE L   1      -4.544   4.595  -1.702  1.00  0.00    +0.0621  H
ATOM     68 H50  CHE L   1      -1.848   5.151   1.617  1.00  0.00    +0.0621  H
ATOM     69 H51  CHE L   1      -0.758   3.017   1.089  1.00  0.00    +0.0624  H
BRANCH 63 70
ATOM     70 C11  CHE L   1      -3.955   6.336   0.329  1.00  0.00    +0.0185  C
ATOM     71 N12  CHE L   1      -5.071   6.122   1.242  1.00  0.00    -0.3261 NA
ATOM     72 H46  CHE L   1      -4.318   6.819  -0.585  1.00  0.00    +0.0471  H
ATOM     73 H47  CHE L   1      -3.239   7.032   0.780  1.00  0.00    +0.0471  H
ATOM     74 H48  CHE L   1      -4.724   5.642   2.072  1.00  0.00    +0.1185 HD
ATOM     75 H49  CHE L   1      -5.725   5.474   0.808  1.00  0.00    +0.1185 HD
ENDBRANCH 63 70
ENDBRANCH 27 60
ENDBRANCH 21 29
ENDBRANCH 18 23
ENDBRANCH 1 18
TORSDOF 8
