ROOT
ATOM      1  N5  LIG L   1      -2.320   3.117 -11.294  1.00  0.00    -0.3067  N
ATOM      2  C6  LIG L   1      -2.214   1.972 -10.573  1.00  0.00    +0.1566  A
ATOM      3  N7  LIG L   1      -3.276   1.426 -10.185  1.00  0.00    -0.1898 NA
ATOM      4  C8  LIG L   1      -3.467   0.256  -9.438  1.00  0.00    +0.2794  C
ATOM      5  O9  LIG L   1      -3.258  -0.890  -9.958  1.00  0.00    -0.2652 OA
ATOM      6 C19  LIG L   1      -1.013   1.409 -10.260  1.00  0.00    +0.0951  A
ATOM      7 C22  LIG L   1       0.118   2.093 -10.737  1.00  0.00    -0.0249  A
ATOM      8 C23  LIG L   1       0.013   3.253 -11.468  1.00  0.00    +0.0837  A
ATOM      9 C24  LIG L   1       1.149   3.920 -11.932  1.00  0.00    +0.2676  A
ATOM     10 O25  LIG L   1       2.255   3.413 -11.652  1.00  0.00    -0.2665 OA
ATOM     11 N26  LIG L   1       0.990   5.050 -12.641  1.00  0.00    -0.2674  N
ATOM     12 C27  LIG L   1       2.139   5.647 -13.061  1.00  0.00    +0.0146  A
ATOM     13 C28  LIG L   1       2.097   6.810 -13.795  1.00  0.00    -0.0447  A
ATOM     14 C29  LIG L   1       0.854   7.368 -14.102  1.00  0.00    -0.0537  A
ATOM     15 C30  LIG L   1      -0.304   6.733 -13.657  1.00  0.00    -0.0047  A
ATOM     16 C32  LIG L   1      -0.223   5.561 -12.919  1.00  0.00    +0.1457  A
ATOM     17 N33  LIG L   1      -1.322   4.914 -12.469  1.00  0.00    -0.2110 NA
ATOM     18 C34  LIG L   1      -1.229   3.777 -11.753  1.00  0.00    +0.1499  A
ATOM     19 H48  LIG L   1       1.104   1.683 -10.517  1.00  0.00    +0.0640  H
ATOM     20 H49  LIG L   1       3.100   5.200 -12.815  1.00  0.00    +0.0814  H
ATOM     21 H50  LIG L   1       3.013   7.285 -14.130  1.00  0.00    +0.0632  H
ATOM     22 H51  LIG L   1       0.804   8.284 -14.683  1.00  0.00    +0.0622  H
ENDROOT
BRANCH 1 23
ATOM     23  C4  LIG L   1      -3.601   3.685 -11.599  1.00  0.00    +0.0500  C
ATOM     24 H41  LIG L   1      -4.355   2.895 -11.735  1.00  0.00    +0.0515  H
ATOM     25 H42  LIG L   1      -3.609   4.152 -12.596  1.00  0.00    +0.0515  H
BRANCH 23 26
ATOM     26  C3  LIG L   1      -4.120   4.672 -10.590  1.00  0.00    +0.0653  C
ATOM     27 H39  LIG L   1      -4.234   4.202  -9.607  1.00  0.00    +0.0577  H
ATOM     28 H40  LIG L   1      -3.440   5.527 -10.491  1.00  0.00    +0.0577  H
BRANCH 26 30
ATOM     29  C1  LIG L   1      -5.992   6.008 -10.279  1.00  0.00    +0.0365  C
ATOM     30  O2  LIG L   1      -5.363   5.091 -11.082  1.00  0.00    -0.3812 OA
ATOM     31 H36  LIG L   1      -6.951   6.284 -10.727  1.00  0.00    +0.0523  H
ATOM     32 H37  LIG L   1      -5.399   6.923 -10.174  1.00  0.00    +0.0523  H
ATOM     33 H38  LIG L   1      -6.196   5.596  -9.284  1.00  0.00    +0.0523  H
ENDBRANCH 26 30
ENDBRANCH 23 26
ENDBRANCH 1 23
BRANCH 4 34
ATOM     34 C10  LIG L   1      -3.920   0.415  -8.060  1.00  0.00    +0.0450  A
ATOM     35 C11  LIG L   1      -5.138   1.094  -7.907  1.00  0.00    -0.0457  A
ATOM     36 C12  LIG L   1      -5.692   1.316  -6.664  1.00  0.00    -0.0154  A
ATOM     37 C13  LIG L   1      -5.045   0.865  -5.525  1.00  0.00    +0.1663  A
ATOM     38 C14  LIG L   1      -3.864   0.208  -5.692  1.00  0.00    +0.1670  A
ATOM     39 C15  LIG L   1      -3.294  -0.023  -6.941  1.00  0.00    -0.0038  A
ATOM     40 O16  LIG L   1      -3.419  -0.139  -4.412  1.00  0.00    -0.4526 OA
ATOM     41 C17  LIG L   1      -4.109   0.685  -3.460  1.00  0.00    +0.2332  C
ATOM     42 O18  LIG L   1      -5.326   0.924  -4.174  1.00  0.00    -0.4526 OA
ATOM     43 H43  LIG L   1      -5.671   1.452  -8.789  1.00  0.00    +0.0626  H
ATOM     44 H44  LIG L   1      -6.640   1.837  -6.565  1.00  0.00    +0.0655  H
ATOM     45 H45  LIG L   1      -2.363  -0.579  -6.994  1.00  0.00    +0.0663  H
ATOM     46 H46  LIG L   1      -4.307   0.122  -2.544  1.00  0.00    +0.1166  H
ATOM     47 H47  LIG L   1      -3.565   1.616  -3.268  1.00  0.00    +0.1166  H
ENDBRANCH 4 34
BRANCH 6 48
ATOM     48 C20  LIG L   1      -0.772   0.239  -9.521  1.00  0.00    +0.1028  C
ATOM     49 N21  LIG L   1      -0.554  -0.716  -8.920  1.00  0.00    -0.1908 NA
ENDBRANCH 6 48
BRANCH 15 50
ATOM     50 C31  LIG L   1      -1.650   7.302 -13.966  1.00  0.00    -0.0271  C
ATOM     51 C35  LIG L   1      -2.338   6.591 -15.126  1.00  0.00    -0.0612  C
ATOM     52 H52  LIG L   1      -2.295   7.273 -13.079  1.00  0.00    +0.0312  H
ATOM     53 H53  LIG L   1      -1.560   8.366 -14.222  1.00  0.00    +0.0312  H
ATOM     54 H54  LIG L   1      -3.305   7.061 -15.333  1.00  0.00    +0.0233  H
ATOM     55 H55  LIG L   1      -1.733   6.648 -16.038  1.00  0.00    +0.0233  H
ATOM     56 H56  LIG L   1      -2.520   5.535 -14.904  1.00  0.00    +0.0233  H
ENDBRANCH 15 50
TORSDOF 6
