ROOT
ATOM      1  C8  129 L   1       3.153  -0.533  -0.559  1.00  0.00    +0.1803  C
ATOM      2  C9  129 L   1       3.760  -0.339  -1.742  1.00  0.00    -0.0367  C
ATOM      3 C10  129 L   1       5.008   0.472  -1.882  1.00  0.00    -0.0278  C
ATOM      4 C11  129 L   1       5.616   0.785  -0.521  1.00  0.00    -0.0151  C
ATOM      5 C12  129 L   1       4.509   1.118   0.467  1.00  0.00    +0.0901  C
ATOM      6 O13  129 L   1       3.591   0.031   0.630  1.00  0.00    -0.4869 OA
ATOM      7 H27  129 L   1       3.362  -0.796  -2.645  1.00  0.00    +0.0610  H
ATOM      8 H28  129 L   1       4.765   1.402  -2.409  1.00  0.00    +0.0310  H
ATOM      9 H29  129 L   1       5.739  -0.068  -2.494  1.00  0.00    +0.0310  H
ATOM     10 H30  129 L   1       6.329   1.612  -0.602  1.00  0.00    +0.0301  H
ATOM     11 H31  129 L   1       6.166  -0.095  -0.164  1.00  0.00    +0.0301  H
ATOM     12 H32  129 L   1       4.940   1.331   1.450  1.00  0.00    +0.0696  H
ATOM     13 H33  129 L   1       3.951   2.010   0.155  1.00  0.00    +0.0696  H
ENDROOT
BRANCH 1 15
ATOM     14  N5  129 L   1       1.434  -1.549   0.761  1.00  0.00    -0.3425  N
ATOM     15  C6  129 L   1       1.934  -1.414  -0.507  1.00  0.00    +0.2868  C
ATOM     16  O7  129 L   1       1.433  -1.931  -1.499  1.00  0.00    -0.2643 OA
ATOM     17 H26  129 L   1       1.857  -0.994   1.497  1.00  0.00    +0.1632 HD
BRANCH 14 18
ATOM     18  C4  129 L   1       0.211  -2.255   1.053  1.00  0.00    +0.0786  C
ATOM     19 H24  129 L   1      -0.010  -2.990   0.274  1.00  0.00    +0.0567  H
ATOM     20 H25  129 L   1       0.370  -2.798   1.991  1.00  0.00    +0.0567  H
BRANCH 18 23
ATOM     21  C1  129 L   1      -1.603  -1.071  -1.186  1.00  0.00    +0.0147  C
ATOM     22  N2  129 L   1      -1.671  -0.763   0.218  1.00  0.00    -0.3162  N
ATOM     23  C3  129 L   1      -0.885  -1.267   1.225  1.00  0.00    +0.1526  A
ATOM     24 N14  129 L   1      -1.256  -0.716   2.364  1.00  0.00    -0.1325 NA
ATOM     25 N15  129 L   1      -2.284   0.156   2.106  1.00  0.00    -0.1340 NA
ATOM     26 C16  129 L   1      -2.525   0.126   0.814  1.00  0.00    +0.1364  A
ATOM     27 H21  129 L   1      -0.842  -0.433  -1.641  1.00  0.00    +0.0457  H
ATOM     28 H22  129 L   1      -1.360  -2.127  -1.321  1.00  0.00    +0.0457  H
ATOM     29 H23  129 L   1      -2.572  -0.879  -1.652  1.00  0.00    +0.0457  H
BRANCH 26 30
ATOM     30 C17  129 L   1      -3.606   0.988   0.106  1.00  0.00    +0.0191  C
ATOM     31 C18  129 L   1      -4.945   0.254  -0.161  1.00  0.00    -0.0433  C
ATOM     32 C19  129 L   1      -5.652   1.586   0.164  1.00  0.00    -0.0518  C
ATOM     33 C20  129 L   1      -4.417   1.946   1.016  1.00  0.00    -0.0433  C
ATOM     34 H34  129 L   1      -3.209   1.495  -0.784  1.00  0.00    +0.0379  H
ATOM     35 H35  129 L   1      -5.180  -0.550   0.546  1.00  0.00    +0.0272  H
ATOM     36 H36  129 L   1      -5.089  -0.116  -1.180  1.00  0.00    +0.0272  H
ATOM     37 H37  129 L   1      -5.792   2.236  -0.708  1.00  0.00    +0.0266  H
ATOM     38 H38  129 L   1      -6.598   1.504   0.705  1.00  0.00    +0.0266  H
ATOM     39 H39  129 L   1      -4.513   1.635   2.064  1.00  0.00    +0.0272  H
ATOM     40 H40  129 L   1      -4.116   2.996   0.986  1.00  0.00    +0.0272  H
ENDBRANCH 26 30
ENDBRANCH 18 23
ENDBRANCH 14 18
ENDBRANCH 1 15
TORSDOF 4
