ROOT
ATOM      1 C14  253 L   1      -1.506   0.367  -0.509  1.00  0.00    +0.0062  C
ATOM      2 C15  253 L   1      -3.025   0.092  -0.435  1.00  0.00    -0.0460  C
ATOM      3 C16  253 L   1      -3.533  -0.030   0.999  1.00  0.00    -0.0526  C
ATOM      4 C17  253 L   1      -3.206   1.215   1.817  1.00  0.00    -0.0507  C
ATOM      5 C18  253 L   1      -1.721   1.571   1.755  1.00  0.00    -0.0265  C
ATOM      6 C19  253 L   1      -1.174   1.629   0.324  1.00  0.00    +0.0599  C
ATOM      7 O20  253 L   1      -1.695   2.787  -0.343  1.00  0.00    -0.3914 OA
ATOM      8 H31  253 L   1      -1.284   0.602  -1.559  1.00  0.00    +0.0346  H
ATOM      9 H32  253 L   1      -3.299  -0.803  -0.999  1.00  0.00    +0.0269  H
ATOM     10 H33  253 L   1      -3.561   0.914  -0.928  1.00  0.00    +0.0269  H
ATOM     11 H34  253 L   1      -3.097  -0.914   1.479  1.00  0.00    +0.0265  H
ATOM     12 H35  253 L   1      -4.618  -0.182   0.990  1.00  0.00    +0.0265  H
ATOM     13 H36  253 L   1      -3.501   1.057   2.861  1.00  0.00    +0.0266  H
ATOM     14 H37  253 L   1      -3.804   2.057   1.452  1.00  0.00    +0.0266  H
ATOM     15 H38  253 L   1      -1.161   0.831   2.336  1.00  0.00    +0.0290  H
ATOM     16 H39  253 L   1      -1.576   2.542   2.245  1.00  0.00    +0.0290  H
ATOM     17 H40  253 L   1      -0.092   1.788   0.361  1.00  0.00    +0.0596  H
ATOM     18 H41  253 L   1      -2.658   2.810  -0.230  1.00  0.00    +0.2098 HD
ENDROOT
BRANCH 1 23
ATOM     19  N9  253 L   1       0.805  -0.553  -0.380  1.00  0.00    -0.2912 NA
ATOM     20 C10  253 L   1       1.205  -1.306  -1.609  1.00  0.00    +0.0299  C
ATOM     21 C11  253 L   1      -0.075  -1.925  -2.145  1.00  0.00    -0.0327  C
ATOM     22 C12  253 L   1      -0.888  -2.140  -0.885  1.00  0.00    -0.0298  C
ATOM     23 C13  253 L   1      -0.638  -0.857  -0.080  1.00  0.00    +0.0459  C
ATOM     24 H24  253 L   1       1.655  -0.626  -2.337  1.00  0.00    +0.0495  H
ATOM     25 H25  253 L   1       1.925  -2.099  -1.382  1.00  0.00    +0.0495  H
ATOM     26 H26  253 L   1      -0.585  -1.233  -2.824  1.00  0.00    +0.0283  H
ATOM     27 H27  253 L   1       0.112  -2.855  -2.690  1.00  0.00    +0.0283  H
ATOM     28 H28  253 L   1      -0.482  -2.999  -0.335  1.00  0.00    +0.0286  H
ATOM     29 H29  253 L   1      -1.935  -2.361  -1.093  1.00  0.00    +0.0286  H
ATOM     30 H30  253 L   1      -0.790  -1.070   0.983  1.00  0.00    +0.0535  H
BRANCH 19 32
ATOM     31  O1  253 L   1       1.413   0.154   2.003  1.00  0.00    -0.1970 OA
ATOM     32  S2  253 L   1       1.868  -0.725   0.946  1.00  0.00    +0.2946  S
ATOM     33  O3  253 L   1       2.074  -2.138   1.184  1.00  0.00    -0.1970 OA
BRANCH 32 34
ATOM     34  C4  253 L   1       3.468  -0.076   0.462  1.00  0.00    +0.2381  A
ATOM     35  C5  253 L   1       4.312   0.829   1.099  1.00  0.00    -0.0031  A
ATOM     36  C6  253 L   1       5.456   0.999   0.287  1.00  0.00    -0.0226  A
ATOM     37  C7  253 L   1       5.264   0.194  -0.807  1.00  0.00    +0.0936  A
ATOM     38  O8  253 L   1       4.078  -0.455  -0.720  1.00  0.00    -0.4503 OA
ATOM     39 H21  253 L   1       4.099   1.302   2.049  1.00  0.00    +0.0663  H
ATOM     40 H22  253 L   1       6.315   1.628   0.477  1.00  0.00    +0.0649  H
ATOM     41 H23  253 L   1       5.850  -0.020  -1.690  1.00  0.00    +0.1030  H
ENDBRANCH 32 34
ENDBRANCH 19 32
ENDBRANCH 1 23
TORSDOF 3
