ROOT
ATOM      1  C8  374 L   1      -0.629   0.467  -0.638  1.00  0.00    +0.0525  C
ATOM      2  C9  374 L   1      -0.614   0.550  -2.171  1.00  0.00    -0.0291  C
ATOM      3 C10  374 L   1       0.377  -0.535  -2.572  1.00  0.00    -0.0333  C
ATOM      4 C11  374 L   1       1.446  -0.430  -1.495  1.00  0.00    +0.0220  C
ATOM      5 N12  374 L   1       0.734   0.024  -0.308  1.00  0.00    -0.3311  N
ATOM      6 C13  374 L   1       1.207   0.131   0.984  1.00  0.00    +0.2892  C
ATOM      7 O14  374 L   1       0.464   0.513   1.893  1.00  0.00    -0.2640 OA
ATOM      8 H30  374 L   1      -0.779   1.467  -0.213  1.00  0.00    +0.0543  H
ATOM      9 H31  374 L   1      -1.592   0.420  -2.639  1.00  0.00    +0.0286  H
ATOM     10 H32  374 L   1      -0.222   1.527  -2.481  1.00  0.00    +0.0286  H
ATOM     11 H33  374 L   1      -0.106  -1.518  -2.532  1.00  0.00    +0.0283  H
ATOM     12 H34  374 L   1       0.781  -0.394  -3.578  1.00  0.00    +0.0283  H
ATOM     13 H35  374 L   1       1.941  -1.389  -1.315  1.00  0.00    +0.0489  H
ATOM     14 H36  374 L   1       2.187   0.331  -1.762  1.00  0.00    +0.0489  H
ENDROOT
BRANCH 1 15
ATOM     15  C7  374 L   1      -1.692  -0.500  -0.094  1.00  0.00    +0.0639  C
ATOM     16 H28  374 L   1      -1.485  -0.796   0.940  1.00  0.00    +0.0530  H
ATOM     17 H29  374 L   1      -1.727  -1.430  -0.674  1.00  0.00    +0.0530  H
BRANCH 15 23
ATOM     18  C1  374 L   1      -6.158   0.603  -1.591  1.00  0.00    -0.0028  C
ATOM     19  C2  374 L   1      -4.935   0.540  -0.768  1.00  0.00    +0.1482  A
ATOM     20  N3  374 L   1      -4.829   1.172   0.442  1.00  0.00    -0.2166 NA
ATOM     21  C4  374 L   1      -3.615   0.864   0.848  1.00  0.00    +0.1250  A
ATOM     22  C5  374 L   1      -2.968   1.280   2.114  1.00  0.00    -0.0049  C
ATOM     23  N6  374 L   1      -3.017   0.082  -0.105  1.00  0.00    -0.2472  N
ATOM     24 N21  374 L   1      -3.846  -0.140  -1.143  1.00  0.00    -0.1550 NA
ATOM     25 H22  374 L   1      -6.628  -0.383  -1.652  1.00  0.00    +0.0309  H
ATOM     26 H23  374 L   1      -6.883   1.300  -1.162  1.00  0.00    +0.0309  H
ATOM     27 H24  374 L   1      -5.924   0.939  -2.606  1.00  0.00    +0.0309  H
ATOM     28 H25  374 L   1      -2.675   0.410   2.709  1.00  0.00    +0.0308  H
ATOM     29 H26  374 L   1      -2.080   1.889   1.916  1.00  0.00    +0.0308  H
ATOM     30 H27  374 L   1      -3.658   1.881   2.715  1.00  0.00    +0.0308  H
ENDBRANCH 15 23
ENDBRANCH 1 15
BRANCH 6 31
ATOM     31 C15  374 L   1       2.645  -0.237   1.279  1.00  0.00    +0.1805  C
ATOM     32 C16  374 L   1       2.968  -0.486   2.562  1.00  0.00    -0.0367  C
ATOM     33 C17  374 L   1       4.339  -0.898   2.990  1.00  0.00    -0.0278  C
ATOM     34 C18  374 L   1       5.210  -1.243   1.789  1.00  0.00    -0.0151  C
ATOM     35 C19  374 L   1       4.937  -0.253   0.668  1.00  0.00    +0.0901  C
ATOM     36 O20  374 L   1       3.569  -0.287   0.250  1.00  0.00    -0.4869 OA
ATOM     37 H37  374 L   1       2.216  -0.408   3.344  1.00  0.00    +0.0610  H
ATOM     38 H38  374 L   1       4.790  -0.076   3.557  1.00  0.00    +0.0310  H
ATOM     39 H39  374 L   1       4.279  -1.762   3.660  1.00  0.00    +0.0310  H
ATOM     40 H40  374 L   1       4.962  -2.255   1.447  1.00  0.00    +0.0301  H
ATOM     41 H41  374 L   1       6.268  -1.236   2.070  1.00  0.00    +0.0301  H
ATOM     42 H42  374 L   1       5.193   0.771   0.967  1.00  0.00    +0.0696  H
ATOM     43 H43  374 L   1       5.551  -0.502  -0.204  1.00  0.00    +0.0696  H
ENDBRANCH 6 31
TORSDOF 3
