ROOT
ATOM      1  C6  CHE L   1      -1.742   0.996  -0.476  1.00  0.00    +0.0560  A
ATOM      2  C7  CHE L   1      -2.615   2.021  -0.602  1.00  0.00    +0.0110  A
ATOM      3  C8  CHE L   1      -2.821   2.685  -1.908  1.00  0.00    +0.2232  A
ATOM      4  O9  CHE L   1      -3.599   3.624  -2.047  1.00  0.00    -0.2839 OA
ATOM      5 C10  CHE L   1      -2.058   2.170  -3.070  1.00  0.00    +0.1804  A
ATOM      6 O11  CHE L   1      -2.236   2.750  -4.307  1.00  0.00    -0.5022 OA
ATOM      7 C12  CHE L   1      -1.201   1.171  -2.843  1.00  0.00    +0.0554  A
ATOM      8 N13  CHE L   1      -0.978   0.569  -1.604  1.00  0.00    -0.3139  N
ATOM      9 H35  CHE L   1      -3.230   2.409   0.197  1.00  0.00    +0.0675  H
ATOM     10 H36  CHE L   1      -2.899   3.457  -4.159  1.00  0.00    +0.2923 HD
ATOM     11 H37  CHE L   1      -0.592   0.792  -3.660  1.00  0.00    +0.0851  H
ENDROOT
BRANCH 1 12
ATOM     12  C4  CHE L   1      -1.597   0.248   0.866  1.00  0.00    +0.0955  C
ATOM     13  O5  CHE L   1      -2.006  -1.109   0.701  1.00  0.00    -0.3857 OA
ATOM     14 H33  CHE L   1      -0.537   0.237   1.137  1.00  0.00    +0.0658  H
ATOM     15 H34  CHE L   1      -1.647  -1.421  -0.146  1.00  0.00    +0.2103 HD
BRANCH 12 16
ATOM     16  C3  CHE L   1      -2.316   0.815   2.113  1.00  0.00    -0.0215  C
ATOM     17 H31  CHE L   1      -2.119   1.892   2.181  1.00  0.00    +0.0294  H
ATOM     18 H32  CHE L   1      -1.850   0.374   3.004  1.00  0.00    +0.0294  H
BRANCH 16 20
ATOM     19  C1  CHE L   1      -4.192  -0.738   2.897  1.00  0.00    -0.0652  C
ATOM     20  C2  CHE L   1      -3.830   0.565   2.195  1.00  0.00    -0.0532  C
ATOM     21 H26  CHE L   1      -3.826  -1.612   2.353  1.00  0.00    +0.0230  H
ATOM     22 H27  CHE L   1      -5.280  -0.829   2.979  1.00  0.00    +0.0230  H
ATOM     23 H28  CHE L   1      -3.777  -0.765   3.910  1.00  0.00    +0.0230  H
ATOM     24 H29  CHE L   1      -4.294   0.580   1.203  1.00  0.00    +0.0264  H
ATOM     25 H30  CHE L   1      -4.281   1.385   2.767  1.00  0.00    +0.0264  H
ENDBRANCH 16 20
ENDBRANCH 12 16
ENDBRANCH 1 12
BRANCH 8 26
ATOM     26 C14  CHE L   1       0.130  -0.330  -1.510  1.00  0.00    +0.0471  A
ATOM     27 C15  CHE L   1       0.123  -1.537  -2.226  1.00  0.00    -0.0378  A
ATOM     28 C16  CHE L   1       1.204  -2.413  -2.149  1.00  0.00    -0.0592  A
ATOM     29 C17  CHE L   1       2.311  -2.088  -1.364  1.00  0.00    -0.0539  A
ATOM     30 C18  CHE L   1       2.360  -0.881  -0.649  1.00  0.00    -0.0159  A
ATOM     31 C25  CHE L   1       1.261  -0.010  -0.741  1.00  0.00    -0.0301  A
ATOM     32 H38  CHE L   1      -0.735  -1.802  -2.840  1.00  0.00    +0.0638  H
ATOM     33 H39  CHE L   1       1.185  -3.351  -2.699  1.00  0.00    +0.0618  H
ATOM     34 H40  CHE L   1       3.141  -2.790  -1.307  1.00  0.00    +0.0624  H
ATOM     35 H46  CHE L   1       1.297   0.948  -0.225  1.00  0.00    +0.0644  H
BRANCH 30 36
ATOM     36 C19  CHE L   1       3.530  -0.534   0.173  1.00  0.00    -0.0178  A
ATOM     37 C20  CHE L   1       3.390  -0.226   1.536  1.00  0.00    -0.0540  A
ATOM     38 C21  CHE L   1       4.501   0.105   2.318  1.00  0.00    -0.0612  A
ATOM     39 C22  CHE L   1       5.771   0.133   1.747  1.00  0.00    -0.0617  A
ATOM     40 C23  CHE L   1       5.931  -0.169   0.397  1.00  0.00    -0.0612  A
ATOM     41 C24  CHE L   1       4.820  -0.501  -0.383  1.00  0.00    -0.0540  A
ATOM     42 H41  CHE L   1       2.409  -0.254   2.005  1.00  0.00    +0.0624  H
ATOM     43 H42  CHE L   1       4.373   0.336   3.372  1.00  0.00    +0.0618  H
ATOM     44 H43  CHE L   1       6.635   0.390   2.354  1.00  0.00    +0.0618  H
ATOM     45 H44  CHE L   1       6.921  -0.146  -0.052  1.00  0.00    +0.0618  H
ATOM     46 H45  CHE L   1       4.967  -0.724  -1.438  1.00  0.00    +0.0624  H
ENDBRANCH 30 36
ENDBRANCH 8 26
TORSDOF 5
