ROOT
ATOM      1  C7  EUB L   1      -1.067   0.134  -0.310  1.00  0.00    +0.0643  C
ATOM      2  C8  EUB L   1      -1.565   0.963   0.884  1.00  0.00    -0.0297  C
ATOM      3  C9  EUB L   1      -2.968   1.512   0.634  1.00  0.00    -0.0510  C
ATOM      4 C10  EUB L   1      -3.965   0.420   0.262  1.00  0.00    -0.0500  C
ATOM      5 C11  EUB L   1      -3.457  -0.448  -0.886  1.00  0.00    -0.0135  C
ATOM      6 C12  EUB L   1      -2.047  -1.031  -0.649  1.00  0.00    +0.1805  C
ATOM      7 O13  EUB L   1      -1.626  -1.600  -1.925  1.00  0.00    -0.3781 OA
ATOM      8 H27  EUB L   1      -1.037   0.772  -1.204  1.00  0.00    +0.0553  H
ATOM      9 H28  EUB L   1      -0.895   1.806   1.083  1.00  0.00    +0.0286  H
ATOM     10 H29  EUB L   1      -1.556   0.365   1.803  1.00  0.00    +0.0286  H
ATOM     11 H30  EUB L   1      -3.321   2.043   1.526  1.00  0.00    +0.0266  H
ATOM     12 H31  EUB L   1      -2.924   2.251  -0.176  1.00  0.00    +0.0266  H
ATOM     13 H32  EUB L   1      -4.179  -0.199   1.139  1.00  0.00    +0.0266  H
ATOM     14 H33  EUB L   1      -4.917   0.882  -0.026  1.00  0.00    +0.0266  H
ATOM     15 H34  EUB L   1      -4.173  -1.256  -1.084  1.00  0.00    +0.0296  H
ATOM     16 H35  EUB L   1      -3.445   0.152  -1.806  1.00  0.00    +0.0296  H
ATOM     17 H36  EUB L   1      -2.159  -2.404  -2.078  1.00  0.00    +0.2106 HD
ENDROOT
BRANCH 1 18
ATOM     18  N6  EUB L   1       0.296  -0.363  -0.058  1.00  0.00    -0.3785  N
ATOM     19 H26  EUB L   1       0.439  -1.306  -0.432  1.00  0.00    +0.1600 HD
BRANCH 18 22
ATOM     20  C3  EUB L   1       3.894   0.475  -0.307  1.00  0.00    +0.1570  A
ATOM     21  C4  EUB L   1       2.692  -0.224  -0.147  1.00  0.00    +0.0059  A
ATOM     22  C5  EUB L   1       1.440   0.408  -0.297  1.00  0.00    +0.0392  A
ATOM     23 C18  EUB L   1       1.428   1.781  -0.561  1.00  0.00    -0.0357  A
ATOM     24 C19  EUB L   1       2.619   2.492  -0.725  1.00  0.00    -0.0209  A
ATOM     25 C20  EUB L   1       3.837   1.836  -0.603  1.00  0.00    +0.1649  A
ATOM     26 F21  EUB L   1       4.966   2.543  -0.764  1.00  0.00    -0.2017  F
ATOM     27 H25  EUB L   1       2.699  -1.280   0.106  1.00  0.00    +0.0675  H
ATOM     28 H37  EUB L   1       0.499   2.332  -0.657  1.00  0.00    +0.0639  H
ATOM     29 H38  EUB L   1       2.605   3.555  -0.944  1.00  0.00    +0.0648  H
BRANCH 20 31
ATOM     30  C1  EUB L   1       5.243  -1.438   0.138  1.00  0.00    +0.0789  C
ATOM     31  O2  EUB L   1       5.150  -0.059  -0.194  1.00  0.00    -0.4922 OA
ATOM     32 H22  EUB L   1       4.797  -1.639   1.118  1.00  0.00    +0.0660  H
ATOM     33 H23  EUB L   1       4.790  -2.062  -0.640  1.00  0.00    +0.0660  H
ATOM     34 H24  EUB L   1       6.304  -1.697   0.196  1.00  0.00    +0.0660  H
ENDBRANCH 20 31
ENDBRANCH 18 22
ENDBRANCH 1 18
BRANCH 6 35
ATOM     35 C14  EUB L   1      -2.082  -2.140   0.429  1.00  0.00    +0.4201  C
ATOM     36 F15  EUB L   1      -2.492  -1.719   1.640  1.00  0.00    -0.1676  F
ATOM     37 F16  EUB L   1      -2.944  -3.116   0.035  1.00  0.00    -0.1676  F
ATOM     38 F17  EUB L   1      -0.879  -2.740   0.580  1.00  0.00    -0.1676  F
ENDBRANCH 6 35
TORSDOF 4
