ROOT
ATOM      1 C30  WH0 L   1      -0.234   1.807  -0.142  1.00  0.00    -0.0133  A
ATOM      2 C31  WH0 L   1       0.390   2.252   1.047  1.00  0.00    -0.0519  A
ATOM      3 C32  WH0 L   1       0.849   3.574   1.158  1.00  0.00    -0.0374  A
ATOM      4 C33  WH0 L   1       0.660   4.431   0.077  1.00  0.00    +0.0454  A
ATOM      5 C34  WH0 L   1       0.031   4.013  -1.077  1.00  0.00    -0.0145  A
ATOM      6 C35  WH0 L   1      -0.440   2.707  -1.207  1.00  0.00    -0.0483  A
ATOM      7 C36  WH0 L   1      -0.056   5.129  -2.067  1.00  0.00    +0.0535  C
ATOM      8 C37  WH0 L   1       0.614   6.218  -1.282  1.00  0.00    +0.2296  C
ATOM      9 O38  WH0 L   1       0.784   7.391  -1.706  1.00  0.00    -0.2725 OA
ATOM     10 N39  WH0 L   1       1.043   5.792   0.008  1.00  0.00    -0.3256  N
ATOM     11 H64  WH0 L   1       0.517   1.573   1.882  1.00  0.00    +0.0624  H
ATOM     12 H65  WH0 L   1       1.330   3.921   2.064  1.00  0.00    +0.0638  H
ATOM     13 H66  WH0 L   1      -0.953   2.397  -2.109  1.00  0.00    +0.0627  H
ATOM     14 H67  WH0 L   1      -1.114   5.388  -2.285  1.00  0.00    +0.0410  H
ATOM     15 H68  WH0 L   1       0.517   4.893  -2.988  1.00  0.00    +0.0410  H
ATOM     16 H69  WH0 L   1       1.524   6.360   0.740  1.00  0.00    +0.1686 HD
ENDROOT
BRANCH 1 24
ATOM     17  C9  WH0 L   1       0.745  -0.806  -1.869  1.00  0.00    -0.0030  A
ATOM     18 C10  WH0 L   1       0.872  -2.071  -2.477  1.00  0.00    +0.0366  A
ATOM     19 N11  WH0 L   1       0.013  -3.085  -2.170  1.00  0.00    -0.2204 NA
ATOM     20 C12  WH0 L   1      -0.982  -2.912  -1.260  1.00  0.00    +0.2284  A
ATOM     21 N19  WH0 L   1      -1.130  -1.693  -0.683  1.00  0.00    -0.1984  N
ATOM     22 N20  WH0 L   1      -2.049  -1.362   0.206  1.00  0.00    -0.1627 NA
ATOM     23 C21  WH0 L   1      -1.858  -0.062   0.515  1.00  0.00    +0.1015  A
ATOM     24 C29  WH0 L   1      -0.775   0.440  -0.216  1.00  0.00    +0.0356  A
ATOM     25 C40  WH0 L   1      -0.332  -0.648  -0.969  1.00  0.00    +0.0835  A
ATOM     26 H51  WH0 L   1       1.673  -2.260  -3.179  1.00  0.00    +0.0834  H
BRANCH 17 27
ATOM     27  C8  WH0 L   1       1.796   0.246  -2.133  1.00  0.00    -0.0226  C
ATOM     28 H49  WH0 L   1       2.347   0.017  -3.071  1.00  0.00    +0.0315  H
ATOM     29 H50  WH0 L   1       1.319   1.222  -2.320  1.00  0.00    +0.0315  H
BRANCH 27 30
ATOM     30  C7  WH0 L   1       2.799   0.363  -0.975  1.00  0.00    -0.0314  C
ATOM     31 H47  WH0 L   1       3.406   1.281  -1.129  1.00  0.00    +0.0285  H
ATOM     32 H48  WH0 L   1       2.261   0.474  -0.011  1.00  0.00    +0.0285  H
BRANCH 30 33
ATOM     33  C6  WH0 L   1       3.734  -0.849  -0.889  1.00  0.00    +0.0187  C
ATOM     34 H45  WH0 L   1       3.132  -1.771  -0.744  1.00  0.00    +0.0486  H
ATOM     35 H46  WH0 L   1       4.314  -0.960  -1.831  1.00  0.00    +0.0486  H
BRANCH 33 38
ATOM     36  C3  WH0 L   1       5.746   0.223   0.228  1.00  0.00    +0.2443  C
ATOM     37  O4  WH0 L   1       6.106   0.750  -0.859  1.00  0.00    -0.2683 OA
ATOM     38  N5  WH0 L   1       4.648  -0.704   0.242  1.00  0.00    -0.3525  N
ATOM     39 H44  WH0 L   1       4.528  -1.350   1.053  1.00  0.00    +0.1626 HD
BRANCH 36 41
ATOM     40  C1  WH0 L   1       6.006   0.357   2.680  1.00  0.00    -0.0936  C
ATOM     41  C2  WH0 L   1       6.490   0.559   1.456  1.00  0.00    -0.0047  C
ATOM     42 H41  WH0 L   1       5.027  -0.072   2.850  1.00  0.00    +0.0536  H
ATOM     43 H42  WH0 L   1       6.590   0.647   3.545  1.00  0.00    +0.0536  H
ATOM     44 H43  WH0 L   1       7.453   1.045   1.355  1.00  0.00    +0.0666  H
ENDBRANCH 36 41
ENDBRANCH 33 38
ENDBRANCH 30 33
ENDBRANCH 27 30
ENDBRANCH 17 27
BRANCH 20 45
ATOM     45 N13  WH0 L   1      -1.851  -4.003  -0.922  1.00  0.00    -0.3359  N
ATOM     46 C14  WH0 L   1      -1.836  -4.542   0.440  1.00  0.00    +0.0449  C
ATOM     47 C15  WH0 L   1      -3.168  -5.237   0.730  1.00  0.00    +0.0653  C
ATOM     48 O16  WH0 L   1      -3.465  -6.188  -0.276  1.00  0.00    -0.3763 OA
ATOM     49 C17  WH0 L   1      -3.674  -5.528  -1.512  1.00  0.00    +0.0653  C
ATOM     50 C18  WH0 L   1      -2.386  -4.849  -1.991  1.00  0.00    +0.0449  C
ATOM     51 H52  WH0 L   1      -1.006  -5.276   0.533  1.00  0.00    +0.0511  H
ATOM     52 H53  WH0 L   1      -1.673  -3.737   1.189  1.00  0.00    +0.0511  H
ATOM     53 H54  WH0 L   1      -3.091  -5.765   1.704  1.00  0.00    +0.0577  H
ATOM     54 H55  WH0 L   1      -3.986  -4.487   0.831  1.00  0.00    +0.0577  H
ATOM     55 H56  WH0 L   1      -3.985  -6.279  -2.266  1.00  0.00    +0.0577  H
ATOM     56 H57  WH0 L   1      -4.502  -4.786  -1.435  1.00  0.00    +0.0577  H
ATOM     57 H58  WH0 L   1      -2.618  -4.233  -2.889  1.00  0.00    +0.0511  H
ATOM     58 H59  WH0 L   1      -1.633  -5.619  -2.267  1.00  0.00    +0.0511  H
ENDBRANCH 20 45
BRANCH 23 59
ATOM     59 C22  WH0 L   1      -2.702   0.654   1.499  1.00  0.00    +0.0029  A
ATOM     60 C23  WH0 L   1      -3.039   2.009   1.332  1.00  0.00    -0.0498  A
ATOM     61 C24  WH0 L   1      -3.844   2.659   2.274  1.00  0.00    -0.0258  A
ATOM     62 C25  WH0 L   1      -4.329   1.960   3.381  1.00  0.00    +0.1234  A
ATOM     63 F26  WH0 L   1      -5.114   2.591   4.290  1.00  0.00    -0.2055  F
ATOM     64 C27  WH0 L   1      -4.019   0.607   3.544  1.00  0.00    -0.0258  A
ATOM     65 C28  WH0 L   1      -3.215  -0.046   2.605  1.00  0.00    -0.0498  A
ATOM     66 H60  WH0 L   1      -2.711   2.563   0.465  1.00  0.00    +0.0625  H
ATOM     67 H61  WH0 L   1      -4.102   3.702   2.137  1.00  0.00    +0.0646  H
ATOM     68 H62  WH0 L   1      -4.406   0.060   4.394  1.00  0.00    +0.0646  H
ATOM     69 H63  WH0 L   1      -2.980  -1.094   2.750  1.00  0.00    +0.0625  H
ENDBRANCH 23 59
ENDBRANCH 1 24
TORSDOF 8
