ROOT
ATOM      1  C8  EUB L   1      -0.786  -1.545   0.398  1.00  0.00    +0.1106  C
ATOM      2  C9  EUB L   1      -1.498  -2.748   1.028  1.00  0.00    -0.0090  C
ATOM      3 C10  EUB L   1      -2.682  -3.267   0.196  1.00  0.00    -0.0218  C
ATOM      4 C11  EUB L   1      -3.991  -2.553   0.548  1.00  0.00    -0.0588  C
ATOM      5 C12  EUB L   1      -2.436  -3.183  -1.286  1.00  0.00    -0.0775  C
ATOM      6 C13  EUB L   1      -1.388  -2.562  -1.856  1.00  0.00    -0.0444  C
ATOM      7 C14  EUB L   1      -1.270  -2.534  -3.300  1.00  0.00    -0.0621  C
ATOM      8 C15  EUB L   1      -0.327  -1.832  -3.941  1.00  0.00    -0.0806  C
ATOM      9 C16  EUB L   1       0.702  -0.972  -3.251  1.00  0.00    -0.0219  C
ATOM     10 C17  EUB L   1       2.065  -1.648  -3.394  1.00  0.00    -0.0587  C
ATOM     11 C18  EUB L   1       0.261  -0.622  -1.796  1.00  0.00    -0.0247  C
ATOM     12 C29  EUB L   1      -0.296  -1.869  -1.041  1.00  0.00    +0.0243  C
ATOM     13 H39  EUB L   1       0.090  -1.320   1.015  1.00  0.00    +0.0740  H
ATOM     14 H40  EUB L   1      -1.841  -2.497   2.040  1.00  0.00    +0.0307  H
ATOM     15 H41  EUB L   1      -0.767  -3.560   1.136  1.00  0.00    +0.0307  H
ATOM     16 H42  EUB L   1      -2.819  -4.325   0.453  1.00  0.00    +0.0342  H
ATOM     17 H43  EUB L   1      -4.836  -3.007   0.019  1.00  0.00    +0.0235  H
ATOM     18 H44  EUB L   1      -4.196  -2.628   1.621  1.00  0.00    +0.0235  H
ATOM     19 H45  EUB L   1      -3.969  -1.492   0.280  1.00  0.00    +0.0235  H
ATOM     20 H46  EUB L   1      -3.188  -3.662  -1.912  1.00  0.00    +0.0578  H
ATOM     21 H47  EUB L   1      -1.987  -3.105  -3.887  1.00  0.00    +0.0617  H
ATOM     22 H48  EUB L   1      -0.294  -1.865  -5.028  1.00  0.00    +0.0575  H
ATOM     23 H49  EUB L   1       0.748  -0.026  -3.808  1.00  0.00    +0.0343  H
ATOM     24 H50  EUB L   1       2.226  -2.010  -4.417  1.00  0.00    +0.0235  H
ATOM     25 H51  EUB L   1       2.871  -0.937  -3.194  1.00  0.00    +0.0235  H
ATOM     26 H52  EUB L   1       2.170  -2.504  -2.720  1.00  0.00    +0.0235  H
ATOM     27 H53  EUB L   1      -0.597   0.057  -1.933  1.00  0.00    +0.0313  H
ATOM     28 H65  EUB L   1       0.518  -2.602  -0.949  1.00  0.00    +0.0388  H
ENDROOT
BRANCH 1 29
ATOM     29  O7  EUB L   1      -1.669  -0.405   0.380  1.00  0.00    -0.4605 OA
BRANCH 29 30
ATOM     30  C5  EUB L   1      -1.602   0.442   1.446  1.00  0.00    +0.3102  C
ATOM     31  O6  EUB L   1      -0.855   0.306   2.406  1.00  0.00    -0.2505 OA
BRANCH 30 32
ATOM     32  C3  EUB L   1      -2.583   1.588   1.258  1.00  0.00    +0.0534  C
ATOM     33  C4  EUB L   1      -2.791   2.323   2.583  1.00  0.00    -0.0523  C
ATOM     34 H35  EUB L   1      -3.547   1.144   0.972  1.00  0.00    +0.0410  H
ATOM     35 H36  EUB L   1      -1.891   2.875   2.878  1.00  0.00    +0.0238  H
ATOM     36 H37  EUB L   1      -3.026   1.617   3.388  1.00  0.00    +0.0238  H
ATOM     37 H38  EUB L   1      -3.621   3.033   2.516  1.00  0.00    +0.0238  H
BRANCH 32 39
ATOM     38  C1  EUB L   1      -3.022   3.661  -0.179  1.00  0.00    -0.0645  C
ATOM     39  C2  EUB L   1      -2.075   2.513   0.141  1.00  0.00    -0.0432  C
ATOM     40 H30  EUB L   1      -4.034   3.291  -0.379  1.00  0.00    +0.0230  H
ATOM     41 H31  EUB L   1      -3.070   4.381   0.644  1.00  0.00    +0.0230  H
ATOM     42 H32  EUB L   1      -2.676   4.198  -1.069  1.00  0.00    +0.0230  H
ATOM     43 H33  EUB L   1      -1.921   1.933  -0.777  1.00  0.00    +0.0270  H
ATOM     44 H34  EUB L   1      -1.091   2.919   0.410  1.00  0.00    +0.0270  H
ENDBRANCH 32 39
ENDBRANCH 30 32
ENDBRANCH 29 30
ENDBRANCH 1 29
BRANCH 11 45
ATOM     45 C19  EUB L   1       1.297   0.228  -1.016  1.00  0.00    -0.0457  C
ATOM     46 H54  EUB L   1       0.745   0.790  -0.256  1.00  0.00    +0.0269  H
ATOM     47 H55  EUB L   1       1.703   0.988  -1.696  1.00  0.00    +0.0269  H
BRANCH 45 48
ATOM     48 C20  EUB L   1       2.462  -0.507  -0.331  1.00  0.00    -0.0153  C
ATOM     49 H56  EUB L   1       2.113  -1.367   0.248  1.00  0.00    +0.0301  H
ATOM     50 H57  EUB L   1       3.131  -0.905  -1.097  1.00  0.00    +0.0301  H
BRANCH 48 51
ATOM     51 C21  EUB L   1       3.317   0.391   0.585  1.00  0.00    +0.1054  C
ATOM     52 C22  EUB L   1       2.590   0.808   1.856  1.00  0.00    +0.0109  C
ATOM     53 C23  EUB L   1       3.507   1.698   2.672  1.00  0.00    +0.0686  C
ATOM     54 O24  EUB L   1       4.627   0.939   3.122  1.00  0.00    -0.3911 OA
ATOM     55 C25  EUB L   1       3.966   2.889   1.856  1.00  0.00    +0.0710  C
ATOM     56 C26  EUB L   1       4.366   2.573   0.437  1.00  0.00    +0.3098  C
ATOM     57 O27  EUB L   1       5.117   3.317  -0.188  1.00  0.00    -0.2507 OA
ATOM     58 O28  EUB L   1       3.755   1.533  -0.174  1.00  0.00    -0.4612 OA
ATOM     59 H58  EUB L   1       4.216  -0.184   0.845  1.00  0.00    +0.0734  H
ATOM     60 H59  EUB L   1       1.679   1.371   1.623  1.00  0.00    +0.0326  H
ATOM     61 H60  EUB L   1       2.308  -0.082   2.431  1.00  0.00    +0.0326  H
ATOM     62 H61  EUB L   1       2.978   2.043   3.567  1.00  0.00    +0.0600  H
ATOM     63 H62  EUB L   1       5.134   1.490   3.745  1.00  0.00    +0.2098 HD
ATOM     64 H63  EUB L   1       4.826   3.361   2.344  1.00  0.00    +0.0403  H
ATOM     65 H64  EUB L   1       3.155   3.624   1.790  1.00  0.00    +0.0403  H
ENDBRANCH 48 51
ENDBRANCH 45 48
ENDBRANCH 11 45
TORSDOF 7
