ROOT
ATOM      1  C1  SEL L   1      -1.357  -2.984  -0.062  1.00  0.00    -0.0124  C
ATOM      2  N2  SEL L   1      -1.876  -1.631   0.148  1.00  0.00    -0.2997 NA
ATOM      3  C3  SEL L   1      -3.185  -1.501  -0.517  1.00  0.00    -0.0010  C
ATOM      4  C4  SEL L   1      -3.817  -0.133  -0.270  1.00  0.00    -0.0391  C
ATOM      5  C5  SEL L   1      -2.874   1.002  -0.662  1.00  0.00    -0.0345  C
ATOM      6  C6  SEL L   1      -1.490   0.847   0.020  1.00  0.00    +0.0863  C
ATOM      7 C10  SEL L   1      -0.534   1.929  -0.527  1.00  0.00    -0.0180  C
ATOM      8 C11  SEL L   1       0.904   1.728  -0.048  1.00  0.00    +0.0198  C
ATOM      9 N12  SEL L   1       1.364   0.389  -0.445  1.00  0.00    -0.3679  N
ATOM     10 C19  SEL L   1       0.553  -0.721   0.101  1.00  0.00    +0.0353  C
ATOM     11 C20  SEL L   1      -0.940  -0.570  -0.324  1.00  0.00    +0.0434  C
ATOM     12 H21  SEL L   1      -0.476  -3.168   0.561  1.00  0.00    +0.0391  H
ATOM     13 H22  SEL L   1      -1.096  -3.168  -1.111  1.00  0.00    +0.0391  H
ATOM     14 H23  SEL L   1      -2.096  -3.734   0.243  1.00  0.00    +0.0391  H
ATOM     15 H24  SEL L   1      -3.088  -1.669  -1.598  1.00  0.00    +0.0426  H
ATOM     16 H25  SEL L   1      -3.874  -2.264  -0.133  1.00  0.00    +0.0426  H
ATOM     17 H26  SEL L   1      -4.746  -0.050  -0.845  1.00  0.00    +0.0278  H
ATOM     18 H27  SEL L   1      -4.094  -0.042   0.788  1.00  0.00    +0.0278  H
ATOM     19 H28  SEL L   1      -2.752   0.997  -1.753  1.00  0.00    +0.0277  H
ATOM     20 H29  SEL L   1      -3.339   1.963  -0.409  1.00  0.00    +0.0277  H
ATOM     21 H31  SEL L   1      -0.871   2.931  -0.229  1.00  0.00    +0.0293  H
ATOM     22 H32  SEL L   1      -0.543   1.908  -1.625  1.00  0.00    +0.0293  H
ATOM     23 H33  SEL L   1       0.979   1.849   1.040  1.00  0.00    +0.0488  H
ATOM     24 H34  SEL L   1       1.512   2.521  -0.499  1.00  0.00    +0.0488  H
ATOM     25 H39  SEL L   1       0.661  -0.790   1.188  1.00  0.00    +0.0503  H
ATOM     26 H40  SEL L   1       0.933  -1.658  -0.324  1.00  0.00    +0.0503  H
ATOM     27 H41  SEL L   1      -0.916  -0.640  -1.424  1.00  0.00    +0.0491  H
ENDROOT
BRANCH 6 28
ATOM     28  C7  SEL L   1      -1.681   1.142   1.509  1.00  0.00    +0.3126  C
ATOM     29  O8  SEL L   1      -2.381   2.036   1.966  1.00  0.00    -0.2503 OA
ATOM     30  O9  SEL L   1      -0.961   0.394   2.358  1.00  0.00    -0.4802 OA
ATOM     31 H30  SEL L   1      -1.236   0.708   3.244  1.00  0.00    +0.2951 HD
ENDBRANCH 6 28
BRANCH 9 32
ATOM     32 C13  SEL L   1       2.763   0.244  -0.379  1.00  0.00    +0.0563  A
ATOM     33 C14  SEL L   1       3.584   1.022  -1.205  1.00  0.00    -0.0356  A
ATOM     34 C15  SEL L   1       4.973   0.892  -1.170  1.00  0.00    -0.0417  A
ATOM     35 C16  SEL L   1       5.522  -0.032  -0.301  1.00  0.00    +0.0277  A
ATOM     36 N17  SEL L   1       4.788  -0.816   0.512  1.00  0.00    -0.2612 NA
ATOM     37 C18  SEL L   1       3.440  -0.661   0.447  1.00  0.00    +0.0507  A
ATOM     38 H35  SEL L   1       3.141   1.723  -1.908  1.00  0.00    +0.0639  H
ATOM     39 H36  SEL L   1       5.605   1.492  -1.814  1.00  0.00    +0.0633  H
ATOM     40 H37  SEL L   1       6.597  -0.173  -0.238  1.00  0.00    +0.0829  H
ATOM     41 H38  SEL L   1       2.906  -1.314   1.130  1.00  0.00    +0.0850  H
ENDBRANCH 9 32
TORSDOF 2
