ROOT
ATOM      1 N11  365 L   1      -0.419  -0.114   0.191  1.00  0.00    -0.2928 NA
ATOM      2 C12  365 L   1       0.381   0.753  -0.679  1.00  0.00    +0.0001  C
ATOM      3 C13  365 L   1       1.495   1.450   0.100  1.00  0.00    -0.0332  C
ATOM      4 C14  365 L   1       2.474   0.440   0.725  1.00  0.00    -0.0106  C
ATOM      5 C20  365 L   1       1.844  -0.955   0.869  1.00  0.00    -0.0332  C
ATOM      6 C21  365 L   1       0.355  -0.856   1.195  1.00  0.00    +0.0001  C
ATOM      7 H31  365 L   1      -0.270   1.519  -1.117  1.00  0.00    +0.0427  H
ATOM      8 H32  365 L   1       0.824   0.195  -1.512  1.00  0.00    +0.0427  H
ATOM      9 H33  365 L   1       1.038   2.046   0.903  1.00  0.00    +0.0283  H
ATOM     10 H34  365 L   1       2.012   2.168  -0.549  1.00  0.00    +0.0283  H
ATOM     11 H35  365 L   1       2.692   0.807   1.739  1.00  0.00    +0.0351  H
ATOM     12 H39  365 L   1       2.362  -1.511   1.660  1.00  0.00    +0.0283  H
ATOM     13 H40  365 L   1       1.971  -1.546  -0.048  1.00  0.00    +0.0283  H
ATOM     14 H41  365 L   1      -0.041  -1.862   1.377  1.00  0.00    +0.0427  H
ATOM     15 H42  365 L   1       0.244  -0.327   2.150  1.00  0.00    +0.0427  H
ENDROOT
BRANCH 1 17
ATOM     16  C1  365 L   1      -0.841  -2.106  -1.317  1.00  0.00    -0.0423  C
ATOM     17  C2  365 L   1      -1.422  -0.907  -0.551  1.00  0.00    +0.0692  C
ATOM     18 H22  365 L   1      -0.403  -2.857  -0.651  1.00  0.00    +0.0249  H
ATOM     19 H23  365 L   1      -0.070  -1.796  -2.029  1.00  0.00    +0.0249  H
ATOM     20 H24  365 L   1      -1.627  -2.608  -1.893  1.00  0.00    +0.0249  H
ATOM     21 H25  365 L   1      -1.877  -0.254  -1.308  1.00  0.00    +0.0541  H
BRANCH 17 22
ATOM     22  C3  365 L   1      -2.539  -1.335   0.351  1.00  0.00    +0.1684  A
ATOM     23  N4  365 L   1      -2.835  -2.552   0.773  1.00  0.00    -0.1118 NA
ATOM     24  N5  365 L   1      -3.937  -2.423   1.583  1.00  0.00    -0.0230 NA
ATOM     25  N6  365 L   1      -4.320  -1.157   1.669  1.00  0.00    -0.0436 NA
ATOM     26  N7  365 L   1      -3.458  -0.479   0.901  1.00  0.00    -0.2246  N
BRANCH 26 27
ATOM     27  C8  365 L   1      -3.504   0.987   0.736  1.00  0.00    +0.0565  C
ATOM     28  C9  365 L   1      -3.967   1.641  -0.546  1.00  0.00    -0.0284  C
ATOM     29 C10  365 L   1      -4.804   1.757   0.693  1.00  0.00    -0.0284  C
ATOM     30 H26  365 L   1      -2.687   1.468   1.267  1.00  0.00    +0.0546  H
ATOM     31 H27  365 L   1      -3.435   2.522  -0.885  1.00  0.00    +0.0286  H
ATOM     32 H28  365 L   1      -4.344   1.014  -1.346  1.00  0.00    +0.0286  H
ATOM     33 H29  365 L   1      -4.841   2.715   1.199  1.00  0.00    +0.0286  H
ATOM     34 H30  365 L   1      -5.736   1.202   0.733  1.00  0.00    +0.0286  H
ENDBRANCH 26 27
ENDBRANCH 17 22
ENDBRANCH 1 17
BRANCH 4 35
ATOM     35 C15  365 L   1       3.782   0.381  -0.009  1.00  0.00    -0.0070  A
ATOM     36 C16  365 L   1       4.028   0.001  -1.351  1.00  0.00    +0.0526  A
ATOM     37 N17  365 L   1       5.319   0.071  -1.679  1.00  0.00    -0.1821 NA
ATOM     38 N18  365 L   1       5.911   0.491  -0.551  1.00  0.00    -0.2845  N
ATOM     39 C19  365 L   1       5.036   0.693   0.476  1.00  0.00    +0.0257  A
ATOM     40 H36  365 L   1       3.319  -0.325  -2.100  1.00  0.00    +0.0850  H
ATOM     41 H37  365 L   1       6.918   0.618  -0.553  1.00  0.00    +0.1882 HD
ATOM     42 H38  365 L   1       5.376   1.033   1.444  1.00  0.00    +0.0826  H
ENDBRANCH 4 35
TORSDOF 4
