ROOT
ATOM      1  C3  SEL L   1      -2.032  -4.570   0.904  1.00  0.00    +0.1635  A
ATOM      2  C4  SEL L   1      -2.709  -3.353   1.051  1.00  0.00    +0.0099  A
ATOM      3  C5  SEL L   1      -2.248  -2.176   0.469  1.00  0.00    +0.0820  A
ATOM      4  N6  SEL L   1      -2.947  -1.053   0.661  1.00  0.00    -0.2121 NA
ATOM      5  C7  SEL L   1      -2.525   0.089   0.098  1.00  0.00    +0.2290  A
ATOM      6 N16  SEL L   1      -1.406   0.141  -0.633  1.00  0.00    -0.1948 NA
ATOM      7 C17  SEL L   1      -0.688  -0.979  -0.802  1.00  0.00    +0.1404  A
ATOM      8 C32  SEL L   1      -1.083  -2.216  -0.288  1.00  0.00    +0.0462  A
ATOM      9 C33  SEL L   1      -0.413  -3.449  -0.487  1.00  0.00    -0.0036  A
ATOM     10 C34  SEL L   1      -0.863  -4.616   0.131  1.00  0.00    +0.1623  A
ATOM     11 H40  SEL L   1      -3.627  -3.288   1.629  1.00  0.00    +0.0677  H
ATOM     12 H70  SEL L   1       0.444  -3.475  -1.151  1.00  0.00    +0.0663  H
ENDROOT
BRANCH 1 14
ATOM     13  C1  SEL L   1      -3.508  -5.712   2.394  1.00  0.00    +0.0790  C
ATOM     14  O2  SEL L   1      -2.432  -5.755   1.469  1.00  0.00    -0.4914 OA
ATOM     15 H37  SEL L   1      -3.625  -6.716   2.815  1.00  0.00    +0.0660  H
ATOM     16 H38  SEL L   1      -4.443  -5.450   1.888  1.00  0.00    +0.0660  H
ATOM     17 H39  SEL L   1      -3.294  -5.029   3.224  1.00  0.00    +0.0660  H
ENDBRANCH 1 14
BRANCH 5 18
ATOM     18  N8  SEL L   1      -3.254   1.275   0.321  1.00  0.00    -0.3390  N
ATOM     19  C9  SEL L   1      -4.652   1.009   0.676  1.00  0.00    +0.0226  C
ATOM     20 C10  SEL L   1      -5.453   2.246   1.086  1.00  0.00    -0.0224  C
ATOM     21 C11  SEL L   1      -5.738   3.186  -0.085  1.00  0.00    +0.0003  C
ATOM     22 N12  SEL L   1      -4.706   4.196  -0.337  1.00  0.00    -0.3036 NA
ATOM     23 C13  SEL L   1      -4.891   4.812  -1.651  1.00  0.00    -0.0127  C
ATOM     24 C14  SEL L   1      -3.323   3.735  -0.134  1.00  0.00    +0.0163  C
ATOM     25 C15  SEL L   1      -2.956   2.331  -0.659  1.00  0.00    +0.0341  C
ATOM     26 H41  SEL L   1      -4.690   0.340   1.547  1.00  0.00    +0.0489  H
ATOM     27 H42  SEL L   1      -5.163   0.497  -0.150  1.00  0.00    +0.0489  H
ATOM     28 H43  SEL L   1      -4.970   2.773   1.920  1.00  0.00    +0.0295  H
ATOM     29 H44  SEL L   1      -6.422   1.897   1.471  1.00  0.00    +0.0295  H
ATOM     30 H45  SEL L   1      -5.937   2.589  -0.985  1.00  0.00    +0.0427  H
ATOM     31 H46  SEL L   1      -6.664   3.728   0.140  1.00  0.00    +0.0427  H
ATOM     32 H47  SEL L   1      -5.913   5.194  -1.761  1.00  0.00    +0.0391  H
ATOM     33 H48  SEL L   1      -4.224   5.673  -1.771  1.00  0.00    +0.0391  H
ATOM     34 H49  SEL L   1      -4.693   4.109  -2.469  1.00  0.00    +0.0391  H
ATOM     35 H50  SEL L   1      -3.098   3.783   0.941  1.00  0.00    +0.0444  H
ATOM     36 H51  SEL L   1      -2.639   4.465  -0.586  1.00  0.00    +0.0444  H
ATOM     37 H52  SEL L   1      -3.439   2.122  -1.622  1.00  0.00    +0.0501  H
ATOM     38 H53  SEL L   1      -1.876   2.390  -0.851  1.00  0.00    +0.0501  H
ENDBRANCH 5 18
BRANCH 7 39
ATOM     39 N18  SEL L   1       0.504  -0.764  -1.506  1.00  0.00    -0.3662  N
ATOM     40 H54  SEL L   1       0.407   0.210  -1.804  1.00  0.00    +0.1613 HD
BRANCH 39 41
ATOM     41 C19  SEL L   1       1.749  -0.908  -0.728  1.00  0.00    +0.0308  C
ATOM     42 C20  SEL L   1       2.921  -0.485  -1.625  1.00  0.00    -0.0198  C
ATOM     43 C21  SEL L   1       4.247  -0.557  -0.865  1.00  0.00    +0.0011  C
ATOM     44 N22  SEL L   1       4.257   0.185   0.405  1.00  0.00    -0.2980 NA
ATOM     45 C30  SEL L   1       3.116  -0.192   1.249  1.00  0.00    +0.0011  C
ATOM     46 C31  SEL L   1       1.761  -0.068   0.553  1.00  0.00    -0.0198  C
ATOM     47 H55  SEL L   1       1.901  -1.959  -0.460  1.00  0.00    +0.0523  H
ATOM     48 H56  SEL L   1       2.760   0.535  -2.005  1.00  0.00    +0.0297  H
ATOM     49 H57  SEL L   1       2.968  -1.135  -2.510  1.00  0.00    +0.0297  H
ATOM     50 H58  SEL L   1       5.064  -0.233  -1.522  1.00  0.00    +0.0427  H
ATOM     51 H59  SEL L   1       4.464  -1.612  -0.641  1.00  0.00    +0.0427  H
ATOM     52 H66  SEL L   1       3.115   0.398   2.175  1.00  0.00    +0.0427  H
ATOM     53 H67  SEL L   1       3.257  -1.234   1.569  1.00  0.00    +0.0427  H
ATOM     54 H68  SEL L   1       0.984  -0.410   1.248  1.00  0.00    +0.0297  H
ATOM     55 H69  SEL L   1       1.535   0.983   0.328  1.00  0.00    +0.0297  H
BRANCH 44 56
ATOM     56 C23  SEL L   1       4.350   1.645   0.237  1.00  0.00    +0.0241  C
ATOM     57 H60  SEL L   1       3.541   2.027  -0.399  1.00  0.00    +0.0476  H
ATOM     58 H61  SEL L   1       4.229   2.134   1.214  1.00  0.00    +0.0476  H
BRANCH 56 59
ATOM     59 C24  SEL L   1       5.693   2.109  -0.284  1.00  0.00    -0.0305  A
ATOM     60 C25  SEL L   1       6.885   1.633   0.274  1.00  0.00    -0.0392  A
ATOM     61 C26  SEL L   1       8.090   2.116  -0.211  1.00  0.00    +0.0278  A
ATOM     62 N27  SEL L   1       8.188   3.041  -1.192  1.00  0.00    -0.2632 NA
ATOM     63 C28  SEL L   1       7.027   3.499  -1.709  1.00  0.00    +0.0278  A
ATOM     64 C29  SEL L   1       5.773   3.073  -1.295  1.00  0.00    -0.0392  A
ATOM     65 H62  SEL L   1       6.875   0.888   1.066  1.00  0.00    +0.0636  H
ATOM     66 H63  SEL L   1       9.036   1.762   0.192  1.00  0.00    +0.0829  H
ATOM     67 H64  SEL L   1       7.134   4.249  -2.490  1.00  0.00    +0.0829  H
ATOM     68 H65  SEL L   1       4.882   3.493  -1.753  1.00  0.00    +0.0636  H
ENDBRANCH 56 59
ENDBRANCH 44 56
ENDBRANCH 39 41
ENDBRANCH 7 39
BRANCH 10 69
ATOM     69 O35  SEL L   1      -0.240  -5.834   0.018  1.00  0.00    -0.4914 OA
ATOM     70 C36  SEL L   1       1.133  -5.816  -0.357  1.00  0.00    +0.0790  C
ATOM     71 H71  SEL L   1       1.553  -6.807  -0.144  1.00  0.00    +0.0660  H
ATOM     72 H72  SEL L   1       1.703  -5.083   0.230  1.00  0.00    +0.0660  H
ATOM     73 H73  SEL L   1       1.237  -5.626  -1.431  1.00  0.00    +0.0660  H
ENDBRANCH 10 69
TORSDOF 7
