ROOT
ATOM      1  C3  MCU L   1      -4.836   2.524  -0.368  1.00  0.00    +0.1615  A
ATOM      2  C4  MCU L   1      -6.187   2.124  -0.387  1.00  0.00    -0.0160  A
ATOM      3  C5  MCU L   1      -6.577   0.895   0.148  1.00  0.00    -0.0549  A
ATOM      4  C6  MCU L   1      -5.627   0.039   0.714  1.00  0.00    -0.0432  A
ATOM      5  C7  MCU L   1      -4.281   0.427   0.737  1.00  0.00    -0.0131  A
ATOM      6  C8  MCU L   1      -3.871   1.658   0.209  1.00  0.00    +0.1629  A
ATOM      7  O9  MCU L   1      -2.499   1.952   0.298  1.00  0.00    -0.4789 OA
ATOM      8 C10  MCU L   1      -1.846   3.132  -0.163  1.00  0.00    +0.1674  C
ATOM      9 C11  MCU L   1      -0.394   3.037   0.180  1.00  0.00    +0.2590  C
ATOM     10 O12  MCU L   1       0.168   3.984   0.795  1.00  0.00    -0.2695 OA
ATOM     11 N13  MCU L   1       0.347   1.863  -0.173  1.00  0.00    -0.3452  N
ATOM     12 C14  MCU L   1       1.561   1.470   0.548  1.00  0.00    +0.0841  C
ATOM     13 C15  MCU L   1       2.799   2.094  -0.116  1.00  0.00    +0.0452  C
ATOM     14 N16  MCU L   1       4.044   1.454   0.340  1.00  0.00    -0.3356  N
ATOM     15 C17  MCU L   1       5.295   1.926  -0.199  1.00  0.00    +0.2631  C
ATOM     16 O18  MCU L   1       5.384   3.109  -0.625  1.00  0.00    -0.2668 OA
ATOM     17 C26  MCU L   1       4.024   0.581   1.525  1.00  0.00    +0.0250  C
ATOM     18 C27  MCU L   1       2.916  -0.487   1.431  1.00  0.00    +0.0040  C
ATOM     19 C28  MCU L   1       1.707  -0.060   0.570  1.00  0.00    +0.1235  C
ATOM     20 O29  MCU L   1       0.497  -0.635   1.069  1.00  0.00    -0.4866 OA
ATOM     21 C30  MCU L   1       0.056  -1.909   0.703  1.00  0.00    +0.1240  A
ATOM     22 C31  MCU L   1       0.775  -3.059   1.058  1.00  0.00    +0.0153  A
ATOM     23 C32  MCU L   1       0.312  -4.321   0.679  1.00  0.00    +0.1272  A
ATOM     24 F33  MCU L   1       1.007  -5.430   1.030  1.00  0.00    -0.2054  F
ATOM     25 C34  MCU L   1      -0.869  -4.443  -0.060  1.00  0.00    -0.0214  A
ATOM     26 C35  MCU L   1      -1.593  -3.298  -0.426  1.00  0.00    -0.0221  A
ATOM     27 C36  MCU L   1      -1.134  -2.034  -0.024  1.00  0.00    -0.0149  A
ATOM     28 C37  MCU L   1      -2.857  -3.417  -1.232  1.00  0.00    +0.0436  C
ATOM     29 N38  MCU L   1      -4.022  -3.215  -0.373  1.00  0.00    -0.3520  N
ATOM     30 C39  MCU L   1      -5.178  -2.484  -0.803  1.00  0.00    +0.2215  C
ATOM     31 O40  MCU L   1      -5.207  -1.946  -1.944  1.00  0.00    -0.2732 OA
ATOM     32 C41  MCU L   1      -6.348  -2.307   0.122  1.00  0.00    +0.0301  C
ATOM     33 C42  MCU L   1      -6.039  -1.311   1.249  1.00  0.00    -0.0191  C
ATOM     34 H46  MCU L   1      -6.951   2.756  -0.819  1.00  0.00    +0.0655  H
ATOM     35 H47  MCU L   1      -7.621   0.608   0.114  1.00  0.00    +0.0621  H
ATOM     36 H48  MCU L   1      -3.539  -0.234   1.169  1.00  0.00    +0.0658  H
ATOM     37 H49  MCU L   1      -2.286   4.023   0.335  1.00  0.00    +0.0797  H
ATOM     38 H50  MCU L   1      -1.951   3.218  -1.267  1.00  0.00    +0.0797  H
ATOM     39 H51  MCU L   1      -0.079   1.198  -0.859  1.00  0.00    +0.1629 HD
ATOM     40 H52  MCU L   1       1.490   1.825   1.602  1.00  0.00    +0.0577  H
ATOM     41 H53  MCU L   1       2.829   3.182   0.112  1.00  0.00    +0.0510  H
ATOM     42 H54  MCU L   1       2.720   1.971  -1.220  1.00  0.00    +0.0510  H
ATOM     43 H61  MCU L   1       5.000   0.076   1.680  1.00  0.00    +0.0490  H
ATOM     44 H62  MCU L   1       3.844   1.213   2.422  1.00  0.00    +0.0490  H
ATOM     45 H63  MCU L   1       3.346  -1.417   1.003  1.00  0.00    +0.0319  H
ATOM     46 H64  MCU L   1       2.577  -0.726   2.462  1.00  0.00    +0.0319  H
ATOM     47 H65  MCU L   1       1.868  -0.406  -0.478  1.00  0.00    +0.0755  H
ATOM     48 H66  MCU L   1       1.678  -2.982   1.647  1.00  0.00    +0.0683  H
ATOM     49 H67  MCU L   1      -1.213  -5.428  -0.350  1.00  0.00    +0.0649  H
ATOM     50 H68  MCU L   1      -1.685  -1.142  -0.298  1.00  0.00    +0.0657  H
ATOM     51 H69  MCU L   1      -2.830  -2.663  -2.048  1.00  0.00    +0.0536  H
ATOM     52 H70  MCU L   1      -2.928  -4.418  -1.708  1.00  0.00    +0.0536  H
ATOM     53 H71  MCU L   1      -4.063  -3.721   0.541  1.00  0.00    +0.1626 HD
ATOM     54 H72  MCU L   1      -6.608  -3.291   0.569  1.00  0.00    +0.0364  H
ATOM     55 H73  MCU L   1      -7.233  -1.957  -0.452  1.00  0.00    +0.0364  H
ATOM     56 H74  MCU L   1      -6.945  -1.190   1.881  1.00  0.00    +0.0318  H
ATOM     57 H75  MCU L   1      -5.245  -1.733   1.904  1.00  0.00    +0.0318  H
ENDROOT
BRANCH 1 59
ATOM     58  C1  MCU L   1      -5.321   4.716  -1.484  1.00  0.00    +0.0790  C
ATOM     59  O2  MCU L   1      -4.439   3.757  -0.909  1.00  0.00    -0.4915 OA
ATOM     60 H43  MCU L   1      -6.065   5.050  -0.732  1.00  0.00    +0.0660  H
ATOM     61 H44  MCU L   1      -5.834   4.283  -2.369  1.00  0.00    +0.0660  H
ATOM     62 H45  MCU L   1      -4.731   5.596  -1.814  1.00  0.00    +0.0660  H
ENDBRANCH 1 59
BRANCH 15 63
ATOM     63 C19  MCU L   1       6.496   1.071  -0.250  1.00  0.00    +0.0989  A
ATOM     64 S20  MCU L   1       8.045   1.608   0.128  1.00  0.00    -0.0673  S
ATOM     65 C21  MCU L   1       8.758   0.121  -0.195  1.00  0.00    +0.0762  A
ATOM     66 C22  MCU L   1      10.222  -0.152  -0.135  1.00  0.00    -0.0159  C
ATOM     67 N23  MCU L   1       7.850  -0.779  -0.633  1.00  0.00    -0.2487 NA
ATOM     68 C24  MCU L   1       6.591  -0.265  -0.669  1.00  0.00    +0.0580  A
ATOM     69 C25  MCU L   1       5.450  -1.089  -1.177  1.00  0.00    -0.0211  C
ATOM     70 H55  MCU L   1      10.399  -1.218   0.120  1.00  0.00    +0.0298  H
ATOM     71 H56  MCU L   1      10.680   0.069  -1.121  1.00  0.00    +0.0298  H
ATOM     72 H57  MCU L   1      10.696   0.487   0.638  1.00  0.00    +0.0298  H
ATOM     73 H58  MCU L   1       5.199  -1.869  -0.429  1.00  0.00    +0.0293  H
ATOM     74 H59  MCU L   1       5.751  -1.589  -2.121  1.00  0.00    +0.0293  H
ATOM     75 H60  MCU L   1       4.554  -0.471  -1.389  1.00  0.00    +0.0293  H
ENDBRANCH 15 63
TORSDOF 2
