ROOT
ATOM      1 C10  CHE L   1       2.026  -0.821   0.964  1.00  0.00    -0.0301  A
ATOM      2 C11  CHE L   1       1.648   0.182   1.867  1.00  0.00    -0.0571  A
ATOM      3 C12  CHE L   1       2.544   1.189   2.215  1.00  0.00    -0.0580  A
ATOM      4 C13  CHE L   1       3.824   1.203   1.662  1.00  0.00    -0.0196  A
ATOM      5 C14  CHE L   1       4.221   0.216   0.755  1.00  0.00    +0.1303  A
ATOM      6 C20  CHE L   1       3.319  -0.793   0.410  1.00  0.00    -0.0152  A
ATOM      7 H36  CHE L   1       0.651   0.182   2.302  1.00  0.00    +0.0621  H
ATOM      8 H37  CHE L   1       2.248   1.962   2.919  1.00  0.00    +0.0619  H
ATOM      9 H38  CHE L   1       4.517   1.992   1.942  1.00  0.00    +0.0654  H
ATOM     10 H39  CHE L   1       3.587  -1.583  -0.286  1.00  0.00    +0.0657  H
ENDROOT
BRANCH 1 11
ATOM     11  C9  CHE L   1       1.053  -1.915   0.584  1.00  0.00    +0.0217  C
ATOM     12 H34  CHE L   1       1.582  -2.875   0.647  1.00  0.00    +0.0474  H
ATOM     13 H35  CHE L   1       0.246  -1.989   1.323  1.00  0.00    +0.0474  H
BRANCH 11 14
ATOM     14  N8  CHE L   1       0.515  -1.780  -0.772  1.00  0.00    -0.3069 NA
ATOM     15 H33  CHE L   1       1.288  -1.696  -1.431  1.00  0.00    +0.1226 HD
BRANCH 14 18
ATOM     16  N5  CHE L   1      -2.483  -0.606  -1.506  1.00  0.00    -0.2981 NA
ATOM     17  C6  CHE L   1      -1.182  -0.730  -2.215  1.00  0.00    +0.0156  C
ATOM     18  C7  CHE L   1      -0.446  -0.670  -0.857  1.00  0.00    +0.0334  C
ATOM     19 C21  CHE L   1      -1.816  -1.055  -0.255  1.00  0.00    +0.0156  C
ATOM     20 H30  CHE L   1      -1.098  -1.680  -2.759  1.00  0.00    +0.0442  H
ATOM     21 H31  CHE L   1      -0.934   0.073  -2.917  1.00  0.00    +0.0442  H
ATOM     22 H32  CHE L   1      -0.072   0.326  -0.599  1.00  0.00    +0.0486  H
ATOM     23 H40  CHE L   1      -1.967  -2.127  -0.070  1.00  0.00    +0.0442  H
ATOM     24 H41  CHE L   1      -2.077  -0.527   0.667  1.00  0.00    +0.0442  H
BRANCH 16 25
ATOM     25  C4  CHE L   1      -2.895   0.807  -1.427  1.00  0.00    +0.0115  C
ATOM     26 H28  CHE L   1      -3.103   1.136  -2.454  1.00  0.00    +0.0439  H
ATOM     27 H29  CHE L   1      -2.105   1.472  -1.053  1.00  0.00    +0.0439  H
BRANCH 25 28
ATOM     28  C3  CHE L   1      -4.202   1.005  -0.624  1.00  0.00    +0.0084  C
ATOM     29 H26  CHE L   1      -4.794   1.782  -1.124  1.00  0.00    +0.0436  H
ATOM     30 H27  CHE L   1      -4.799   0.084  -0.643  1.00  0.00    +0.0436  H
BRANCH 28 32
ATOM     31  C1  CHE L   1      -5.196   1.567   1.500  1.00  0.00    -0.0157  C
ATOM     32  N2  CHE L   1      -3.947   1.429   0.763  1.00  0.00    -0.3178 NA
ATOM     33 H22  CHE L   1      -5.732   0.613   1.552  1.00  0.00    +0.0388  H
ATOM     34 H23  CHE L   1      -4.981   1.880   2.526  1.00  0.00    +0.0388  H
ATOM     35 H24  CHE L   1      -5.849   2.321   1.047  1.00  0.00    +0.0388  H
ATOM     36 H25  CHE L   1      -3.459   2.323   0.758  1.00  0.00    +0.1217 HD
ENDBRANCH 28 32
ENDBRANCH 25 28
ENDBRANCH 16 25
ENDBRANCH 14 18
ENDBRANCH 11 14
ENDBRANCH 1 11
BRANCH 5 37
ATOM     37 O15  CHE L   1       5.499   0.355   0.294  1.00  0.00    -0.4057 OA
BRANCH 37 38
ATOM     38 C16  CHE L   1       5.963  -0.586  -0.655  1.00  0.00    +0.5752  C
ATOM     39 F17  CHE L   1       7.233  -0.269  -0.995  1.00  0.00    -0.1328  F
ATOM     40 F18  CHE L   1       5.210  -0.560  -1.776  1.00  0.00    -0.1328  F
ATOM     41 F19  CHE L   1       5.965  -1.836  -0.145  1.00  0.00    -0.1328  F
ENDBRANCH 37 38
ENDBRANCH 5 37
TORSDOF 8
