ROOT
ATOM      1 N13  161 L   1       1.462   0.301  -0.235  1.00  0.00    -0.2925 NA
ATOM      2 C14  161 L   1       0.825  -1.040  -0.198  1.00  0.00    +0.0606  C
ATOM      3 C15  161 L   1       1.936  -1.965   0.271  1.00  0.00    +0.1210  C
ATOM      4 F16  161 L   1       1.437  -3.104   0.800  1.00  0.00    -0.2436  F
ATOM      5 C17  161 L   1       2.616  -1.134   1.333  1.00  0.00    +0.0033  C
ATOM      6 C18  161 L   1       2.614   0.278   0.736  1.00  0.00    +0.0661  C
ATOM      7 H30  161 L   1      -0.007  -1.075   0.512  1.00  0.00    +0.0524  H
ATOM      8 H31  161 L   1       0.471  -1.327  -1.191  1.00  0.00    +0.0524  H
ATOM      9 H32  161 L   1       2.622  -2.221  -0.544  1.00  0.00    +0.0670  H
ATOM     10 H33  161 L   1       3.610  -1.514   1.586  1.00  0.00    +0.0314  H
ATOM     11 H34  161 L   1       2.021  -1.157   2.254  1.00  0.00    +0.0314  H
ATOM     12 H35  161 L   1       2.477   0.992   1.558  1.00  0.00    +0.0555  H
ENDROOT
BRANCH 1 14
ATOM     13  O1  161 L   1      -0.377   1.464   1.079  1.00  0.00    -0.2050 OA
ATOM     14  S2  161 L   1       0.443   1.647  -0.096  1.00  0.00    +0.2361  S
ATOM     15  O3  161 L   1       1.304   2.807  -0.206  1.00  0.00    -0.2050 OA
BRANCH 14 16
ATOM     16  C4  161 L   1      -0.584   1.715  -1.584  1.00  0.00    +0.0873  C
ATOM     17  C5  161 L   1      -1.787   2.605  -1.375  1.00  0.00    -0.0261  C
ATOM     18  C6  161 L   1      -1.972   1.140  -1.669  1.00  0.00    +0.0036  C
ATOM     19 H21  161 L   1      -0.028   1.829  -2.505  1.00  0.00    +0.0486  H
ATOM     20 H22  161 L   1      -1.990   2.990  -0.382  1.00  0.00    +0.0284  H
ATOM     21 H23  161 L   1      -2.025   3.316  -2.159  1.00  0.00    +0.0284  H
ATOM     22 H24  161 L   1      -2.313   0.953  -2.691  1.00  0.00    +0.0362  H
BRANCH 18 23
ATOM     23  C7  161 L   1      -2.552   0.139  -0.701  1.00  0.00    -0.0430  A
ATOM     24  C8  161 L   1      -3.212   0.490   0.487  1.00  0.00    -0.0583  A
ATOM     25  C9  161 L   1      -3.758  -0.478   1.339  1.00  0.00    -0.0615  A
ATOM     26 C10  161 L   1      -3.674  -1.826   1.010  1.00  0.00    -0.0617  A
ATOM     27 C11  161 L   1      -3.051  -2.206  -0.173  1.00  0.00    -0.0615  A
ATOM     28 C12  161 L   1      -2.506  -1.233  -1.017  1.00  0.00    -0.0583  A
ATOM     29 H25  161 L   1      -3.296   1.533   0.780  1.00  0.00    +0.0620  H
ATOM     30 H26  161 L   1      -4.244  -0.171   2.261  1.00  0.00    +0.0618  H
ATOM     31 H27  161 L   1      -4.096  -2.576   1.672  1.00  0.00    +0.0618  H
ATOM     32 H28  161 L   1      -2.991  -3.257  -0.443  1.00  0.00    +0.0618  H
ATOM     33 H29  161 L   1      -2.038  -1.555  -1.945  1.00  0.00    +0.0620  H
ENDBRANCH 18 23
ENDBRANCH 14 16
ENDBRANCH 1 14
BRANCH 6 34
ATOM     34 C19  161 L   1       3.908   0.624  -0.014  1.00  0.00    +0.0654  C
ATOM     35 O20  161 L   1       5.035   0.520   0.849  1.00  0.00    -0.3930 OA
ATOM     36 H36  161 L   1       4.064  -0.049  -0.864  1.00  0.00    +0.0578  H
ATOM     37 H37  161 L   1       3.861   1.648  -0.400  1.00  0.00    +0.0578  H
ATOM     38 H38  161 L   1       5.793   0.899   0.371  1.00  0.00    +0.2095 HD
ENDBRANCH 6 34
TORSDOF 4
