ROOT
ATOM      1  C8  676 L   1      -1.028  -0.102  -0.654  1.00  0.00    +0.1127  C
ATOM      2  C9  676 L   1      -1.497  -1.558  -0.589  1.00  0.00    -0.0067  C
ATOM      3 C10  676 L   1      -0.377  -2.233   0.218  1.00  0.00    +0.0250  C
ATOM      4 N11  676 L   1      -0.377  -3.690   0.091  1.00  0.00    -0.3257 NA
ATOM      5 C12  676 L   1       0.885  -1.538  -0.315  1.00  0.00    +0.0375  C
ATOM      6 N13  676 L   1       0.427  -0.217  -0.729  1.00  0.00    -0.3254  N
ATOM      7 C14  676 L   1       1.190   0.841  -1.154  1.00  0.00    +0.2510  C
ATOM      8 O15  676 L   1       0.724   1.908  -1.541  1.00  0.00    -0.2677 OA
ATOM      9 H32  676 L   1      -1.378   0.425  -1.545  1.00  0.00    +0.0624  H
ATOM     10 H33  676 L   1      -2.476  -1.690  -0.121  1.00  0.00    +0.0305  H
ATOM     11 H34  676 L   1      -1.543  -1.974  -1.601  1.00  0.00    +0.0305  H
ATOM     12 H35  676 L   1      -0.499  -1.981   1.281  1.00  0.00    +0.0476  H
ATOM     13 H36  676 L   1      -0.240  -3.968  -0.886  1.00  0.00    +0.1185 HD
ATOM     14 H37  676 L   1      -1.283  -4.064   0.375  1.00  0.00    +0.1185 HD
ATOM     15 H38  676 L   1       1.672  -1.464   0.441  1.00  0.00    +0.0504  H
ATOM     16 H39  676 L   1       1.288  -2.042  -1.204  1.00  0.00    +0.0504  H
ENDROOT
BRANCH 1 18
ATOM     17  N3  676 L   1      -2.802   1.086   0.717  1.00  0.00    -0.3411  N
ATOM     18  C6  676 L   1      -1.471   0.663   0.623  1.00  0.00    +0.2462  C
ATOM     19  O7  676 L   1      -0.683   0.825   1.565  1.00  0.00    -0.2708 OA
BRANCH 17 21
ATOM     20  C1  676 L   1      -5.056   0.264   0.030  1.00  0.00    -0.0474  C
ATOM     21  C2  676 L   1      -3.792   1.018  -0.365  1.00  0.00    +0.0184  C
ATOM     22 H22  676 L   1      -4.825  -0.768   0.311  1.00  0.00    +0.0247  H
ATOM     23 H23  676 L   1      -5.569   0.738   0.877  1.00  0.00    +0.0247  H
ATOM     24 H24  676 L   1      -5.753   0.240  -0.811  1.00  0.00    +0.0247  H
ATOM     25 H25  676 L   1      -3.377   0.537  -1.256  1.00  0.00    +0.0486  H
ATOM     26 H26  676 L   1      -4.039   2.049  -0.653  1.00  0.00    +0.0486  H
ENDBRANCH 17 21
BRANCH 17 27
ATOM     27  C4  676 L   1      -3.181   1.825   1.927  1.00  0.00    +0.0184  C
ATOM     28  C5  676 L   1      -3.477   0.905   3.104  1.00  0.00    -0.0474  C
ATOM     29 H27  676 L   1      -4.056   2.452   1.711  1.00  0.00    +0.0486  H
ATOM     30 H28  676 L   1      -2.367   2.507   2.198  1.00  0.00    +0.0486  H
ATOM     31 H29  676 L   1      -4.283   0.202   2.870  1.00  0.00    +0.0247  H
ATOM     32 H30  676 L   1      -2.596   0.318   3.389  1.00  0.00    +0.0247  H
ATOM     33 H31  676 L   1      -3.782   1.498   3.971  1.00  0.00    +0.0247  H
ENDBRANCH 17 27
ENDBRANCH 1 18
BRANCH 7 34
ATOM     34 C16  676 L   1       2.657   0.626  -1.144  1.00  0.00    +0.0129  C
ATOM     35 C17  676 L   1       3.234   0.063  -2.220  1.00  0.00    -0.0757  C
ATOM     36 C18  676 L   1       4.710  -0.183  -2.306  1.00  0.00    -0.0340  C
ATOM     37 C19  676 L   1       5.416  -0.044  -0.952  1.00  0.00    -0.0493  C
ATOM     38 C20  676 L   1       4.923   1.188  -0.188  1.00  0.00    -0.0486  C
ATOM     39 C21  676 L   1       3.409   1.137   0.053  1.00  0.00    -0.0229  C
ATOM     40 H40  676 L   1       2.631  -0.219  -3.082  1.00  0.00    +0.0576  H
ATOM     41 H41  676 L   1       4.894  -1.186  -2.711  1.00  0.00    +0.0308  H
ATOM     42 H42  676 L   1       5.140   0.535  -3.019  1.00  0.00    +0.0308  H
ATOM     43 H43  676 L   1       5.234  -0.938  -0.343  1.00  0.00    +0.0268  H
ATOM     44 H44  676 L   1       6.499   0.021  -1.107  1.00  0.00    +0.0268  H
ATOM     45 H45  676 L   1       5.174   2.092  -0.757  1.00  0.00    +0.0269  H
ATOM     46 H46  676 L   1       5.442   1.265   0.777  1.00  0.00    +0.0269  H
ATOM     47 H47  676 L   1       3.062   2.149   0.319  1.00  0.00    +0.0315  H
ATOM     48 H48  676 L   1       3.196   0.486   0.911  1.00  0.00    +0.0315  H
ENDBRANCH 7 34
TORSDOF 4
