ROOT
ATOM      1  O1  SEL L   1       8.885  -0.689   0.615  1.00  0.00    -0.5068 OA
ATOM      2  C2  SEL L   1       7.526  -0.595   0.575  1.00  0.00    +0.1170  A
ATOM      3  C3  SEL L   1       6.961   0.671   0.574  1.00  0.00    -0.0182  A
ATOM      4  C4  SEL L   1       5.568   0.813   0.538  1.00  0.00    -0.0350  A
ATOM      5  C5  SEL L   1       4.720  -0.304   0.487  1.00  0.00    +0.0382  A
ATOM      6 C30  SEL L   1       5.330  -1.572   0.501  1.00  0.00    -0.0350  A
ATOM      7 C31  SEL L   1       6.721  -1.724   0.542  1.00  0.00    -0.0182  A
ATOM      8 H32  SEL L   1       9.127  -1.629   0.640  1.00  0.00    +0.2921 HD
ATOM      9 H33  SEL L   1       7.597   1.551   0.605  1.00  0.00    +0.0655  H
ATOM     10 H34  SEL L   1       5.168   1.821   0.532  1.00  0.00    +0.0639  H
ATOM     11 H57  SEL L   1       4.709  -2.465   0.510  1.00  0.00    +0.0639  H
ATOM     12 H58  SEL L   1       7.143  -2.722   0.557  1.00  0.00    +0.0655  H
ENDROOT
BRANCH 5 13
ATOM     13  N6  SEL L   1       3.320  -0.218   0.456  1.00  0.00    -0.3681  N
ATOM     14  C7  SEL L   1       2.716  -0.794  -0.768  1.00  0.00    +0.0314  C
ATOM     15  C8  SEL L   1       1.178  -0.902  -0.620  1.00  0.00    +0.0175  C
ATOM     16  N9  SEL L   1       0.544   0.388  -0.265  1.00  0.00    -0.2857 NA
ATOM     17 C28  SEL L   1       1.159   0.904   0.977  1.00  0.00    +0.0175  C
ATOM     18 C29  SEL L   1       2.694   1.064   0.840  1.00  0.00    +0.0314  C
ATOM     19 H35  SEL L   1       3.099  -1.800  -0.975  1.00  0.00    +0.0500  H
ATOM     20 H36  SEL L   1       2.959  -0.162  -1.633  1.00  0.00    +0.0500  H
ATOM     21 H37  SEL L   1       0.775  -1.261  -1.575  1.00  0.00    +0.0444  H
ATOM     22 H38  SEL L   1       0.959  -1.666   0.137  1.00  0.00    +0.0444  H
ATOM     23 H53  SEL L   1       0.757   1.893   1.224  1.00  0.00    +0.0444  H
ATOM     24 H54  SEL L   1       0.957   0.243   1.828  1.00  0.00    +0.0444  H
ATOM     25 H55  SEL L   1       3.087   1.403   1.806  1.00  0.00    +0.0500  H
ATOM     26 H56  SEL L   1       2.906   1.836   0.088  1.00  0.00    +0.0500  H
BRANCH 16 27
ATOM     27 C10  SEL L   1      -0.936   0.310  -0.247  1.00  0.00    +0.0977  C
ATOM     28 H39  SEL L   1      -1.202  -0.044  -1.255  1.00  0.00    +0.0594  H
BRANCH 27 29
ATOM     29 C11  SEL L   1      -1.571   1.705  -0.153  1.00  0.00    -0.0227  A
ATOM     30 C12  SEL L   1      -1.616   2.520  -1.300  1.00  0.00    -0.0539  A
ATOM     31 C13  SEL L   1      -2.187   3.793  -1.247  1.00  0.00    -0.0261  A
ATOM     32 C14  SEL L   1      -2.707   4.264  -0.049  1.00  0.00    +0.1234  A
ATOM     33 F15  SEL L   1      -3.254   5.485   0.000  1.00  0.00    -0.2055  F
ATOM     34 C16  SEL L   1      -2.662   3.487   1.102  1.00  0.00    -0.0261  A
ATOM     35 C17  SEL L   1      -2.092   2.214   1.054  1.00  0.00    -0.0539  A
ATOM     36 H40  SEL L   1      -1.194   2.168  -2.239  1.00  0.00    +0.0622  H
ATOM     37 H41  SEL L   1      -2.223   4.423  -2.130  1.00  0.00    +0.0646  H
ATOM     38 H42  SEL L   1      -3.063   3.881   2.031  1.00  0.00    +0.0646  H
ATOM     39 H43  SEL L   1      -2.047   1.630   1.973  1.00  0.00    +0.0622  H
ENDBRANCH 27 29
BRANCH 27 40
ATOM     40 C18  SEL L   1      -1.560  -0.691   0.692  1.00  0.00    +0.1732  A
ATOM     41 N19  SEL L   1      -1.083  -1.156   1.833  1.00  0.00    -0.1114 NA
ATOM     42 N20  SEL L   1      -2.005  -2.045   2.314  1.00  0.00    -0.0230 NA
ATOM     43 N21  SEL L   1      -3.044  -2.134   1.501  1.00  0.00    -0.0436 NA
ATOM     44 N22  SEL L   1      -2.790  -1.276   0.497  1.00  0.00    -0.2244  N
BRANCH 44 45
ATOM     45 C23  SEL L   1      -3.744  -1.100  -0.571  1.00  0.00    +0.0564  C
ATOM     46 C24  SEL L   1      -3.849  -2.315  -1.510  1.00  0.00    -0.0304  C
ATOM     47 C25  SEL L   1      -5.340  -2.498  -1.805  1.00  0.00    -0.0511  C
ATOM     48 C26  SEL L   1      -6.010  -1.219  -1.322  1.00  0.00    -0.0511  C
ATOM     49 C27  SEL L   1      -5.181  -0.824  -0.110  1.00  0.00    -0.0304  C
ATOM     50 H44  SEL L   1      -3.423  -0.240  -1.168  1.00  0.00    +0.0546  H
ATOM     51 H45  SEL L   1      -3.294  -2.117  -2.436  1.00  0.00    +0.0286  H
ATOM     52 H46  SEL L   1      -3.431  -3.232  -1.080  1.00  0.00    +0.0286  H
ATOM     53 H47  SEL L   1      -5.724  -3.357  -1.241  1.00  0.00    +0.0266  H
ATOM     54 H48  SEL L   1      -5.529  -2.688  -2.868  1.00  0.00    +0.0266  H
ATOM     55 H49  SEL L   1      -5.946  -0.443  -2.094  1.00  0.00    +0.0266  H
ATOM     56 H50  SEL L   1      -7.066  -1.372  -1.076  1.00  0.00    +0.0266  H
ATOM     57 H51  SEL L   1      -5.465  -1.441   0.751  1.00  0.00    +0.0286  H
ATOM     58 H52  SEL L   1      -5.327   0.225   0.169  1.00  0.00    +0.0286  H
ENDBRANCH 44 45
ENDBRANCH 27 40
ENDBRANCH 16 27
ENDBRANCH 5 13
TORSDOF 5
