ROOT
ATOM      1  C8  275 L   1      -1.528  -1.084  -0.913  1.00  0.00    -0.0052  C
ATOM      2  C9  275 L   1      -2.656  -2.032  -1.366  1.00  0.00    -0.0402  C
ATOM      3 C10  275 L   1      -3.755  -1.266  -2.107  1.00  0.00    +0.0060  C
ATOM      4 C11  275 L   1      -4.145  -0.024  -1.387  1.00  0.00    +0.1096  A
ATOM      5 N12  275 L   1      -5.225   0.703  -1.578  1.00  0.00    -0.2406 NA
ATOM      6 C13  275 L   1      -5.119   1.755  -0.702  1.00  0.00    +0.0457  A
ATOM      7 C14  275 L   1      -3.956   1.671   0.027  1.00  0.00    +0.0243  A
ATOM      8 N15  275 L   1      -3.347   0.538  -0.424  1.00  0.00    -0.3340  N
ATOM      9 C16  275 L   1      -2.097  -0.026   0.049  1.00  0.00    +0.0288  C
ATOM     10 H27  275 L   1      -1.139  -0.571  -1.804  1.00  0.00    +0.0335  H
ATOM     11 H28  275 L   1      -3.086  -2.535  -0.490  1.00  0.00    +0.0273  H
ATOM     12 H29  275 L   1      -2.261  -2.816  -2.022  1.00  0.00    +0.0273  H
ATOM     13 H30  275 L   1      -3.398  -0.991  -3.107  1.00  0.00    +0.0343  H
ATOM     14 H31  275 L   1      -4.629  -1.912  -2.241  1.00  0.00    +0.0343  H
ATOM     15 H32  275 L   1      -5.887   2.515  -0.643  1.00  0.00    +0.0845  H
ATOM     16 H33  275 L   1      -3.536   2.297   0.801  1.00  0.00    +0.0825  H
ATOM     17 H34  275 L   1      -1.395   0.806   0.171  1.00  0.00    +0.0495  H
ATOM     18 H35  275 L   1      -2.312  -0.458   1.034  1.00  0.00    +0.0495  H
ENDROOT
BRANCH 1 19
ATOM     19  C7  275 L   1      -0.388  -1.882  -0.269  1.00  0.00    +0.0228  C
ATOM     20 H25  275 L   1      -0.698  -2.301   0.696  1.00  0.00    +0.0489  H
ATOM     21 H26  275 L   1      -0.101  -2.718  -0.916  1.00  0.00    +0.0489  H
BRANCH 19 24
ATOM     22  C4  275 L   1       1.081  -0.419   1.078  1.00  0.00    +0.2512  C
ATOM     23  O5  275 L   1       0.322  -0.367   2.036  1.00  0.00    -0.2678 OA
ATOM     24  N6  275 L   1       0.811  -1.090  -0.089  1.00  0.00    -0.3518  N
ATOM     25 H24  275 L   1       1.465  -1.014  -0.859  1.00  0.00    +0.1626 HD
BRANCH 22 28
ATOM     26  C1  275 L   1       3.782  -1.721   0.713  1.00  0.00    -0.0065  C
ATOM     27  C2  275 L   1       3.551  -0.242   0.842  1.00  0.00    +0.1029  C
ATOM     28  C3  275 L   1       2.355   0.347   1.048  1.00  0.00    +0.0537  C
ATOM     29 C17  275 L   1       2.216   1.814   1.332  1.00  0.00    -0.0163  C
ATOM     30 C18  275 L   1       3.570   2.453   1.612  1.00  0.00    -0.0144  C
ATOM     31 C19  275 L   1       4.598   1.895   0.643  1.00  0.00    +0.0894  C
ATOM     32 O20  275 L   1       4.736   0.476   0.782  1.00  0.00    -0.4960 OA
ATOM     33 H21  275 L   1       4.650  -2.018   1.312  1.00  0.00    +0.0308  H
ATOM     34 H22  275 L   1       3.984  -1.980  -0.331  1.00  0.00    +0.0308  H
ATOM     35 H23  275 L   1       2.938  -2.321   1.064  1.00  0.00    +0.0308  H
ATOM     36 H36  275 L   1       1.753   2.298   0.463  1.00  0.00    +0.0317  H
ATOM     37 H37  275 L   1       1.557   1.990   2.190  1.00  0.00    +0.0317  H
ATOM     38 H38  275 L   1       3.873   2.218   2.640  1.00  0.00    +0.0301  H
ATOM     39 H39  275 L   1       3.503   3.543   1.525  1.00  0.00    +0.0301  H
ATOM     40 H40  275 L   1       4.335   2.126  -0.397  1.00  0.00    +0.0696  H
ATOM     41 H41  275 L   1       5.578   2.340   0.841  1.00  0.00    +0.0696  H
ENDBRANCH 22 28
ENDBRANCH 19 24
ENDBRANCH 1 19
TORSDOF 3
