ROOT
ATOM      1  C8  367 L   1       0.865  -0.748   0.267  1.00  0.00    +0.2252  C
ATOM      2  O9  367 L   1       1.609  -1.666  -0.076  1.00  0.00    -0.2730 OA
ATOM      3 N10  367 L   1      -0.432  -0.661  -0.191  1.00  0.00    -0.3401  N
ATOM      4 C11  367 L   1      -0.999  -1.672  -1.062  1.00  0.00    +0.0232  C
ATOM      5 C12  367 L   1      -2.491  -1.375  -1.071  1.00  0.00    -0.0111  C
ATOM      6 C13  367 L   1      -2.541   0.149  -0.904  1.00  0.00    +0.0718  C
ATOM      7 C20  367 L   1      -1.398   0.397   0.088  1.00  0.00    +0.0436  C
ATOM      8 H29  367 L   1      -0.559  -1.542  -2.057  1.00  0.00    +0.0489  H
ATOM      9 H30  367 L   1      -0.767  -2.678  -0.700  1.00  0.00    +0.0489  H
ATOM     10 H31  367 L   1      -2.977  -1.873  -0.222  1.00  0.00    +0.0303  H
ATOM     11 H32  367 L   1      -2.974  -1.724  -1.989  1.00  0.00    +0.0303  H
ATOM     12 H33  367 L   1      -2.306   0.629  -1.863  1.00  0.00    +0.0563  H
ATOM     13 H36  367 L   1      -0.939   1.382  -0.042  1.00  0.00    +0.0509  H
ATOM     14 H37  367 L   1      -1.714   0.287   1.132  1.00  0.00    +0.0509  H
ENDROOT
BRANCH 1 15
ATOM     15  C7  367 L   1       1.328   0.373   1.182  1.00  0.00    +0.0437  C
ATOM     16 H27  367 L   1       1.389   1.294   0.591  1.00  0.00    +0.0378  H
ATOM     17 H28  367 L   1       0.585   0.510   1.975  1.00  0.00    +0.0378  H
BRANCH 15 18
ATOM     18  C6  367 L   1       2.677   0.083   1.830  1.00  0.00    +0.0268  C
ATOM     19 H25  367 L   1       2.908   0.870   2.555  1.00  0.00    +0.0491  H
ATOM     20 H26  367 L   1       2.654  -0.870   2.370  1.00  0.00    +0.0491  H
BRANCH 18 23
ATOM     21  C3  367 L   1       5.027   0.383   1.155  1.00  0.00    +0.2443  C
ATOM     22  O4  367 L   1       5.356   0.965   2.182  1.00  0.00    -0.2683 OA
ATOM     23  N5  367 L   1       3.749  -0.008   0.858  1.00  0.00    -0.3520  N
ATOM     24 H24  367 L   1       3.622  -0.712   0.137  1.00  0.00    +0.1626 HD
BRANCH 21 26
ATOM     25  C1  367 L   1       5.842  -0.254  -1.138  1.00  0.00    -0.0936  C
ATOM     26  C2  367 L   1       6.062   0.007   0.157  1.00  0.00    -0.0047  C
ATOM     27 H21  367 L   1       4.856  -0.216  -1.588  1.00  0.00    +0.0536  H
ATOM     28 H22  367 L   1       6.673  -0.494  -1.793  1.00  0.00    +0.0536  H
ATOM     29 H23  367 L   1       7.074   0.009   0.553  1.00  0.00    +0.0666  H
ENDBRANCH 21 26
ENDBRANCH 18 23
ENDBRANCH 15 18
ENDBRANCH 1 15
BRANCH 6 30
ATOM     30 N14  367 L   1      -3.817   0.683  -0.482  1.00  0.00    -0.2652  N
ATOM     31 C15  367 L   1      -5.060   0.243  -0.846  1.00  0.00    +0.0442  A
ATOM     32 C16  367 L   1      -5.955   1.093  -0.245  1.00  0.00    +0.0783  A
ATOM     33 CL17 367 L   1      -7.643   1.054  -0.311  1.00  0.00    -0.0804 Cl
ATOM     34 C18  367 L   1      -5.163   2.029   0.439  1.00  0.00    +0.0677  A
ATOM     35 N19  367 L   1      -3.855   1.793   0.286  1.00  0.00    -0.1778 NA
ATOM     36 H34  367 L   1      -5.208  -0.616  -1.485  1.00  0.00    +0.0841  H
ATOM     37 H35  367 L   1      -5.480   2.874   1.036  1.00  0.00    +0.0863  H
ENDBRANCH 6 30
TORSDOF 5
