ROOT
ATOM      1 C10  WH0 L   1       4.575  -0.715  -1.216  1.00  0.00    +0.0852  C
ATOM      2 C11  WH0 L   1       3.606  -0.485  -2.380  1.00  0.00    -0.0138  C
ATOM      3 C12  WH0 L   1       2.136  -0.533  -1.923  1.00  0.00    +0.0300  C
ATOM      4 C13  WH0 L   1       1.794  -1.951  -1.466  1.00  0.00    +0.1598  C
ATOM      5 O14  WH0 L   1       2.372  -2.948  -1.896  1.00  0.00    -0.2924 OA
ATOM      6 C15  WH0 L   1       0.693  -2.152  -0.501  1.00  0.00    -0.0167  C
ATOM      7 C16  WH0 L   1       0.030  -1.130   0.068  1.00  0.00    -0.0310  C
ATOM      8 C17  WH0 L   1       0.387   0.317  -0.225  1.00  0.00    -0.0107  C
ATOM      9 C18  WH0 L   1      -0.788   0.874  -1.054  1.00  0.00    -0.0453  C
ATOM     10 C19  WH0 L   1      -2.108   0.782  -0.268  1.00  0.00    -0.0439  C
ATOM     11 C20  WH0 L   1      -2.486  -0.651   0.251  1.00  0.00    +0.0038  C
ATOM     12 C21  WH0 L   1      -2.975  -1.464  -0.960  1.00  0.00    -0.0564  C
ATOM     13 C22  WH0 L   1      -3.494  -0.467   1.469  1.00  0.00    -0.0277  C
ATOM     14 C33  WH0 L   1      -2.661  -0.839   2.729  1.00  0.00    -0.0464  C
ATOM     15 C34  WH0 L   1      -1.199  -0.745   2.314  1.00  0.00    -0.0193  C
ATOM     16 C35  WH0 L   1      -1.228  -1.330   0.900  1.00  0.00    +0.0933  C
ATOM     17 O36  WH0 L   1      -1.479  -2.736   1.040  1.00  0.00    -0.3837 OA
ATOM     18 C37  WH0 L   1       1.832   0.516  -0.823  1.00  0.00    -0.0132  C
ATOM     19 C38  WH0 L   1       1.940   1.943  -1.419  1.00  0.00    -0.0583  C
ATOM     20 C39  WH0 L   1       2.871   0.365   0.346  1.00  0.00    -0.0178  C
ATOM     21 C40  WH0 L   1       4.343   0.292  -0.076  1.00  0.00    +0.0819  C
ATOM     22 O41  WH0 L   1       4.792   1.592  -0.454  1.00  0.00    -0.3892 OA
ATOM     23 H52  WH0 L   1       4.428  -1.731  -0.830  1.00  0.00    +0.0622  H
ATOM     24 H53  WH0 L   1       3.794  -1.243  -3.151  1.00  0.00    +0.0298  H
ATOM     25 H54  WH0 L   1       3.829   0.469  -2.874  1.00  0.00    +0.0298  H
ATOM     26 H55  WH0 L   1       1.500  -0.342  -2.798  1.00  0.00    +0.0387  H
ATOM     27 H56  WH0 L   1       0.417  -3.190  -0.353  1.00  0.00    +0.0653  H
ATOM     28 H57  WH0 L   1       0.392   0.872   0.722  1.00  0.00    +0.0352  H
ATOM     29 H58  WH0 L   1      -0.874   0.352  -2.015  1.00  0.00    +0.0271  H
ATOM     30 H59  WH0 L   1      -0.636   1.933  -1.284  1.00  0.00    +0.0271  H
ATOM     31 H60  WH0 L   1      -2.919   1.178  -0.891  1.00  0.00    +0.0272  H
ATOM     32 H61  WH0 L   1      -2.018   1.478   0.578  1.00  0.00    +0.0272  H
ATOM     33 H62  WH0 L   1      -2.220  -1.489  -1.754  1.00  0.00    +0.0236  H
ATOM     34 H63  WH0 L   1      -3.175  -2.509  -0.716  1.00  0.00    +0.0236  H
ATOM     35 H64  WH0 L   1      -3.872  -1.034  -1.405  1.00  0.00    +0.0236  H
ATOM     36 H65  WH0 L   1      -3.675   0.612   1.575  1.00  0.00    +0.0310  H
ATOM     37 H83  WH0 L   1      -2.881  -0.168   3.567  1.00  0.00    +0.0269  H
ATOM     38 H84  WH0 L   1      -2.884  -1.859   3.063  1.00  0.00    +0.0269  H
ATOM     39 H85  WH0 L   1      -0.566  -1.318   3.001  1.00  0.00    +0.0296  H
ATOM     40 H86  WH0 L   1      -0.877   0.300   2.345  1.00  0.00    +0.0296  H
ATOM     41 H87  WH0 L   1      -0.823  -3.091   1.664  1.00  0.00    +0.2106 HD
ATOM     42 H88  WH0 L   1       1.661   2.700  -0.677  1.00  0.00    +0.0235  H
ATOM     43 H89  WH0 L   1       2.943   2.191  -1.771  1.00  0.00    +0.0235  H
ATOM     44 H90  WH0 L   1       1.289   2.062  -2.293  1.00  0.00    +0.0235  H
ATOM     45 H91  WH0 L   1       2.741   1.203   1.044  1.00  0.00    +0.0297  H
ATOM     46 H92  WH0 L   1       2.650  -0.546   0.916  1.00  0.00    +0.0297  H
ATOM     47 H93  WH0 L   1       4.953   0.009   0.790  1.00  0.00    +0.0619  H
ATOM     48 H94  WH0 L   1       5.673   1.465  -0.857  1.00  0.00    +0.2099 HD
ENDROOT
BRANCH 1 49
ATOM     49  O9  WH0 L   1       5.913  -0.572  -1.718  1.00  0.00    -0.3739 OA
BRANCH 49 50
ATOM     50  C8  WH0 L   1       6.813  -1.520  -1.144  1.00  0.00    +0.0497  C
ATOM     51 H50  WH0 L   1       6.775  -1.468  -0.050  1.00  0.00    +0.0560  H
ATOM     52 H51  WH0 L   1       6.508  -2.526  -1.455  1.00  0.00    +0.0560  H
BRANCH 50 53
ATOM     53  C7  WH0 L   1       8.225  -1.249  -1.654  1.00  0.00    -0.0119  C
ATOM     54 H48  WH0 L   1       8.211  -1.227  -2.750  1.00  0.00    +0.0304  H
ATOM     55 H49  WH0 L   1       8.887  -2.066  -1.343  1.00  0.00    +0.0304  H
BRANCH 53 56
ATOM     56  C6  WH0 L   1       8.775   0.084  -1.157  1.00  0.00    +0.0204  C
ATOM     57 H46  WH0 L   1       9.731   0.293  -1.650  1.00  0.00    +0.0487  H
ATOM     58 H47  WH0 L   1       8.095   0.908  -1.399  1.00  0.00    +0.0487  H
BRANCH 56 61
ATOM     59  C3  WH0 L   1       8.829   1.144   1.065  1.00  0.00    +0.2443  C
ATOM     60  O4  WH0 L   1       8.316   2.189   0.688  1.00  0.00    -0.2683 OA
ATOM     61  N5  WH0 L   1       9.051   0.051   0.268  1.00  0.00    -0.3524  N
ATOM     62 H45  WH0 L   1       9.689  -0.657   0.605  1.00  0.00    +0.1626 HD
BRANCH 59 64
ATOM     63  C1  WH0 L   1       9.441  -0.125   3.143  1.00  0.00    -0.0936  C
ATOM     64  C2  WH0 L   1       9.317   1.021   2.462  1.00  0.00    -0.0047  C
ATOM     65 H42  WH0 L   1       9.775  -0.109   4.176  1.00  0.00    +0.0536  H
ATOM     66 H43  WH0 L   1       9.188  -1.091   2.721  1.00  0.00    +0.0536  H
ATOM     67 H44  WH0 L   1       9.519   1.975   2.944  1.00  0.00    +0.0666  H
ENDBRANCH 59 64
ENDBRANCH 56 61
ENDBRANCH 53 56
ENDBRANCH 50 53
ENDBRANCH 49 50
ENDBRANCH 1 49
BRANCH 13 68
ATOM     68 C23  WH0 L   1      -4.911  -1.113   1.580  1.00  0.00    -0.0144  C
ATOM     69 C24  WH0 L   1      -5.054  -2.558   1.107  1.00  0.00    -0.0598  C
ATOM     70 H66  WH0 L   1      -5.100  -1.187   2.664  1.00  0.00    +0.0326  H
ATOM     71 H67  WH0 L   1      -5.199  -2.636   0.028  1.00  0.00    +0.0233  H
ATOM     72 H68  WH0 L   1      -4.188  -3.160   1.394  1.00  0.00    +0.0233  H
ATOM     73 H69  WH0 L   1      -5.931  -3.024   1.571  1.00  0.00    +0.0233  H
BRANCH 68 74
ATOM     74 C25  WH0 L   1      -6.062  -0.185   1.096  1.00  0.00    +0.0582  C
ATOM     75 O26  WH0 L   1      -7.330  -0.753   1.452  1.00  0.00    -0.3915 OA
ATOM     76 H70  WH0 L   1      -5.976   0.754   1.654  1.00  0.00    +0.0596  H
ATOM     77 H71  WH0 L   1      -7.296  -0.959   2.403  1.00  0.00    +0.2098 HD
BRANCH 74 78
ATOM     78 C27  WH0 L   1      -6.086   0.131  -0.400  1.00  0.00    -0.0240  C
ATOM     79 H72  WH0 L   1      -5.192   0.701  -0.670  1.00  0.00    +0.0291  H
ATOM     80 H73  WH0 L   1      -6.054  -0.806  -0.966  1.00  0.00    +0.0291  H
BRANCH 78 81
ATOM     81 C28  WH0 L   1      -7.330   0.882  -0.911  1.00  0.00    -0.0222  C
ATOM     82 H74  WH0 L   1      -8.189   0.202  -0.833  1.00  0.00    +0.0293  H
ATOM     83 H75  WH0 L   1      -7.184   1.063  -1.985  1.00  0.00    +0.0293  H
BRANCH 81 84
ATOM     84 C29  WH0 L   1      -7.681   2.218  -0.222  1.00  0.00    +0.0606  C
ATOM     85 C30  WH0 L   1      -6.512   3.203  -0.240  1.00  0.00    -0.0363  C
ATOM     86 C31  WH0 L   1      -8.897   2.844  -0.911  1.00  0.00    -0.0363  C
ATOM     87 O32  WH0 L   1      -8.046   2.006   1.142  1.00  0.00    -0.3891 OA
ATOM     88 H76  WH0 L   1      -5.669   2.837   0.356  1.00  0.00    +0.0257  H
ATOM     89 H77  WH0 L   1      -6.162   3.393  -1.259  1.00  0.00    +0.0257  H
ATOM     90 H78  WH0 L   1      -6.803   4.159   0.210  1.00  0.00    +0.0257  H
ATOM     91 H79  WH0 L   1      -9.195   3.773  -0.411  1.00  0.00    +0.0257  H
ATOM     92 H80  WH0 L   1      -8.694   3.067  -1.963  1.00  0.00    +0.0257  H
ATOM     93 H81  WH0 L   1      -9.763   2.174  -0.858  1.00  0.00    +0.0257  H
ATOM     94 H82  WH0 L   1      -8.359   1.083   1.226  1.00  0.00    +0.2101 HD
ENDBRANCH 81 84
ENDBRANCH 78 81
ENDBRANCH 74 78
ENDBRANCH 68 74
ENDBRANCH 13 68
TORSDOF 11
