ROOT
ATOM      1 N11  187 L   1      -0.191  -0.600   0.603  1.00  0.00    -0.2951 NA
ATOM      2 C12  187 L   1      -0.190  -0.472  -0.851  1.00  0.00    +0.0021  C
ATOM      3 C13  187 L   1      -1.657  -0.671  -1.183  1.00  0.00    -0.0075  C
ATOM      4 C14  187 L   1      -2.391   0.121  -0.095  1.00  0.00    +0.1065  C
ATOM      5 C15  187 L   1      -2.712   1.549  -0.586  1.00  0.00    +0.0780  C
ATOM      6 O16  187 L   1      -3.487   2.266   0.387  1.00  0.00    -0.3746 OA
ATOM      7 C17  187 L   1      -4.714   1.567   0.636  1.00  0.00    +0.0712  C
ATOM      8 C18  187 L   1      -4.429   0.157   1.146  1.00  0.00    +0.0719  C
ATOM      9 O19  187 L   1      -3.613  -0.573   0.219  1.00  0.00    -0.3675 OA
ATOM     10 C20  187 L   1      -1.379   0.134   1.080  1.00  0.00    +0.0306  C
ATOM     11 H29  187 L   1       0.428  -1.233  -1.338  1.00  0.00    +0.0428  H
ATOM     12 H30  187 L   1       0.144   0.521  -1.175  1.00  0.00    +0.0428  H
ATOM     13 H31  187 L   1      -1.895  -0.330  -2.196  1.00  0.00    +0.0306  H
ATOM     14 H32  187 L   1      -1.920  -1.736  -1.131  1.00  0.00    +0.0306  H
ATOM     15 H33  187 L   1      -3.285   1.523  -1.522  1.00  0.00    +0.0589  H
ATOM     16 H34  187 L   1      -1.799   2.123  -0.775  1.00  0.00    +0.0589  H
ATOM     17 H35  187 L   1      -5.283   2.134   1.379  1.00  0.00    +0.0583  H
ATOM     18 H36  187 L   1      -5.296   1.539  -0.293  1.00  0.00    +0.0583  H
ATOM     19 H37  187 L   1      -3.926   0.192   2.117  1.00  0.00    +0.0583  H
ATOM     20 H38  187 L   1      -5.365  -0.394   1.274  1.00  0.00    +0.0583  H
ATOM     21 H39  187 L   1      -1.120   1.165   1.351  1.00  0.00    +0.0456  H
ATOM     22 H40  187 L   1      -1.766  -0.368   1.971  1.00  0.00    +0.0456  H
ENDROOT
BRANCH 1 23
ATOM     23 C10  187 L   1       1.038  -0.153   1.257  1.00  0.00    +0.0288  C
ATOM     24 H27  187 L   1       0.893  -0.139   2.345  1.00  0.00    +0.0477  H
ATOM     25 H28  187 L   1       1.291   0.873   0.963  1.00  0.00    +0.0477  H
BRANCH 23 31
ATOM     26 CL1  187 L   1       1.236  -3.313   2.365  1.00  0.00    -0.0598 Cl
ATOM     27  C2  187 L   1       2.314  -2.427   1.399  1.00  0.00    +0.1553  A
ATOM     28  N3  187 L   1       3.461  -2.982   0.997  1.00  0.00    -0.1617 NA
ATOM     29  N4  187 L   1       4.051  -2.004   0.296  1.00  0.00    -0.2796  N
ATOM     30  C5  187 L   1       3.321  -0.854   0.247  1.00  0.00    +0.0450  A
ATOM     31  C9  187 L   1       2.160  -1.087   0.961  1.00  0.00    +0.0260  A
ATOM     32 H21  187 L   1       4.960  -2.185  -0.114  1.00  0.00    +0.1886 HD
BRANCH 30 33
ATOM     33  C6  187 L   1       3.752   0.467  -0.433  1.00  0.00    +0.0012  C
ATOM     34  C7  187 L   1       4.608   0.429  -1.671  1.00  0.00    -0.0442  C
ATOM     35  C8  187 L   1       3.163   0.817  -1.772  1.00  0.00    -0.0442  C
ATOM     36 H22  187 L   1       3.933   1.287   0.257  1.00  0.00    +0.0364  H
ATOM     37 H23  187 L   1       4.897  -0.524  -2.100  1.00  0.00    +0.0272  H
ATOM     38 H24  187 L   1       5.351   1.209  -1.796  1.00  0.00    +0.0272  H
ATOM     39 H25  187 L   1       2.492   0.114  -2.252  1.00  0.00    +0.0272  H
ATOM     40 H26  187 L   1       2.927   1.857  -1.965  1.00  0.00    +0.0272  H
ENDBRANCH 30 33
ENDBRANCH 23 31
ENDBRANCH 1 23
TORSDOF 3
