ROOT
ATOM      1  C1  CHE L   1      -2.101  -0.780  -2.098  1.00  0.00    -0.0438  C
ATOM      2  C2  CHE L   1      -1.425  -0.997  -0.745  1.00  0.00    +0.0410  C
ATOM      3  C3  CHE L   1       0.096  -0.926  -0.946  1.00  0.00    -0.0115  C
ATOM      4  C4  CHE L   1       0.847  -1.152   0.368  1.00  0.00    +0.0335  C
ATOM      5 C16  CHE L   1       0.174  -0.438   1.547  1.00  0.00    -0.0141  C
ATOM      6 C17  CHE L   1      -0.788   0.637   1.064  1.00  0.00    +0.0329  C
ATOM      7 N18  CHE L   1      -1.888   0.048   0.243  1.00  0.00    -0.2815 NA
ATOM      8 H28  CHE L   1      -2.008   0.260  -2.428  1.00  0.00    +0.0250  H
ATOM      9 H29  CHE L   1      -3.163  -1.029  -2.063  1.00  0.00    +0.0250  H
ATOM     10 H30  CHE L   1      -1.655  -1.420  -2.867  1.00  0.00    +0.0250  H
ATOM     11 H31  CHE L   1      -1.667  -2.002  -0.381  1.00  0.00    +0.0529  H
ATOM     12 H32  CHE L   1       0.421  -1.679  -1.676  1.00  0.00    +0.0305  H
ATOM     13 H33  CHE L   1       0.370   0.046  -1.379  1.00  0.00    +0.0305  H
ATOM     14 H34  CHE L   1       0.852  -2.228   0.589  1.00  0.00    +0.0524  H
ATOM     15 H42  CHE L   1       0.914   0.004   2.225  1.00  0.00    +0.0302  H
ATOM     16 H43  CHE L   1      -0.383  -1.177   2.136  1.00  0.00    +0.0302  H
ATOM     17 H44  CHE L   1      -1.182   1.191   1.921  1.00  0.00    +0.0496  H
ATOM     18 H45  CHE L   1      -0.266   1.387   0.457  1.00  0.00    +0.0496  H
ENDROOT
BRANCH 4 19
ATOM     19  N5  CHE L   1       2.242  -0.743   0.216  1.00  0.00    -0.3478  N
ATOM     20  C6  CHE L   1       3.236  -1.256   1.040  1.00  0.00    +0.2739  C
ATOM     21  O7  CHE L   1       3.000  -2.134   1.865  1.00  0.00    -0.2658 OA
ATOM     22 H35  CHE L   1       2.433   0.120  -0.273  1.00  0.00    +0.1629 HD
BRANCH 20 23
ATOM     23  C8  CHE L   1       4.565  -0.656   0.858  1.00  0.00    +0.1701  A
ATOM     24  C9  CHE L   1       5.052   0.135  -0.221  1.00  0.00    +0.0132  A
ATOM     25 C10  CHE L   1       6.349   0.429   0.120  1.00  0.00    +0.1411  A
ATOM     26 O14  CHE L   1       6.634  -0.134   1.321  1.00  0.00    -0.3586 OA
ATOM     27 N15  CHE L   1       5.529  -0.819   1.783  1.00  0.00    -0.0732 NA
ATOM     28 H36  CHE L   1       4.542   0.432  -1.125  1.00  0.00    +0.0676  H
BRANCH 25 29
ATOM     29 C11  CHE L   1       7.338   1.272  -0.721  1.00  0.00    +0.0199  C
ATOM     30 C12  CHE L   1       8.808   0.946  -0.660  1.00  0.00    -0.0426  C
ATOM     31 C13  CHE L   1       8.023   0.629  -1.900  1.00  0.00    -0.0426  C
ATOM     32 H37  CHE L   1       7.077   2.322  -0.804  1.00  0.00    +0.0380  H
ATOM     33 H38  CHE L   1       9.511   1.769  -0.697  1.00  0.00    +0.0272  H
ATOM     34 H39  CHE L   1       9.134   0.117  -0.040  1.00  0.00    +0.0272  H
ATOM     35 H40  CHE L   1       8.198   1.238  -2.780  1.00  0.00    +0.0272  H
ATOM     36 H41  CHE L   1       7.824  -0.414  -2.116  1.00  0.00    +0.0272  H
ENDBRANCH 25 29
ENDBRANCH 20 23
ENDBRANCH 4 19
BRANCH 7 37
ATOM     37 S19  CHE L   1      -3.270  -0.361   1.161  1.00  0.00    +0.3198  S
ATOM     38 O20  CHE L   1      -3.540   0.698   2.106  1.00  0.00    -0.1824 OA
ATOM     39 O21  CHE L   1      -3.117  -1.728   1.602  1.00  0.00    -0.1824 OA
BRANCH 37 40
ATOM     40 N22  CHE L   1      -4.475  -0.304  -0.015  1.00  0.00    -0.2820 NA
ATOM     41 C23  CHE L   1      -4.706   1.027  -0.654  1.00  0.00    +0.0432  C
ATOM     42 C24  CHE L   1      -5.551   1.975   0.221  1.00  0.00    +0.0143  C
ATOM     43 N25  CHE L   1      -6.533   1.320   1.105  1.00  0.00    -0.3126 NA
ATOM     44 C26  CHE L   1      -6.933   0.029   0.529  1.00  0.00    +0.0143  C
ATOM     45 C27  CHE L   1      -5.761  -0.964   0.392  1.00  0.00    +0.0432  C
ATOM     46 H46  CHE L   1      -3.760   1.506  -0.924  1.00  0.00    +0.0508  H
ATOM     47 H47  CHE L   1      -5.228   0.841  -1.602  1.00  0.00    +0.0508  H
ATOM     48 H48  CHE L   1      -4.891   2.594   0.841  1.00  0.00    +0.0442  H
ATOM     49 H49  CHE L   1      -6.081   2.676  -0.435  1.00  0.00    +0.0442  H
ATOM     50 H50  CHE L   1      -6.045   1.132   1.987  1.00  0.00    +0.1221 HD
ATOM     51 H51  CHE L   1      -7.712  -0.419   1.156  1.00  0.00    +0.0442  H
ATOM     52 H52  CHE L   1      -7.396   0.197  -0.451  1.00  0.00    +0.0442  H
ATOM     53 H53  CHE L   1      -5.639  -1.492   1.344  1.00  0.00    +0.0508  H
ATOM     54 H54  CHE L   1      -6.005  -1.725  -0.360  1.00  0.00    +0.0508  H
ENDBRANCH 37 40
ENDBRANCH 7 37
TORSDOF 5
