ROOT
ATOM      1  C3  CHE L   1      -6.181   1.112   0.306  1.00  0.00    +0.0074  C
ATOM      2  C4  CHE L   1      -5.022   1.189   1.319  1.00  0.00    -0.0373  C
ATOM      3  C5  CHE L   1      -3.912   0.173   1.039  1.00  0.00    -0.0478  C
ATOM      4  C6  CHE L   1      -3.645  -0.049  -0.455  1.00  0.00    -0.0256  C
ATOM      5 C28  CHE L   1      -4.934  -0.560  -1.148  1.00  0.00    -0.0478  C
ATOM      6 C29  CHE L   1      -6.236  -0.254  -0.391  1.00  0.00    -0.0373  C
ATOM      7 H34  CHE L   1      -5.957   1.850  -0.479  1.00  0.00    +0.0460  H
ATOM      8 H35  CHE L   1      -4.606   2.204   1.307  1.00  0.00    +0.0280  H
ATOM      9 H36  CHE L   1      -5.365   1.026   2.346  1.00  0.00    +0.0280  H
ATOM     10 H37  CHE L   1      -3.005   0.458   1.580  1.00  0.00    +0.0269  H
ATOM     11 H38  CHE L   1      -4.211  -0.791   1.480  1.00  0.00    +0.0269  H
ATOM     12 H39  CHE L   1      -2.903  -0.851  -0.548  1.00  0.00    +0.0311  H
ATOM     13 H58  CHE L   1      -5.009  -0.156  -2.168  1.00  0.00    +0.0269  H
ATOM     14 H59  CHE L   1      -4.861  -1.650  -1.269  1.00  0.00    +0.0269  H
ATOM     15 H60  CHE L   1      -7.075  -0.296  -1.099  1.00  0.00    +0.0280  H
ATOM     16 H61  CHE L   1      -6.407  -1.050   0.348  1.00  0.00    +0.0280  H
ENDROOT
BRANCH 1 18
ATOM     17  C1  CHE L   1      -8.079   0.632   1.818  1.00  0.00    -0.0155  C
ATOM     18  N2  CHE L   1      -7.458   1.559   0.880  1.00  0.00    -0.3162 NA
ATOM     19 H30  CHE L   1      -8.972   1.102   2.243  1.00  0.00    +0.0388  H
ATOM     20 H31  CHE L   1      -8.402  -0.289   1.324  1.00  0.00    +0.0388  H
ATOM     21 H32  CHE L   1      -7.424   0.377   2.655  1.00  0.00    +0.0388  H
ATOM     22 H33  CHE L   1      -8.117   1.745   0.125  1.00  0.00    +0.1219 HD
ENDBRANCH 1 18
BRANCH 4 23
ATOM     23  C7  CHE L   1      -3.093   1.178  -1.204  1.00  0.00    +0.0715  C
ATOM     24 H40  CHE L   1      -3.775   2.032  -1.140  1.00  0.00    +0.0446  H
ATOM     25 H41  CHE L   1      -2.979   0.935  -2.268  1.00  0.00    +0.0446  H
BRANCH 23 26
ATOM     26  S8  CHE L   1      -1.491   1.795  -0.690  1.00  0.00    +0.2325  S
ATOM     27  O9  CHE L   1      -1.588   2.259   0.676  1.00  0.00    -0.2053 OA
ATOM     28 O10  CHE L   1      -1.032   2.683  -1.738  1.00  0.00    -0.2053 OA
BRANCH 26 29
ATOM     29 N11  CHE L   1      -0.523   0.422  -0.736  1.00  0.00    -0.3007 NA
ATOM     30 C12  CHE L   1      -0.218  -0.334   0.492  1.00  0.00    +0.0310  C
ATOM     31 C13  CHE L   1       1.284  -0.558   0.592  1.00  0.00    -0.0142  C
ATOM     32 C14  CHE L   1       1.809  -1.382  -0.595  1.00  0.00    +0.0332  C
ATOM     33 C26  CHE L   1       0.974  -1.187  -1.869  1.00  0.00    -0.0142  C
ATOM     34 C27  CHE L   1       0.329   0.194  -1.921  1.00  0.00    +0.0310  C
ATOM     35 H42  CHE L   1      -0.553   0.195   1.388  1.00  0.00    +0.0496  H
ATOM     36 H43  CHE L   1      -0.751  -1.293   0.464  1.00  0.00    +0.0496  H
ATOM     37 H44  CHE L   1       1.526  -1.067   1.533  1.00  0.00    +0.0302  H
ATOM     38 H45  CHE L   1       1.791   0.419   0.631  1.00  0.00    +0.0302  H
ATOM     39 H46  CHE L   1       1.753  -2.446  -0.329  1.00  0.00    +0.0524  H
ATOM     40 H54  CHE L   1       1.582  -1.357  -2.768  1.00  0.00    +0.0302  H
ATOM     41 H55  CHE L   1       0.174  -1.942  -1.885  1.00  0.00    +0.0302  H
ATOM     42 H56  CHE L   1       1.107   0.967  -1.963  1.00  0.00    +0.0496  H
ATOM     43 H57  CHE L   1      -0.282   0.262  -2.830  1.00  0.00    +0.0496  H
BRANCH 32 44
ATOM     44 N15  CHE L   1       3.216  -1.090  -0.836  1.00  0.00    -0.3478  N
ATOM     45 C16  CHE L   1       4.210  -1.563   0.002  1.00  0.00    +0.2739  C
ATOM     46 O17  CHE L   1       4.007  -2.383   0.892  1.00  0.00    -0.2658 OA
ATOM     47 H47  CHE L   1       3.479  -0.283  -1.399  1.00  0.00    +0.1629 HD
BRANCH 45 48
ATOM     48 C18  CHE L   1       5.526  -0.967  -0.231  1.00  0.00    +0.1701  A
ATOM     49 C19  CHE L   1       6.731  -1.256   0.456  1.00  0.00    +0.0132  A
ATOM     50 C20  CHE L   1       7.657  -0.412  -0.103  1.00  0.00    +0.1411  A
ATOM     51 O24  CHE L   1       7.063   0.329  -1.074  1.00  0.00    -0.3586 OA
ATOM     52 N25  CHE L   1       5.722  -0.011  -1.161  1.00  0.00    -0.0732 NA
ATOM     53 H48  CHE L   1       6.882  -1.971   1.252  1.00  0.00    +0.0676  H
BRANCH 50 54
ATOM     54 C21  CHE L   1       9.149  -0.315   0.299  1.00  0.00    +0.0199  C
ATOM     55 C22  CHE L   1       9.791   1.046   0.427  1.00  0.00    -0.0426  C
ATOM     56 C23  CHE L   1       9.496   0.239   1.661  1.00  0.00    -0.0426  C
ATOM     57 H49  CHE L   1       9.765  -1.117  -0.083  1.00  0.00    +0.0380  H
ATOM     58 H50  CHE L   1      10.824   1.150   0.118  1.00  0.00    +0.0272  H
ATOM     59 H51  CHE L   1       9.188   1.928   0.237  1.00  0.00    +0.0272  H
ATOM     60 H52  CHE L   1      10.332  -0.202   2.188  1.00  0.00    +0.0272  H
ATOM     61 H53  CHE L   1       8.703   0.589   2.304  1.00  0.00    +0.0272  H
ENDBRANCH 50 54
ENDBRANCH 45 48
ENDBRANCH 32 44
ENDBRANCH 26 29
ENDBRANCH 23 26
ENDBRANCH 4 23
TORSDOF 7
