ROOT
ATOM      1  C7  MCU L   1      -0.192   0.064   0.038  1.00  0.00    +0.0641  C
ATOM      2  C8  MCU L   1       0.912   0.273   1.093  1.00  0.00    +0.0073  C
ATOM      3  C9  MCU L   1       2.108   1.069   0.583  1.00  0.00    +0.0241  C
ATOM      4 N10  MCU L   1       3.002   0.069  -0.003  1.00  0.00    -0.3676  N
ATOM      5 C18  MCU L   1       2.507  -1.293   0.204  1.00  0.00    +0.0235  C
ATOM      6 C19  MCU L   1       1.460  -1.135   1.310  1.00  0.00    +0.0009  C
ATOM      7 C20  MCU L   1       0.242  -2.028   1.153  1.00  0.00    +0.0283  C
ATOM      8 N21  MCU L   1      -0.652  -1.313   0.247  1.00  0.00    -0.3168  N
ATOM      9 C22  MCU L   1      -1.330  -1.957  -0.776  1.00  0.00    +0.3213  C
ATOM     10 O23  MCU L   1      -1.453  -1.457  -1.893  1.00  0.00    -0.2471 OA
ATOM     11 N24  MCU L   1      -1.824  -3.222  -0.479  1.00  0.00    -0.3305  N
ATOM     12 C25  MCU L   1      -2.510  -3.484   0.777  1.00  0.00    +0.0111  C
ATOM     13 C26  MCU L   1      -2.257  -4.035  -1.602  1.00  0.00    +0.0111  C
ATOM     14 H34  MCU L   1       0.226   0.122  -0.977  1.00  0.00    +0.0579  H
ATOM     15 H35  MCU L   1       0.517   0.695   2.025  1.00  0.00    +0.0345  H
ATOM     16 H36  MCU L   1       2.617   1.559   1.421  1.00  0.00    +0.0491  H
ATOM     17 H37  MCU L   1       1.797   1.833  -0.138  1.00  0.00    +0.0491  H
ATOM     18 H41  MCU L   1       3.298  -1.971   0.543  1.00  0.00    +0.0491  H
ATOM     19 H42  MCU L   1       2.071  -1.687  -0.721  1.00  0.00    +0.0491  H
ATOM     20 H43  MCU L   1       1.933  -1.246   2.293  1.00  0.00    +0.0339  H
ATOM     21 H44  MCU L   1      -0.272  -2.117   2.115  1.00  0.00    +0.0493  H
ATOM     22 H45  MCU L   1       0.494  -3.027   0.783  1.00  0.00    +0.0493  H
ATOM     23 H46  MCU L   1      -3.588  -3.520   0.588  1.00  0.00    +0.0453  H
ATOM     24 H47  MCU L   1      -2.177  -4.451   1.163  1.00  0.00    +0.0453  H
ATOM     25 H48  MCU L   1      -2.339  -2.706   1.522  1.00  0.00    +0.0453  H
ATOM     26 H49  MCU L   1      -1.581  -3.902  -2.452  1.00  0.00    +0.0453  H
ATOM     27 H50  MCU L   1      -2.254  -5.089  -1.308  1.00  0.00    +0.0453  H
ATOM     28 H51  MCU L   1      -3.266  -3.732  -1.898  1.00  0.00    +0.0453  H
ENDROOT
BRANCH 1 32
ATOM     29  C3  MCU L   1      -3.324   3.036   0.472  1.00  0.00    +0.1201  A
ATOM     30  C4  MCU L   1      -3.204   2.011   1.408  1.00  0.00    -0.0196  A
ATOM     31  C5  MCU L   1      -2.202   1.044   1.268  1.00  0.00    -0.0531  A
ATOM     32  C6  MCU L   1      -1.303   1.085   0.191  1.00  0.00    -0.0244  A
ATOM     33 C27  MCU L   1      -1.435   2.118  -0.746  1.00  0.00    -0.0531  A
ATOM     34 C28  MCU L   1      -2.435   3.083  -0.604  1.00  0.00    -0.0196  A
ATOM     35 H32  MCU L   1      -3.873   1.931   2.258  1.00  0.00    +0.0654  H
ATOM     36 H33  MCU L   1      -2.130   0.249   2.007  1.00  0.00    +0.0622  H
ATOM     37 H52  MCU L   1      -0.768   2.174  -1.604  1.00  0.00    +0.0622  H
ATOM     38 H53  MCU L   1      -2.528   3.874  -1.344  1.00  0.00    +0.0654  H
BRANCH 29 40
ATOM     39  C1  MCU L   1      -5.221   4.000   1.531  1.00  0.00    +0.0788  C
ATOM     40  O2  MCU L   1      -4.252   4.041   0.492  1.00  0.00    -0.4951 OA
ATOM     41 H29  MCU L   1      -4.750   4.110   2.514  1.00  0.00    +0.0660  H
ATOM     42 H30  MCU L   1      -5.898   4.847   1.390  1.00  0.00    +0.0660  H
ATOM     43 H31  MCU L   1      -5.818   3.084   1.479  1.00  0.00    +0.0660  H
ENDBRANCH 29 40
ENDBRANCH 1 32
BRANCH 4 44
ATOM     44 C11  MCU L   1       4.052   0.375  -0.848  1.00  0.00    +0.0765  A
ATOM     45 C12  MCU L   1       4.505   1.695  -0.993  1.00  0.00    -0.0175  A
ATOM     46 C13  MCU L   1       5.571   1.987  -1.841  1.00  0.00    +0.0297  A
ATOM     47 N14  MCU L   1       6.234   1.064  -2.563  1.00  0.00    -0.2603 NA
ATOM     48 C15  MCU L   1       5.803  -0.207  -2.421  1.00  0.00    +0.0648  A
ATOM     49 C16  MCU L   1       4.751  -0.587  -1.598  1.00  0.00    +0.1644  A
ATOM     50 F17  MCU L   1       4.424  -1.888  -1.551  1.00  0.00    -0.2017  F
ATOM     51 H38  MCU L   1       4.051   2.513  -0.447  1.00  0.00    +0.0654  H
ATOM     52 H39  MCU L   1       5.925   3.007  -1.955  1.00  0.00    +0.0830  H
ATOM     53 H40  MCU L   1       6.336  -0.952  -3.003  1.00  0.00    +0.0859  H
ENDBRANCH 4 44
TORSDOF 3
