ROOT
ATOM      1  C9  WH0 L   1       3.165   0.675  -0.992  1.00  0.00    -0.0231  A
ATOM      2 C10  WH0 L   1       1.772   0.651  -1.200  1.00  0.00    -0.0488  A
ATOM      3 C11  WH0 L   1       0.878   1.034  -0.179  1.00  0.00    -0.0131  A
ATOM      4 C35  WH0 L   1       1.376   1.497   1.052  1.00  0.00    -0.0483  A
ATOM      5 C36  WH0 L   1       2.756   1.532   1.245  1.00  0.00    -0.0142  A
ATOM      6 C37  WH0 L   1       3.630   1.122   0.257  1.00  0.00    +0.0486  A
ATOM      7 N38  WH0 L   1       4.977   1.194   0.697  1.00  0.00    -0.3254  N
ATOM      8 C39  WH0 L   1       4.900   1.674   2.034  1.00  0.00    +0.2296  C
ATOM      9 O40  WH0 L   1       5.915   1.847   2.757  1.00  0.00    -0.2725 OA
ATOM     10 C41  WH0 L   1       3.495   1.931   2.482  1.00  0.00    +0.0535  C
ATOM     11 H52  WH0 L   1       1.385   0.333  -2.159  1.00  0.00    +0.0627  H
ATOM     12 H70  WH0 L   1       0.705   1.795   1.849  1.00  0.00    +0.0627  H
ATOM     13 H71  WH0 L   1       5.845   0.931   0.183  1.00  0.00    +0.1686 HD
ATOM     14 H72  WH0 L   1       3.224   1.278   3.338  1.00  0.00    +0.0410  H
ATOM     15 H73  WH0 L   1       3.339   3.007   2.710  1.00  0.00    +0.0410  H
ENDROOT
BRANCH 1 16
ATOM     16  C8  WH0 L   1       4.091   0.161  -2.066  1.00  0.00    -0.0241  C
ATOM     17 H50  WH0 L   1       3.763   0.576  -3.044  1.00  0.00    +0.0314  H
ATOM     18 H51  WH0 L   1       5.128   0.521  -1.917  1.00  0.00    +0.0314  H
BRANCH 16 19
ATOM     19  C7  WH0 L   1       4.065  -1.376  -2.163  1.00  0.00    -0.0314  C
ATOM     20 H48  WH0 L   1       3.030  -1.712  -2.397  1.00  0.00    +0.0285  H
ATOM     21 H49  WH0 L   1       4.710  -1.695  -3.009  1.00  0.00    +0.0285  H
BRANCH 19 22
ATOM     22  C6  WH0 L   1       4.532  -2.080  -0.879  1.00  0.00    +0.0187  C
ATOM     23 H46  WH0 L   1       4.401  -3.177  -1.002  1.00  0.00    +0.0486  H
ATOM     24 H47  WH0 L   1       3.900  -1.761  -0.022  1.00  0.00    +0.0486  H
BRANCH 22 27
ATOM     25  C3  WH0 L   1       6.534  -2.190   0.659  1.00  0.00    +0.2443  C
ATOM     26  O4  WH0 L   1       5.889  -2.928   1.451  1.00  0.00    -0.2683 OA
ATOM     27  N5  WH0 L   1       5.940  -1.800  -0.590  1.00  0.00    -0.3525  N
ATOM     28 H45  WH0 L   1       6.531  -1.359  -1.328  1.00  0.00    +0.1626 HD
BRANCH 25 30
ATOM     29  C1  WH0 L   1       8.567  -0.785   0.446  1.00  0.00    -0.0936  C
ATOM     30  C2  WH0 L   1       7.896  -1.769   1.045  1.00  0.00    -0.0047  C
ATOM     31 H42  WH0 L   1       9.557  -0.523   0.794  1.00  0.00    +0.0536  H
ATOM     32 H43  WH0 L   1       8.148  -0.208  -0.367  1.00  0.00    +0.0536  H
ATOM     33 H44  WH0 L   1       8.362  -2.264   1.889  1.00  0.00    +0.0666  H
ENDBRANCH 25 30
ENDBRANCH 22 27
ENDBRANCH 19 22
ENDBRANCH 16 19
ENDBRANCH 1 16
BRANCH 3 34
ATOM     34 C12  WH0 L   1      -0.574   0.918  -0.386  1.00  0.00    +0.0353  A
ATOM     35 C13  WH0 L   1      -1.336  -0.246  -0.498  1.00  0.00    +0.1015  A
ATOM     36 N21  WH0 L   1      -2.653   0.063  -0.502  1.00  0.00    -0.1627 NA
ATOM     37 N22  WH0 L   1      -2.741   1.380  -0.405  1.00  0.00    -0.1987  N
ATOM     38 C23  WH0 L   1      -3.873   2.138  -0.392  1.00  0.00    +0.2282  A
ATOM     39 N31  WH0 L   1      -3.736   3.494  -0.305  1.00  0.00    -0.2207 NA
ATOM     40 C32  WH0 L   1      -2.506   4.083  -0.211  1.00  0.00    +0.0334  A
ATOM     41 C33  WH0 L   1      -1.344   3.300  -0.214  1.00  0.00    -0.0173  A
ATOM     42 C34  WH0 L   1      -1.516   1.923  -0.325  1.00  0.00    +0.0803  A
ATOM     43 H68  WH0 L   1      -2.431   5.159  -0.138  1.00  0.00    +0.0831  H
ATOM     44 H69  WH0 L   1      -0.362   3.749  -0.150  1.00  0.00    +0.0654  H
BRANCH 35 45
ATOM     45 C14  WH0 L   1      -0.834  -1.627  -0.436  1.00  0.00    +0.0029  A
ATOM     46 C15  WH0 L   1      -0.054  -2.155  -1.476  1.00  0.00    -0.0498  A
ATOM     47 C16  WH0 L   1       0.440  -3.460  -1.392  1.00  0.00    -0.0258  A
ATOM     48 C17  WH0 L   1       0.144  -4.250  -0.277  1.00  0.00    +0.1234  A
ATOM     49 F18  WH0 L   1       0.623  -5.516  -0.197  1.00  0.00    -0.2055  F
ATOM     50 C19  WH0 L   1      -0.653  -3.738   0.751  1.00  0.00    -0.0258  A
ATOM     51 C20  WH0 L   1      -1.146  -2.431   0.671  1.00  0.00    -0.0498  A
ATOM     52 H53  WH0 L   1       0.154  -1.569  -2.360  1.00  0.00    +0.0625  H
ATOM     53 H54  WH0 L   1       1.046  -3.860  -2.195  1.00  0.00    +0.0646  H
ATOM     54 H55  WH0 L   1      -0.889  -4.352   1.611  1.00  0.00    +0.0646  H
ATOM     55 H56  WH0 L   1      -1.756  -2.042   1.477  1.00  0.00    +0.0625  H
ENDBRANCH 35 45
BRANCH 38 56
ATOM     56 N24  WH0 L   1      -5.187   1.553  -0.494  1.00  0.00    -0.3402  N
ATOM     57 C25  WH0 L   1      -6.258   2.313  -1.154  1.00  0.00    +0.0228  C
ATOM     58 C26  WH0 L   1      -7.331   1.364  -1.693  1.00  0.00    -0.0199  C
ATOM     59 C27  WH0 L   1      -7.944   0.479  -0.581  1.00  0.00    +0.0080  C
ATOM     60 N28  WH0 L   1      -8.405  -0.789  -1.156  1.00  0.00    -0.3271 NA
ATOM     61 C29  WH0 L   1      -6.960   0.213   0.587  1.00  0.00    -0.0199  C
ATOM     62 C30  WH0 L   1      -5.493   0.263   0.146  1.00  0.00    +0.0228  C
ATOM     63 H57  WH0 L   1      -6.707   3.027  -0.430  1.00  0.00    +0.0489  H
ATOM     64 H58  WH0 L   1      -5.842   2.892  -2.008  1.00  0.00    +0.0489  H
ATOM     65 H59  WH0 L   1      -8.133   1.953  -2.187  1.00  0.00    +0.0297  H
ATOM     66 H60  WH0 L   1      -6.861   0.721  -2.471  1.00  0.00    +0.0297  H
ATOM     67 H61  WH0 L   1      -8.825   1.016  -0.161  1.00  0.00    +0.0459  H
ATOM     68 H62  WH0 L   1      -8.943  -1.307  -0.423  1.00  0.00    +0.1185 HD
ATOM     69 H63  WH0 L   1      -9.093  -0.574  -1.914  1.00  0.00    +0.1185 HD
ATOM     70 H64  WH0 L   1      -7.169  -0.768   1.069  1.00  0.00    +0.0297  H
ATOM     71 H65  WH0 L   1      -7.111   0.992   1.366  1.00  0.00    +0.0297  H
ATOM     72 H66  WH0 L   1      -5.287  -0.563  -0.568  1.00  0.00    +0.0489  H
ATOM     73 H67  WH0 L   1      -4.858   0.124   1.049  1.00  0.00    +0.0489  H
ENDBRANCH 38 56
ENDBRANCH 3 34
TORSDOF 8
