ROOT
ATOM      1  O1  EUB L   1      -1.407  -2.233  -1.011  1.00  0.00    -0.3781 OA
ATOM      2  C2  EUB L   1      -1.668  -1.054  -0.189  1.00  0.00    +0.1805  C
ATOM      3  C7  EUB L   1      -2.944  -0.415  -0.758  1.00  0.00    -0.0135  C
ATOM      4  C8  EUB L   1      -3.325   0.902  -0.086  1.00  0.00    -0.0500  C
ATOM      5  C9  EUB L   1      -2.130   1.744   0.357  1.00  0.00    -0.0510  C
ATOM      6 C10  EUB L   1      -0.851   1.416  -0.399  1.00  0.00    -0.0297  C
ATOM      7 C11  EUB L   1      -0.465  -0.080  -0.406  1.00  0.00    +0.0643  C
ATOM      8 H20  EUB L   1      -0.584  -2.640  -0.677  1.00  0.00    +0.2106 HD
ATOM      9 H21  EUB L   1      -2.801  -0.238  -1.833  1.00  0.00    +0.0296  H
ATOM     10 H22  EUB L   1      -3.786  -1.118  -0.704  1.00  0.00    +0.0296  H
ATOM     11 H23  EUB L   1      -3.962   0.706   0.785  1.00  0.00    +0.0266  H
ATOM     12 H24  EUB L   1      -3.943   1.480  -0.783  1.00  0.00    +0.0266  H
ATOM     13 H25  EUB L   1      -2.372   2.806   0.227  1.00  0.00    +0.0266  H
ATOM     14 H26  EUB L   1      -1.956   1.619   1.430  1.00  0.00    +0.0266  H
ATOM     15 H27  EUB L   1      -0.038   2.040  -0.009  1.00  0.00    +0.0286  H
ATOM     16 H28  EUB L   1      -0.995   1.731  -1.442  1.00  0.00    +0.0286  H
ATOM     17 H29  EUB L   1      -0.098  -0.297  -1.419  1.00  0.00    +0.0553  H
ENDROOT
BRANCH 2 18
ATOM     18  C3  EUB L   1      -1.883  -1.503   1.273  1.00  0.00    +0.4201  C
ATOM     19  F4  EUB L   1      -0.798  -2.198   1.711  1.00  0.00    -0.1676  F
ATOM     20  F5  EUB L   1      -2.079  -0.491   2.138  1.00  0.00    -0.1676  F
ATOM     21  F6  EUB L   1      -2.945  -2.335   1.384  1.00  0.00    -0.1676  F
ENDBRANCH 2 18
BRANCH 7 22
ATOM     22 N12  EUB L   1       0.659  -0.329   0.515  1.00  0.00    -0.3786  N
ATOM     23 H30  EUB L   1       0.562  -1.122   1.151  1.00  0.00    +0.1600 HD
BRANCH 22 24
ATOM     24 C13  EUB L   1       1.993  -0.133   0.151  1.00  0.00    +0.0358  A
ATOM     25 C14  EUB L   1       2.991  -0.604   1.023  1.00  0.00    -0.0360  A
ATOM     26 C15  EUB L   1       4.348  -0.398   0.759  1.00  0.00    -0.0245  A
ATOM     27 C16  EUB L   1       4.720   0.307  -0.375  1.00  0.00    +0.1235  A
ATOM     28 F17  EUB L   1       6.018   0.510  -0.633  1.00  0.00    -0.2055  F
ATOM     29 C18  EUB L   1       3.761   0.815  -1.237  1.00  0.00    -0.0245  A
ATOM     30 C19  EUB L   1       2.404   0.606  -0.966  1.00  0.00    -0.0360  A
ATOM     31 H31  EUB L   1       2.716  -1.140   1.929  1.00  0.00    +0.0639  H
ATOM     32 H32  EUB L   1       5.108  -0.775   1.434  1.00  0.00    +0.0647  H
ATOM     33 H33  EUB L   1       4.069   1.380  -2.111  1.00  0.00    +0.0647  H
ATOM     34 H34  EUB L   1       1.683   1.040  -1.652  1.00  0.00    +0.0639  H
ENDBRANCH 22 24
ENDBRANCH 7 22
TORSDOF 3
