ROOT
ATOM      1 C32  WH0 L   1      -0.675  -1.746  -0.286  1.00  0.00    -0.0133  A
ATOM      2 C33  WH0 L   1      -0.117  -2.337   0.871  1.00  0.00    -0.0519  A
ATOM      3 C34  WH0 L   1       0.087  -3.718   0.946  1.00  0.00    -0.0374  A
ATOM      4 C35  WH0 L   1      -0.287  -4.469  -0.147  1.00  0.00    +0.0454  A
ATOM      5 C36  WH0 L   1      -0.848  -3.905  -1.291  1.00  0.00    -0.0145  A
ATOM      6 C37  WH0 L   1      -1.055  -2.541  -1.378  1.00  0.00    -0.0483  A
ATOM      7 C38  WH0 L   1      -1.142  -4.987  -2.286  1.00  0.00    +0.0535  C
ATOM      8 C39  WH0 L   1      -0.665  -6.243  -1.546  1.00  0.00    +0.2296  C
ATOM      9 O40  WH0 L   1      -0.699  -7.389  -1.962  1.00  0.00    -0.2725 OA
ATOM     10 N41  WH0 L   1      -0.184  -5.841  -0.306  1.00  0.00    -0.3256  N
ATOM     11 H65  WH0 L   1       0.180  -1.712   1.713  1.00  0.00    +0.0624  H
ATOM     12 H66  WH0 L   1       0.524  -4.166   1.830  1.00  0.00    +0.0638  H
ATOM     13 H67  WH0 L   1      -1.499  -2.100  -2.266  1.00  0.00    +0.0627  H
ATOM     14 H68  WH0 L   1      -2.213  -5.062  -2.488  1.00  0.00    +0.0410  H
ATOM     15 H69  WH0 L   1      -0.558  -4.855  -3.201  1.00  0.00    +0.0410  H
ATOM     16 H70  WH0 L   1       0.187  -6.489   0.373  1.00  0.00    +0.1686 HD
ENDROOT
BRANCH 1 24
ATOM     17 C11  WH0 L   1       0.899   0.606  -2.002  1.00  0.00    -0.0030  A
ATOM     18 C12  WH0 L   1       1.208   1.807  -2.542  1.00  0.00    +0.0366  A
ATOM     19 N13  WH0 L   1       0.612   3.016  -2.282  1.00  0.00    -0.2204 NA
ATOM     20 C14  WH0 L   1      -0.375   3.053  -1.418  1.00  0.00    +0.2284  A
ATOM     21 N21  WH0 L   1      -0.767   1.829  -0.796  1.00  0.00    -0.1984  N
ATOM     22 N22  WH0 L   1      -1.719   1.763   0.165  1.00  0.00    -0.1627 NA
ATOM     23 C23  WH0 L   1      -1.829   0.460   0.454  1.00  0.00    +0.1015  A
ATOM     24 C31  WH0 L   1      -0.905  -0.316  -0.316  1.00  0.00    +0.0356  A
ATOM     25 C42  WH0 L   1      -0.196   0.599  -1.076  1.00  0.00    +0.0835  A
ATOM     26 H52  WH0 L   1       2.026   1.882  -3.258  1.00  0.00    +0.0834  H
BRANCH 17 27
ATOM     27 C10  WH0 L   1       1.738  -0.589  -2.423  1.00  0.00    -0.0226  C
ATOM     28 H50  WH0 L   1       2.335  -0.338  -3.310  1.00  0.00    +0.0315  H
ATOM     29 H51  WH0 L   1       1.078  -1.397  -2.755  1.00  0.00    +0.0315  H
BRANCH 27 30
ATOM     30  C9  WH0 L   1       2.696  -1.120  -1.351  1.00  0.00    -0.0314  C
ATOM     31 H48  WH0 L   1       2.133  -1.580  -0.536  1.00  0.00    +0.0285  H
ATOM     32 H49  WH0 L   1       3.291  -1.931  -1.792  1.00  0.00    +0.0285  H
BRANCH 30 33
ATOM     33  C8  WH0 L   1       3.635  -0.060  -0.779  1.00  0.00    +0.0187  C
ATOM     34 H46  WH0 L   1       4.214   0.413  -1.580  1.00  0.00    +0.0486  H
ATOM     35 H47  WH0 L   1       3.076   0.719  -0.250  1.00  0.00    +0.0486  H
BRANCH 33 38
ATOM     36  C5  WH0 L   1       4.240  -0.946   1.447  1.00  0.00    +0.2618  C
ATOM     37  O6  WH0 L   1       3.115  -0.737   1.895  1.00  0.00    -0.2669 OA
ATOM     38  N7  WH0 L   1       4.590  -0.642   0.148  1.00  0.00    -0.3514  N
ATOM     39 H45  WH0 L   1       5.513  -0.850  -0.212  1.00  0.00    +0.1626 HD
BRANCH 36 41
ATOM     40  C1  WH0 L   1       5.041  -1.818   3.585  1.00  0.00    -0.0760  C
ATOM     41  C2  WH0 L   1       5.314  -1.558   2.294  1.00  0.00    +0.1085  C
ATOM     42 H43  WH0 L   1       5.779  -2.261   4.247  1.00  0.00    +0.0549  H
ATOM     43 H44  WH0 L   1       4.070  -1.590   4.016  1.00  0.00    +0.0549  H
BRANCH 41 44
ATOM     44  C3  WH0 L   1       6.589  -1.861   1.749  1.00  0.00    +0.1040  C
ATOM     45  N4  WH0 L   1       7.619  -2.098   1.270  1.00  0.00    -0.1907 NA
ENDBRANCH 41 44
ENDBRANCH 36 41
ENDBRANCH 33 38
ENDBRANCH 30 33
ENDBRANCH 27 30
ENDBRANCH 17 27
BRANCH 20 46
ATOM     46 N15  WH0 L   1      -0.995   4.271  -1.128  1.00  0.00    -0.3359  N
ATOM     47 C16  WH0 L   1      -0.367   5.534  -1.541  1.00  0.00    +0.0449  C
ATOM     48 C17  WH0 L   1      -0.859   6.681  -0.649  1.00  0.00    +0.0653  C
ATOM     49 O18  WH0 L   1      -2.277   6.890  -0.699  1.00  0.00    -0.3763 OA
ATOM     50 C19  WH0 L   1      -3.008   5.713  -1.066  1.00  0.00    +0.0653  C
ATOM     51 C20  WH0 L   1      -2.358   4.402  -0.593  1.00  0.00    +0.0449  C
ATOM     52 H53  WH0 L   1       0.723   5.472  -1.454  1.00  0.00    +0.0511  H
ATOM     53 H54  WH0 L   1      -0.620   5.733  -2.589  1.00  0.00    +0.0511  H
ATOM     54 H55  WH0 L   1      -0.592   6.489   0.397  1.00  0.00    +0.0577  H
ATOM     55 H56  WH0 L   1      -0.378   7.620  -0.941  1.00  0.00    +0.0577  H
ATOM     56 H57  WH0 L   1      -3.112   5.713  -2.157  1.00  0.00    +0.0577  H
ATOM     57 H58  WH0 L   1      -4.014   5.806  -0.645  1.00  0.00    +0.0577  H
ATOM     58 H59  WH0 L   1      -2.311   4.392   0.502  1.00  0.00    +0.0511  H
ATOM     59 H60  WH0 L   1      -2.997   3.583  -0.940  1.00  0.00    +0.0511  H
ENDBRANCH 20 46
BRANCH 23 60
ATOM     60 C24  WH0 L   1      -2.800   0.013   1.455  1.00  0.00    +0.0029  A
ATOM     61 C25  WH0 L   1      -2.969   0.749   2.640  1.00  0.00    -0.0498  A
ATOM     62 C26  WH0 L   1      -3.887   0.336   3.608  1.00  0.00    -0.0258  A
ATOM     63 C27  WH0 L   1      -4.641  -0.809   3.390  1.00  0.00    +0.1234  A
ATOM     64 F28  WH0 L   1      -5.522  -1.206   4.318  1.00  0.00    -0.2055  F
ATOM     65 C29  WH0 L   1      -4.499  -1.547   2.221  1.00  0.00    -0.0258  A
ATOM     66 C30  WH0 L   1      -3.581  -1.135   1.251  1.00  0.00    -0.0498  A
ATOM     67 H61  WH0 L   1      -2.379   1.648   2.812  1.00  0.00    +0.0625  H
ATOM     68 H62  WH0 L   1      -4.016   0.901   4.526  1.00  0.00    +0.0646  H
ATOM     69 H63  WH0 L   1      -5.105  -2.434   2.069  1.00  0.00    +0.0646  H
ATOM     70 H64  WH0 L   1      -3.495  -1.713   0.335  1.00  0.00    +0.0625  H
ENDBRANCH 23 60
ENDBRANCH 1 24
TORSDOF 9
