ROOT
ATOM      1  C3  CHE L   1      -4.907  -0.215   0.478  1.00  0.00    +0.1635  A
ATOM      2  C4  CHE L   1      -4.448  -1.386  -0.133  1.00  0.00    +0.0099  A
ATOM      3  C5  CHE L   1      -3.118  -1.555  -0.496  1.00  0.00    +0.0812  A
ATOM      4  N6  CHE L   1      -2.765  -2.698  -1.088  1.00  0.00    -0.2183 NA
ATOM      5  C7  CHE L   1      -1.476  -2.818  -1.439  1.00  0.00    +0.2343  A
ATOM      6 N10  CHE L   1      -0.511  -1.911  -1.230  1.00  0.00    -0.2010 NA
ATOM      7 C11  CHE L   1      -0.870  -0.777  -0.611  1.00  0.00    +0.1396  A
ATOM      8 C22  CHE L   1      -2.205  -0.526  -0.231  1.00  0.00    +0.0461  A
ATOM      9 C23  CHE L   1      -2.665   0.671   0.374  1.00  0.00    -0.0036  A
ATOM     10 C24  CHE L   1      -4.006   0.832   0.729  1.00  0.00    +0.1623  A
ATOM     11 H30  CHE L   1      -5.126  -2.207  -0.349  1.00  0.00    +0.0677  H
ATOM     12 H46  CHE L   1      -1.952   1.471   0.546  1.00  0.00    +0.0663  H
ENDROOT
BRANCH 1 14
ATOM     13  C1  CHE L   1      -7.152  -1.030   0.620  1.00  0.00    +0.0790  C
ATOM     14  O2  CHE L   1      -6.208   0.005   0.858  1.00  0.00    -0.4914 OA
ATOM     15 H27  CHE L   1      -7.253  -1.234  -0.451  1.00  0.00    +0.0660  H
ATOM     16 H28  CHE L   1      -6.891  -1.938   1.174  1.00  0.00    +0.0660  H
ATOM     17 H29  CHE L   1      -8.124  -0.686   0.986  1.00  0.00    +0.0660  H
ENDBRANCH 1 14
BRANCH 5 18
ATOM     18  C8  CHE L   1      -1.087  -4.041  -2.091  1.00  0.00    +0.1400  C
ATOM     19  N9  CHE L   1      -0.769  -5.031  -2.616  1.00  0.00    -0.1876 NA
ENDBRANCH 5 18
BRANCH 7 20
ATOM     20 N12  CHE L   1       0.112   0.203  -0.369  1.00  0.00    -0.3663  N
ATOM     21 H31  CHE L   1       0.079   0.482   0.609  1.00  0.00    +0.1613 HD
BRANCH 20 22
ATOM     22 C13  CHE L   1       1.491  -0.094  -0.798  1.00  0.00    +0.0308  C
ATOM     23 C14  CHE L   1       2.172  -1.062   0.181  1.00  0.00    -0.0198  C
ATOM     24 C15  CHE L   1       3.668  -0.784   0.284  1.00  0.00    +0.0010  C
ATOM     25 N16  CHE L   1       3.925   0.554   0.816  1.00  0.00    -0.2993 NA
ATOM     26 C20  CHE L   1       2.983   1.588   0.374  1.00  0.00    +0.0010  C
ATOM     27 C21  CHE L   1       2.259   1.232  -0.921  1.00  0.00    -0.0198  C
ATOM     28 H32  CHE L   1       1.477  -0.530  -1.806  1.00  0.00    +0.0523  H
ATOM     29 H33  CHE L   1       1.723  -0.995   1.181  1.00  0.00    +0.0297  H
ATOM     30 H34  CHE L   1       2.015  -2.095  -0.151  1.00  0.00    +0.0297  H
ATOM     31 H35  CHE L   1       4.120  -0.913  -0.707  1.00  0.00    +0.0427  H
ATOM     32 H36  CHE L   1       4.116  -1.531   0.949  1.00  0.00    +0.0427  H
ATOM     33 H42  CHE L   1       3.484   2.555   0.247  1.00  0.00    +0.0427  H
ATOM     34 H43  CHE L   1       2.244   1.737   1.171  1.00  0.00    +0.0427  H
ATOM     35 H44  CHE L   1       3.003   1.143  -1.725  1.00  0.00    +0.0297  H
ATOM     36 H45  CHE L   1       1.589   2.050  -1.212  1.00  0.00    +0.0297  H
BRANCH 25 37
ATOM     37 C17  CHE L   1       5.322   1.010   0.870  1.00  0.00    +0.0105  C
ATOM     38 C18  CHE L   1       6.506   0.121   0.603  1.00  0.00    -0.0359  C
ATOM     39 C19  CHE L   1       6.128   1.183  -0.389  1.00  0.00    -0.0359  C
ATOM     40 H37  CHE L   1       5.483   1.764   1.642  1.00  0.00    +0.0462  H
ATOM     41 H38  CHE L   1       7.396   0.281   1.202  1.00  0.00    +0.0281  H
ATOM     42 H39  CHE L   1       6.362  -0.912   0.317  1.00  0.00    +0.0281  H
ATOM     43 H40  CHE L   1       6.762   2.058  -0.464  1.00  0.00    +0.0281  H
ATOM     44 H41  CHE L   1       5.703   0.866  -1.334  1.00  0.00    +0.0281  H
ENDBRANCH 25 37
ENDBRANCH 20 22
ENDBRANCH 7 20
BRANCH 10 45
ATOM     45 O25  CHE L   1      -4.527   1.953   1.321  1.00  0.00    -0.4914 OA
ATOM     46 C26  CHE L   1      -3.668   3.070   1.500  1.00  0.00    +0.0790  C
ATOM     47 H47  CHE L   1      -3.276   3.427   0.541  1.00  0.00    +0.0660  H
ATOM     48 H48  CHE L   1      -2.856   2.835   2.196  1.00  0.00    +0.0660  H
ATOM     49 H49  CHE L   1      -4.258   3.880   1.939  1.00  0.00    +0.0660  H
ENDBRANCH 10 45
TORSDOF 6
