ROOT
ATOM      1 C14  CHE L   1       5.470   0.985  -1.265  1.00  0.00    +0.0389  A
ATOM      2 C15  CHE L   1       6.135   1.215  -0.108  1.00  0.00    -0.0388  A
ATOM      3 C16  CHE L   1       5.613   2.018   1.050  1.00  0.00    -0.0392  C
ATOM      4 C17  CHE L   1       7.471   0.670   0.095  1.00  0.00    -0.0393  A
ATOM      5 C18  CHE L   1       8.078  -0.051  -0.859  1.00  0.00    +0.0162  A
ATOM      6 C19  CHE L   1       9.439  -0.656  -0.708  1.00  0.00    -0.0244  C
ATOM      7 N20  CHE L   1       7.434  -0.248  -2.052  1.00  0.00    -0.3262  N
ATOM      8 C21  CHE L   1       6.188   0.242  -2.357  1.00  0.00    +0.2540  A
ATOM      9 O22  CHE L   1       5.718   0.100  -3.482  1.00  0.00    -0.2675 OA
ATOM     10 H47  CHE L   1       4.717   2.593   0.805  1.00  0.00    +0.0278  H
ATOM     11 H48  CHE L   1       5.380   1.362   1.894  1.00  0.00    +0.0278  H
ATOM     12 H49  CHE L   1       6.361   2.748   1.380  1.00  0.00    +0.0278  H
ATOM     13 H50  CHE L   1       7.959   0.842   1.050  1.00  0.00    +0.0637  H
ATOM     14 H51  CHE L   1       9.882  -0.430   0.267  1.00  0.00    +0.0292  H
ATOM     15 H52  CHE L   1      10.117  -0.273  -1.479  1.00  0.00    +0.0292  H
ATOM     16 H53  CHE L   1       9.385  -1.745  -0.806  1.00  0.00    +0.0292  H
ATOM     17 H54  CHE L   1       7.883  -0.769  -2.797  1.00  0.00    +0.1686 HD
ENDROOT
BRANCH 1 18
ATOM     18 C13  CHE L   1       4.070   1.402  -1.619  1.00  0.00    +0.0491  C
ATOM     19 H45  CHE L   1       3.697   0.917  -2.527  1.00  0.00    +0.0538  H
ATOM     20 H46  CHE L   1       4.039   2.484  -1.786  1.00  0.00    +0.0538  H
BRANCH 18 23
ATOM     21 C10  CHE L   1       2.653  -0.188  -0.374  1.00  0.00    +0.2527  C
ATOM     22 O11  CHE L   1       3.049  -1.173  -0.980  1.00  0.00    -0.2676 OA
ATOM     23 N12  CHE L   1       3.129   1.093  -0.557  1.00  0.00    -0.3478  N
ATOM     24 H44  CHE L   1       2.609   1.860  -0.155  1.00  0.00    +0.1630 HD
BRANCH 21 30
ATOM     25  C4  CHE L   1      -0.636  -1.046   1.341  1.00  0.00    +0.0432  A
ATOM     26  C5  CHE L   1      -0.361  -0.534   2.624  1.00  0.00    -0.0198  A
ATOM     27  C6  CHE L   1       0.859   0.076   2.904  1.00  0.00    +0.0437  A
ATOM     28 CL7  CHE L   1       1.167   0.687   4.483  1.00  0.00    -0.0835 Cl
ATOM     29  C8  CHE L   1       1.832   0.189   1.922  1.00  0.00    -0.0307  A
ATOM     30  C9  CHE L   1       1.576  -0.311   0.640  1.00  0.00    +0.0452  A
ATOM     31 C23  CHE L   1       0.343  -0.926   0.327  1.00  0.00    -0.0149  A
ATOM     32 C24  CHE L   1       0.094  -1.447  -1.067  1.00  0.00    -0.0370  C
ATOM     33 H42  CHE L   1      -1.101  -0.627   3.414  1.00  0.00    +0.0653  H
ATOM     34 H43  CHE L   1       2.794   0.638   2.154  1.00  0.00    +0.0640  H
ATOM     35 H55  CHE L   1       0.664  -2.366  -1.233  1.00  0.00    +0.0278  H
ATOM     36 H56  CHE L   1       0.382  -0.699  -1.813  1.00  0.00    +0.0278  H
ATOM     37 H57  CHE L   1      -0.960  -1.669  -1.253  1.00  0.00    +0.0278  H
BRANCH 25 38
ATOM     38  N3  CHE L   1      -1.872  -1.686   1.063  1.00  0.00    -0.3676  N
BRANCH 38 40
ATOM     39  C1  CHE L   1      -1.638  -4.101   0.599  1.00  0.00    -0.0475  C
ATOM     40  C2  CHE L   1      -1.870  -3.045   1.669  1.00  0.00    +0.0161  C
ATOM     41 H37  CHE L   1      -2.386  -4.032  -0.198  1.00  0.00    +0.0247  H
ATOM     42 H38  CHE L   1      -1.698  -5.103   1.037  1.00  0.00    +0.0247  H
ATOM     43 H39  CHE L   1      -0.648  -3.995   0.144  1.00  0.00    +0.0247  H
ATOM     44 H40  CHE L   1      -1.110  -3.158   2.454  1.00  0.00    +0.0485  H
ATOM     45 H41  CHE L   1      -2.825  -3.253   2.163  1.00  0.00    +0.0485  H
ENDBRANCH 38 40
BRANCH 38 46
ATOM     46 C25  CHE L   1      -3.099  -0.873   1.320  1.00  0.00    +0.0300  C
ATOM     47 C26  CHE L   1      -3.012   0.562   0.739  1.00  0.00    -0.0311  C
ATOM     48 C27  CHE L   1      -3.438   0.627  -0.725  1.00  0.00    -0.0355  C
ATOM     49 C28  CHE L   1      -4.906   0.201  -0.931  1.00  0.00    +0.0105  C
ATOM     50 C35  CHE L   1      -5.422  -0.666   0.239  1.00  0.00    -0.0355  C
ATOM     51 C36  CHE L   1      -4.330  -1.613   0.733  1.00  0.00    -0.0311  C
ATOM     52 H58  CHE L   1      -3.239  -0.782   2.406  1.00  0.00    +0.0524  H
ATOM     53 H59  CHE L   1      -3.675   1.209   1.329  1.00  0.00    +0.0285  H
ATOM     54 H60  CHE L   1      -2.017   1.004   0.841  1.00  0.00    +0.0285  H
ATOM     55 H61  CHE L   1      -2.792  -0.042  -1.309  1.00  0.00    +0.0281  H
ATOM     56 H62  CHE L   1      -3.248   1.622  -1.142  1.00  0.00    +0.0281  H
ATOM     57 H63  CHE L   1      -4.856  -0.468  -1.804  1.00  0.00    +0.0462  H
ATOM     58 H70  CHE L   1      -5.760  -0.059   1.086  1.00  0.00    +0.0281  H
ATOM     59 H71  CHE L   1      -6.286  -1.257  -0.087  1.00  0.00    +0.0281  H
ATOM     60 H72  CHE L   1      -4.754  -2.277   1.496  1.00  0.00    +0.0285  H
ATOM     61 H73  CHE L   1      -4.031  -2.257  -0.103  1.00  0.00    +0.0285  H
BRANCH 49 62
ATOM     62 N29  CHE L   1      -5.799   1.310  -1.343  1.00  0.00    -0.2971 NA
ATOM     63 C30  CHE L   1      -7.051   0.793  -1.911  1.00  0.00    -0.0123  C
ATOM     64 H64  CHE L   1      -6.854   0.046  -2.689  1.00  0.00    +0.0391  H
ATOM     65 H65  CHE L   1      -7.697   0.342  -1.150  1.00  0.00    +0.0391  H
ATOM     66 H66  CHE L   1      -7.611   1.598  -2.401  1.00  0.00    +0.0391  H
BRANCH 62 67
ATOM     67 C31  CHE L   1      -6.099   2.351  -0.331  1.00  0.00    +0.0596  C
ATOM     68 H67  CHE L   1      -7.036   2.850  -0.614  1.00  0.00    +0.0482  H
ATOM     69 H68  CHE L   1      -6.308   1.915   0.651  1.00  0.00    +0.0482  H
BRANCH 67 70
ATOM     70 C32  CHE L   1      -5.095   3.503  -0.172  1.00  0.00    +0.2518  C
ATOM     71 F33  CHE L   1      -5.550   4.347   0.796  1.00  0.00    -0.2079  F
ATOM     72 F34  CHE L   1      -5.027   4.237  -1.312  1.00  0.00    -0.2079  F
ATOM     73 H69  CHE L   1      -4.092   3.188   0.111  1.00  0.00    +0.1031  H
ENDBRANCH 67 70
ENDBRANCH 62 67
ENDBRANCH 49 62
ENDBRANCH 38 46
ENDBRANCH 25 38
ENDBRANCH 21 30
ENDBRANCH 18 23
ENDBRANCH 1 18
TORSDOF 9
