ROOT
ATOM      1  F1  SEL L   1      -6.522  -3.719  -0.988  1.00  0.00    -0.2055  F
ATOM      2  C2  SEL L   1      -5.579  -2.769  -0.936  1.00  0.00    +0.1234  A
ATOM      3  C3  SEL L   1      -4.736  -2.580  -2.023  1.00  0.00    -0.0261  A
ATOM      4  C4  SEL L   1      -3.753  -1.590  -1.970  1.00  0.00    -0.0540  A
ATOM      5  C5  SEL L   1      -3.606  -0.782  -0.826  1.00  0.00    -0.0257  A
ATOM      6 C29  SEL L   1      -4.477  -0.995   0.260  1.00  0.00    -0.0540  A
ATOM      7 C30  SEL L   1      -5.460  -1.986   0.205  1.00  0.00    -0.0261  A
ATOM      8 H31  SEL L   1      -4.849  -3.205  -2.904  1.00  0.00    +0.0646  H
ATOM      9 H32  SEL L   1      -3.099  -1.454  -2.829  1.00  0.00    +0.0622  H
ATOM     10 H54  SEL L   1      -4.399  -0.385   1.158  1.00  0.00    +0.0622  H
ATOM     11 H55  SEL L   1      -6.131  -2.150   1.042  1.00  0.00    +0.0646  H
ENDROOT
BRANCH 5 12
ATOM     12  C6  SEL L   1      -2.514   0.299  -0.791  1.00  0.00    +0.0624  C
ATOM     13 H33  SEL L   1      -2.218   0.475  -1.837  1.00  0.00    +0.0563  H
BRANCH 12 14
ATOM     14  C7  SEL L   1      -3.016   1.691  -0.382  1.00  0.00    -0.0076  A
ATOM     15  C8  SEL L   1      -4.269   2.173  -0.794  1.00  0.00    -0.0511  A
ATOM     16  C9  SEL L   1      -4.676   3.459  -0.447  1.00  0.00    -0.0069  A
ATOM     17 C10  SEL L   1      -3.808   4.245   0.287  1.00  0.00    +0.2132  A
ATOM     18 F11  SEL L   1      -4.196   5.483   0.624  1.00  0.00    -0.1839  F
ATOM     19 N12  SEL L   1      -2.584   3.845   0.678  1.00  0.00    -0.2273 NA
ATOM     20 C13  SEL L   1      -2.215   2.590   0.324  1.00  0.00    +0.0356  A
ATOM     21 H34  SEL L   1      -4.939   1.555  -1.389  1.00  0.00    +0.0623  H
ATOM     22 H35  SEL L   1      -5.642   3.848  -0.743  1.00  0.00    +0.0662  H
ATOM     23 H36  SEL L   1      -1.208   2.327   0.638  1.00  0.00    +0.0834  H
ENDBRANCH 12 14
BRANCH 12 24
ATOM     24 N14  SEL L   1      -1.285  -0.114  -0.083  1.00  0.00    -0.2891 NA
ATOM     25 C15  SEL L   1      -0.421  -1.018  -0.861  1.00  0.00    +0.0126  C
ATOM     26 C16  SEL L   1       0.700  -1.692  -0.023  1.00  0.00    +0.0121  C
ATOM     27 N17  SEL L   1       1.124  -0.946   1.177  1.00  0.00    -0.2963 NA
ATOM     28 C27  SEL L   1      -0.067  -0.707   2.028  1.00  0.00    +0.0121  C
ATOM     29 C28  SEL L   1      -1.434  -0.594   1.294  1.00  0.00    +0.0126  C
ATOM     30 H37  SEL L   1       0.047  -0.433  -1.662  1.00  0.00    +0.0439  H
ATOM     31 H38  SEL L   1      -0.997  -1.820  -1.336  1.00  0.00    +0.0439  H
ATOM     32 H39  SEL L   1       0.330  -2.669   0.318  1.00  0.00    +0.0439  H
ATOM     33 H40  SEL L   1       1.552  -1.931  -0.670  1.00  0.00    +0.0439  H
ATOM     34 H50  SEL L   1      -0.139  -1.547   2.732  1.00  0.00    +0.0439  H
ATOM     35 H51  SEL L   1       0.079   0.180   2.657  1.00  0.00    +0.0439  H
ATOM     36 H52  SEL L   1      -1.906  -1.585   1.300  1.00  0.00    +0.0439  H
ATOM     37 H53  SEL L   1      -2.072   0.075   1.882  1.00  0.00    +0.0439  H
BRANCH 27 38
ATOM     38 C18  SEL L   1       1.797   0.323   0.853  1.00  0.00    +0.0175  C
ATOM     39 H41  SEL L   1       1.930   0.904   1.776  1.00  0.00    +0.0470  H
ATOM     40 H42  SEL L   1       1.203   0.953   0.183  1.00  0.00    +0.0470  H
BRANCH 38 41
ATOM     41 C19  SEL L   1       3.156   0.110   0.243  1.00  0.00    -0.0695  C
ATOM     42 C20  SEL L   1       4.308   0.473   0.831  1.00  0.00    -0.0573  C
ATOM     43 H43  SEL L   1       3.174  -0.328  -0.750  1.00  0.00    +0.0585  H
ATOM     44 H44  SEL L   1       4.298   0.946   1.811  1.00  0.00    +0.0621  H
BRANCH 42 45
ATOM     45 C21  SEL L   1       5.633   0.286   0.225  1.00  0.00    -0.0253  A
ATOM     46 C22  SEL L   1       5.974  -0.879  -0.474  1.00  0.00    -0.0546  A
ATOM     47 C23  SEL L   1       7.254  -1.037  -1.011  1.00  0.00    -0.0612  A
ATOM     48 C24  SEL L   1       8.208  -0.035  -0.847  1.00  0.00    -0.0617  A
ATOM     49 C25  SEL L   1       7.885   1.123  -0.142  1.00  0.00    -0.0612  A
ATOM     50 C26  SEL L   1       6.605   1.279   0.397  1.00  0.00    -0.0546  A
ATOM     51 H45  SEL L   1       5.249  -1.681  -0.594  1.00  0.00    +0.0623  H
ATOM     52 H46  SEL L   1       7.506  -1.945  -1.552  1.00  0.00    +0.0618  H
ATOM     53 H47  SEL L   1       9.204  -0.158  -1.264  1.00  0.00    +0.0618  H
ATOM     54 H48  SEL L   1       8.629   1.903  -0.008  1.00  0.00    +0.0618  H
ATOM     55 H49  SEL L   1       6.372   2.188   0.946  1.00  0.00    +0.0623  H
ENDBRANCH 42 45
ENDBRANCH 38 41
ENDBRANCH 27 38
ENDBRANCH 12 24
ENDBRANCH 5 12
TORSDOF 6
