ROOT
ATOM      1 C27  WH0 L   1       1.323  -3.035   0.786  1.00  0.00    -0.0133  A
ATOM      2 C28  WH0 L   1       2.126  -4.016   0.158  1.00  0.00    -0.0519  A
ATOM      3 C29  WH0 L   1       1.856  -5.381   0.337  1.00  0.00    -0.0374  A
ATOM      4 C30  WH0 L   1       0.778  -5.741   1.141  1.00  0.00    +0.0454  A
ATOM      5 C31  WH0 L   1      -0.017  -4.794   1.750  1.00  0.00    -0.0145  A
ATOM      6 C32  WH0 L   1       0.237  -3.433   1.593  1.00  0.00    -0.0483  A
ATOM      7 C33  WH0 L   1      -1.102  -5.445   2.545  1.00  0.00    +0.0535  C
ATOM      8 C34  WH0 L   1      -0.780  -6.886   2.280  1.00  0.00    +0.2296  C
ATOM      9 O35  WH0 L   1      -1.443  -7.854   2.740  1.00  0.00    -0.2725 OA
ATOM     10 N36  WH0 L   1       0.355  -7.058   1.438  1.00  0.00    -0.3256  N
ATOM     11 H62  WH0 L   1       2.951  -3.723  -0.480  1.00  0.00    +0.0624  H
ATOM     12 H63  WH0 L   1       2.471  -6.135  -0.140  1.00  0.00    +0.0638  H
ATOM     13 H64  WH0 L   1      -0.390  -2.703   2.091  1.00  0.00    +0.0627  H
ATOM     14 H65  WH0 L   1      -2.103  -5.183   2.145  1.00  0.00    +0.0410  H
ATOM     15 H66  WH0 L   1      -1.004  -5.205   3.624  1.00  0.00    +0.0410  H
ATOM     16 H67  WH0 L   1       0.773  -7.955   1.104  1.00  0.00    +0.1686 HD
ENDROOT
BRANCH 1 25
ATOM     17 C11  WH0 L   1       0.741  -0.544   0.350  1.00  0.00    +0.1015  A
ATOM     18 N12  WH0 L   1       1.408   0.632   0.399  1.00  0.00    -0.1627 NA
ATOM     19 N13  WH0 L   1       2.667   0.355   0.684  1.00  0.00    -0.1987  N
ATOM     20 C14  WH0 L   1       3.687   1.242   0.827  1.00  0.00    +0.2282  A
ATOM     21 N22  WH0 L   1       4.935   0.757   1.085  1.00  0.00    -0.2207 NA
ATOM     22 C23  WH0 L   1       5.155  -0.583   1.233  1.00  0.00    +0.0334  A
ATOM     23 C24  WH0 L   1       4.097  -1.495   1.113  1.00  0.00    -0.0173  A
ATOM     24 C25  WH0 L   1       2.842  -0.968   0.808  1.00  0.00    +0.0803  A
ATOM     25 C26  WH0 L   1       1.626  -1.599   0.611  1.00  0.00    +0.0353  A
ATOM     26 H60  WH0 L   1       6.151  -0.941   1.448  1.00  0.00    +0.0831  H
ATOM     27 H61  WH0 L   1       4.262  -2.555   1.245  1.00  0.00    +0.0654  H
BRANCH 17 30
ATOM     28  C8  WH0 L   1      -2.919   0.388   0.073  1.00  0.00    -0.0099  A
ATOM     29  C9  WH0 L   1      -1.553   0.425   0.395  1.00  0.00    -0.0465  A
ATOM     30 C10  WH0 L   1      -0.698  -0.622   0.017  1.00  0.00    +0.0032  A
ATOM     31 C37  WH0 L   1      -1.217  -1.692  -0.732  1.00  0.00    -0.0498  A
ATOM     32 C38  WH0 L   1      -2.573  -1.728  -1.065  1.00  0.00    -0.0256  A
ATOM     33 C39  WH0 L   1      -3.424  -0.696  -0.668  1.00  0.00    +0.1266  A
ATOM     34 F40  WH0 L   1      -4.736  -0.756  -1.007  1.00  0.00    -0.2052  F
ATOM     35 H49  WH0 L   1      -1.160   1.266   0.956  1.00  0.00    +0.0628  H
ATOM     36 H68  WH0 L   1      -0.573  -2.486  -1.082  1.00  0.00    +0.0625  H
ATOM     37 H69  WH0 L   1      -2.961  -2.556  -1.645  1.00  0.00    +0.0646  H
BRANCH 28 38
ATOM     38  C7  WH0 L   1      -3.818   1.524   0.499  1.00  0.00    -0.0074  C
ATOM     39 H47  WH0 L   1      -4.872   1.183   0.577  1.00  0.00    +0.0331  H
ATOM     40 H48  WH0 L   1      -3.525   1.863   1.516  1.00  0.00    +0.0331  H
BRANCH 38 41
ATOM     41  C6  WH0 L   1      -3.720   2.716  -0.464  1.00  0.00    +0.0224  C
ATOM     42 H45  WH0 L   1      -2.669   3.077  -0.493  1.00  0.00    +0.0489  H
ATOM     43 H46  WH0 L   1      -4.346   3.554  -0.089  1.00  0.00    +0.0489  H
BRANCH 41 46
ATOM     44  C3  WH0 L   1      -5.525   2.093  -2.140  1.00  0.00    +0.2443  C
ATOM     45  O4  WH0 L   1      -6.418   2.307  -1.276  1.00  0.00    -0.2683 OA
ATOM     46  N5  WH0 L   1      -4.146   2.348  -1.815  1.00  0.00    -0.3522  N
ATOM     47 H44  WH0 L   1      -3.413   2.339  -2.554  1.00  0.00    +0.1626 HD
BRANCH 44 49
ATOM     48  C1  WH0 L   1      -5.109   1.212  -4.432  1.00  0.00    -0.0936  C
ATOM     49  C2  WH0 L   1      -5.948   1.579  -3.461  1.00  0.00    -0.0047  C
ATOM     50 H41  WH0 L   1      -4.034   1.260  -4.331  1.00  0.00    +0.0536  H
ATOM     51 H42  WH0 L   1      -5.508   0.837  -5.365  1.00  0.00    +0.0536  H
ATOM     52 H43  WH0 L   1      -7.012   1.475  -3.644  1.00  0.00    +0.0666  H
ENDBRANCH 44 49
ENDBRANCH 41 46
ENDBRANCH 38 41
ENDBRANCH 28 38
ENDBRANCH 17 30
BRANCH 20 53
ATOM     53 N15  WH0 L   1       3.473   2.655   0.688  1.00  0.00    -0.3401  N
ATOM     54 C16  WH0 L   1       4.366   3.438  -0.175  1.00  0.00    +0.0237  C
ATOM     55 C17  WH0 L   1       3.759   4.812  -0.506  1.00  0.00    -0.0090  C
ATOM     56 C18  WH0 L   1       2.241   4.695  -0.745  1.00  0.00    +0.0585  C
ATOM     57 O19  WH0 L   1       1.994   3.857  -1.847  1.00  0.00    -0.3917 OA
ATOM     58 C20  WH0 L   1       1.504   4.137   0.497  1.00  0.00    -0.0090  C
ATOM     59 C21  WH0 L   1       2.413   3.333   1.442  1.00  0.00    +0.0237  C
ATOM     60 H50  WH0 L   1       5.351   3.571   0.324  1.00  0.00    +0.0489  H
ATOM     61 H51  WH0 L   1       4.531   2.885  -1.126  1.00  0.00    +0.0489  H
ATOM     62 H52  WH0 L   1       4.254   5.233  -1.407  1.00  0.00    +0.0307  H
ATOM     63 H53  WH0 L   1       3.942   5.512   0.339  1.00  0.00    +0.0307  H
ATOM     64 H54  WH0 L   1       1.835   5.712  -0.958  1.00  0.00    +0.0594  H
ATOM     65 H55  WH0 L   1       2.209   4.383  -2.662  1.00  0.00    +0.2098 HD
ATOM     66 H56  WH0 L   1       0.655   3.494   0.172  1.00  0.00    +0.0307  H
ATOM     67 H57  WH0 L   1       1.059   4.981   1.071  1.00  0.00    +0.0307  H
ATOM     68 H58  WH0 L   1       1.805   2.615   2.034  1.00  0.00    +0.0489  H
ATOM     69 H59  WH0 L   1       2.886   4.027   2.171  1.00  0.00    +0.0489  H
ENDBRANCH 20 53
ENDBRANCH 1 25
TORSDOF 7
