ROOT
ATOM      1  C1  LIG L   1      -8.622   4.119 -11.592  1.00  0.00    -0.0377  C
ATOM      2  C2  LIG L   1      -7.452   3.931 -12.483  1.00  0.00    -0.0265  A
ATOM      3  C3  LIG L   1      -7.651   3.803 -13.844  1.00  0.00    -0.0569  A
ATOM      4  C4  LIG L   1      -6.522   3.628 -14.618  1.00  0.00    -0.0608  A
ATOM      5  C5  LIG L   1      -5.273   3.585 -14.039  1.00  0.00    -0.0526  A
ATOM      6  C6  LIG L   1      -5.101   3.715 -12.672  1.00  0.00    -0.0009  A
ATOM      7  C7  LIG L   1      -3.863   3.671 -12.124  1.00  0.00    -0.0421  A
ATOM      8  C8  LIG L   1      -3.604   3.795 -10.735  1.00  0.00    +0.0452  A
ATOM      9 C32  LIG L   1      -4.782   3.972  -9.996  1.00  0.00    +0.2546  A
ATOM     10 O33  LIG L   1      -4.780   4.105  -8.753  1.00  0.00    -0.2675 OA
ATOM     11 N34  LIG L   1      -6.005   4.013 -10.571  1.00  0.00    -0.3216  N
ATOM     12 C35  LIG L   1      -6.209   3.890 -11.889  1.00  0.00    +0.0521  A
ATOM     13 H39  LIG L   1      -8.560   5.073 -11.056  1.00  0.00    +0.0278  H
ATOM     14 H40  LIG L   1      -9.561   4.137 -12.156  1.00  0.00    +0.0278  H
ATOM     15 H41  LIG L   1      -8.705   3.299 -10.870  1.00  0.00    +0.0278  H
ATOM     16 H42  LIG L   1      -8.636   3.839 -14.296  1.00  0.00    +0.0621  H
ATOM     17 H43  LIG L   1      -6.622   3.524 -15.697  1.00  0.00    +0.0618  H
ATOM     18 H44  LIG L   1      -4.415   3.448 -14.697  1.00  0.00    +0.0624  H
ATOM     19 H45  LIG L   1      -3.084   3.668 -12.877  1.00  0.00    +0.0629  H
ATOM     20 H66  LIG L   1      -6.765   4.148  -9.920  1.00  0.00    +0.1689 HD
ENDROOT
BRANCH 8 21
ATOM     21  C9  LIG L   1      -2.270   3.771 -10.170  1.00  0.00    +0.1148  C
BRANCH 21 22
ATOM     22 C10  LIG L   1      -1.391   3.513 -11.421  1.00  0.00    +0.1768  A
ATOM     23 N11  LIG L   1      -0.607   4.390 -12.052  1.00  0.00    -0.1111 NA
ATOM     24 N12  LIG L   1      -0.032   3.799 -13.052  1.00  0.00    -0.0229 NA
ATOM     25 N13  LIG L   1      -0.429   2.582 -13.072  1.00  0.00    -0.0433 NA
ATOM     26 N14  LIG L   1      -1.301   2.329 -12.057  1.00  0.00    -0.2218  N
BRANCH 26 27
ATOM     27 C15  LIG L   1      -1.882   1.085 -11.867  1.00  0.00    +0.0590  C
ATOM     28 C16  LIG L   1      -2.706   0.557 -10.873  1.00  0.00    -0.0401  C
ATOM     29 C17  LIG L   1      -0.653   0.110 -11.860  1.00  0.00    -0.0401  C
ATOM     30 C18  LIG L   1      -2.478   0.682 -13.252  1.00  0.00    -0.0401  C
ATOM     31 H46  LIG L   1      -3.101  -0.444 -11.102  1.00  0.00    +0.0253  H
ATOM     32 H47  LIG L   1      -3.602   1.152 -10.678  1.00  0.00    +0.0253  H
ATOM     33 H48  LIG L   1      -2.200   0.415  -9.922  1.00  0.00    +0.0253  H
ATOM     34 H49  LIG L   1      -0.962  -0.945 -11.821  1.00  0.00    +0.0253  H
ATOM     35 H50  LIG L   1      -0.003   0.192 -12.742  1.00  0.00    +0.0253  H
ATOM     36 H51  LIG L   1      -0.014   0.274 -10.986  1.00  0.00    +0.0253  H
ATOM     37 H52  LIG L   1      -1.809   0.844 -14.106  1.00  0.00    +0.0253  H
ATOM     38 H53  LIG L   1      -3.394   1.245 -13.458  1.00  0.00    +0.0253  H
ATOM     39 H54  LIG L   1      -2.761  -0.379 -13.289  1.00  0.00    +0.0253  H
ENDBRANCH 26 27
ENDBRANCH 21 22
BRANCH 21 40
ATOM     40 N19  LIG L   1      -1.778   2.846  -9.270  1.00  0.00    -0.2830 NA
ATOM     41 C20  LIG L   1      -0.315   2.711  -9.338  1.00  0.00    +0.0179  C
ATOM     42 C21  LIG L   1       0.223   1.668  -8.441  1.00  0.00    +0.0344  C
ATOM     43 N22  LIG L   1      -0.720   0.790  -7.835  1.00  0.00    -0.3333  N
ATOM     44 C23  LIG L   1      -0.403  -0.583  -7.624  1.00  0.00    +0.2899  C
ATOM     45 O24  LIG L   1       0.750  -0.950  -8.008  1.00  0.00    -0.2640 OA
ATOM     46 C30  LIG L   1      -2.020   1.275  -7.426  1.00  0.00    +0.0344  C
ATOM     47 C31  LIG L   1      -2.054   2.753  -7.904  1.00  0.00    +0.0179  C
ATOM     48 H55  LIG L   1       0.176   3.653  -9.053  1.00  0.00    +0.0444  H
ATOM     49 H56  LIG L   1       0.155   2.457 -10.287  1.00  0.00    +0.0444  H
ATOM     50 H57  LIG L   1       1.004   1.099  -8.960  1.00  0.00    +0.0501  H
ATOM     51 H58  LIG L   1       0.744   2.148  -7.601  1.00  0.00    +0.0501  H
ATOM     52 H62  LIG L   1      -2.823   0.673  -7.862  1.00  0.00    +0.0501  H
ATOM     53 H63  LIG L   1      -2.095   1.237  -6.335  1.00  0.00    +0.0501  H
ATOM     54 H64  LIG L   1      -3.069   3.077  -7.669  1.00  0.00    +0.0444  H
ATOM     55 H65  LIG L   1      -1.413   3.381  -7.267  1.00  0.00    +0.0444  H
BRANCH 44 56
ATOM     56 C25  LIG L   1      -1.314  -1.537  -7.012  1.00  0.00    +0.1915  A
ATOM     57 C26  LIG L   1      -1.842  -1.590  -5.748  1.00  0.00    -0.0111  A
ATOM     58 C27  LIG L   1      -2.647  -2.725  -5.733  1.00  0.00    -0.0231  A
ATOM     59 C28  LIG L   1      -2.575  -3.310  -6.979  1.00  0.00    +0.0928  A
ATOM     60 O29  LIG L   1      -1.782  -2.579  -7.698  1.00  0.00    -0.4581 OA
ATOM     61 H59  LIG L   1      -1.647  -0.896  -4.943  1.00  0.00    +0.0657  H
ATOM     62 H60  LIG L   1      -3.228  -3.109  -4.906  1.00  0.00    +0.0649  H
ATOM     63 H61  LIG L   1      -3.015  -4.191  -7.425  1.00  0.00    +0.1029  H
ENDBRANCH 44 56
ENDBRANCH 21 40
BRANCH 21 64
ATOM     64 C36  LIG L   1      -1.906   5.290  -9.768  1.00  0.00    -0.0141  C
ATOM     65 H67  LIG L   1      -2.104   5.937 -10.639  1.00  0.00    +0.0299  H
ATOM     66 H68  LIG L   1      -0.821   5.371  -9.617  1.00  0.00    +0.0299  H
BRANCH 64 67
ATOM     67 C37  LIG L   1      -2.604   5.943  -8.574  1.00  0.00    -0.0069  C
ATOM     68 S38  LIG L   1      -1.770   7.503  -8.122  1.00  0.00    -0.1782 SA
ATOM     69 H69  LIG L   1      -3.633   6.211  -8.819  1.00  0.00    +0.0375  H
ATOM     70 H70  LIG L   1      -2.597   5.316  -7.685  1.00  0.00    +0.0375  H
ATOM     71 H71  LIG L   1      -1.956   8.125  -9.296  1.00  0.00    +0.1016 HD
ENDBRANCH 64 67
ENDBRANCH 21 64
ENDBRANCH 8 21
TORSDOF 7
