ROOT
ATOM      1  C6  CHE L   1       0.463  -0.837  -1.386  1.00  0.00    -0.0137  A
ATOM      2  C7  CHE L   1       0.777  -0.323  -2.648  1.00  0.00    -0.0532  A
ATOM      3  C8  CHE L   1       1.900   0.490  -2.808  1.00  0.00    -0.0482  A
ATOM      4  C9  CHE L   1       2.709   0.788  -1.705  1.00  0.00    +0.0497  A
ATOM      5 C10  CHE L   1       3.892   1.649  -1.867  1.00  0.00    +0.2725  A
ATOM      6 O11  CHE L   1       4.192   2.123  -2.957  1.00  0.00    -0.2658 OA
ATOM      7 N12  CHE L   1       4.629   1.880  -0.733  1.00  0.00    -0.2424  N
ATOM      8 N13  CHE L   1       4.356   1.408   0.513  1.00  0.00    -0.1740 NA
ATOM      9 C14  CHE L   1       3.311   0.650   0.676  1.00  0.00    +0.0828  A
ATOM     10 C17  CHE L   1       2.408   0.276  -0.445  1.00  0.00    +0.0121  A
ATOM     11 C18  CHE L   1       1.287  -0.548  -0.288  1.00  0.00    -0.0442  A
ATOM     12 H33  CHE L   1       0.141  -0.528  -3.508  1.00  0.00    +0.0624  H
ATOM     13 H34  CHE L   1       2.137   0.897  -3.790  1.00  0.00    +0.0625  H
ATOM     14 H35  CHE L   1       5.444   2.480  -0.820  1.00  0.00    +0.1921 HD
ATOM     15 H40  CHE L   1       1.035  -0.979   0.676  1.00  0.00    +0.0630  H
ENDROOT
BRANCH 1 20
ATOM     16  C1  CHE L   1      -3.948  -2.559   0.131  1.00  0.00    +0.0309  C
ATOM     17  N2  CHE L   1      -2.665  -2.391  -0.515  1.00  0.00    -0.2660  N
ATOM     18  N3  CHE L   1      -2.231  -3.352  -1.354  1.00  0.00    -0.1787 NA
ATOM     19  C4  CHE L   1      -1.055  -2.895  -1.784  1.00  0.00    +0.0577  A
ATOM     20  C5  CHE L   1      -0.719  -1.653  -1.209  1.00  0.00    +0.0276  A
ATOM     21 C19  CHE L   1      -1.797  -1.327  -0.396  1.00  0.00    +0.0802  A
ATOM     22 H29  CHE L   1      -4.492  -1.613   0.094  1.00  0.00    +0.0473  H
ATOM     23 H30  CHE L   1      -3.771  -2.866   1.164  1.00  0.00    +0.0473  H
ATOM     24 H31  CHE L   1      -4.521  -3.327  -0.396  1.00  0.00    +0.0473  H
ATOM     25 H32  CHE L   1      -0.487  -3.490  -2.488  1.00  0.00    +0.0854  H
BRANCH 21 26
ATOM     26 C20  CHE L   1      -2.050  -0.138   0.426  1.00  0.00    +0.0531  A
ATOM     27 C21  CHE L   1      -1.976  -0.236   1.823  1.00  0.00    +0.1338  A
ATOM     28 F22  CHE L   1      -1.697  -1.414   2.400  1.00  0.00    -0.2048  F
ATOM     29 C23  CHE L   1      -2.172   0.871   2.645  1.00  0.00    -0.0257  A
ATOM     30 C24  CHE L   1      -2.445   2.111   2.078  1.00  0.00    -0.0578  A
ATOM     31 C25  CHE L   1      -2.527   2.234   0.690  1.00  0.00    -0.0435  A
ATOM     32 C26  CHE L   1      -2.331   1.118  -0.141  1.00  0.00    +0.0637  A
ATOM     33 H41  CHE L   1      -2.105   0.758   3.724  1.00  0.00    +0.0646  H
ATOM     34 H42  CHE L   1      -2.595   2.982   2.713  1.00  0.00    +0.0619  H
ATOM     35 H43  CHE L   1      -2.744   3.211   0.256  1.00  0.00    +0.0631  H
BRANCH 32 36
ATOM     36 C27  CHE L   1      -2.439   1.300  -1.562  1.00  0.00    +0.0999  C
ATOM     37 N28  CHE L   1      -2.535   1.469  -2.706  1.00  0.00    -0.1908 NA
ENDBRANCH 32 36
ENDBRANCH 21 26
ENDBRANCH 1 20
BRANCH 9 38
ATOM     38 C15  CHE L   1       3.026   0.138   2.088  1.00  0.00    +0.0383  C
ATOM     39 N16  CHE L   1       1.961   0.931   2.708  1.00  0.00    -0.3248 NA
ATOM     40 H36  CHE L   1       2.768  -0.925   2.073  1.00  0.00    +0.0487  H
ATOM     41 H37  CHE L   1       3.939   0.239   2.687  1.00  0.00    +0.0487  H
ATOM     42 H38  CHE L   1       1.067   0.752   2.259  1.00  0.00    +0.1186 HD
ATOM     43 H39  CHE L   1       1.861   0.646   3.681  1.00  0.00    +0.1186 HD
ENDBRANCH 9 38
TORSDOF 4
