ROOT
ATOM      1  C1  CHE L   1      -2.979  -2.210   0.750  1.00  0.00    -0.0697  C
ATOM      2  C2  CHE L   1      -2.141  -1.317   0.196  1.00  0.00    +0.1020  C
ATOM      3  C3  CHE L   1      -0.664  -1.645   0.296  1.00  0.00    +0.2725  C
ATOM      4  O4  CHE L   1      -0.253  -2.755   0.627  1.00  0.00    -0.2657 OA
ATOM      5  N5  CHE L   1       0.170  -0.643  -0.106  1.00  0.00    -0.3045  N
ATOM      6  C6  CHE L   1       1.589  -0.837  -0.375  1.00  0.00    +0.0858  C
ATOM      7  C7  CHE L   1       2.030   0.559  -0.753  1.00  0.00    -0.0409  C
ATOM      8  C8  CHE L   1       3.280   0.995  -0.540  1.00  0.00    -0.0606  C
ATOM      9  C9  CHE L   1       4.256   0.112   0.059  1.00  0.00    -0.0632  C
ATOM     10 C10  CHE L   1       3.876  -1.001   0.711  1.00  0.00    -0.0536  C
ATOM     11 C11  CHE L   1       2.434  -1.439   0.787  1.00  0.00    +0.0979  C
ATOM     12 O12  CHE L   1       2.431  -2.866   0.714  1.00  0.00    -0.3854 OA
ATOM     13 C13  CHE L   1       0.831   1.367  -1.147  1.00  0.00    +0.0126  C
ATOM     14 C14  CHE L   1      -0.263   0.737  -0.267  1.00  0.00    +0.1732  C
ATOM     15 C17  CHE L   1      -1.654   0.804  -0.931  1.00  0.00    +0.2642  C
ATOM     16 O18  CHE L   1      -1.980   1.758  -1.642  1.00  0.00    -0.2691 OA
ATOM     17 N19  CHE L   1      -2.561  -0.185  -0.511  1.00  0.00    -0.3085  N
ATOM     18 C20  CHE L   1      -3.963  -0.017  -0.872  1.00  0.00    +0.0152  C
ATOM     19 H21  CHE L   1      -2.602  -3.091   1.264  1.00  0.00    +0.0557  H
ATOM     20 H22  CHE L   1      -4.056  -2.107   0.729  1.00  0.00    +0.0557  H
ATOM     21 H23  CHE L   1       1.643  -1.493  -1.254  1.00  0.00    +0.0601  H
ATOM     22 H24  CHE L   1       3.576   2.019  -0.749  1.00  0.00    +0.0618  H
ATOM     23 H25  CHE L   1       5.301   0.406   0.024  1.00  0.00    +0.0615  H
ATOM     24 H26  CHE L   1       4.614  -1.625   1.205  1.00  0.00    +0.0598  H
ATOM     25 H27  CHE L   1       2.029  -1.157   1.766  1.00  0.00    +0.0662  H
ATOM     26 H28  CHE L   1       1.485  -3.127   0.759  1.00  0.00    +0.2103 HD
ATOM     27 H29  CHE L   1       0.966   2.442  -1.000  1.00  0.00    +0.0347  H
ATOM     28 H30  CHE L   1       0.627   1.195  -2.212  1.00  0.00    +0.0347  H
ATOM     29 H34  CHE L   1      -4.307  -0.899  -1.422  1.00  0.00    +0.0457  H
ATOM     30 H35  CHE L   1      -4.555   0.115   0.040  1.00  0.00    +0.0457  H
ATOM     31 H36  CHE L   1      -4.124   0.859  -1.506  1.00  0.00    +0.0457  H
ENDROOT
BRANCH 14 32
ATOM     32 S15  CHE L   1      -0.338   1.512   1.427  1.00  0.00    -0.1265 SA
ATOM     33 C16  CHE L   1      -1.060   3.126   1.029  1.00  0.00    -0.0155  C
ATOM     34 H31  CHE L   1      -1.026   3.752   1.925  1.00  0.00    +0.0341  H
ATOM     35 H32  CHE L   1      -2.108   3.020   0.738  1.00  0.00    +0.0341  H
ATOM     36 H33  CHE L   1      -0.501   3.635   0.241  1.00  0.00    +0.0341  H
ENDBRANCH 14 32
TORSDOF 1
