ROOT
ATOM      1 C15  CHE L   1       0.635  -1.179  -0.094  1.00  0.00    +0.0687  A
ATOM      2 C16  CHE L   1      -0.689  -1.621  -0.078  1.00  0.00    +0.0307  A
ATOM      3 C17  CHE L   1      -1.380  -2.506   0.906  1.00  0.00    -0.0234  C
ATOM      4 N18  CHE L   1      -1.332  -1.076  -1.179  1.00  0.00    -0.3255  N
ATOM      5 C30  CHE L   1      -0.444  -0.308  -1.899  1.00  0.00    +0.1420  A
ATOM      6 N31  CHE L   1      -0.738   0.361  -3.036  1.00  0.00    -0.2344 NA
ATOM      7 C32  CHE L   1       0.316   1.027  -3.558  1.00  0.00    +0.0651  A
ATOM      8 C33  CHE L   1       1.591   1.049  -3.023  1.00  0.00    +0.1421  A
ATOM      9 F34  CHE L   1       2.569   1.735  -3.628  1.00  0.00    -0.2039  F
ATOM     10 C35  CHE L   1       1.855   0.350  -1.853  1.00  0.00    -0.0135  A
ATOM     11 C36  CHE L   1       0.790  -0.353  -1.255  1.00  0.00    +0.0342  A
ATOM     12 H48  CHE L   1      -2.268  -2.013   1.313  1.00  0.00    +0.0292  H
ATOM     13 H49  CHE L   1      -1.683  -3.443   0.429  1.00  0.00    +0.0292  H
ATOM     14 H50  CHE L   1      -0.742  -2.756   1.758  1.00  0.00    +0.0292  H
ATOM     15 H69  CHE L   1       0.107   1.575  -4.472  1.00  0.00    +0.0859  H
ATOM     16 H70  CHE L   1       2.856   0.351  -1.436  1.00  0.00    +0.0654  H
ENDROOT
BRANCH 1 18
ATOM     17 N12  CHE L   1       2.520  -0.514   1.193  1.00  0.00    -0.3477  N
ATOM     18 C13  CHE L   1       1.656  -1.538   0.890  1.00  0.00    +0.2546  C
ATOM     19 O14  CHE L   1       1.722  -2.648   1.405  1.00  0.00    -0.2675 OA
ATOM     20 H47  CHE L   1       2.236   0.428   0.942  1.00  0.00    +0.1630 HD
BRANCH 17 21
ATOM     21 C11  CHE L   1       3.508  -0.618   2.245  1.00  0.00    +0.0499  C
ATOM     22 H45  CHE L   1       3.654  -1.665   2.521  1.00  0.00    +0.0538  H
ATOM     23 H46  CHE L   1       3.099  -0.119   3.131  1.00  0.00    +0.0538  H
BRANCH 21 31
ATOM     24  C3  CHE L   1       5.969  -0.514   1.555  1.00  0.00    +0.0192  A
ATOM     25  C4  CHE L   1       7.116   0.289   1.168  1.00  0.00    -0.0288  A
ATOM     26  C5  CHE L   1       7.014   1.619   1.036  1.00  0.00    +0.0170  A
ATOM     27  C6  CHE L   1       8.152   2.508   0.643  1.00  0.00    -0.0243  C
ATOM     28  N7  CHE L   1       5.802   2.216   1.270  1.00  0.00    -0.3262  N
ATOM     29  C8  CHE L   1       4.663   1.545   1.631  1.00  0.00    +0.2548  A
ATOM     30  O9  CHE L   1       3.599   2.137   1.792  1.00  0.00    -0.2675 OA
ATOM     31 C10  CHE L   1       4.770   0.059   1.794  1.00  0.00    +0.0493  A
ATOM     32 H40  CHE L   1       8.065  -0.210   0.994  1.00  0.00    +0.0646  H
ATOM     33 H41  CHE L   1       9.071   1.940   0.463  1.00  0.00    +0.0292  H
ATOM     34 H42  CHE L   1       7.910   3.052  -0.276  1.00  0.00    +0.0292  H
ATOM     35 H43  CHE L   1       8.358   3.237   1.433  1.00  0.00    +0.0292  H
ATOM     36 H44  CHE L   1       5.703   3.221   1.174  1.00  0.00    +0.1686 HD
BRANCH 24 38
ATOM     37  C1  CHE L   1       5.588  -2.810   0.143  1.00  0.00    -0.0134  C
ATOM     38  S2  CHE L   1       6.261  -2.225   1.719  1.00  0.00    -0.1280 SA
ATOM     39 H37  CHE L   1       5.764  -3.885   0.055  1.00  0.00    +0.0344  H
ATOM     40 H38  CHE L   1       4.511  -2.630   0.089  1.00  0.00    +0.0344  H
ATOM     41 H39  CHE L   1       6.081  -2.308  -0.694  1.00  0.00    +0.0344  H
ENDBRANCH 24 38
ENDBRANCH 21 31
ENDBRANCH 17 21
ENDBRANCH 1 18
BRANCH 4 42
ATOM     42 C19  CHE L   1      -2.739  -1.299  -1.556  1.00  0.00    +0.0362  C
ATOM     43 C20  CHE L   1      -2.801  -2.123  -2.851  1.00  0.00    -0.0439  C
ATOM     44 H51  CHE L   1      -3.173  -1.927  -0.770  1.00  0.00    +0.0528  H
ATOM     45 H52  CHE L   1      -2.545  -1.520  -3.728  1.00  0.00    +0.0250  H
ATOM     46 H53  CHE L   1      -2.103  -2.967  -2.813  1.00  0.00    +0.0250  H
ATOM     47 H54  CHE L   1      -3.797  -2.542  -3.016  1.00  0.00    +0.0250  H
BRANCH 42 48
ATOM     48 C21  CHE L   1      -3.584   0.010  -1.612  1.00  0.00    -0.0181  C
ATOM     49 C22  CHE L   1      -3.347   0.897  -0.368  1.00  0.00    -0.0354  C
ATOM     50 C23  CHE L   1      -4.517   1.847  -0.122  1.00  0.00    -0.0005  C
ATOM     51 N24  CHE L   1      -5.775   1.145   0.157  1.00  0.00    -0.2994 NA
ATOM     52 C28  CHE L   1      -5.853  -0.184  -0.467  1.00  0.00    -0.0005  C
ATOM     53 C29  CHE L   1      -5.096  -0.257  -1.792  1.00  0.00    -0.0354  C
ATOM     54 H55  CHE L   1      -3.266   0.583  -2.493  1.00  0.00    +0.0321  H
ATOM     55 H56  CHE L   1      -2.431   1.484  -0.504  1.00  0.00    +0.0281  H
ATOM     56 H57  CHE L   1      -3.195   0.279   0.526  1.00  0.00    +0.0281  H
ATOM     57 H58  CHE L   1      -4.668   2.461  -1.020  1.00  0.00    +0.0427  H
ATOM     58 H59  CHE L   1      -4.243   2.560   0.661  1.00  0.00    +0.0427  H
ATOM     59 H65  CHE L   1      -6.906  -0.429  -0.647  1.00  0.00    +0.0427  H
ATOM     60 H66  CHE L   1      -5.455  -0.951   0.211  1.00  0.00    +0.0427  H
ATOM     61 H67  CHE L   1      -5.291  -1.223  -2.265  1.00  0.00    +0.0281  H
ATOM     62 H68  CHE L   1      -5.509   0.497  -2.476  1.00  0.00    +0.0281  H
BRANCH 51 63
ATOM     63 C25  CHE L   1      -6.283   1.122   1.543  1.00  0.00    +0.0105  C
ATOM     64 C26  CHE L   1      -6.239   2.328   2.438  1.00  0.00    -0.0359  C
ATOM     65 C27  CHE L   1      -5.382   1.130   2.745  1.00  0.00    -0.0359  C
ATOM     66 H60  CHE L   1      -7.202   0.541   1.644  1.00  0.00    +0.0462  H
ATOM     67 H61  CHE L   1      -7.099   2.513   3.072  1.00  0.00    +0.0281  H
ATOM     68 H62  CHE L   1      -5.761   3.234   2.089  1.00  0.00    +0.0281  H
ATOM     69 H63  CHE L   1      -5.665   0.508   3.587  1.00  0.00    +0.0281  H
ATOM     70 H64  CHE L   1      -4.312   1.223   2.617  1.00  0.00    +0.0281  H
ENDBRANCH 51 63
ENDBRANCH 42 48
ENDBRANCH 4 42
TORSDOF 7
