ROOT
ATOM      1 C20  CHE L   1       4.523   1.449   1.320  1.00  0.00    +0.0389  A
ATOM      2 C21  CHE L   1       5.137   0.453   2.117  1.00  0.00    -0.0388  A
ATOM      3 C22  CHE L   1       4.426  -0.172   3.290  1.00  0.00    -0.0392  C
ATOM      4 C23  CHE L   1       6.450   0.055   1.825  1.00  0.00    -0.0393  A
ATOM      5 C24  CHE L   1       7.125   0.608   0.732  1.00  0.00    +0.0162  A
ATOM      6 C25  CHE L   1       8.541   0.202   0.437  1.00  0.00    -0.0244  C
ATOM      7 N26  CHE L   1       6.514   1.560  -0.028  1.00  0.00    -0.3262  N
ATOM      8 C27  CHE L   1       5.243   1.979   0.227  1.00  0.00    +0.2540  A
ATOM      9 O28  CHE L   1       4.718   2.847  -0.524  1.00  0.00    -0.2675 OA
ATOM     10 H52  CHE L   1       3.432  -0.553   2.975  1.00  0.00    +0.0278  H
ATOM     11 H53  CHE L   1       4.304   0.578   4.097  1.00  0.00    +0.0278  H
ATOM     12 H54  CHE L   1       4.999  -1.030   3.701  1.00  0.00    +0.0278  H
ATOM     13 H55  CHE L   1       6.945  -0.688   2.439  1.00  0.00    +0.0637  H
ATOM     14 H56  CHE L   1       8.729   0.234  -0.657  1.00  0.00    +0.0292  H
ATOM     15 H57  CHE L   1       9.239   0.898   0.947  1.00  0.00    +0.0292  H
ATOM     16 H58  CHE L   1       8.741  -0.832   0.792  1.00  0.00    +0.0292  H
ATOM     17 H59  CHE L   1       7.032   1.979  -0.835  1.00  0.00    +0.1686 HD
ENDROOT
BRANCH 1 18
ATOM     18 C19  CHE L   1       3.096   1.894   1.573  1.00  0.00    +0.0491  C
ATOM     19 H50  CHE L   1       2.864   1.891   2.657  1.00  0.00    +0.0538  H
ATOM     20 H51  CHE L   1       2.957   2.944   1.233  1.00  0.00    +0.0538  H
BRANCH 18 23
ATOM     21 C16  CHE L   1       0.753   1.316   0.823  1.00  0.00    +0.2526  C
ATOM     22 O17  CHE L   1       0.316   2.393   1.313  1.00  0.00    -0.2676 OA
ATOM     23 N18  CHE L   1       2.157   1.024   0.867  1.00  0.00    -0.3478  N
ATOM     24 H49  CHE L   1       2.508   0.186   0.352  1.00  0.00    +0.1630 HD
BRANCH 21 27
ATOM     25 C13  CHE L   1      -1.882   0.066  -1.565  1.00  0.00    -0.0132  A
ATOM     26 C14  CHE L   1      -0.996   0.897  -0.869  1.00  0.00    -0.0413  A
ATOM     27 C15  CHE L   1      -0.185   0.389   0.158  1.00  0.00    +0.0444  A
ATOM     28 C29  CHE L   1      -0.292  -0.976   0.529  1.00  0.00    -0.0146  A
ATOM     29 C30  CHE L   1       0.560  -1.552   1.635  1.00  0.00    -0.0370  C
ATOM     30 C31  CHE L   1      -1.196  -1.810  -0.173  1.00  0.00    +0.0488  A
ATOM     31 C40  CHE L   1      -1.968  -1.287  -1.216  1.00  0.00    -0.0300  A
ATOM     32 H48  CHE L   1      -0.905   1.939  -1.157  1.00  0.00    +0.0631  H
ATOM     33 H60  CHE L   1       0.070  -2.420   2.121  1.00  0.00    +0.0278  H
ATOM     34 H61  CHE L   1       0.739  -0.803   2.435  1.00  0.00    +0.0278  H
ATOM     35 H62  CHE L   1       1.532  -1.884   1.217  1.00  0.00    +0.0278  H
ATOM     36 H73  CHE L   1      -2.654  -1.937  -1.748  1.00  0.00    +0.0644  H
BRANCH 25 43
ATOM     37  C6  CHE L   1      -3.470   1.763  -2.578  1.00  0.00    +0.0524  A
ATOM     38  C7  CHE L   1      -4.183   2.231  -3.699  1.00  0.00    -0.0024  A
ATOM     39  C8  CHE L   1      -4.094   1.570  -4.925  1.00  0.00    +0.1254  A
ATOM     40  F9  CHE L   1      -4.783   2.033  -5.996  1.00  0.00    -0.2054  F
ATOM     41 C10  CHE L   1      -3.309   0.423  -5.045  1.00  0.00    -0.0257  A
ATOM     42 C11  CHE L   1      -2.610  -0.066  -3.941  1.00  0.00    -0.0494  A
ATOM     43 C12  CHE L   1      -2.677   0.594  -2.700  1.00  0.00    +0.0058  A
ATOM     44 H45  CHE L   1      -4.829   3.095  -3.619  1.00  0.00    +0.0667  H
ATOM     45 H46  CHE L   1      -3.244  -0.088  -5.998  1.00  0.00    +0.0646  H
ATOM     46 H47  CHE L   1      -1.996  -0.950  -4.059  1.00  0.00    +0.0625  H
BRANCH 37 49
ATOM     47  C3  CHE L   1      -3.661   3.836  -1.140  1.00  0.00    +0.2486  C
ATOM     48  O4  CHE L   1      -3.369   4.591  -2.108  1.00  0.00    -0.2679 OA
ATOM     49  N5  CHE L   1      -3.629   2.411  -1.302  1.00  0.00    -0.3220  N
ATOM     50 H44  CHE L   1      -3.699   1.813  -0.445  1.00  0.00    +0.1689 HD
BRANCH 47 52
ATOM     51  C1  CHE L   1      -4.065   5.726   0.381  1.00  0.00    -0.0936  C
ATOM     52  C2  CHE L   1      -4.016   4.414   0.170  1.00  0.00    -0.0043  C
ATOM     53 H41  CHE L   1      -3.826   6.433  -0.406  1.00  0.00    +0.0536  H
ATOM     54 H42  CHE L   1      -4.342   6.106   1.356  1.00  0.00    +0.0536  H
ATOM     55 H43  CHE L   1      -4.263   3.747   0.987  1.00  0.00    +0.0666  H
ENDBRANCH 47 52
ENDBRANCH 37 49
ENDBRANCH 25 43
BRANCH 30 56
ATOM     56 N32  CHE L   1      -1.352  -3.196   0.172  1.00  0.00    -0.3119  N
ATOM     57 C35  CHE L   1      -2.426  -3.613   1.043  1.00  0.00    +0.2309  C
ATOM     58 O36  CHE L   1      -2.811  -4.816   1.036  1.00  0.00    -0.2724 OA
BRANCH 56 59
ATOM     59 C33  CHE L   1      -0.470  -4.185  -0.455  1.00  0.00    +0.0236  C
ATOM     60 C34  CHE L   1      -1.055  -4.675  -1.778  1.00  0.00    -0.0470  C
ATOM     61 H63  CHE L   1       0.534  -3.737  -0.643  1.00  0.00    +0.0490  H
ATOM     62 H64  CHE L   1      -0.321  -5.051   0.231  1.00  0.00    +0.0490  H
ATOM     63 H65  CHE L   1      -1.153  -3.833  -2.497  1.00  0.00    +0.0247  H
ATOM     64 H66  CHE L   1      -0.376  -5.433  -2.221  1.00  0.00    +0.0247  H
ATOM     65 H67  CHE L   1      -2.054  -5.138  -1.614  1.00  0.00    +0.0247  H
ENDBRANCH 56 59
BRANCH 57 66
ATOM     66 C37  CHE L   1      -3.015  -2.663   2.052  1.00  0.00    +0.0383  C
ATOM     67 C38  CHE L   1      -4.517  -2.799   2.268  1.00  0.00    -0.0410  C
ATOM     68 C39  CHE L   1      -3.966  -1.610   1.497  1.00  0.00    -0.0410  C
ATOM     69 H68  CHE L   1      -2.429  -2.384   2.956  1.00  0.00    +0.0396  H
ATOM     70 H69  CHE L   1      -4.861  -2.546   3.294  1.00  0.00    +0.0273  H
ATOM     71 H70  CHE L   1      -5.055  -3.528   1.618  1.00  0.00    +0.0273  H
ATOM     72 H71  CHE L   1      -3.978  -0.656   2.066  1.00  0.00    +0.0273  H
ATOM     73 H72  CHE L   1      -4.201  -1.659   0.412  1.00  0.00    +0.0273  H
ENDBRANCH 57 66
ENDBRANCH 30 56
ENDBRANCH 21 27
ENDBRANCH 18 23
ENDBRANCH 1 18
TORSDOF 9
