ROOT
ATOM      1 C10  CHE L   1      -1.113  -0.553   0.449  1.00  0.00    +0.0868  A
ATOM      2 C11  CHE L   1      -0.839  -1.278  -0.712  1.00  0.00    -0.0415  A
ATOM      3 C12  CHE L   1       0.460  -1.292  -1.219  1.00  0.00    -0.0570  A
ATOM      4 C13  CHE L   1       1.486  -0.597  -0.562  1.00  0.00    -0.0413  A
ATOM      5 C14  CHE L   1       1.207   0.140   0.605  1.00  0.00    -0.0291  A
ATOM      6 C15  CHE L   1      -0.100   0.144   1.115  1.00  0.00    -0.0371  A
ATOM      7 C16  CHE L   1       2.299   0.868   1.354  1.00  0.00    +0.0219  C
ATOM      8 N17  CHE L   1       3.521   1.082   0.572  1.00  0.00    -0.3065 NA
ATOM      9 C18  CHE L   1       3.949  -0.144  -0.131  1.00  0.00    +0.0401  C
ATOM     10 C21  CHE L   1       2.880  -0.590  -1.142  1.00  0.00    -0.0095  C
ATOM     11 H25  CHE L   1      -1.623  -1.831  -1.224  1.00  0.00    +0.0631  H
ATOM     12 H26  CHE L   1       0.670  -1.849  -2.130  1.00  0.00    +0.0621  H
ATOM     13 H27  CHE L   1      -0.327   0.689   2.030  1.00  0.00    +0.0634  H
ATOM     14 H28  CHE L   1       2.532   0.307   2.267  1.00  0.00    +0.0474  H
ATOM     15 H29  CHE L   1       1.927   1.853   1.660  1.00  0.00    +0.0474  H
ATOM     16 H30  CHE L   1       4.265   1.353   1.219  1.00  0.00    +0.1226 HD
ATOM     17 H31  CHE L   1       4.848   0.130  -0.698  1.00  0.00    +0.0489  H
ATOM     18 H34  CHE L   1       3.128  -1.585  -1.531  1.00  0.00    +0.0329  H
ATOM     19 H35  CHE L   1       2.878   0.105  -1.993  1.00  0.00    +0.0329  H
ENDROOT
BRANCH 1 21
ATOM     20  O1  CHE L   1      -2.648  -0.601   2.554  1.00  0.00    -0.2003 OA
ATOM     21  S2  CHE L   1      -2.757  -0.533   1.115  1.00  0.00    +0.2591  S
ATOM     22  O3  CHE L   1      -3.577  -1.448   0.357  1.00  0.00    -0.2003 OA
BRANCH 21 23
ATOM     23  N4  CHE L   1      -3.246   1.030   0.755  1.00  0.00    -0.3018 NA
ATOM     24 H22  CHE L   1      -3.594   1.541   1.568  1.00  0.00    +0.1727 HD
BRANCH 23 25
ATOM     25  C5  CHE L   1      -3.906   1.280  -0.555  1.00  0.00    +0.1215  C
ATOM     26 H23  CHE L   1      -3.511   0.608  -1.323  1.00  0.00    +0.0582  H
ATOM     27 H24  CHE L   1      -3.622   2.293  -0.861  1.00  0.00    +0.0582  H
BRANCH 25 28
ATOM     28  C6  CHE L   1      -5.435   1.199  -0.505  1.00  0.00    +0.4074  C
ATOM     29  F7  CHE L   1      -5.916   2.056   0.429  1.00  0.00    -0.1687  F
ATOM     30  F8  CHE L   1      -5.891  -0.030  -0.206  1.00  0.00    -0.1687  F
ATOM     31  F9  CHE L   1      -5.967   1.561  -1.695  1.00  0.00    -0.1687  F
ENDBRANCH 25 28
ENDBRANCH 23 25
ENDBRANCH 21 23
ENDBRANCH 1 21
BRANCH 9 32
ATOM     32 C19  CHE L   1       4.366  -1.289   0.807  1.00  0.00    +0.1057  C
ATOM     33 F20  CHE L   1       5.300  -0.822   1.684  1.00  0.00    -0.2474  F
ATOM     34 H32  CHE L   1       4.823  -2.107   0.242  1.00  0.00    +0.0630  H
ATOM     35 H33  CHE L   1       3.533  -1.693   1.388  1.00  0.00    +0.0630  H
ENDBRANCH 9 32
TORSDOF 5
