ROOT
ATOM      1  N6  665 L   1       6.327   4.398   0.269  1.00  0.00    -0.2626 NA
ATOM      2 C16  665 L   1       3.934  -0.054   0.022  1.00  0.00    +0.0423  A
ATOM      3 C18  665 L   1       4.282   0.796   1.073  1.00  0.00    -0.0305  A
ATOM      4 C19  665 L   1       4.962   1.999   0.824  1.00  0.00    -0.0131  A
ATOM      5 C20  665 L   1       4.261   0.284  -1.289  1.00  0.00    -0.0377  A
ATOM      6 C21  665 L   1       5.292   2.338  -0.505  1.00  0.00    +0.0004  A
ATOM      7 C22  665 L   1       4.937   1.474  -1.555  1.00  0.00    -0.0506  A
ATOM      8 C26  665 L   1       5.325   2.873   1.856  1.00  0.00    -0.0358  A
ATOM      9 C30  665 L   1       5.969   3.541  -0.714  1.00  0.00    +0.0353  A
ATOM     10 C33  665 L   1       5.996   4.041   1.528  1.00  0.00    +0.0281  A
ATOM     11 H47  665 L   1       4.022   0.525   2.096  1.00  0.00    +0.0644  H
ATOM     12 H48  665 L   1       4.024  -0.320  -2.153  1.00  0.00    +0.0638  H
ATOM     13 H49  665 L   1       5.185   1.725  -2.584  1.00  0.00    +0.0625  H
ATOM     14 H50  665 L   1       5.093   2.653   2.893  1.00  0.00    +0.0639  H
ATOM     15 H53  665 L   1       6.252   3.862  -1.713  1.00  0.00    +0.0836  H
ATOM     16 H58  665 L   1       6.293   4.743   2.300  1.00  0.00    +0.0830  H
ENDROOT
BRANCH 2 18
ATOM     17  O2  665 L   1       2.996  -2.206  -1.845  1.00  0.00    -0.2722 OA
ATOM     18  N4  665 L   1       3.256  -1.246   0.286  1.00  0.00    -0.3256  N
ATOM     19 C10  665 L   1       2.830  -2.224  -0.628  1.00  0.00    +0.2339  C
ATOM     20 H42  665 L   1       3.045  -1.412   1.267  1.00  0.00    +0.1686 HD
BRANCH 19 21
ATOM     21  C7  665 L   1       2.115  -3.391   0.069  1.00  0.00    +0.0752  C
ATOM     22 H35  665 L   1       2.538  -3.482   1.081  1.00  0.00    +0.0458  H
BRANCH 21 23
ATOM     23  C8  665 L   1       0.626  -3.104   0.181  1.00  0.00    -0.0341  A
ATOM     24 C11  665 L   1       0.031  -2.981   1.437  1.00  0.00    -0.0574  A
ATOM     25 C12  665 L   1      -0.146  -2.963  -0.973  1.00  0.00    -0.0574  A
ATOM     26 C13  665 L   1      -2.106  -2.578   0.386  1.00  0.00    -0.0103  A
ATOM     27 C14  665 L   1      -1.335  -2.719   1.539  1.00  0.00    -0.0551  A
ATOM     28 C15  665 L   1      -1.512  -2.701  -0.870  1.00  0.00    -0.0551  A
ATOM     29 H38  665 L   1       0.620  -3.088   2.345  1.00  0.00    +0.0621  H
ATOM     30 H39  665 L   1       0.297  -3.053  -1.960  1.00  0.00    +0.0621  H
ATOM     31 H40  665 L   1      -1.784  -2.624   2.524  1.00  0.00    +0.0621  H
ATOM     32 H41  665 L   1      -2.103  -2.592  -1.776  1.00  0.00    +0.0621  H
BRANCH 26 33
ATOM     33 C17  665 L   1      -3.567  -2.297   0.495  1.00  0.00    +0.1179  C
ATOM     34 H43  665 L   1      -4.119  -2.945  -0.197  1.00  0.00    +0.0749  H
ATOM     35 H44  665 L   1      -3.927  -2.507   1.510  1.00  0.00    +0.0749  H
BRANCH 33 36
ATOM     36  O1  665 L   1      -3.810  -0.931   0.178  1.00  0.00    -0.4564 OA
BRANCH 36 38
ATOM     37  O3  665 L   1      -6.065  -1.226   0.532  1.00  0.00    -0.2449 OA
ATOM     38 C25  665 L   1      -5.108  -0.527   0.236  1.00  0.00    +0.3398  C
BRANCH 38 39
ATOM     39 C23  665 L   1      -5.227   0.911  -0.116  1.00  0.00    +0.0619  A
ATOM     40 C24  665 L   1      -5.754   1.833   0.789  1.00  0.00    -0.0362  A
ATOM     41 C27  665 L   1      -5.431   3.601  -0.827  1.00  0.00    -0.0502  A
ATOM     42 C28  665 L   1      -5.855   3.178   0.433  1.00  0.00    -0.0551  A
ATOM     43 C29  665 L   1      -4.803   1.333  -1.376  1.00  0.00    -0.0473  A
ATOM     44 C31  665 L   1      -4.905   2.678  -1.732  1.00  0.00    -0.0580  A
ATOM     45 C32  665 L   1      -6.214   1.408   2.145  1.00  0.00    -0.0389  C
ATOM     46 C34  665 L   1      -5.540   5.038  -1.209  1.00  0.00    -0.0397  C
ATOM     47 H51  665 L   1      -6.268   3.901   1.133  1.00  0.00    +0.0623  H
ATOM     48 H52  665 L   1      -4.394   0.625  -2.092  1.00  0.00    +0.0626  H
ATOM     49 H54  665 L   1      -4.573   2.994  -2.717  1.00  0.00    +0.0620  H
ATOM     50 H55  665 L   1      -7.132   0.816   2.067  1.00  0.00    +0.0278  H
ATOM     51 H56  665 L   1      -5.443   0.819   2.652  1.00  0.00    +0.0278  H
ATOM     52 H57  665 L   1      -6.429   2.269   2.787  1.00  0.00    +0.0278  H
ATOM     53 H59  665 L   1      -4.766   5.315  -1.934  1.00  0.00    +0.0278  H
ATOM     54 H60  665 L   1      -5.409   5.688  -0.337  1.00  0.00    +0.0278  H
ATOM     55 H61  665 L   1      -6.521   5.236  -1.651  1.00  0.00    +0.0278  H
ENDBRANCH 38 39
ENDBRANCH 36 38
ENDBRANCH 33 36
ENDBRANCH 26 33
ENDBRANCH 21 23
BRANCH 21 57
ATOM     56  N5  665 L   1       1.820  -5.861   0.022  1.00  0.00    -0.3289 NA
ATOM     57  C9  665 L   1       2.417  -4.716  -0.660  1.00  0.00    +0.0085  C
ATOM     58 H36  665 L   1       2.061  -4.695  -1.697  1.00  0.00    +0.0432  H
ATOM     59 H37  665 L   1       3.503  -4.864  -0.707  1.00  0.00    +0.0432  H
ATOM     60 H45  665 L   1       2.051  -6.713  -0.487  1.00  0.00    +0.1182 HD
ATOM     61 H46  665 L   1       0.804  -5.787   0.001  1.00  0.00    +0.1182 HD
ENDBRANCH 21 57
ENDBRANCH 19 21
ENDBRANCH 2 18
TORSDOF 8
