MODEL 1
REMARK VINA RESULT:    -5.627      0.000      0.000
REMARK INTER + INTRA:          -6.272
REMARK INTER:                  -6.120
REMARK INTRA:                  -0.152
REMARK UNBOUND:                -0.152
REMARK SMILES C[C@@H](N)c1cccc(Cl)c1Cl
REMARK SMILES IDX 2 1 1 2 4 3 10 4 8 5 5 6 7 7 6 8 11 9 9 10 3 11
REMARK H PARENT 3 12 3 13
ROOT
ATOM      1  C   UNL     1       8.835  -2.481  -4.147  1.00  0.00     0.079 C 
ATOM      2  C   UNL     1      10.172  -2.988  -4.714  1.00  0.00     0.029 C 
ENDROOT
BRANCH   1   3
ATOM      3  C   UNL     1       8.815  -2.474  -2.652  1.00  0.00    -0.011 A 
ATOM      4  C   UNL     1       8.689  -1.294  -1.920  1.00  0.00     0.064 A 
ATOM      5  C   UNL     1       8.675  -1.335  -0.525  1.00  0.00     0.060 A 
ATOM      6  C   UNL     1       8.927  -3.697  -1.989  1.00  0.00     0.007 A 
ATOM      7  C   UNL     1       8.788  -2.558   0.138  1.00  0.00     0.022 A 
ATOM      8  C   UNL     1       8.913  -3.738  -0.595  1.00  0.00     0.002 A 
ATOM      9  Cl  UNL     1       8.552   0.214  -2.767  1.00  0.00    -0.082 Cl
ATOM     10  Cl  UNL     1       8.522   0.089   0.444  1.00  0.00    -0.083 Cl
ENDBRANCH   1   3
BRANCH   1  11
ATOM     11  N   UNL     1       7.739  -3.286  -4.714  1.00  0.00    -0.324 NA
ATOM     12  H   UNL     1       8.120  -3.968  -5.369  1.00  0.00     0.119 HD
ATOM     13  H   UNL     1       7.122  -2.683  -5.256  1.00  0.00     0.119 HD
ENDBRANCH   1  11
TORSDOF 2
ENDMDL
MODEL 2
REMARK VINA RESULT:    -5.609      1.619      1.964
REMARK INTER + INTRA:          -6.252
REMARK INTER:                  -6.098
REMARK INTRA:                  -0.154
REMARK UNBOUND:                -0.152
REMARK SMILES C[C@@H](N)c1cccc(Cl)c1Cl
REMARK SMILES IDX 2 1 1 2 4 3 10 4 8 5 5 6 7 7 6 8 11 9 9 10 3 11
REMARK H PARENT 3 12 3 13
ROOT
ATOM      1  C   UNL     1       8.176  -2.803  -2.739  1.00  0.00     0.079 C 
ATOM      2  C   UNL     1       8.587  -2.423  -4.172  1.00  0.00     0.029 C 
ENDROOT
BRANCH   1   3
ATOM      3  C   UNL     1       8.841  -1.948  -1.709  1.00  0.00    -0.011 A 
ATOM      4  C   UNL     1       8.189  -0.869  -1.112  1.00  0.00     0.064 A 
ATOM      5  C   UNL     1       8.849  -0.098  -0.154  1.00  0.00     0.060 A 
ATOM      6  C   UNL     1      10.153  -2.257  -1.348  1.00  0.00     0.007 A 
ATOM      7  C   UNL     1      10.161  -0.406   0.206  1.00  0.00     0.022 A 
ATOM      8  C   UNL     1      10.812  -1.486  -0.391  1.00  0.00     0.002 A 
ATOM      9  Cl  UNL     1       6.558  -0.504  -1.578  1.00  0.00    -0.082 Cl
ATOM     10  Cl  UNL     1       8.102   1.253   0.625  1.00  0.00    -0.083 Cl
ENDBRANCH   1   3
BRANCH   1  11
ATOM     11  N   UNL     1       8.444  -4.237  -2.529  1.00  0.00    -0.324 NA
ATOM     12  H   UNL     1       7.577  -4.714  -2.284  1.00  0.00     0.119 HD
ATOM     13  H   UNL     1       9.068  -4.351  -1.732  1.00  0.00     0.119 HD
ENDBRANCH   1  11
TORSDOF 2
ENDMDL
MODEL 3
REMARK VINA RESULT:    -5.605      2.466      3.373
REMARK INTER + INTRA:          -6.248
REMARK INTER:                  -6.167
REMARK INTRA:                  -0.081
REMARK UNBOUND:                -0.152
REMARK SMILES C[C@@H](N)c1cccc(Cl)c1Cl
REMARK SMILES IDX 2 1 1 2 4 3 10 4 8 5 5 6 7 7 6 8 11 9 9 10 3 11
REMARK H PARENT 3 12 3 13
ROOT
ATOM      1  C   UNL     1       7.917  -1.609  -2.331  1.00  0.00     0.079 C 
ATOM      2  C   UNL     1       6.457  -1.309  -2.707  1.00  0.00     0.029 C 
ENDROOT
BRANCH   1   3
ATOM      3  C   UNL     1       8.393  -0.779  -1.182  1.00  0.00    -0.011 A 
ATOM      4  C   UNL     1       9.522  -1.124  -0.438  1.00  0.00     0.064 A 
ATOM      5  C   UNL     1       9.929  -0.319   0.627  1.00  0.00     0.060 A 
ATOM      6  C   UNL     1       7.671   0.371  -0.861  1.00  0.00     0.007 A 
ATOM      7  C   UNL     1       9.208   0.831   0.948  1.00  0.00     0.022 A 
ATOM      8  C   UNL     1       8.079   1.175   0.204  1.00  0.00     0.002 A 
ATOM      9  Cl  UNL     1      10.402  -2.559  -0.857  1.00  0.00    -0.082 Cl
ATOM     10  Cl  UNL     1      11.318  -0.687   1.589  1.00  0.00    -0.083 Cl
ENDBRANCH   1   3
BRANCH   1  11
ATOM     11  N   UNL     1       8.763  -1.442  -3.525  1.00  0.00    -0.324 NA
ATOM     12  H   UNL     1       9.030  -0.462  -3.620  1.00  0.00     0.119 HD
ATOM     13  H   UNL     1       8.221  -1.672  -4.358  1.00  0.00     0.119 HD
ENDBRANCH   1  11
TORSDOF 2
ENDMDL
MODEL 4
REMARK VINA RESULT:    -5.539      2.035      2.696
REMARK INTER + INTRA:          -6.176
REMARK INTER:                  -6.036
REMARK INTRA:                  -0.140
REMARK UNBOUND:                -0.152
REMARK SMILES C[C@@H](N)c1cccc(Cl)c1Cl
REMARK SMILES IDX 2 1 1 2 4 3 10 4 8 5 5 6 7 7 6 8 11 9 9 10 3 11
REMARK H PARENT 3 12 3 13
ROOT
ATOM      1  C   UNL     1       9.163  -2.592  -3.352  1.00  0.00     0.079 C 
ATOM      2  C   UNL     1       8.201  -3.771  -3.136  1.00  0.00     0.029 C 
ENDROOT
BRANCH   1   3
ATOM      3  C   UNL     1       9.076  -1.575  -2.259  1.00  0.00    -0.011 A 
ATOM      4  C   UNL     1       9.832  -1.679  -1.092  1.00  0.00     0.064 A 
ATOM      5  C   UNL     1       9.718  -0.707  -0.097  1.00  0.00     0.060 A 
ATOM      6  C   UNL     1       8.205  -0.499  -2.433  1.00  0.00     0.007 A 
ATOM      7  C   UNL     1       8.848   0.369  -0.271  1.00  0.00     0.022 A 
ATOM      8  C   UNL     1       8.092   0.472  -1.439  1.00  0.00     0.002 A 
ATOM      9  Cl  UNL     1      10.908  -3.027  -0.899  1.00  0.00    -0.082 Cl
ATOM     10  Cl  UNL     1      10.626  -0.773   1.373  1.00  0.00    -0.083 Cl
ENDBRANCH   1   3
BRANCH   1  11
ATOM     11  N   UNL     1       8.909  -2.004  -4.679  1.00  0.00    -0.324 NA
ATOM     12  H   UNL     1       9.636  -2.301  -5.329  1.00  0.00     0.119 HD
ATOM     13  H   UNL     1       8.977  -0.989  -4.618  1.00  0.00     0.119 HD
ENDBRANCH   1  11
TORSDOF 2
ENDMDL
MODEL 5
REMARK VINA RESULT:    -5.485      2.883      4.409
REMARK INTER + INTRA:          -6.118
REMARK INTER:                  -5.975
REMARK INTRA:                  -0.143
REMARK UNBOUND:                -0.152
REMARK SMILES C[C@@H](N)c1cccc(Cl)c1Cl
REMARK SMILES IDX 2 1 1 2 4 3 10 4 8 5 5 6 7 7 6 8 11 9 9 10 3 11
REMARK H PARENT 3 12 3 13
ROOT
ATOM      1  C   UNL     1       9.241  -0.830   0.174  1.00  0.00     0.079 C 
ATOM      2  C   UNL     1       8.905   0.560   0.738  1.00  0.00     0.029 C 
ENDROOT
BRANCH   1   3
ATOM      3  C   UNL     1       8.413  -1.178  -1.020  1.00  0.00    -0.011 A 
ATOM      4  C   UNL     1       8.865  -2.060  -2.002  1.00  0.00     0.064 A 
ATOM      5  C   UNL     1       8.057  -2.355  -3.101  1.00  0.00     0.060 A 
ATOM      6  C   UNL     1       7.152  -0.591  -1.137  1.00  0.00     0.007 A 
ATOM      7  C   UNL     1       6.797  -1.768  -3.218  1.00  0.00     0.022 A 
ATOM      8  C   UNL     1       6.346  -0.886  -2.236  1.00  0.00     0.002 A 
ATOM      9  Cl  UNL     1      10.436  -2.777  -1.835  1.00  0.00    -0.082 Cl
ATOM     10  Cl  UNL     1       8.554  -3.439  -4.353  1.00  0.00    -0.083 Cl
ENDBRANCH   1   3
BRANCH   1  11
ATOM     11  N   UNL     1       9.110  -1.827   1.251  1.00  0.00    -0.324 NA
ATOM     12  H   UNL     1       8.793  -2.713   0.859  1.00  0.00     0.119 HD
ATOM     13  H   UNL     1       8.387  -1.528   1.903  1.00  0.00     0.119 HD
ENDBRANCH   1  11
TORSDOF 2
ENDMDL
MODEL 6
REMARK VINA RESULT:    -5.418      1.778      2.071
REMARK INTER + INTRA:          -6.045
REMARK INTER:                  -5.888
REMARK INTRA:                  -0.157
REMARK UNBOUND:                -0.152
REMARK SMILES C[C@@H](N)c1cccc(Cl)c1Cl
REMARK SMILES IDX 2 1 1 2 4 3 10 4 8 5 5 6 7 7 6 8 11 9 9 10 3 11
REMARK H PARENT 3 12 3 13
ROOT
ATOM      1  C   UNL     1       8.376  -2.253  -2.543  1.00  0.00     0.079 C 
ATOM      2  C   UNL     1       8.319  -3.656  -3.168  1.00  0.00     0.029 C 
ENDROOT
BRANCH   1   3
ATOM      3  C   UNL     1       8.645  -2.293  -1.073  1.00  0.00    -0.011 A 
ATOM      4  C   UNL     1       9.539  -1.414  -0.462  1.00  0.00     0.064 A 
ATOM      5  C   UNL     1       9.760  -1.488   0.914  1.00  0.00     0.060 A 
ATOM      6  C   UNL     1       7.971  -3.246  -0.309  1.00  0.00     0.007 A 
ATOM      7  C   UNL     1       9.086  -2.441   1.678  1.00  0.00     0.022 A 
ATOM      8  C   UNL     1       8.192  -3.320   1.066  1.00  0.00     0.002 A 
ATOM      9  Cl  UNL     1      10.365  -0.238  -1.433  1.00  0.00    -0.082 Cl
ATOM     10  Cl  UNL     1      10.853  -0.430   1.737  1.00  0.00    -0.083 Cl
ENDBRANCH   1   3
BRANCH   1  11
ATOM     11  N   UNL     1       7.128  -1.537  -2.861  1.00  0.00    -0.324 NA
ATOM     12  H   UNL     1       6.950  -0.828  -2.149  1.00  0.00     0.119 HD
ATOM     13  H   UNL     1       6.345  -2.187  -2.818  1.00  0.00     0.119 HD
ENDBRANCH   1  11
TORSDOF 2
ENDMDL
MODEL 7
REMARK VINA RESULT:    -5.388      2.588      3.967
REMARK INTER + INTRA:          -6.013
REMARK INTER:                  -5.935
REMARK INTRA:                  -0.078
REMARK UNBOUND:                -0.152
REMARK SMILES C[C@@H](N)c1cccc(Cl)c1Cl
REMARK SMILES IDX 2 1 1 2 4 3 10 4 8 5 5 6 7 7 6 8 11 9 9 10 3 11
REMARK H PARENT 3 12 3 13
ROOT
ATOM      1  C   UNL     1       9.560  -0.055   0.070  1.00  0.00     0.079 C 
ATOM      2  C   UNL     1       8.296   0.633   0.612  1.00  0.00     0.029 C 
ENDROOT
BRANCH   1   3
ATOM      3  C   UNL     1       9.255  -1.344  -0.624  1.00  0.00    -0.011 A 
ATOM      4  C   UNL     1       8.758  -1.382  -1.927  1.00  0.00     0.064 A 
ATOM      5  C   UNL     1       8.487  -2.609  -2.535  1.00  0.00     0.060 A 
ATOM      6  C   UNL     1       9.483  -2.532   0.071  1.00  0.00     0.007 A 
ATOM      7  C   UNL     1       8.715  -3.797  -1.840  1.00  0.00     0.022 A 
ATOM      8  C   UNL     1       9.212  -3.757  -0.537  1.00  0.00     0.002 A 
ATOM      9  Cl  UNL     1       8.483   0.109  -2.770  1.00  0.00    -0.082 Cl
ATOM     10  Cl  UNL     1       7.871  -2.729  -4.146  1.00  0.00    -0.083 Cl
ENDBRANCH   1   3
BRANCH   1  11
ATOM     11  N   UNL     1      10.520  -0.231   1.173  1.00  0.00    -0.324 NA
ATOM     12  H   UNL     1      11.338  -0.738   0.837  1.00  0.00     0.119 HD
ATOM     13  H   UNL     1      10.100  -0.814   1.897  1.00  0.00     0.119 HD
ENDBRANCH   1  11
TORSDOF 2
ENDMDL
MODEL 8
REMARK VINA RESULT:    -5.092      2.515      3.966
REMARK INTER + INTRA:          -5.690
REMARK INTER:                  -5.553
REMARK INTRA:                  -0.137
REMARK UNBOUND:                -0.152
REMARK SMILES C[C@@H](N)c1cccc(Cl)c1Cl
REMARK SMILES IDX 2 1 1 2 4 3 10 4 8 5 5 6 7 7 6 8 11 9 9 10 3 11
REMARK H PARENT 3 12 3 13
ROOT
ATOM      1  C   UNL     1       9.463  -1.235  -0.342  1.00  0.00     0.079 C 
ATOM      2  C   UNL     1       9.197  -2.139   0.873  1.00  0.00     0.029 C 
ENDROOT
BRANCH   1   3
ATOM      3  C   UNL     1       9.213  -1.934  -1.639  1.00  0.00    -0.011 A 
ATOM      4  C   UNL     1       7.948  -1.977  -2.224  1.00  0.00     0.064 A 
ATOM      5  C   UNL     1       7.761  -2.642  -3.437  1.00  0.00     0.060 A 
ATOM      6  C   UNL     1      10.293  -2.556  -2.267  1.00  0.00     0.007 A 
ATOM      7  C   UNL     1       8.841  -3.263  -4.065  1.00  0.00     0.022 A 
ATOM      8  C   UNL     1      10.107  -3.220  -3.479  1.00  0.00     0.002 A 
ATOM      9  Cl  UNL     1       6.621  -1.197  -1.424  1.00  0.00    -0.082 Cl
ATOM     10  Cl  UNL     1       6.221  -2.733  -4.218  1.00  0.00    -0.083 Cl
ENDBRANCH   1   3
BRANCH   1  11
ATOM     11  N   UNL     1      10.834  -0.703  -0.251  1.00  0.00    -0.324 NA
ATOM     12  H   UNL     1      10.878   0.207  -0.708  1.00  0.00     0.119 HD
ATOM     13  H   UNL     1      11.468  -1.312  -0.766  1.00  0.00     0.119 HD
ENDBRANCH   1  11
TORSDOF 2
ENDMDL
MODEL 9
REMARK VINA RESULT:    -4.925      2.359      2.808
REMARK INTER + INTRA:          -5.509
REMARK INTER:                  -5.357
REMARK INTRA:                  -0.152
REMARK UNBOUND:                -0.152
REMARK SMILES C[C@@H](N)c1cccc(Cl)c1Cl
REMARK SMILES IDX 2 1 1 2 4 3 10 4 8 5 5 6 7 7 6 8 11 9 9 10 3 11
REMARK H PARENT 3 12 3 13
ROOT
ATOM      1  C   UNL     1       9.864  -2.936  -3.380  1.00  0.00     0.079 C 
ATOM      2  C   UNL     1       8.906  -2.253  -4.370  1.00  0.00     0.029 C 
ENDROOT
BRANCH   1   3
ATOM      3  C   UNL     1       9.864  -2.276  -2.038  1.00  0.00    -0.011 A 
ATOM      4  C   UNL     1       9.297  -2.882  -0.917  1.00  0.00     0.064 A 
ATOM      5  C   UNL     1       9.320  -2.229   0.316  1.00  0.00     0.060 A 
ATOM      6  C   UNL     1      10.454  -1.017  -1.927  1.00  0.00     0.007 A 
ATOM      7  C   UNL     1       9.910  -0.970   0.427  1.00  0.00     0.022 A 
ATOM      8  C   UNL     1      10.477  -0.365  -0.695  1.00  0.00     0.002 A 
ATOM      9  Cl  UNL     1       8.569  -4.448  -1.081  1.00  0.00    -0.082 Cl
ATOM     10  Cl  UNL     1       8.637  -2.922   1.746  1.00  0.00    -0.083 Cl
ENDBRANCH   1   3
BRANCH   1  11
ATOM     11  N   UNL     1      11.211  -2.986  -3.975  1.00  0.00    -0.324 NA
ATOM     12  H   UNL     1      11.847  -2.404  -3.430  1.00  0.00     0.119 HD
ATOM     13  H   UNL     1      11.183  -2.580  -4.909  1.00  0.00     0.119 HD
ENDBRANCH   1  11
TORSDOF 2
ENDMDL
