MODEL 1
REMARK VINA RESULT:    -6.134      0.000      0.000
REMARK INTER + INTRA:          -6.714
REMARK INTER:                  -6.672
REMARK INTRA:                  -0.042
REMARK UNBOUND:                -0.042
REMARK SMILES C[C@H](N)c1cccc(Cl)c1Cl
REMARK SMILES IDX 1 1 2 2 3 3 4 6 5 7 10 8 6 9 8 10 7 11 11 12 9 13
REMARK H PARENT 3 4 3 5
ROOT
ATOM      1  C   UNL     1       8.922  -1.770  -3.589  1.00  0.00     0.029 C 
ATOM      2  C   UNL     1       7.954  -1.755  -2.406  1.00  0.00     0.079 C 
ENDROOT
BRANCH   2   3
ATOM      3  N   UNL     1       6.606  -1.377  -2.821  1.00  0.00    -0.324 NA
ATOM      4  H   UNL     1       6.589  -1.195  -3.822  1.00  0.00     0.119 HD
ATOM      5  H   UNL     1       5.965  -2.149  -2.650  1.00  0.00     0.119 HD
ENDBRANCH   2   3
BRANCH   2   6
ATOM      6  C   UNL     1       8.447  -0.921  -1.233  1.00  0.00    -0.011 A 
ATOM      7  C   UNL     1       7.709   0.243  -0.923  1.00  0.00     0.007 A 
ATOM      8  C   UNL     1       9.576  -1.226  -0.437  1.00  0.00     0.064 A 
ATOM      9  C   UNL     1       8.068   1.078   0.136  1.00  0.00     0.002 A 
ATOM     10  C   UNL     1       9.931  -0.376   0.630  1.00  0.00     0.060 A 
ATOM     11  C   UNL     1       9.179   0.767   0.912  1.00  0.00     0.022 A 
ATOM     12  Cl  UNL     1      10.547  -2.631  -0.752  1.00  0.00    -0.082 Cl
ATOM     13  Cl  UNL     1      11.296  -0.678   1.654  1.00  0.00    -0.083 Cl
ENDBRANCH   2   6
TORSDOF 2
ENDMDL
MODEL 2
REMARK VINA RESULT:    -6.035      2.933      4.509
REMARK INTER + INTRA:          -6.606
REMARK INTER:                  -6.718
REMARK INTRA:                   0.112
REMARK UNBOUND:                -0.042
REMARK SMILES C[C@H](N)c1cccc(Cl)c1Cl
REMARK SMILES IDX 1 1 2 2 3 3 4 6 5 7 10 8 6 9 8 10 7 11 11 12 9 13
REMARK H PARENT 3 4 3 5
ROOT
ATOM      1  C   UNL     1       8.203   1.143  -0.037  1.00  0.00     0.029 C 
ATOM      2  C   UNL     1       8.673  -0.245   0.402  1.00  0.00     0.079 C 
ENDROOT
BRANCH   2   3
ATOM      3  N   UNL     1       9.837  -0.163   1.281  1.00  0.00    -0.324 NA
ATOM      4  H   UNL     1      10.119  -1.097   1.571  1.00  0.00     0.119 HD
ATOM      5  H   UNL     1      10.622   0.239   0.773  1.00  0.00     0.119 HD
ENDBRANCH   2   3
BRANCH   2   6
ATOM      6  C   UNL     1       8.899  -1.200  -0.760  1.00  0.00    -0.011 A 
ATOM      7  C   UNL     1      10.171  -1.810  -0.847  1.00  0.00     0.007 A 
ATOM      8  C   UNL     1       7.937  -1.523  -1.746  1.00  0.00     0.064 A 
ATOM      9  C   UNL     1      10.485  -2.707  -1.868  1.00  0.00     0.002 A 
ATOM     10  C   UNL     1       8.264  -2.430  -2.774  1.00  0.00     0.060 A 
ATOM     11  C   UNL     1       9.531  -3.018  -2.830  1.00  0.00     0.022 A 
ATOM     12  Cl  UNL     1       6.352  -0.814  -1.723  1.00  0.00    -0.082 Cl
ATOM     13  Cl  UNL     1       7.145  -2.880  -4.018  1.00  0.00    -0.083 Cl
ENDBRANCH   2   6
TORSDOF 2
ENDMDL
MODEL 3
REMARK VINA RESULT:    -6.014      2.296      3.976
REMARK INTER + INTRA:          -6.584
REMARK INTER:                  -6.442
REMARK INTRA:                  -0.142
REMARK UNBOUND:                -0.042
REMARK SMILES C[C@H](N)c1cccc(Cl)c1Cl
REMARK SMILES IDX 1 1 2 2 3 3 4 6 5 7 10 8 6 9 8 10 7 11 11 12 9 13
REMARK H PARENT 3 4 3 5
ROOT
ATOM      1  C   UNL     1       8.196   1.362   0.575  1.00  0.00     0.029 C 
ATOM      2  C   UNL     1       8.740  -0.067   0.605  1.00  0.00     0.079 C 
ENDROOT
BRANCH   2   3
ATOM      3  N   UNL     1      10.089  -0.115   1.161  1.00  0.00    -0.324 NA
ATOM      4  H   UNL     1      10.463   0.827   1.247  1.00  0.00     0.119 HD
ATOM      5  H   UNL     1      10.059  -0.508   2.100  1.00  0.00     0.119 HD
ENDBRANCH   2   3
BRANCH   2   6
ATOM      6  C   UNL     1       8.648  -0.774  -0.739  1.00  0.00    -0.011 A 
ATOM      7  C   UNL     1       8.623   0.045  -1.891  1.00  0.00     0.007 A 
ATOM      8  C   UNL     1       8.593  -2.177  -0.918  1.00  0.00     0.064 A 
ATOM      9  C   UNL     1       8.547  -0.498  -3.174  1.00  0.00     0.002 A 
ATOM     10  C   UNL     1       8.516  -2.715  -2.218  1.00  0.00     0.060 A 
ATOM     11  C   UNL     1       8.494  -1.877  -3.337  1.00  0.00     0.022 A 
ATOM     12  Cl  UNL     1       8.611  -3.259   0.440  1.00  0.00    -0.082 Cl
ATOM     13  Cl  UNL     1       8.447  -4.419  -2.525  1.00  0.00    -0.083 Cl
ENDBRANCH   2   6
TORSDOF 2
ENDMDL
MODEL 4
REMARK VINA RESULT:    -5.912      2.256      2.755
REMARK INTER + INTRA:          -6.472
REMARK INTER:                  -6.369
REMARK INTRA:                  -0.103
REMARK UNBOUND:                -0.042
REMARK SMILES C[C@H](N)c1cccc(Cl)c1Cl
REMARK SMILES IDX 1 1 2 2 3 3 4 6 5 7 10 8 6 9 8 10 7 11 11 12 9 13
REMARK H PARENT 3 4 3 5
ROOT
ATOM      1  C   UNL     1       8.911  -4.231  -2.776  1.00  0.00     0.029 C 
ATOM      2  C   UNL     1       8.170  -2.900  -2.644  1.00  0.00     0.079 C 
ENDROOT
BRANCH   2   3
ATOM      3  N   UNL     1       7.978  -2.262  -3.944  1.00  0.00    -0.324 NA
ATOM      4  H   UNL     1       8.491  -1.384  -3.979  1.00  0.00     0.119 HD
ATOM      5  H   UNL     1       8.360  -2.857  -4.677  1.00  0.00     0.119 HD
ENDBRANCH   2   3
BRANCH   2   6
ATOM      6  C   UNL     1       8.801  -1.957  -1.630  1.00  0.00    -0.011 A 
ATOM      7  C   UNL     1      10.125  -2.246  -1.229  1.00  0.00     0.007 A 
ATOM      8  C   UNL     1       8.167  -0.823  -1.071  1.00  0.00     0.064 A 
ATOM      9  C   UNL     1      10.802  -1.444  -0.310  1.00  0.00     0.002 A 
ATOM     10  C   UNL     1       8.860  -0.020  -0.143  1.00  0.00     0.060 A 
ATOM     11  C   UNL     1      10.170  -0.332   0.232  1.00  0.00     0.022 A 
ATOM     12  Cl  UNL     1       6.539  -0.398  -1.500  1.00  0.00    -0.082 Cl
ATOM     13  Cl  UNL     1       8.159   1.386   0.587  1.00  0.00    -0.083 Cl
ENDBRANCH   2   6
TORSDOF 2
ENDMDL
MODEL 5
REMARK VINA RESULT:    -5.707      2.045      2.511
REMARK INTER + INTRA:          -6.249
REMARK INTER:                  -6.107
REMARK INTRA:                  -0.143
REMARK UNBOUND:                -0.042
REMARK SMILES C[C@H](N)c1cccc(Cl)c1Cl
REMARK SMILES IDX 1 1 2 2 3 3 4 6 5 7 10 8 6 9 8 10 7 11 11 12 9 13
REMARK H PARENT 3 4 3 5
ROOT
ATOM      1  C   UNL     1       7.530  -1.866  -3.212  1.00  0.00     0.029 C 
ATOM      2  C   UNL     1       8.683  -2.692  -2.641  1.00  0.00     0.079 C 
ENDROOT
BRANCH   2   3
ATOM      3  N   UNL     1       8.565  -4.102  -3.006  1.00  0.00    -0.324 NA
ATOM      4  H   UNL     1       9.478  -4.549  -2.966  1.00  0.00     0.119 HD
ATOM      5  H   UNL     1       7.971  -4.582  -2.332  1.00  0.00     0.119 HD
ENDBRANCH   2   3
BRANCH   2   6
ATOM      6  C   UNL     1       8.877  -2.502  -1.144  1.00  0.00    -0.011 A 
ATOM      7  C   UNL     1       8.187  -3.395  -0.293  1.00  0.00     0.007 A 
ATOM      8  C   UNL     1       9.693  -1.512  -0.549  1.00  0.00     0.064 A 
ATOM      9  C   UNL     1       8.296  -3.316   1.096  1.00  0.00     0.002 A 
ATOM     10  C   UNL     1       9.797  -1.440   0.855  1.00  0.00     0.060 A 
ATOM     11  C   UNL     1       9.102  -2.339   1.669  1.00  0.00     0.022 A 
ATOM     12  Cl  UNL     1      10.571  -0.368  -1.517  1.00  0.00    -0.082 Cl
ATOM     13  Cl  UNL     1      10.775  -0.259   1.663  1.00  0.00    -0.083 Cl
ENDBRANCH   2   6
TORSDOF 2
ENDMDL
MODEL 6
REMARK VINA RESULT:    -5.678      2.814      4.131
REMARK INTER + INTRA:          -6.218
REMARK INTER:                  -6.075
REMARK INTRA:                  -0.143
REMARK UNBOUND:                -0.042
REMARK SMILES C[C@H](N)c1cccc(Cl)c1Cl
REMARK SMILES IDX 1 1 2 2 3 3 4 6 5 7 10 8 6 9 8 10 7 11 11 12 9 13
REMARK H PARENT 3 4 3 5
ROOT
ATOM      1  C   UNL     1       8.558  -3.215   1.660  1.00  0.00     0.029 C 
ATOM      2  C   UNL     1       9.322  -2.388   0.626  1.00  0.00     0.079 C 
ENDROOT
BRANCH   2   3
ATOM      3  N   UNL     1      10.049  -1.287   1.252  1.00  0.00    -0.324 NA
ATOM      4  H   UNL     1       9.515  -0.425   1.167  1.00  0.00     0.119 HD
ATOM      5  H   UNL     1      10.159  -1.470   2.247  1.00  0.00     0.119 HD
ENDBRANCH   2   3
BRANCH   2   6
ATOM      6  C   UNL     1       8.453  -1.917  -0.531  1.00  0.00    -0.011 A 
ATOM      7  C   UNL     1       7.847  -0.647  -0.398  1.00  0.00     0.007 A 
ATOM      8  C   UNL     1       8.214  -2.648  -1.718  1.00  0.00     0.064 A 
ATOM      9  C   UNL     1       7.036  -0.114  -1.399  1.00  0.00     0.002 A 
ATOM     10  C   UNL     1       7.393  -2.101  -2.725  1.00  0.00     0.060 A 
ATOM     11  C   UNL     1       6.810  -0.841  -2.562  1.00  0.00     0.022 A 
ATOM     12  Cl  UNL     1       8.911  -4.219  -1.964  1.00  0.00    -0.082 Cl
ATOM     13  Cl  UNL     1       7.052  -2.928  -4.208  1.00  0.00    -0.083 Cl
ENDBRANCH   2   6
TORSDOF 2
ENDMDL
MODEL 7
REMARK VINA RESULT:    -5.608      2.800      3.616
REMARK INTER + INTRA:          -6.142
REMARK INTER:                  -6.026
REMARK INTRA:                  -0.117
REMARK UNBOUND:                -0.042
REMARK SMILES C[C@H](N)c1cccc(Cl)c1Cl
REMARK SMILES IDX 1 1 2 2 3 3 4 6 5 7 10 8 6 9 8 10 7 11 11 12 9 13
REMARK H PARENT 3 4 3 5
ROOT
ATOM      1  C   UNL     1       8.398  -3.959   2.079  1.00  0.00     0.029 C 
ATOM      2  C   UNL     1       8.613  -3.767   0.578  1.00  0.00     0.079 C 
ENDROOT
BRANCH   2   3
ATOM      3  N   UNL     1       9.768  -4.522   0.101  1.00  0.00    -0.324 NA
ATOM      4  H   UNL     1      10.191  -4.046  -0.693  1.00  0.00     0.119 HD
ATOM      5  H   UNL     1      10.476  -4.564   0.832  1.00  0.00     0.119 HD
ENDBRANCH   2   3
BRANCH   2   6
ATOM      6  C   UNL     1       8.671  -2.305   0.159  1.00  0.00    -0.011 A 
ATOM      7  C   UNL     1       8.925  -1.360   1.178  1.00  0.00     0.007 A 
ATOM      8  C   UNL     1       8.496  -1.830  -1.162  1.00  0.00     0.064 A 
ATOM      9  C   UNL     1       9.006   0.006   0.906  1.00  0.00     0.002 A 
ATOM     10  C   UNL     1       8.580  -0.448  -1.426  1.00  0.00     0.060 A 
ATOM     11  C   UNL     1       8.834   0.461  -0.396  1.00  0.00     0.022 A 
ATOM     12  Cl  UNL     1       8.172  -2.920  -2.475  1.00  0.00    -0.082 Cl
ATOM     13  Cl  UNL     1       8.380   0.215  -3.014  1.00  0.00    -0.083 Cl
ENDBRANCH   2   6
TORSDOF 2
ENDMDL
MODEL 8
REMARK VINA RESULT:    -5.552      1.815      2.771
REMARK INTER + INTRA:          -6.081
REMARK INTER:                  -6.294
REMARK INTRA:                   0.213
REMARK UNBOUND:                -0.042
REMARK SMILES C[C@H](N)c1cccc(Cl)c1Cl
REMARK SMILES IDX 1 1 2 2 3 3 4 6 5 7 10 8 6 9 8 10 7 11 11 12 9 13
REMARK H PARENT 3 4 3 5
ROOT
ATOM      1  C   UNL     1       6.151  -0.785  -2.080  1.00  0.00     0.029 C 
ATOM      2  C   UNL     1       7.436  -1.154  -2.822  1.00  0.00     0.079 C 
ENDROOT
BRANCH   2   3
ATOM      3  N   UNL     1       7.211  -2.235  -3.779  1.00  0.00    -0.324 NA
ATOM      4  H   UNL     1       6.830  -1.858  -4.644  1.00  0.00     0.119 HD
ATOM      5  H   UNL     1       8.098  -2.675  -4.013  1.00  0.00     0.119 HD
ENDBRANCH   2   3
BRANCH   2   6
ATOM      6  C   UNL     1       8.605  -1.446  -1.893  1.00  0.00    -0.011 A 
ATOM      7  C   UNL     1       9.330  -2.635  -2.133  1.00  0.00     0.007 A 
ATOM      8  C   UNL     1       9.018  -0.619  -0.822  1.00  0.00     0.064 A 
ATOM      9  C   UNL     1      10.424  -2.997  -1.347  1.00  0.00     0.002 A 
ATOM     10  C   UNL     1      10.125  -0.994  -0.033  1.00  0.00     0.060 A 
ATOM     11  C   UNL     1      10.821  -2.177  -0.298  1.00  0.00     0.022 A 
ATOM     12  Cl  UNL     1       8.181   0.856  -0.449  1.00  0.00    -0.082 Cl
ATOM     13  Cl  UNL     1      10.696  -0.039   1.295  1.00  0.00    -0.083 Cl
ENDBRANCH   2   6
TORSDOF 2
ENDMDL
MODEL 9
REMARK VINA RESULT:    -5.438      2.303      2.790
REMARK INTER + INTRA:          -5.957
REMARK INTER:                  -5.824
REMARK INTRA:                  -0.133
REMARK UNBOUND:                -0.042
REMARK SMILES C[C@H](N)c1cccc(Cl)c1Cl
REMARK SMILES IDX 1 1 2 2 3 3 4 6 5 7 10 8 6 9 8 10 7 11 11 12 9 13
REMARK H PARENT 3 4 3 5
ROOT
ATOM      1  C   UNL     1       8.491   0.303  -2.577  1.00  0.00     0.029 C 
ATOM      2  C   UNL     1       7.764  -1.020  -2.333  1.00  0.00     0.079 C 
ENDROOT
BRANCH   2   3
ATOM      3  N   UNL     1       6.314  -0.840  -2.318  1.00  0.00    -0.324 NA
ATOM      4  H   UNL     1       5.985  -0.752  -1.359  1.00  0.00     0.119 HD
ATOM      5  H   UNL     1       6.072   0.026  -2.795  1.00  0.00     0.119 HD
ENDBRANCH   2   3
BRANCH   2   6
ATOM      6  C   UNL     1       8.261  -1.763  -1.102  1.00  0.00    -0.011 A 
ATOM      7  C   UNL     1       8.303  -1.036   0.109  1.00  0.00     0.007 A 
ATOM      8  C   UNL     1       8.676  -3.115  -1.081  1.00  0.00     0.064 A 
ATOM      9  C   UNL     1       8.736  -1.619   1.299  1.00  0.00     0.002 A 
ATOM     10  C   UNL     1       9.112  -3.696   0.127  1.00  0.00     0.060 A 
ATOM     11  C   UNL     1       9.140  -2.949   1.308  1.00  0.00     0.022 A 
ATOM     12  Cl  UNL     1       8.667  -4.082  -2.524  1.00  0.00    -0.082 Cl
ATOM     13  Cl  UNL     1       9.635  -5.344   0.239  1.00  0.00    -0.083 Cl
ENDBRANCH   2   6
TORSDOF 2
ENDMDL
