MODEL 1
REMARK VINA RESULT:    -5.616      0.000      0.000
REMARK INTER + INTRA:          -6.261
REMARK INTER:                  -6.109
REMARK INTRA:                  -0.152
REMARK UNBOUND:                -0.152
REMARK SMILES C[C@@H](N)c1cccc(Cl)c1Cl
REMARK SMILES IDX 2 1 1 2 4 3 10 4 8 5 5 6 7 7 6 8 11 9 9 10 3 11
REMARK H PARENT 3 12 3 13
ROOT
ATOM      1  C   UNL     1       8.838  -2.496  -4.149  1.00  0.00     0.079 C 
ATOM      2  C   UNL     1      10.181  -2.988  -4.713  1.00  0.00     0.029 C 
ENDROOT
BRANCH   1   3
ATOM      3  C   UNL     1       8.816  -2.483  -2.654  1.00  0.00    -0.011 A 
ATOM      4  C   UNL     1       8.689  -1.299  -1.928  1.00  0.00     0.064 A 
ATOM      5  C   UNL     1       8.674  -1.335  -0.533  1.00  0.00     0.060 A 
ATOM      6  C   UNL     1       8.928  -3.703  -1.987  1.00  0.00     0.007 A 
ATOM      7  C   UNL     1       8.786  -2.555   0.135  1.00  0.00     0.022 A 
ATOM      8  C   UNL     1       8.913  -3.738  -0.593  1.00  0.00     0.002 A 
ATOM      9  Cl  UNL     1       8.552   0.205  -2.781  1.00  0.00    -0.082 Cl
ATOM     10  Cl  UNL     1       8.519   0.093   0.430  1.00  0.00    -0.083 Cl
ENDBRANCH   1   3
BRANCH   1  11
ATOM     11  N   UNL     1       7.753  -3.318  -4.714  1.00  0.00    -0.324 NA
ATOM     12  H   UNL     1       6.957  -3.318  -4.076  1.00  0.00     0.119 HD
ATOM     13  H   UNL     1       8.063  -4.286  -4.784  1.00  0.00     0.119 HD
ENDBRANCH   1  11
TORSDOF 2
ENDMDL
MODEL 2
REMARK VINA RESULT:    -5.588      2.445      3.342
REMARK INTER + INTRA:          -6.230
REMARK INTER:                  -6.135
REMARK INTRA:                  -0.095
REMARK UNBOUND:                -0.152
REMARK SMILES C[C@@H](N)c1cccc(Cl)c1Cl
REMARK SMILES IDX 2 1 1 2 4 3 10 4 8 5 5 6 7 7 6 8 11 9 9 10 3 11
REMARK H PARENT 3 12 3 13
ROOT
ATOM      1  C   UNL     1       8.002  -1.655  -2.369  1.00  0.00     0.079 C 
ATOM      2  C   UNL     1       6.530  -1.423  -2.746  1.00  0.00     0.029 C 
ENDROOT
BRANCH   1   3
ATOM      3  C   UNL     1       8.435  -0.815  -1.210  1.00  0.00    -0.011 A 
ATOM      4  C   UNL     1       9.562  -1.127  -0.451  1.00  0.00     0.064 A 
ATOM      5  C   UNL     1       9.928  -0.314   0.623  1.00  0.00     0.060 A 
ATOM      6  C   UNL     1       7.672   0.311  -0.896  1.00  0.00     0.007 A 
ATOM      7  C   UNL     1       9.166   0.811   0.937  1.00  0.00     0.022 A 
ATOM      8  C   UNL     1       8.038   1.123   0.177  1.00  0.00     0.002 A 
ATOM      9  Cl  UNL     1      10.493  -2.533  -0.860  1.00  0.00    -0.082 Cl
ATOM     10  Cl  UNL     1      11.313  -0.642   1.605  1.00  0.00    -0.083 Cl
ENDBRANCH   1   3
BRANCH   1  11
ATOM     11  N   UNL     1       8.842  -1.434  -3.560  1.00  0.00    -0.324 NA
ATOM     12  H   UNL     1       9.776  -1.146  -3.270  1.00  0.00     0.119 HD
ATOM     13  H   UNL     1       8.460  -0.661  -4.103  1.00  0.00     0.119 HD
ENDBRANCH   1  11
TORSDOF 2
ENDMDL
MODEL 3
REMARK VINA RESULT:    -5.567      1.640      1.996
REMARK INTER + INTRA:          -6.207
REMARK INTER:                  -6.053
REMARK INTRA:                  -0.154
REMARK UNBOUND:                -0.152
REMARK SMILES C[C@@H](N)c1cccc(Cl)c1Cl
REMARK SMILES IDX 2 1 1 2 4 3 10 4 8 5 5 6 7 7 6 8 11 9 9 10 3 11
REMARK H PARENT 3 12 3 13
ROOT
ATOM      1  C   UNL     1       8.245  -2.779  -2.671  1.00  0.00     0.079 C 
ATOM      2  C   UNL     1       8.616  -2.356  -4.102  1.00  0.00     0.029 C 
ENDROOT
BRANCH   1   3
ATOM      3  C   UNL     1       8.901  -1.924  -1.635  1.00  0.00    -0.011 A 
ATOM      4  C   UNL     1       8.252  -0.831  -1.060  1.00  0.00     0.064 A 
ATOM      5  C   UNL     1       8.904  -0.060  -0.096  1.00  0.00     0.060 A 
ATOM      6  C   UNL     1      10.201  -2.247  -1.246  1.00  0.00     0.007 A 
ATOM      7  C   UNL     1      10.204  -0.383   0.293  1.00  0.00     0.022 A 
ATOM      8  C   UNL     1      10.852  -1.477  -0.283  1.00  0.00     0.002 A 
ATOM      9  Cl  UNL     1       6.635  -0.449  -1.561  1.00  0.00    -0.082 Cl
ATOM     10  Cl  UNL     1       8.159   1.307   0.657  1.00  0.00    -0.083 Cl
ENDBRANCH   1   3
BRANCH   1  11
ATOM     11  N   UNL     1       8.563  -4.207  -2.497  1.00  0.00    -0.324 NA
ATOM     12  H   UNL     1       8.799  -4.617  -3.400  1.00  0.00     0.119 HD
ATOM     13  H   UNL     1       7.734  -4.700  -2.168  1.00  0.00     0.119 HD
ENDBRANCH   1  11
TORSDOF 2
ENDMDL
MODEL 4
REMARK VINA RESULT:    -5.455      1.964      2.693
REMARK INTER + INTRA:          -6.086
REMARK INTER:                  -5.932
REMARK INTRA:                  -0.153
REMARK UNBOUND:                -0.152
REMARK SMILES C[C@@H](N)c1cccc(Cl)c1Cl
REMARK SMILES IDX 2 1 1 2 4 3 10 4 8 5 5 6 7 7 6 8 11 9 9 10 3 11
REMARK H PARENT 3 12 3 13
ROOT
ATOM      1  C   UNL     1       8.341  -2.759  -3.826  1.00  0.00     0.079 C 
ATOM      2  C   UNL     1       6.877  -2.994  -4.236  1.00  0.00     0.029 C 
ENDROOT
BRANCH   1   3
ATOM      3  C   UNL     1       8.462  -1.881  -2.622  1.00  0.00    -0.011 A 
ATOM      4  C   UNL     1       8.739  -2.397  -1.356  1.00  0.00     0.064 A 
ATOM      5  C   UNL     1       8.843  -1.540  -0.260  1.00  0.00     0.060 A 
ATOM      6  C   UNL     1       8.290  -0.507  -2.792  1.00  0.00     0.007 A 
ATOM      7  C   UNL     1       8.671  -0.166  -0.430  1.00  0.00     0.022 A 
ATOM      8  C   UNL     1       8.394   0.349  -1.697  1.00  0.00     0.002 A 
ATOM      9  Cl  UNL     1       8.948  -4.109  -1.169  1.00  0.00    -0.082 Cl
ATOM     10  Cl  UNL     1       9.185  -2.111   1.336  1.00  0.00    -0.083 Cl
ENDBRANCH   1   3
BRANCH   1  11
ATOM     11  N   UNL     1       9.081  -2.223  -4.982  1.00  0.00    -0.324 NA
ATOM     12  H   UNL     1       8.433  -2.035  -5.746  1.00  0.00     0.119 HD
ATOM     13  H   UNL     1       9.729  -2.931  -5.325  1.00  0.00     0.119 HD
ENDBRANCH   1  11
TORSDOF 2
ENDMDL
MODEL 5
REMARK VINA RESULT:    -5.454      2.894      4.419
REMARK INTER + INTRA:          -6.084
REMARK INTER:                  -5.942
REMARK INTRA:                  -0.142
REMARK UNBOUND:                -0.152
REMARK SMILES C[C@@H](N)c1cccc(Cl)c1Cl
REMARK SMILES IDX 2 1 1 2 4 3 10 4 8 5 5 6 7 7 6 8 11 9 9 10 3 11
REMARK H PARENT 3 12 3 13
ROOT
ATOM      1  C   UNL     1       9.271  -0.811   0.246  1.00  0.00     0.079 C 
ATOM      2  C   UNL     1       8.917   0.563   0.840  1.00  0.00     0.029 C 
ENDROOT
BRANCH   1   3
ATOM      3  C   UNL     1       8.447  -1.143  -0.957  1.00  0.00    -0.011 A 
ATOM      4  C   UNL     1       8.907  -2.004  -1.953  1.00  0.00     0.064 A 
ATOM      5  C   UNL     1       8.104  -2.285  -3.059  1.00  0.00     0.060 A 
ATOM      6  C   UNL     1       7.183  -0.562  -1.066  1.00  0.00     0.007 A 
ATOM      7  C   UNL     1       6.840  -1.704  -3.168  1.00  0.00     0.022 A 
ATOM      8  C   UNL     1       6.381  -0.843  -2.171  1.00  0.00     0.002 A 
ATOM      9  Cl  UNL     1      10.483  -2.713  -1.794  1.00  0.00    -0.082 Cl
ATOM     10  Cl  UNL     1       8.611  -3.343  -4.329  1.00  0.00    -0.083 Cl
ENDBRANCH   1   3
BRANCH   1  11
ATOM     11  N   UNL     1       9.152  -1.833   1.301  1.00  0.00    -0.324 NA
ATOM     12  H   UNL     1      10.078  -2.064   1.658  1.00  0.00     0.119 HD
ATOM     13  H   UNL     1       8.778  -2.691   0.899  1.00  0.00     0.119 HD
ENDBRANCH   1  11
TORSDOF 2
ENDMDL
MODEL 6
REMARK VINA RESULT:    -5.427      1.756      2.032
REMARK INTER + INTRA:          -6.054
REMARK INTER:                  -5.898
REMARK INTRA:                  -0.157
REMARK UNBOUND:                -0.152
REMARK SMILES C[C@@H](N)c1cccc(Cl)c1Cl
REMARK SMILES IDX 2 1 1 2 4 3 10 4 8 5 5 6 7 7 6 8 11 9 9 10 3 11
REMARK H PARENT 3 12 3 13
ROOT
ATOM      1  C   UNL     1       8.588  -2.399  -2.599  1.00  0.00     0.079 C 
ATOM      2  C   UNL     1       8.553  -3.825  -3.171  1.00  0.00     0.029 C 
ENDROOT
BRANCH   1   3
ATOM      3  C   UNL     1       8.794  -2.382  -1.118  1.00  0.00    -0.011 A 
ATOM      4  C   UNL     1       9.665  -1.484  -0.503  1.00  0.00     0.064 A 
ATOM      5  C   UNL     1       9.826  -1.505   0.883  1.00  0.00     0.060 A 
ATOM      6  C   UNL     1       8.083  -3.303  -0.348  1.00  0.00     0.007 A 
ATOM      7  C   UNL     1       9.116  -2.426   1.654  1.00  0.00     0.022 A 
ATOM      8  C   UNL     1       8.244  -3.324   1.037  1.00  0.00     0.002 A 
ATOM      9  Cl  UNL     1      10.539  -0.349  -1.483  1.00  0.00    -0.082 Cl
ATOM     10  Cl  UNL     1      10.888  -0.420   1.711  1.00  0.00    -0.083 Cl
ENDBRANCH   1   3
BRANCH   1  11
ATOM     11  N   UNL     1       7.358  -1.693  -2.997  1.00  0.00    -0.324 NA
ATOM     12  H   UNL     1       6.986  -1.179  -2.199  1.00  0.00     0.119 HD
ATOM     13  H   UNL     1       6.646  -2.374  -3.256  1.00  0.00     0.119 HD
ENDBRANCH   1  11
TORSDOF 2
ENDMDL
MODEL 7
REMARK VINA RESULT:    -5.311      2.596      4.020
REMARK INTER + INTRA:          -5.928
REMARK INTER:                  -5.937
REMARK INTRA:                   0.008
REMARK UNBOUND:                -0.152
REMARK SMILES C[C@@H](N)c1cccc(Cl)c1Cl
REMARK SMILES IDX 2 1 1 2 4 3 10 4 8 5 5 6 7 7 6 8 11 9 9 10 3 11
REMARK H PARENT 3 12 3 13
ROOT
ATOM      1  C   UNL     1       8.492  -0.251  -0.085  1.00  0.00     0.079 C 
ATOM      2  C   UNL     1       9.629  -0.164   0.946  1.00  0.00     0.029 C 
ENDROOT
BRANCH   1   3
ATOM      3  C   UNL     1       8.792  -1.214  -1.188  1.00  0.00    -0.011 A 
ATOM      4  C   UNL     1       7.822  -1.610  -2.108  1.00  0.00     0.064 A 
ATOM      5  C   UNL     1       8.148  -2.513  -3.122  1.00  0.00     0.060 A 
ATOM      6  C   UNL     1      10.089  -1.721  -1.280  1.00  0.00     0.007 A 
ATOM      7  C   UNL     1       9.444  -3.019  -3.214  1.00  0.00     0.022 A 
ATOM      8  C   UNL     1      10.414  -2.622  -2.293  1.00  0.00     0.002 A 
ATOM      9  Cl  UNL     1       6.216  -0.968  -1.972  1.00  0.00    -0.082 Cl
ATOM     10  Cl  UNL     1       6.995  -3.046  -4.296  1.00  0.00    -0.083 Cl
ENDBRANCH   1   3
BRANCH   1  11
ATOM     11  N   UNL     1       8.201   1.101  -0.592  1.00  0.00    -0.324 NA
ATOM     12  H   UNL     1       8.309   1.779   0.162  1.00  0.00     0.119 HD
ATOM     13  H   UNL     1       7.226   1.151  -0.883  1.00  0.00     0.119 HD
ENDBRANCH   1  11
TORSDOF 2
ENDMDL
MODEL 8
REMARK VINA RESULT:    -4.989      2.962      3.952
REMARK INTER + INTRA:          -5.578
REMARK INTER:                  -5.566
REMARK INTRA:                  -0.012
REMARK UNBOUND:                -0.152
REMARK SMILES C[C@@H](N)c1cccc(Cl)c1Cl
REMARK SMILES IDX 2 1 1 2 4 3 10 4 8 5 5 6 7 7 6 8 11 9 9 10 3 11
REMARK H PARENT 3 12 3 13
ROOT
ATOM      1  C   UNL     1       8.559  -3.672   0.604  1.00  0.00     0.079 C 
ATOM      2  C   UNL     1       9.733  -4.533   0.108  1.00  0.00     0.029 C 
ENDROOT
BRANCH   1   3
ATOM      3  C   UNL     1       8.691  -2.239   0.199  1.00  0.00    -0.011 A 
ATOM      4  C   UNL     1       8.489  -1.821  -1.116  1.00  0.00     0.064 A 
ATOM      5  C   UNL     1       8.623  -0.472  -1.448  1.00  0.00     0.060 A 
ATOM      6  C   UNL     1       9.029  -1.309   1.183  1.00  0.00     0.007 A 
ATOM      7  C   UNL     1       8.961   0.458  -0.464  1.00  0.00     0.022 A 
ATOM      8  C   UNL     1       9.163   0.038   0.851  1.00  0.00     0.002 A 
ATOM      9  Cl  UNL     1       8.071  -2.996  -2.321  1.00  0.00    -0.082 Cl
ATOM     10  Cl  UNL     1       8.386   0.116  -3.056  1.00  0.00    -0.083 Cl
ENDBRANCH   1   3
BRANCH   1  11
ATOM     11  N   UNL     1       8.435  -3.829   2.063  1.00  0.00    -0.324 NA
ATOM     12  H   UNL     1       7.800  -4.600   2.271  1.00  0.00     0.119 HD
ATOM     13  H   UNL     1       8.007  -2.993   2.458  1.00  0.00     0.119 HD
ENDBRANCH   1  11
TORSDOF 2
ENDMDL
MODEL 9
REMARK VINA RESULT:    -4.924      2.185      2.937
REMARK INTER + INTRA:          -5.508
REMARK INTER:                  -5.354
REMARK INTRA:                  -0.154
REMARK UNBOUND:                -0.152
REMARK SMILES C[C@@H](N)c1cccc(Cl)c1Cl
REMARK SMILES IDX 2 1 1 2 4 3 10 4 8 5 5 6 7 7 6 8 11 9 9 10 3 11
REMARK H PARENT 3 12 3 13
ROOT
ATOM      1  C   UNL     1      10.024  -2.932  -1.424  1.00  0.00     0.079 C 
ATOM      2  C   UNL     1       9.676  -4.174  -0.586  1.00  0.00     0.029 C 
ENDROOT
BRANCH   1   3
ATOM      3  C   UNL     1       9.039  -1.823  -1.237  1.00  0.00    -0.011 A 
ATOM      4  C   UNL     1       9.260  -0.784  -0.332  1.00  0.00     0.064 A 
ATOM      5  C   UNL     1       8.312   0.231  -0.190  1.00  0.00     0.060 A 
ATOM      6  C   UNL     1       7.872  -1.847  -1.999  1.00  0.00     0.007 A 
ATOM      7  C   UNL     1       7.145   0.206  -0.953  1.00  0.00     0.022 A 
ATOM      8  C   UNL     1       6.925  -0.833  -1.857  1.00  0.00     0.002 A 
ATOM      9  Cl  UNL     1      10.719  -0.776   0.606  1.00  0.00    -0.082 Cl
ATOM     10  Cl  UNL     1       8.522   1.548   0.911  1.00  0.00    -0.083 Cl
ENDBRANCH   1   3
BRANCH   1  11
ATOM     11  N   UNL     1      10.153  -3.329  -2.837  1.00  0.00    -0.324 NA
ATOM     12  H   UNL     1       9.719  -4.241  -2.976  1.00  0.00     0.119 HD
ATOM     13  H   UNL     1      11.139  -3.444  -3.067  1.00  0.00     0.119 HD
ENDBRANCH   1  11
TORSDOF 2
ENDMDL
