MODEL 1
REMARK VINA RESULT:    -5.677      0.000      0.000
REMARK INTER + INTRA:          -6.211
REMARK INTER:                  -6.174
REMARK INTRA:                  -0.037
REMARK UNBOUND:                -0.037
REMARK SMILES C[C@H](N)c1cccc(Cl)c1Cl
REMARK SMILES IDX 1 1 2 2 3 3 4 6 5 7 10 8 6 9 8 10 7 11 11 12 9 13
REMARK H PARENT 3 4 3 5
ROOT
ATOM      1  C   UNL     1       8.894  -1.764  -3.587  1.00  0.00     0.029 C 
ATOM      2  C   UNL     1       7.944  -1.720  -2.389  1.00  0.00     0.079 C 
ENDROOT
BRANCH   2   3
ATOM      3  N   UNL     1       6.602  -1.300  -2.784  1.00  0.00    -0.324 NA
ATOM      4  H   UNL     1       6.660  -0.596  -3.517  1.00  0.00     0.119 HD
ATOM      5  H   UNL     1       6.096  -2.093  -3.174  1.00  0.00     0.119 HD
ENDBRANCH   2   3
BRANCH   2   6
ATOM      6  C   UNL     1       8.481  -0.902  -1.224  1.00  0.00    -0.011 A 
ATOM      7  C   UNL     1       7.777   0.278  -0.895  1.00  0.00     0.007 A 
ATOM      8  C   UNL     1       9.618  -1.236  -0.451  1.00  0.00     0.064 A 
ATOM      9  C   UNL     1       8.177   1.101   0.158  1.00  0.00     0.002 A 
ATOM     10  C   UNL     1      10.014  -0.399   0.611  1.00  0.00     0.060 A 
ATOM     11  C   UNL     1       9.295   0.761   0.911  1.00  0.00     0.022 A 
ATOM     12  Cl  UNL     1      10.548  -2.663  -0.789  1.00  0.00    -0.082 Cl
ATOM     13  Cl  UNL     1      11.392  -0.736   1.606  1.00  0.00    -0.083 Cl
ENDBRANCH   2   6
TORSDOF 2
ENDMDL
MODEL 2
REMARK VINA RESULT:    -5.644      1.795      2.319
REMARK INTER + INTRA:          -6.176
REMARK INTER:                  -6.040
REMARK INTRA:                  -0.136
REMARK UNBOUND:                -0.037
REMARK SMILES C[C@H](N)c1cccc(Cl)c1Cl
REMARK SMILES IDX 1 1 2 2 3 3 4 6 5 7 10 8 6 9 8 10 7 11 11 12 9 13
REMARK H PARENT 3 4 3 5
ROOT
ATOM      1  C   UNL     1      10.245  -3.264  -4.549  1.00  0.00     0.029 C 
ATOM      2  C   UNL     1       8.914  -3.330  -3.800  1.00  0.00     0.079 C 
ENDROOT
BRANCH   2   3
ATOM      3  N   UNL     1       7.780  -3.302  -4.720  1.00  0.00    -0.324 NA
ATOM      4  H   UNL     1       7.048  -2.699  -4.352  1.00  0.00     0.119 HD
ATOM      5  H   UNL     1       8.071  -2.903  -5.611  1.00  0.00     0.119 HD
ENDBRANCH   2   3
BRANCH   2   6
ATOM      6  C   UNL     1       8.787  -2.284  -2.702  1.00  0.00    -0.011 A 
ATOM      7  C   UNL     1       8.486  -0.965  -3.110  1.00  0.00     0.007 A 
ATOM      8  C   UNL     1       8.941  -2.535  -1.319  1.00  0.00     0.064 A 
ATOM      9  C   UNL     1       8.341   0.071  -2.188  1.00  0.00     0.002 A 
ATOM     10  C   UNL     1       8.792  -1.481  -0.395  1.00  0.00     0.060 A 
ATOM     11  C   UNL     1       8.493  -0.187  -0.831  1.00  0.00     0.022 A 
ATOM     12  Cl  UNL     1       9.318  -4.124  -0.728  1.00  0.00    -0.082 Cl
ATOM     13  Cl  UNL     1       8.962  -1.703   1.315  1.00  0.00    -0.083 Cl
ENDBRANCH   2   6
TORSDOF 2
ENDMDL
MODEL 3
REMARK VINA RESULT:    -5.619      2.313      2.810
REMARK INTER + INTRA:          -6.149
REMARK INTER:                  -6.009
REMARK INTRA:                  -0.140
REMARK UNBOUND:                -0.037
REMARK SMILES C[C@H](N)c1cccc(Cl)c1Cl
REMARK SMILES IDX 1 1 2 2 3 3 4 6 5 7 10 8 6 9 8 10 7 11 11 12 9 13
REMARK H PARENT 3 4 3 5
ROOT
ATOM      1  C   UNL     1       8.506  -4.158  -2.863  1.00  0.00     0.029 C 
ATOM      2  C   UNL     1       8.224  -2.660  -2.985  1.00  0.00     0.079 C 
ENDROOT
BRANCH   2   3
ATOM      3  N   UNL     1       8.586  -2.153  -4.307  1.00  0.00    -0.324 NA
ATOM      4  H   UNL     1       9.593  -2.016  -4.362  1.00  0.00     0.119 HD
ATOM      5  H   UNL     1       8.342  -2.841  -5.016  1.00  0.00     0.119 HD
ENDBRANCH   2   3
BRANCH   2   6
ATOM      6  C   UNL     1       8.843  -1.836  -1.866  1.00  0.00    -0.011 A 
ATOM      7  C   UNL     1      10.159  -2.175  -1.478  1.00  0.00     0.007 A 
ATOM      8  C   UNL     1       8.206  -0.765  -1.196  1.00  0.00     0.064 A 
ATOM      9  C   UNL     1      10.825  -1.482  -0.467  1.00  0.00     0.002 A 
ATOM     10  C   UNL     1       8.888  -0.072  -0.177  1.00  0.00     0.060 A 
ATOM     11  C   UNL     1      10.190  -0.431   0.182  1.00  0.00     0.022 A 
ATOM     12  Cl  UNL     1       6.586  -0.286  -1.602  1.00  0.00    -0.082 Cl
ATOM     13  Cl  UNL     1       8.181   1.251   0.691  1.00  0.00    -0.083 Cl
ENDBRANCH   2   6
TORSDOF 2
ENDMDL
MODEL 4
REMARK VINA RESULT:    -5.567      1.843      1.997
REMARK INTER + INTRA:          -6.092
REMARK INTER:                  -6.147
REMARK INTRA:                   0.055
REMARK UNBOUND:                -0.037
REMARK SMILES C[C@H](N)c1cccc(Cl)c1Cl
REMARK SMILES IDX 1 1 2 2 3 3 4 6 5 7 10 8 6 9 8 10 7 11 11 12 9 13
REMARK H PARENT 3 4 3 5
ROOT
ATOM      1  C   UNL     1       7.349  -2.743  -3.977  1.00  0.00     0.029 C 
ATOM      2  C   UNL     1       8.555  -1.862  -3.650  1.00  0.00     0.079 C 
ENDROOT
BRANCH   2   3
ATOM      3  N   UNL     1       9.809  -2.507  -4.032  1.00  0.00    -0.324 NA
ATOM      4  H   UNL     1       9.682  -3.029  -4.896  1.00  0.00     0.119 HD
ATOM      5  H   UNL     1      10.517  -1.799  -4.215  1.00  0.00     0.119 HD
ENDBRANCH   2   3
BRANCH   2   6
ATOM      6  C   UNL     1       8.575  -1.378  -2.208  1.00  0.00    -0.011 A 
ATOM      7  C   UNL     1       8.409   0.009  -1.997  1.00  0.00     0.007 A 
ATOM      8  C   UNL     1       8.741  -2.208  -1.074  1.00  0.00     0.064 A 
ATOM      9  C   UNL     1       8.405   0.560  -0.716  1.00  0.00     0.002 A 
ATOM     10  C   UNL     1       8.735  -1.642   0.216  1.00  0.00     0.060 A 
ATOM     11  C   UNL     1       8.567  -0.265   0.390  1.00  0.00     0.022 A 
ATOM     12  Cl  UNL     1       8.960  -3.924  -1.239  1.00  0.00    -0.082 Cl
ATOM     13  Cl  UNL     1       8.930  -2.587   1.655  1.00  0.00    -0.083 Cl
ENDBRANCH   2   6
TORSDOF 2
ENDMDL
MODEL 5
REMARK VINA RESULT:    -5.566      2.293      3.967
REMARK INTER + INTRA:          -6.091
REMARK INTER:                  -5.953
REMARK INTRA:                  -0.138
REMARK UNBOUND:                -0.037
REMARK SMILES C[C@H](N)c1cccc(Cl)c1Cl
REMARK SMILES IDX 1 1 2 2 3 3 4 6 5 7 10 8 6 9 8 10 7 11 11 12 9 13
REMARK H PARENT 3 4 3 5
ROOT
ATOM      1  C   UNL     1       8.544   1.233   0.918  1.00  0.00     0.029 C 
ATOM      2  C   UNL     1       9.060  -0.202   0.807  1.00  0.00     0.079 C 
ENDROOT
BRANCH   2   3
ATOM      3  N   UNL     1      10.445  -0.310   1.258  1.00  0.00    -0.324 NA
ATOM      4  H   UNL     1      11.074   0.022   0.531  1.00  0.00     0.119 HD
ATOM      5  H   UNL     1      10.589   0.288   2.069  1.00  0.00     0.119 HD
ENDBRANCH   2   3
BRANCH   2   6
ATOM      6  C   UNL     1       8.858  -0.810  -0.573  1.00  0.00    -0.011 A 
ATOM      7  C   UNL     1       8.734   0.091  -1.655  1.00  0.00     0.007 A 
ATOM      8  C   UNL     1       8.791  -2.195  -0.849  1.00  0.00     0.064 A 
ATOM      9  C   UNL     1       8.552  -0.357  -2.964  1.00  0.00     0.002 A 
ATOM     10  C   UNL     1       8.607  -2.638  -2.175  1.00  0.00     0.060 A 
ATOM     11  C   UNL     1       8.489  -1.720  -3.223  1.00  0.00     0.022 A 
ATOM     12  Cl  UNL     1       8.924  -3.374   0.419  1.00  0.00    -0.082 Cl
ATOM     13  Cl  UNL     1       8.515  -4.315  -2.599  1.00  0.00    -0.083 Cl
ENDBRANCH   2   6
TORSDOF 2
ENDMDL
MODEL 6
REMARK VINA RESULT:    -5.513      2.662      4.416
REMARK INTER + INTRA:          -6.033
REMARK INTER:                  -5.897
REMARK INTRA:                  -0.136
REMARK UNBOUND:                -0.037
REMARK SMILES C[C@H](N)c1cccc(Cl)c1Cl
REMARK SMILES IDX 1 1 2 2 3 3 4 6 5 7 10 8 6 9 8 10 7 11 11 12 9 13
REMARK H PARENT 3 4 3 5
ROOT
ATOM      1  C   UNL     1      10.676  -0.345   1.274  1.00  0.00     0.029 C 
ATOM      2  C   UNL     1       9.632  -0.100   0.184  1.00  0.00     0.079 C 
ENDROOT
BRANCH   2   3
ATOM      3  N   UNL     1       8.446   0.565   0.717  1.00  0.00    -0.324 NA
ATOM      4  H   UNL     1       8.559   1.575   0.660  1.00  0.00     0.119 HD
ATOM      5  H   UNL     1       7.635   0.326   0.151  1.00  0.00     0.119 HD
ENDBRANCH   2   3
BRANCH   2   6
ATOM      6  C   UNL     1       9.279  -1.353  -0.606  1.00  0.00    -0.011 A 
ATOM      7  C   UNL     1       9.527  -2.594   0.023  1.00  0.00     0.007 A 
ATOM      8  C   UNL     1       8.724  -1.364  -1.907  1.00  0.00     0.064 A 
ATOM      9  C   UNL     1       9.236  -3.804  -0.606  1.00  0.00     0.002 A 
ATOM     10  C   UNL     1       8.434  -2.592  -2.534  1.00  0.00     0.060 A 
ATOM     11  C   UNL     1       8.689  -3.803  -1.884  1.00  0.00     0.022 A 
ATOM     12  Cl  UNL     1       8.395   0.113  -2.758  1.00  0.00    -0.082 Cl
ATOM     13  Cl  UNL     1       7.751  -2.695  -4.123  1.00  0.00    -0.083 Cl
ENDBRANCH   2   6
TORSDOF 2
ENDMDL
MODEL 7
REMARK VINA RESULT:    -5.479      2.924      4.510
REMARK INTER + INTRA:          -5.996
REMARK INTER:                  -6.082
REMARK INTRA:                   0.085
REMARK UNBOUND:                -0.037
REMARK SMILES C[C@H](N)c1cccc(Cl)c1Cl
REMARK SMILES IDX 1 1 2 2 3 3 4 6 5 7 10 8 6 9 8 10 7 11 11 12 9 13
REMARK H PARENT 3 4 3 5
ROOT
ATOM      1  C   UNL     1       8.234   1.105  -0.014  1.00  0.00     0.029 C 
ATOM      2  C   UNL     1       8.725  -0.292   0.370  1.00  0.00     0.079 C 
ENDROOT
BRANCH   2   3
ATOM      3  N   UNL     1       9.903  -0.227   1.231  1.00  0.00    -0.324 NA
ATOM      4  H   UNL     1      10.511  -1.023   1.049  1.00  0.00     0.119 HD
ATOM      5  H   UNL     1      10.439   0.611   1.016  1.00  0.00     0.119 HD
ENDBRANCH   2   3
BRANCH   2   6
ATOM      6  C   UNL     1       8.941  -1.205  -0.828  1.00  0.00    -0.011 A 
ATOM      7  C   UNL     1      10.229  -1.766  -0.979  1.00  0.00     0.007 A 
ATOM      8  C   UNL     1       7.954  -1.534  -1.787  1.00  0.00     0.064 A 
ATOM      9  C   UNL     1      10.536  -2.622  -2.036  1.00  0.00     0.002 A 
ATOM     10  C   UNL     1       8.274  -2.400  -2.852  1.00  0.00     0.060 A 
ATOM     11  C   UNL     1       9.558  -2.940  -2.972  1.00  0.00     0.022 A 
ATOM     12  Cl  UNL     1       6.347  -0.885  -1.685  1.00  0.00    -0.082 Cl
ATOM     13  Cl  UNL     1       7.126  -2.855  -4.067  1.00  0.00    -0.083 Cl
ENDBRANCH   2   6
TORSDOF 2
ENDMDL
MODEL 8
REMARK VINA RESULT:    -5.453      2.349      4.064
REMARK INTER + INTRA:          -5.968
REMARK INTER:                  -5.826
REMARK INTRA:                  -0.143
REMARK UNBOUND:                -0.037
REMARK SMILES C[C@H](N)c1cccc(Cl)c1Cl
REMARK SMILES IDX 1 1 2 2 3 3 4 6 5 7 10 8 6 9 8 10 7 11 11 12 9 13
REMARK H PARENT 3 4 3 5
ROOT
ATOM      1  C   UNL     1       8.920  -2.378   1.349  1.00  0.00     0.029 C 
ATOM      2  C   UNL     1       9.172  -1.268   0.328  1.00  0.00     0.079 C 
ENDROOT
BRANCH   2   3
ATOM      3  N   UNL     1       9.018   0.056   0.927  1.00  0.00    -0.324 NA
ATOM      4  H   UNL     1       9.598   0.130   1.759  1.00  0.00     0.119 HD
ATOM      5  H   UNL     1       9.344   0.767   0.275  1.00  0.00     0.119 HD
ENDBRANCH   2   3
BRANCH   2   6
ATOM      6  C   UNL     1       8.352  -1.421  -0.944  1.00  0.00    -0.011 A 
ATOM      7  C   UNL     1       7.109  -0.748  -0.986  1.00  0.00     0.007 A 
ATOM      8  C   UNL     1       8.740  -2.175  -2.076  1.00  0.00     0.064 A 
ATOM      9  C   UNL     1       6.279  -0.814  -2.105  1.00  0.00     0.002 A 
ATOM     10  C   UNL     1       7.893  -2.235  -3.201  1.00  0.00     0.060 A 
ATOM     11  C   UNL     1       6.671  -1.557  -3.212  1.00  0.00     0.022 A 
ATOM     12  Cl  UNL     1      10.245  -3.040  -2.108  1.00  0.00    -0.082 Cl
ATOM     13  Cl  UNL     1       8.294  -3.134  -4.628  1.00  0.00    -0.083 Cl
ENDBRANCH   2   6
TORSDOF 2
ENDMDL
MODEL 9
REMARK VINA RESULT:    -5.232      1.824      2.734
REMARK INTER + INTRA:          -5.727
REMARK INTER:                  -5.882
REMARK INTRA:                   0.155
REMARK UNBOUND:                -0.037
REMARK SMILES C[C@H](N)c1cccc(Cl)c1Cl
REMARK SMILES IDX 1 1 2 2 3 3 4 6 5 7 10 8 6 9 8 10 7 11 11 12 9 13
REMARK H PARENT 3 4 3 5
ROOT
ATOM      1  C   UNL     1       6.134  -0.850  -2.045  1.00  0.00     0.029 C 
ATOM      2  C   UNL     1       7.464  -1.101  -2.757  1.00  0.00     0.079 C 
ENDROOT
BRANCH   2   3
ATOM      3  N   UNL     1       7.339  -2.142  -3.773  1.00  0.00    -0.324 NA
ATOM      4  H   UNL     1       7.250  -1.719  -4.695  1.00  0.00     0.119 HD
ATOM      5  H   UNL     1       8.184  -2.709  -3.789  1.00  0.00     0.119 HD
ENDBRANCH   2   3
BRANCH   2   6
ATOM      6  C   UNL     1       8.618  -1.367  -1.802  1.00  0.00    -0.011 A 
ATOM      7  C   UNL     1       9.380  -2.535  -2.032  1.00  0.00     0.007 A 
ATOM      8  C   UNL     1       8.982  -0.538  -0.715  1.00  0.00     0.064 A 
ATOM      9  C   UNL     1      10.464  -2.874  -1.223  1.00  0.00     0.002 A 
ATOM     10  C   UNL     1      10.079  -0.889   0.097  1.00  0.00     0.060 A 
ATOM     11  C   UNL     1      10.814  -2.051  -0.159  1.00  0.00     0.022 A 
ATOM     12  Cl  UNL     1       8.097   0.912  -0.353  1.00  0.00    -0.082 Cl
ATOM     13  Cl  UNL     1      10.593   0.071   1.445  1.00  0.00    -0.083 Cl
ENDBRANCH   2   6
TORSDOF 2
ENDMDL
