MODEL 1
REMARK VINA RESULT:    -5.674      0.000      0.000
REMARK INTER + INTRA:          -6.219
REMARK INTER:                  -6.172
REMARK INTRA:                  -0.048
REMARK UNBOUND:                -0.048
REMARK SMILES C[C@H](N)c1cccc(Cl)c1Cl
REMARK SMILES IDX 1 1 2 2 3 3 4 6 5 7 10 8 6 9 8 10 7 11 11 12 9 13
REMARK H PARENT 3 4 3 5
ROOT
ATOM      1  C   UNL     1       8.919  -1.759  -3.581  1.00  0.00     0.029 C 
ATOM      2  C   UNL     1       7.969  -1.745  -2.383  1.00  0.00     0.079 C 
ENDROOT
BRANCH   2   3
ATOM      3  N   UNL     1       6.618  -1.352  -2.775  1.00  0.00    -0.324 NA
ATOM      4  H   UNL     1       6.144  -2.135  -3.219  1.00  0.00     0.119 HD
ATOM      5  H   UNL     1       6.078  -1.110  -1.947  1.00  0.00     0.119 HD
ENDBRANCH   2   3
BRANCH   2   6
ATOM      6  C   UNL     1       8.488  -0.923  -1.212  1.00  0.00    -0.011 A 
ATOM      7  C   UNL     1       7.770   0.251  -0.889  1.00  0.00     0.007 A 
ATOM      8  C   UNL     1       9.621  -1.247  -0.429  1.00  0.00     0.064 A 
ATOM      9  C   UNL     1       8.153   1.076   0.169  1.00  0.00     0.002 A 
ATOM     10  C   UNL     1       9.999  -0.408   0.637  1.00  0.00     0.060 A 
ATOM     11  C   UNL     1       9.267   0.746   0.932  1.00  0.00     0.022 A 
ATOM     12  Cl  UNL     1      10.567  -2.666  -0.760  1.00  0.00    -0.082 Cl
ATOM     13  Cl  UNL     1      11.371  -0.733   1.645  1.00  0.00    -0.083 Cl
ENDBRANCH   2   6
TORSDOF 2
ENDMDL
MODEL 2
REMARK VINA RESULT:    -5.643      1.767      2.289
REMARK INTER + INTRA:          -6.185
REMARK INTER:                  -6.047
REMARK INTRA:                  -0.138
REMARK UNBOUND:                -0.048
REMARK SMILES C[C@H](N)c1cccc(Cl)c1Cl
REMARK SMILES IDX 1 1 2 2 3 3 4 6 5 7 10 8 6 9 8 10 7 11 11 12 9 13
REMARK H PARENT 3 4 3 5
ROOT
ATOM      1  C   UNL     1      10.252  -3.361  -4.464  1.00  0.00     0.029 C 
ATOM      2  C   UNL     1       8.900  -3.346  -3.750  1.00  0.00     0.079 C 
ENDROOT
BRANCH   2   3
ATOM      3  N   UNL     1       7.793  -3.306  -4.701  1.00  0.00    -0.324 NA
ATOM      4  H   UNL     1       7.332  -4.213  -4.737  1.00  0.00     0.119 HD
ATOM      5  H   UNL     1       7.096  -2.633  -4.388  1.00  0.00     0.119 HD
ENDBRANCH   2   3
BRANCH   2   6
ATOM      6  C   UNL     1       8.789  -2.256  -2.694  1.00  0.00    -0.011 A 
ATOM      7  C   UNL     1       8.485  -0.954  -3.151  1.00  0.00     0.007 A 
ATOM      8  C   UNL     1       8.960  -2.451  -1.303  1.00  0.00     0.064 A 
ATOM      9  C   UNL     1       8.353   0.119  -2.269  1.00  0.00     0.002 A 
ATOM     10  C   UNL     1       8.825  -1.361  -0.421  1.00  0.00     0.060 A 
ATOM     11  C   UNL     1       8.522  -0.085  -0.905  1.00  0.00     0.022 A 
ATOM     12  Cl  UNL     1       9.344  -4.016  -0.654  1.00  0.00    -0.082 Cl
ATOM     13  Cl  UNL     1       9.017  -1.514   1.294  1.00  0.00    -0.083 Cl
ENDBRANCH   2   6
TORSDOF 2
ENDMDL
MODEL 3
REMARK VINA RESULT:    -5.612      2.353      2.830
REMARK INTER + INTRA:          -6.151
REMARK INTER:                  -6.016
REMARK INTRA:                  -0.136
REMARK UNBOUND:                -0.048
REMARK SMILES C[C@H](N)c1cccc(Cl)c1Cl
REMARK SMILES IDX 1 1 2 2 3 3 4 6 5 7 10 8 6 9 8 10 7 11 11 12 9 13
REMARK H PARENT 3 4 3 5
ROOT
ATOM      1  C   UNL     1       8.516  -4.104  -2.835  1.00  0.00     0.029 C 
ATOM      2  C   UNL     1       8.256  -2.611  -3.045  1.00  0.00     0.079 C 
ENDROOT
BRANCH   2   3
ATOM      3  N   UNL     1       8.684  -2.174  -4.371  1.00  0.00    -0.324 NA
ATOM      4  H   UNL     1       9.682  -1.974  -4.366  1.00  0.00     0.119 HD
ATOM      5  H   UNL     1       8.537  -2.924  -5.043  1.00  0.00     0.119 HD
ENDBRANCH   2   3
BRANCH   2   6
ATOM      6  C   UNL     1       8.833  -1.738  -1.940  1.00  0.00    -0.011 A 
ATOM      7  C   UNL     1      10.175  -1.981  -1.570  1.00  0.00     0.007 A 
ATOM      8  C   UNL     1       8.133  -0.710  -1.267  1.00  0.00     0.064 A 
ATOM      9  C   UNL     1      10.807  -1.236  -0.574  1.00  0.00     0.002 A 
ATOM     10  C   UNL     1       8.780   0.037  -0.262  1.00  0.00     0.060 A 
ATOM     11  C   UNL     1      10.109  -0.227   0.079  1.00  0.00     0.022 A 
ATOM     12  Cl  UNL     1       6.478  -0.348  -1.651  1.00  0.00    -0.082 Cl
ATOM     13  Cl  UNL     1       7.995   1.314   0.608  1.00  0.00    -0.083 Cl
ENDBRANCH   2   6
TORSDOF 2
ENDMDL
MODEL 4
REMARK VINA RESULT:    -5.587      2.307      3.982
REMARK INTER + INTRA:          -6.125
REMARK INTER:                  -5.985
REMARK INTRA:                  -0.140
REMARK UNBOUND:                -0.048
REMARK SMILES C[C@H](N)c1cccc(Cl)c1Cl
REMARK SMILES IDX 1 1 2 2 3 3 4 6 5 7 10 8 6 9 8 10 7 11 11 12 9 13
REMARK H PARENT 3 4 3 5
ROOT
ATOM      1  C   UNL     1       8.530   1.241   0.911  1.00  0.00     0.029 C 
ATOM      2  C   UNL     1       9.020  -0.205   0.820  1.00  0.00     0.079 C 
ENDROOT
BRANCH   2   3
ATOM      3  N   UNL     1      10.404  -0.331   1.270  1.00  0.00    -0.324 NA
ATOM      4  H   UNL     1      10.870  -1.075   0.756  1.00  0.00     0.119 HD
ATOM      5  H   UNL     1      10.910   0.530   1.069  1.00  0.00     0.119 HD
ENDBRANCH   2   3
BRANCH   2   6
ATOM      6  C   UNL     1       8.804  -0.829  -0.550  1.00  0.00    -0.011 A 
ATOM      7  C   UNL     1       8.705   0.057  -1.647  1.00  0.00     0.007 A 
ATOM      8  C   UNL     1       8.702  -2.217  -0.805  1.00  0.00     0.064 A 
ATOM      9  C   UNL     1       8.514  -0.406  -2.948  1.00  0.00     0.002 A 
ATOM     10  C   UNL     1       8.508  -2.675  -2.123  1.00  0.00     0.060 A 
ATOM     11  C   UNL     1       8.416  -1.772  -3.186  1.00  0.00     0.022 A 
ATOM     12  Cl  UNL     1       8.804  -3.378   0.483  1.00  0.00    -0.082 Cl
ATOM     13  Cl  UNL     1       8.374  -4.357  -2.521  1.00  0.00    -0.083 Cl
ENDBRANCH   2   6
TORSDOF 2
ENDMDL
MODEL 5
REMARK VINA RESULT:    -5.474      2.308      2.922
REMARK INTER + INTRA:          -6.002
REMARK INTER:                  -6.058
REMARK INTRA:                   0.056
REMARK UNBOUND:                -0.048
REMARK SMILES C[C@H](N)c1cccc(Cl)c1Cl
REMARK SMILES IDX 1 1 2 2 3 3 4 6 5 7 10 8 6 9 8 10 7 11 11 12 9 13
REMARK H PARENT 3 4 3 5
ROOT
ATOM      1  C   UNL     1      10.270  -2.989  -3.875  1.00  0.00     0.029 C 
ATOM      2  C   UNL     1       9.009  -3.422  -3.125  1.00  0.00     0.079 C 
ENDROOT
BRANCH   2   3
ATOM      3  N   UNL     1       7.807  -3.197  -3.924  1.00  0.00    -0.324 NA
ATOM      4  H   UNL     1       7.117  -3.918  -3.723  1.00  0.00     0.119 HD
ATOM      5  H   UNL     1       7.387  -2.306  -3.668  1.00  0.00     0.119 HD
ENDBRANCH   2   3
BRANCH   2   6
ATOM      6  C   UNL     1       8.896  -2.813  -1.735  1.00  0.00    -0.011 A 
ATOM      7  C   UNL     1       9.026  -3.696  -0.640  1.00  0.00     0.007 A 
ATOM      8  C   UNL     1       8.676  -1.443  -1.463  1.00  0.00     0.064 A 
ATOM      9  C   UNL     1       8.945  -3.246   0.678  1.00  0.00     0.002 A 
ATOM     10  C   UNL     1       8.596  -0.997  -0.128  1.00  0.00     0.060 A 
ATOM     11  C   UNL     1       8.731  -1.896   0.933  1.00  0.00     0.022 A 
ATOM     12  Cl  UNL     1       8.495  -0.288  -2.748  1.00  0.00    -0.082 Cl
ATOM     13  Cl  UNL     1       8.331   0.663   0.291  1.00  0.00    -0.083 Cl
ENDBRANCH   2   6
TORSDOF 2
ENDMDL
MODEL 6
REMARK VINA RESULT:    -5.465      2.957      4.516
REMARK INTER + INTRA:          -5.992
REMARK INTER:                  -6.040
REMARK INTRA:                   0.048
REMARK UNBOUND:                -0.048
REMARK SMILES C[C@H](N)c1cccc(Cl)c1Cl
REMARK SMILES IDX 1 1 2 2 3 3 4 6 5 7 10 8 6 9 8 10 7 11 11 12 9 13
REMARK H PARENT 3 4 3 5
ROOT
ATOM      1  C   UNL     1       8.186   1.139  -0.025  1.00  0.00     0.029 C 
ATOM      2  C   UNL     1       8.605  -0.277   0.370  1.00  0.00     0.079 C 
ENDROOT
BRANCH   2   3
ATOM      3  N   UNL     1       9.744  -0.263   1.284  1.00  0.00    -0.324 NA
ATOM      4  H   UNL     1      10.320   0.558   1.108  1.00  0.00     0.119 HD
ATOM      5  H   UNL     1       9.414  -0.192   2.244  1.00  0.00     0.119 HD
ENDBRANCH   2   3
BRANCH   2   6
ATOM      6  C   UNL     1       8.838  -1.192  -0.823  1.00  0.00    -0.011 A 
ATOM      7  C   UNL     1      10.125  -1.760  -0.949  1.00  0.00     0.007 A 
ATOM      8  C   UNL     1       7.868  -1.516  -1.800  1.00  0.00     0.064 A 
ATOM      9  C   UNL     1      10.447  -2.618  -2.001  1.00  0.00     0.002 A 
ATOM     10  C   UNL     1       8.203  -2.384  -2.859  1.00  0.00     0.060 A 
ATOM     11  C   UNL     1       9.486  -2.930  -2.954  1.00  0.00     0.022 A 
ATOM     12  Cl  UNL     1       6.262  -0.858  -1.728  1.00  0.00    -0.082 Cl
ATOM     13  Cl  UNL     1       7.075  -2.833  -4.095  1.00  0.00    -0.083 Cl
ENDBRANCH   2   6
TORSDOF 2
ENDMDL
MODEL 7
REMARK VINA RESULT:    -5.449      2.337      4.056
REMARK INTER + INTRA:          -5.974
REMARK INTER:                  -5.832
REMARK INTRA:                  -0.142
REMARK UNBOUND:                -0.048
REMARK SMILES C[C@H](N)c1cccc(Cl)c1Cl
REMARK SMILES IDX 1 1 2 2 3 3 4 6 5 7 10 8 6 9 8 10 7 11 11 12 9 13
REMARK H PARENT 3 4 3 5
ROOT
ATOM      1  C   UNL     1       8.941  -2.286   1.367  1.00  0.00     0.029 C 
ATOM      2  C   UNL     1       9.241  -1.222   0.309  1.00  0.00     0.079 C 
ENDROOT
BRANCH   2   3
ATOM      3  N   UNL     1       9.153   0.125   0.865  1.00  0.00    -0.324 NA
ATOM      4  H   UNL     1       9.872   0.256   1.574  1.00  0.00     0.119 HD
ATOM      5  H   UNL     1       9.332   0.810   0.134  1.00  0.00     0.119 HD
ENDBRANCH   2   3
BRANCH   2   6
ATOM      6  C   UNL     1       8.406  -1.376  -0.954  1.00  0.00    -0.011 A 
ATOM      7  C   UNL     1       7.168  -0.696  -0.987  1.00  0.00     0.007 A 
ATOM      8  C   UNL     1       8.778  -2.138  -2.086  1.00  0.00     0.064 A 
ATOM      9  C   UNL     1       6.325  -0.762  -2.097  1.00  0.00     0.002 A 
ATOM     10  C   UNL     1       7.920  -2.199  -3.203  1.00  0.00     0.060 A 
ATOM     11  C   UNL     1       6.702  -1.513  -3.204  1.00  0.00     0.022 A 
ATOM     12  Cl  UNL     1      10.278  -3.013  -2.129  1.00  0.00    -0.082 Cl
ATOM     13  Cl  UNL     1       8.301  -3.106  -4.629  1.00  0.00    -0.083 Cl
ENDBRANCH   2   6
TORSDOF 2
ENDMDL
MODEL 8
REMARK VINA RESULT:    -5.325      2.814      3.632
REMARK INTER + INTRA:          -5.839
REMARK INTER:                  -5.731
REMARK INTRA:                  -0.108
REMARK UNBOUND:                -0.048
REMARK SMILES C[C@H](N)c1cccc(Cl)c1Cl
REMARK SMILES IDX 1 1 2 2 3 3 4 6 5 7 10 8 6 9 8 10 7 11 11 12 9 13
REMARK H PARENT 3 4 3 5
ROOT
ATOM      1  C   UNL     1       8.355  -3.954   2.157  1.00  0.00     0.029 C 
ATOM      2  C   UNL     1       8.537  -3.783   0.648  1.00  0.00     0.079 C 
ENDROOT
BRANCH   2   3
ATOM      3  N   UNL     1       9.652  -4.582   0.148  1.00  0.00    -0.324 NA
ATOM      4  H   UNL     1      10.154  -5.004   0.927  1.00  0.00     0.119 HD
ATOM      5  H   UNL     1       9.297  -5.346  -0.423  1.00  0.00     0.119 HD
ENDBRANCH   2   3
BRANCH   2   6
ATOM      6  C   UNL     1       8.636  -2.327   0.215  1.00  0.00    -0.011 A 
ATOM      7  C   UNL     1       8.923  -1.380   1.223  1.00  0.00     0.007 A 
ATOM      8  C   UNL     1       8.468  -1.860  -1.110  1.00  0.00     0.064 A 
ATOM      9  C   UNL     1       9.042  -0.020   0.937  1.00  0.00     0.002 A 
ATOM     10  C   UNL     1       8.591  -0.484  -1.389  1.00  0.00     0.060 A 
ATOM     11  C   UNL     1       8.877   0.427  -0.368  1.00  0.00     0.022 A 
ATOM     12  Cl  UNL     1       8.106  -2.953  -2.410  1.00  0.00    -0.082 Cl
ATOM     13  Cl  UNL     1       8.403   0.170  -2.982  1.00  0.00    -0.083 Cl
ENDBRANCH   2   6
TORSDOF 2
ENDMDL
MODEL 9
REMARK VINA RESULT:    -5.312      2.658      4.249
REMARK INTER + INTRA:          -5.825
REMARK INTER:                  -5.689
REMARK INTRA:                  -0.136
REMARK UNBOUND:                -0.048
REMARK SMILES C[C@H](N)c1cccc(Cl)c1Cl
REMARK SMILES IDX 1 1 2 2 3 3 4 6 5 7 10 8 6 9 8 10 7 11 11 12 9 13
REMARK H PARENT 3 4 3 5
ROOT
ATOM      1  C   UNL     1      11.121  -0.029   1.843  1.00  0.00     0.029 C 
ATOM      2  C   UNL     1      10.054  -0.061   0.749  1.00  0.00     0.079 C 
ENDROOT
BRANCH   2   3
ATOM      3  N   UNL     1       9.011   0.933   0.988  1.00  0.00    -0.324 NA
ATOM      4  H   UNL     1       9.363   1.665   1.600  1.00  0.00     0.119 HD
ATOM      5  H   UNL     1       8.755   1.379   0.109  1.00  0.00     0.119 HD
ENDBRANCH   2   3
BRANCH   2   6
ATOM      6  C   UNL     1       9.478  -1.449   0.509  1.00  0.00    -0.011 A 
ATOM      7  C   UNL     1       9.088  -2.184   1.652  1.00  0.00     0.007 A 
ATOM      8  C   UNL     1       9.303  -2.049  -0.760  1.00  0.00     0.064 A 
ATOM      9  C   UNL     1       8.542  -3.463   1.549  1.00  0.00     0.002 A 
ATOM     10  C   UNL     1       8.751  -3.343  -0.854  1.00  0.00     0.060 A 
ATOM     11  C   UNL     1       8.374  -4.042   0.296  1.00  0.00     0.022 A 
ATOM     12  Cl  UNL     1       9.763  -1.223  -2.217  1.00  0.00    -0.082 Cl
ATOM     13  Cl  UNL     1       8.502  -4.147  -2.368  1.00  0.00    -0.083 Cl
ENDBRANCH   2   6
TORSDOF 2
ENDMDL
