MODEL 1
REMARK VINA RESULT:    -5.721      0.000      0.000
REMARK INTER + INTRA:          -6.354
REMARK INTER:                  -6.223
REMARK INTRA:                  -0.131
REMARK UNBOUND:                -0.131
REMARK SMILES C[C@H](N)c1cccc(Cl)c1Cl
REMARK SMILES IDX 1 1 2 2 3 3 4 6 5 7 10 8 6 9 8 10 7 11 11 12 9 13
REMARK H PARENT 3 4 3 5
ROOT
ATOM      1  C   UNL     1       8.211  -4.347  -2.826  1.00  0.00     0.029 C 
ATOM      2  C   UNL     1       7.908  -2.922  -3.292  1.00  0.00     0.079 C 
ENDROOT
BRANCH   2   3
ATOM      3  N   UNL     1       8.171  -2.759  -4.719  1.00  0.00    -0.324 NA
ATOM      4  H   UNL     1       7.552  -2.051  -5.108  1.00  0.00     0.119 HD
ATOM      5  H   UNL     1       9.124  -2.426  -4.857  1.00  0.00     0.119 HD
ENDBRANCH   2   3
BRANCH   2   6
ATOM      6  C   UNL     1       8.600  -1.855  -2.456  1.00  0.00    -0.011 A 
ATOM      7  C   UNL     1      10.012  -1.881  -2.430  1.00  0.00     0.007 A 
ATOM      8  C   UNL     1       7.938  -0.847  -1.716  1.00  0.00     0.064 A 
ATOM      9  C   UNL     1      10.748  -0.946  -1.702  1.00  0.00     0.002 A 
ATOM     10  C   UNL     1       8.691   0.092  -0.983  1.00  0.00     0.060 A 
ATOM     11  C   UNL     1      10.087   0.040  -0.980  1.00  0.00     0.022 A 
ATOM     12  Cl  UNL     1       6.205  -0.746  -1.683  1.00  0.00    -0.082 Cl
ATOM     13  Cl  UNL     1       7.959   1.358  -0.052  1.00  0.00    -0.083 Cl
ENDBRANCH   2   6
TORSDOF 2
ENDMDL
MODEL 2
REMARK VINA RESULT:    -5.580      1.881      2.753
REMARK INTER + INTRA:          -6.200
REMARK INTER:                  -6.079
REMARK INTRA:                  -0.121
REMARK UNBOUND:                -0.131
REMARK SMILES C[C@H](N)c1cccc(Cl)c1Cl
REMARK SMILES IDX 1 1 2 2 3 3 4 6 5 7 10 8 6 9 8 10 7 11 11 12 9 13
REMARK H PARENT 3 4 3 5
ROOT
ATOM      1  C   UNL     1       9.132  -2.621  -5.060  1.00  0.00     0.029 C 
ATOM      2  C   UNL     1       9.716  -2.163  -3.723  1.00  0.00     0.079 C 
ENDROOT
BRANCH   2   3
ATOM      3  N   UNL     1      10.398  -3.256  -3.035  1.00  0.00    -0.324 NA
ATOM      4  H   UNL     1      10.532  -3.018  -2.054  1.00  0.00     0.119 HD
ATOM      5  H   UNL     1       9.818  -4.092  -3.060  1.00  0.00     0.119 HD
ENDBRANCH   2   3
BRANCH   2   6
ATOM      6  C   UNL     1       8.701  -1.467  -2.829  1.00  0.00    -0.011 A 
ATOM      7  C   UNL     1       7.336  -1.691  -3.117  1.00  0.00     0.007 A 
ATOM      8  C   UNL     1       9.022  -0.624  -1.739  1.00  0.00     0.064 A 
ATOM      9  C   UNL     1       6.322  -1.108  -2.358  1.00  0.00     0.002 A 
ATOM     10  C   UNL     1       7.990  -0.039  -0.978  1.00  0.00     0.060 A 
ATOM     11  C   UNL     1       6.649  -0.283  -1.289  1.00  0.00     0.022 A 
ATOM     12  Cl  UNL     1      10.672  -0.285  -1.318  1.00  0.00    -0.082 Cl
ATOM     13  Cl  UNL     1       8.296   1.002   0.373  1.00  0.00    -0.083 Cl
ENDBRANCH   2   6
TORSDOF 2
ENDMDL
MODEL 3
REMARK VINA RESULT:    -5.490      1.634      2.358
REMARK INTER + INTRA:          -6.103
REMARK INTER:                  -6.099
REMARK INTRA:                  -0.004
REMARK UNBOUND:                -0.131
REMARK SMILES C[C@H](N)c1cccc(Cl)c1Cl
REMARK SMILES IDX 1 1 2 2 3 3 4 6 5 7 10 8 6 9 8 10 7 11 11 12 9 13
REMARK H PARENT 3 4 3 5
ROOT
ATOM      1  C   UNL     1      11.465  -3.002  -3.923  1.00  0.00     0.029 C 
ATOM      2  C   UNL     1       9.959  -2.924  -4.175  1.00  0.00     0.079 C 
ENDROOT
BRANCH   2   3
ATOM      3  N   UNL     1       9.665  -2.599  -5.568  1.00  0.00    -0.324 NA
ATOM      4  H   UNL     1       9.306  -1.649  -5.635  1.00  0.00     0.119 HD
ATOM      5  H   UNL     1      10.523  -2.629  -6.116  1.00  0.00     0.119 HD
ENDBRANCH   2   3
BRANCH   2   6
ATOM      6  C   UNL     1       9.232  -2.003  -3.206  1.00  0.00    -0.011 A 
ATOM      7  C   UNL     1      10.034  -1.252  -2.317  1.00  0.00     0.007 A 
ATOM      8  C   UNL     1       7.829  -1.842  -3.135  1.00  0.00     0.064 A 
ATOM      9  C   UNL     1       9.474  -0.372  -1.391  1.00  0.00     0.002 A 
ATOM     10  C   UNL     1       7.273  -0.950  -2.196  1.00  0.00     0.060 A 
ATOM     11  C   UNL     1       8.094  -0.221  -1.331  1.00  0.00     0.022 A 
ATOM     12  Cl  UNL     1       6.766  -2.730  -4.183  1.00  0.00    -0.082 Cl
ATOM     13  Cl  UNL     1       5.566  -0.693  -2.044  1.00  0.00    -0.083 Cl
ENDBRANCH   2   6
TORSDOF 2
ENDMDL
MODEL 4
REMARK VINA RESULT:    -5.388      2.129      3.951
REMARK INTER + INTRA:          -5.991
REMARK INTER:                  -6.092
REMARK INTRA:                   0.101
REMARK UNBOUND:                -0.131
REMARK SMILES C[C@H](N)c1cccc(Cl)c1Cl
REMARK SMILES IDX 1 1 2 2 3 3 4 6 5 7 10 8 6 9 8 10 7 11 11 12 9 13
REMARK H PARENT 3 4 3 5
ROOT
ATOM      1  C   UNL     1      10.370  -0.202  -1.249  1.00  0.00     0.029 C 
ATOM      2  C   UNL     1       8.888  -0.290  -1.613  1.00  0.00     0.079 C 
ENDROOT
BRANCH   2   3
ATOM      3  N   UNL     1       8.046  -0.354  -0.421  1.00  0.00    -0.324 NA
ATOM      4  H   UNL     1       8.445   0.223   0.317  1.00  0.00     0.119 HD
ATOM      5  H   UNL     1       7.126   0.027  -0.630  1.00  0.00     0.119 HD
ENDBRANCH   2   3
BRANCH   2   6
ATOM      6  C   UNL     1       8.574  -1.408  -2.596  1.00  0.00    -0.011 A 
ATOM      7  C   UNL     1       9.665  -2.180  -3.055  1.00  0.00     0.007 A 
ATOM      8  C   UNL     1       7.282  -1.730  -3.076  1.00  0.00     0.064 A 
ATOM      9  C   UNL     1       9.491  -3.233  -3.953  1.00  0.00     0.002 A 
ATOM     10  C   UNL     1       7.117  -2.796  -3.983  1.00  0.00     0.060 A 
ATOM     11  C   UNL     1       8.218  -3.541  -4.415  1.00  0.00     0.022 A 
ATOM     12  Cl  UNL     1       5.885  -0.830  -2.572  1.00  0.00    -0.082 Cl
ATOM     13  Cl  UNL     1       5.572  -3.257  -4.616  1.00  0.00    -0.083 Cl
ENDBRANCH   2   6
TORSDOF 2
ENDMDL
MODEL 5
REMARK VINA RESULT:    -5.179      2.732      4.185
REMARK INTER + INTRA:          -5.764
REMARK INTER:                  -5.924
REMARK INTRA:                   0.160
REMARK UNBOUND:                -0.131
REMARK SMILES C[C@H](N)c1cccc(Cl)c1Cl
REMARK SMILES IDX 1 1 2 2 3 3 4 6 5 7 10 8 6 9 8 10 7 11 11 12 9 13
REMARK H PARENT 3 4 3 5
ROOT
ATOM      1  C   UNL     1       7.659  -0.490  -0.449  1.00  0.00     0.029 C 
ATOM      2  C   UNL     1       7.246  -0.411  -1.919  1.00  0.00     0.079 C 
ENDROOT
BRANCH   2   3
ATOM      3  N   UNL     1       5.793  -0.405  -2.068  1.00  0.00    -0.324 NA
ATOM      4  H   UNL     1       5.474   0.527  -2.323  1.00  0.00     0.119 HD
ATOM      5  H   UNL     1       5.523  -1.028  -2.826  1.00  0.00     0.119 HD
ENDBRANCH   2   3
BRANCH   2   6
ATOM      6  C   UNL     1       7.906  -1.471  -2.788  1.00  0.00    -0.011 A 
ATOM      7  C   UNL     1       7.053  -2.257  -3.595  1.00  0.00     0.007 A 
ATOM      8  C   UNL     1       9.297  -1.721  -2.850  1.00  0.00     0.064 A 
ATOM      9  C   UNL     1       7.551  -3.253  -4.435  1.00  0.00     0.002 A 
ATOM     10  C   UNL     1       9.791  -2.730  -3.702  1.00  0.00     0.060 A 
ATOM     11  C   UNL     1       8.920  -3.488  -4.488  1.00  0.00     0.022 A 
ATOM     12  Cl  UNL     1      10.419  -0.809  -1.888  1.00  0.00    -0.082 Cl
ATOM     13  Cl  UNL     1      11.479  -3.097  -3.838  1.00  0.00    -0.083 Cl
ENDBRANCH   2   6
TORSDOF 2
ENDMDL
MODEL 6
REMARK VINA RESULT:    -5.055      1.964      2.490
REMARK INTER + INTRA:          -5.630
REMARK INTER:                  -5.750
REMARK INTRA:                   0.121
REMARK UNBOUND:                -0.131
REMARK SMILES C[C@H](N)c1cccc(Cl)c1Cl
REMARK SMILES IDX 1 1 2 2 3 3 4 6 5 7 10 8 6 9 8 10 7 11 11 12 9 13
REMARK H PARENT 3 4 3 5
ROOT
ATOM      1  C   UNL     1       8.222  -4.476  -2.783  1.00  0.00     0.029 C 
ATOM      2  C   UNL     1       7.603  -3.166  -3.271  1.00  0.00     0.079 C 
ENDROOT
BRANCH   2   3
ATOM      3  N   UNL     1       7.829  -2.966  -4.700  1.00  0.00    -0.324 NA
ATOM      4  H   UNL     1       6.959  -3.095  -5.211  1.00  0.00     0.119 HD
ATOM      5  H   UNL     1       8.131  -2.008  -4.869  1.00  0.00     0.119 HD
ENDBRANCH   2   3
BRANCH   2   6
ATOM      6  C   UNL     1       8.026  -1.957  -2.449  1.00  0.00    -0.011 A 
ATOM      7  C   UNL     1       6.991  -1.158  -1.911  1.00  0.00     0.007 A 
ATOM      8  C   UNL     1       9.364  -1.582  -2.184  1.00  0.00     0.064 A 
ATOM      9  C   UNL     1       7.265  -0.030  -1.137  1.00  0.00     0.002 A 
ATOM     10  C   UNL     1       9.629  -0.441  -1.400  1.00  0.00     0.060 A 
ATOM     11  C   UNL     1       8.583   0.327  -0.881  1.00  0.00     0.022 A 
ATOM     12  Cl  UNL     1      10.697  -2.500  -2.811  1.00  0.00    -0.082 Cl
ATOM     13  Cl  UNL     1      11.237   0.086  -1.027  1.00  0.00    -0.083 Cl
ENDBRANCH   2   6
TORSDOF 2
ENDMDL
MODEL 7
REMARK VINA RESULT:    -4.910      1.936      2.702
REMARK INTER + INTRA:          -5.472
REMARK INTER:                  -5.380
REMARK INTRA:                  -0.092
REMARK UNBOUND:                -0.131
REMARK SMILES C[C@H](N)c1cccc(Cl)c1Cl
REMARK SMILES IDX 1 1 2 2 3 3 4 6 5 7 10 8 6 9 8 10 7 11 11 12 9 13
REMARK H PARENT 3 4 3 5
ROOT
ATOM      1  C   UNL     1       5.346  -1.604  -3.104  1.00  0.00     0.029 C 
ATOM      2  C   UNL     1       6.485  -2.126  -3.980  1.00  0.00     0.079 C 
ENDROOT
BRANCH   2   3
ATOM      3  N   UNL     1       6.087  -3.319  -4.722  1.00  0.00    -0.324 NA
ATOM      4  H   UNL     1       6.905  -3.757  -5.140  1.00  0.00     0.119 HD
ATOM      5  H   UNL     1       5.681  -4.000  -4.083  1.00  0.00     0.119 HD
ENDBRANCH   2   3
BRANCH   2   6
ATOM      6  C   UNL     1       7.786  -2.332  -3.218  1.00  0.00    -0.011 A 
ATOM      7  C   UNL     1       8.187  -3.668  -2.990  1.00  0.00     0.007 A 
ATOM      8  C   UNL     1       8.615  -1.295  -2.730  1.00  0.00     0.064 A 
ATOM      9  C   UNL     1       9.365  -3.972  -2.308  1.00  0.00     0.002 A 
ATOM     10  C   UNL     1       9.804  -1.613  -2.042  1.00  0.00     0.060 A 
ATOM     11  C   UNL     1      10.173  -2.945  -1.835  1.00  0.00     0.022 A 
ATOM     12  Cl  UNL     1       8.196   0.375  -2.957  1.00  0.00    -0.082 Cl
ATOM     13  Cl  UNL     1      10.876  -0.405  -1.415  1.00  0.00    -0.083 Cl
ENDBRANCH   2   6
TORSDOF 2
ENDMDL
MODEL 8
REMARK VINA RESULT:    -4.784     11.628     13.475
REMARK INTER + INTRA:          -5.335
REMARK INTER:                  -5.192
REMARK INTRA:                  -0.142
REMARK UNBOUND:                -0.131
REMARK SMILES C[C@H](N)c1cccc(Cl)c1Cl
REMARK SMILES IDX 1 1 2 2 3 3 4 6 5 7 10 8 6 9 8 10 7 11 11 12 9 13
REMARK H PARENT 3 4 3 5
ROOT
ATOM      1  C   UNL     1      11.619  -9.444  -6.650  1.00  0.00     0.029 C 
ATOM      2  C   UNL     1      11.785 -10.430  -7.807  1.00  0.00     0.079 C 
ENDROOT
BRANCH   2   3
ATOM      3  N   UNL     1      10.493 -10.892  -8.307  1.00  0.00    -0.324 NA
ATOM      4  H   UNL     1      10.303 -11.830  -7.962  1.00  0.00     0.119 HD
ATOM      5  H   UNL     1       9.753 -10.290  -7.951  1.00  0.00     0.119 HD
ENDBRANCH   2   3
BRANCH   2   6
ATOM      6  C   UNL     1      12.721 -11.585  -7.484  1.00  0.00    -0.011 A 
ATOM      7  C   UNL     1      12.864 -11.929  -6.121  1.00  0.00     0.007 A 
ATOM      8  C   UNL     1      13.447 -12.335  -8.439  1.00  0.00     0.064 A 
ATOM      9  C   UNL     1      13.691 -12.975  -5.712  1.00  0.00     0.002 A 
ATOM     10  C   UNL     1      14.280 -13.390  -8.016  1.00  0.00     0.060 A 
ATOM     11  C   UNL     1      14.398 -13.706  -6.660  1.00  0.00     0.022 A 
ATOM     12  Cl  UNL     1      13.339 -11.977 -10.135  1.00  0.00    -0.082 Cl
ATOM     13  Cl  UNL     1      15.200 -14.358  -9.120  1.00  0.00    -0.083 Cl
ENDBRANCH   2   6
TORSDOF 2
ENDMDL
MODEL 9
REMARK VINA RESULT:    -4.530     11.428     13.356
REMARK INTER + INTRA:          -5.059
REMARK INTER:                  -4.927
REMARK INTRA:                  -0.132
REMARK UNBOUND:                -0.131
REMARK SMILES C[C@H](N)c1cccc(Cl)c1Cl
REMARK SMILES IDX 1 1 2 2 3 3 4 6 5 7 10 8 6 9 8 10 7 11 11 12 9 13
REMARK H PARENT 3 4 3 5
ROOT
ATOM      1  C   UNL     1      11.547  -9.353  -6.625  1.00  0.00     0.029 C 
ATOM      2  C   UNL     1      12.790  -9.442  -7.511  1.00  0.00     0.079 C 
ENDROOT
BRANCH   2   3
ATOM      3  N   UNL     1      13.057  -8.176  -8.188  1.00  0.00    -0.324 NA
ATOM      4  H   UNL     1      12.183  -7.754  -8.493  1.00  0.00     0.119 HD
ATOM      5  H   UNL     1      13.490  -7.524  -7.537  1.00  0.00     0.119 HD
ENDBRANCH   2   3
BRANCH   2   6
ATOM      6  C   UNL     1      12.757 -10.615  -8.480  1.00  0.00    -0.011 A 
ATOM      7  C   UNL     1      11.757 -10.588  -9.479  1.00  0.00     0.007 A 
ATOM      8  C   UNL     1      13.647 -11.714  -8.458  1.00  0.00     0.064 A 
ATOM      9  C   UNL     1      11.639 -11.608 -10.423  1.00  0.00     0.002 A 
ATOM     10  C   UNL     1      13.518 -12.739  -9.416  1.00  0.00     0.060 A 
ATOM     11  C   UNL     1      12.520 -12.682 -10.392  1.00  0.00     0.022 A 
ATOM     12  Cl  UNL     1      14.900 -11.833  -7.261  1.00  0.00    -0.082 Cl
ATOM     13  Cl  UNL     1      14.567 -14.118  -9.460  1.00  0.00    -0.083 Cl
ENDBRANCH   2   6
TORSDOF 2
ENDMDL
