MODEL 1
REMARK VINA RESULT:    -5.898      0.000      0.000
REMARK INTER + INTRA:          -6.568
REMARK INTER:                  -6.415
REMARK INTRA:                  -0.153
REMARK UNBOUND:                -0.153
REMARK SMILES C[C@@H](N)c1cccc(Cl)c1Cl
REMARK SMILES IDX 2 1 1 2 4 3 10 4 8 5 5 6 7 7 6 8 11 9 9 10 3 11
REMARK H PARENT 3 12 3 13
ROOT
ATOM      1  C   UNL     1       9.325  -2.458  -3.880  1.00  0.00     0.079 C 
ATOM      2  C   UNL     1       9.286  -3.970  -3.603  1.00  0.00     0.029 C 
ENDROOT
BRANCH   1   3
ATOM      3  C   UNL     1       8.398  -1.690  -2.992  1.00  0.00    -0.011 A 
ATOM      4  C   UNL     1       8.865  -0.915  -1.931  1.00  0.00     0.064 A 
ATOM      5  C   UNL     1       7.964  -0.215  -1.128  1.00  0.00     0.060 A 
ATOM      6  C   UNL     1       7.030  -1.767  -3.251  1.00  0.00     0.007 A 
ATOM      7  C   UNL     1       6.595  -0.292  -1.386  1.00  0.00     0.022 A 
ATOM      8  C   UNL     1       6.129  -1.068  -2.448  1.00  0.00     0.002 A 
ATOM      9  Cl  UNL     1      10.572  -0.836  -1.629  1.00  0.00    -0.082 Cl
ATOM     10  Cl  UNL     1       8.473   0.766   0.202  1.00  0.00    -0.083 Cl
ENDBRANCH   1   3
BRANCH   1  11
ATOM     11  N   UNL     1       9.046  -2.226  -5.308  1.00  0.00    -0.324 NA
ATOM     12  H   UNL     1       8.352  -1.486  -5.404  1.00  0.00     0.119 HD
ATOM     13  H   UNL     1       8.628  -3.064  -5.711  1.00  0.00     0.119 HD
ENDBRANCH   1  11
TORSDOF 2
ENDMDL
MODEL 2
REMARK VINA RESULT:    -5.721      1.965      2.758
REMARK INTER + INTRA:          -6.375
REMARK INTER:                  -6.224
REMARK INTRA:                  -0.152
REMARK UNBOUND:                -0.153
REMARK SMILES C[C@@H](N)c1cccc(Cl)c1Cl
REMARK SMILES IDX 2 1 1 2 4 3 10 4 8 5 5 6 7 7 6 8 11 9 9 10 3 11
REMARK H PARENT 3 12 3 13
ROOT
ATOM      1  C   UNL     1       7.933  -2.888  -3.161  1.00  0.00     0.079 C 
ATOM      2  C   UNL     1       8.271  -2.802  -4.659  1.00  0.00     0.029 C 
ENDROOT
BRANCH   1   3
ATOM      3  C   UNL     1       8.639  -1.845  -2.355  1.00  0.00    -0.011 A 
ATOM      4  C   UNL     1       7.945  -0.872  -1.636  1.00  0.00     0.064 A 
ATOM      5  C   UNL     1       8.647   0.083  -0.898  1.00  0.00     0.060 A 
ATOM      6  C   UNL     1      10.034  -1.864  -2.337  1.00  0.00     0.007 A 
ATOM      7  C   UNL     1      10.042   0.063  -0.880  1.00  0.00     0.022 A 
ATOM      8  C   UNL     1      10.734  -0.910  -1.600  1.00  0.00     0.002 A 
ATOM      9  Cl  UNL     1       6.211  -0.869  -1.675  1.00  0.00    -0.082 Cl
ATOM     10  Cl  UNL     1       7.851   1.316   0.017  1.00  0.00    -0.083 Cl
ENDBRANCH   1   3
BRANCH   1  11
ATOM     11  N   UNL     1       8.223  -4.251  -2.683  1.00  0.00    -0.324 NA
ATOM     12  H   UNL     1       7.961  -4.331  -1.701  1.00  0.00     0.119 HD
ATOM     13  H   UNL     1       9.228  -4.417  -2.725  1.00  0.00     0.119 HD
ENDBRANCH   1  11
TORSDOF 2
ENDMDL
MODEL 3
REMARK VINA RESULT:    -5.256      2.773      4.232
REMARK INTER + INTRA:          -5.870
REMARK INTER:                  -6.106
REMARK INTRA:                   0.236
REMARK UNBOUND:                -0.153
REMARK SMILES C[C@@H](N)c1cccc(Cl)c1Cl
REMARK SMILES IDX 2 1 1 2 4 3 10 4 8 5 5 6 7 7 6 8 11 9 9 10 3 11
REMARK H PARENT 3 12 3 13
ROOT
ATOM      1  C   UNL     1       8.813  -0.183  -1.532  1.00  0.00     0.079 C 
ATOM      2  C   UNL     1       7.921  -0.298  -0.285  1.00  0.00     0.029 C 
ENDROOT
BRANCH   1   3
ATOM      3  C   UNL     1       8.671  -1.356  -2.447  1.00  0.00    -0.011 A 
ATOM      4  C   UNL     1       7.445  -1.710  -3.011  1.00  0.00     0.064 A 
ATOM      5  C   UNL     1       7.360  -2.815  -3.859  1.00  0.00     0.060 A 
ATOM      6  C   UNL     1       9.812  -2.107  -2.732  1.00  0.00     0.007 A 
ATOM      7  C   UNL     1       8.501  -3.565  -4.144  1.00  0.00     0.022 A 
ATOM      8  C   UNL     1       9.726  -3.210  -3.580  1.00  0.00     0.002 A 
ATOM      9  Cl  UNL     1       6.040  -0.762  -2.640  1.00  0.00    -0.082 Cl
ATOM     10  Cl  UNL     1       5.873  -3.308  -4.592  1.00  0.00    -0.083 Cl
ENDBRANCH   1   3
BRANCH   1  11
ATOM     11  N   UNL     1      10.208   0.024  -1.105  1.00  0.00    -0.324 NA
ATOM     12  H   UNL     1      10.834  -0.136  -1.893  1.00  0.00     0.119 HD
ATOM     13  H   UNL     1      10.452  -0.671  -0.401  1.00  0.00     0.119 HD
ENDBRANCH   1  11
TORSDOF 2
ENDMDL
MODEL 4
REMARK VINA RESULT:    -5.149      2.275      2.784
REMARK INTER + INTRA:          -5.754
REMARK INTER:                  -5.770
REMARK INTRA:                   0.016
REMARK UNBOUND:                -0.153
REMARK SMILES C[C@@H](N)c1cccc(Cl)c1Cl
REMARK SMILES IDX 2 1 1 2 4 3 10 4 8 5 5 6 7 7 6 8 11 9 9 10 3 11
REMARK H PARENT 3 12 3 13
ROOT
ATOM      1  C   UNL     1       9.735  -3.017  -4.308  1.00  0.00     0.079 C 
ATOM      2  C   UNL     1      11.265  -2.915  -4.417  1.00  0.00     0.029 C 
ENDROOT
BRANCH   1   3
ATOM      3  C   UNL     1       9.169  -2.077  -3.293  1.00  0.00    -0.011 A 
ATOM      4  C   UNL     1       7.798  -1.853  -3.176  1.00  0.00     0.064 A 
ATOM      5  C   UNL     1       7.314  -0.966  -2.213  1.00  0.00     0.060 A 
ATOM      6  C   UNL     1      10.059  -1.414  -2.447  1.00  0.00     0.007 A 
ATOM      7  C   UNL     1       8.204  -0.302  -1.368  1.00  0.00     0.022 A 
ATOM      8  C   UNL     1       9.576  -0.527  -1.486  1.00  0.00     0.002 A 
ATOM      9  Cl  UNL     1       6.712  -2.689  -4.240  1.00  0.00    -0.082 Cl
ATOM     10  Cl  UNL     1       5.628  -0.642  -2.013  1.00  0.00    -0.083 Cl
ENDBRANCH   1   3
BRANCH   1  11
ATOM     11  N   UNL     1       9.368  -4.418  -4.035  1.00  0.00    -0.324 NA
ATOM     12  H   UNL     1       8.508  -4.445  -3.487  1.00  0.00     0.119 HD
ATOM     13  H   UNL     1      10.088  -4.850  -3.458  1.00  0.00     0.119 HD
ENDBRANCH   1  11
TORSDOF 2
ENDMDL
MODEL 5
REMARK VINA RESULT:    -5.134      2.698      3.350
REMARK INTER + INTRA:          -5.737
REMARK INTER:                  -5.671
REMARK INTRA:                  -0.065
REMARK UNBOUND:                -0.153
REMARK SMILES C[C@@H](N)c1cccc(Cl)c1Cl
REMARK SMILES IDX 2 1 1 2 4 3 10 4 8 5 5 6 7 7 6 8 11 9 9 10 3 11
REMARK H PARENT 3 12 3 13
ROOT
ATOM      1  C   UNL     1      10.078  -1.648  -2.301  1.00  0.00     0.079 C 
ATOM      2  C   UNL     1      10.740  -0.564  -1.435  1.00  0.00     0.029 C 
ENDROOT
BRANCH   1   3
ATOM      3  C   UNL     1       8.594  -1.488  -2.382  1.00  0.00    -0.011 A 
ATOM      4  C   UNL     1       7.833  -2.129  -3.359  1.00  0.00     0.064 A 
ATOM      5  C   UNL     1       6.449  -1.949  -3.397  1.00  0.00     0.060 A 
ATOM      6  C   UNL     1       7.972  -0.666  -1.441  1.00  0.00     0.007 A 
ATOM      7  C   UNL     1       5.827  -1.128  -2.456  1.00  0.00     0.022 A 
ATOM      8  C   UNL     1       6.589  -0.487  -1.479  1.00  0.00     0.002 A 
ATOM      9  Cl  UNL     1       8.630  -3.145  -4.518  1.00  0.00    -0.082 Cl
ATOM     10  Cl  UNL     1       5.446  -2.714  -4.579  1.00  0.00    -0.083 Cl
ENDBRANCH   1   3
BRANCH   1  11
ATOM     11  N   UNL     1      10.466  -2.974  -1.788  1.00  0.00    -0.324 NA
ATOM     12  H   UNL     1       9.630  -3.523  -1.592  1.00  0.00     0.119 HD
ATOM     13  H   UNL     1      10.950  -2.864  -0.898  1.00  0.00     0.119 HD
ENDBRANCH   1  11
TORSDOF 2
ENDMDL
MODEL 6
REMARK VINA RESULT:    -5.055      1.334      1.937
REMARK INTER + INTRA:          -5.651
REMARK INTER:                  -5.968
REMARK INTRA:                   0.316
REMARK UNBOUND:                -0.153
REMARK SMILES C[C@@H](N)c1cccc(Cl)c1Cl
REMARK SMILES IDX 2 1 1 2 4 3 10 4 8 5 5 6 7 7 6 8 11 9 9 10 3 11
REMARK H PARENT 3 12 3 13
ROOT
ATOM      1  C   UNL     1       7.443  -2.979  -3.906  1.00  0.00     0.079 C 
ATOM      2  C   UNL     1       5.960  -2.999  -4.313  1.00  0.00     0.029 C 
ENDROOT
BRANCH   1   3
ATOM      3  C   UNL     1       7.753  -1.891  -2.930  1.00  0.00    -0.011 A 
ATOM      4  C   UNL     1       9.059  -1.606  -2.531  1.00  0.00     0.064 A 
ATOM      5  C   UNL     1       9.301  -0.580  -1.616  1.00  0.00     0.060 A 
ATOM      6  C   UNL     1       6.689  -1.151  -2.414  1.00  0.00     0.007 A 
ATOM      7  C   UNL     1       8.237   0.160  -1.100  1.00  0.00     0.022 A 
ATOM      8  C   UNL     1       6.932  -0.126  -1.500  1.00  0.00     0.002 A 
ATOM      9  Cl  UNL     1      10.365  -2.541  -3.186  1.00  0.00    -0.082 Cl
ATOM     10  Cl  UNL     1      10.894  -0.172  -1.079  1.00  0.00    -0.083 Cl
ENDBRANCH   1   3
BRANCH   1  11
ATOM     11  N   UNL     1       8.271  -2.889  -5.121  1.00  0.00    -0.324 NA
ATOM     12  H   UNL     1       8.148  -3.732  -5.682  1.00  0.00     0.119 HD
ATOM     13  H   UNL     1       9.255  -2.862  -4.859  1.00  0.00     0.119 HD
ENDBRANCH   1  11
TORSDOF 2
ENDMDL
MODEL 7
REMARK VINA RESULT:    -4.976      2.045      3.840
REMARK INTER + INTRA:          -5.566
REMARK INTER:                  -5.696
REMARK INTRA:                   0.130
REMARK UNBOUND:                -0.153
REMARK SMILES C[C@@H](N)c1cccc(Cl)c1Cl
REMARK SMILES IDX 2 1 1 2 4 3 10 4 8 5 5 6 7 7 6 8 11 9 9 10 3 11
REMARK H PARENT 3 12 3 13
ROOT
ATOM      1  C   UNL     1       7.207  -0.655  -1.932  1.00  0.00     0.079 C 
ATOM      2  C   UNL     1       5.684  -0.607  -2.140  1.00  0.00     0.029 C 
ENDROOT
BRANCH   1   3
ATOM      3  C   UNL     1       7.877  -1.638  -2.837  1.00  0.00    -0.011 A 
ATOM      4  C   UNL     1       9.263  -1.796  -2.859  1.00  0.00     0.064 A 
ATOM      5  C   UNL     1       9.845  -2.727  -3.721  1.00  0.00     0.060 A 
ATOM      6  C   UNL     1       7.073  -2.411  -3.675  1.00  0.00     0.007 A 
ATOM      7  C   UNL     1       9.041  -3.499  -4.560  1.00  0.00     0.022 A 
ATOM      8  C   UNL     1       7.656  -3.340  -4.536  1.00  0.00     0.002 A 
ATOM      9  Cl  UNL     1      10.241  -0.824  -1.807  1.00  0.00    -0.082 Cl
ATOM     10  Cl  UNL     1      11.555  -2.975  -3.800  1.00  0.00    -0.083 Cl
ENDBRANCH   1   3
BRANCH   1  11
ATOM     11  N   UNL     1       7.487  -0.926  -0.511  1.00  0.00    -0.324 NA
ATOM     12  H   UNL     1       8.209  -1.642  -0.436  1.00  0.00     0.119 HD
ATOM     13  H   UNL     1       6.654  -1.313  -0.070  1.00  0.00     0.119 HD
ENDBRANCH   1  11
TORSDOF 2
ENDMDL
MODEL 8
REMARK VINA RESULT:    -4.891      4.890      7.174
REMARK INTER + INTRA:          -5.473
REMARK INTER:                  -5.318
REMARK INTRA:                  -0.155
REMARK UNBOUND:                -0.153
REMARK SMILES C[C@@H](N)c1cccc(Cl)c1Cl
REMARK SMILES IDX 2 1 1 2 4 3 10 4 8 5 5 6 7 7 6 8 11 9 9 10 3 11
REMARK H PARENT 3 12 3 13
ROOT
ATOM      1  C   UNL     1      10.623  -3.490  -4.713  1.00  0.00     0.079 C 
ATOM      2  C   UNL     1      10.800  -2.962  -3.279  1.00  0.00     0.029 C 
ENDROOT
BRANCH   1   3
ATOM      3  C   UNL     1      11.927  -3.665  -5.422  1.00  0.00    -0.011 A 
ATOM      4  C   UNL     1      12.301  -4.882  -5.992  1.00  0.00     0.064 A 
ATOM      5  C   UNL     1      13.529  -4.999  -6.645  1.00  0.00     0.060 A 
ATOM      6  C   UNL     1      12.782  -2.565  -5.504  1.00  0.00     0.007 A 
ATOM      7  C   UNL     1      14.383  -3.899  -6.727  1.00  0.00     0.022 A 
ATOM      8  C   UNL     1      14.009  -2.683  -6.156  1.00  0.00     0.002 A 
ATOM      9  Cl  UNL     1      11.222  -6.236  -5.876  1.00  0.00    -0.082 Cl
ATOM     10  Cl  UNL     1      14.055  -6.477  -7.373  1.00  0.00    -0.083 Cl
ENDBRANCH   1   3
BRANCH   1  11
ATOM     11  N   UNL     1       9.709  -2.594  -5.443  1.00  0.00    -0.324 NA
ATOM     12  H   UNL     1      10.245  -1.858  -5.900  1.00  0.00     0.119 HD
ATOM     13  H   UNL     1       9.091  -2.128  -4.780  1.00  0.00     0.119 HD
ENDBRANCH   1  11
TORSDOF 2
ENDMDL
MODEL 9
REMARK VINA RESULT:    -4.655      6.298      7.542
REMARK INTER + INTRA:          -5.216
REMARK INTER:                  -5.091
REMARK INTRA:                  -0.125
REMARK UNBOUND:                -0.153
REMARK SMILES C[C@@H](N)c1cccc(Cl)c1Cl
REMARK SMILES IDX 2 1 1 2 4 3 10 4 8 5 5 6 7 7 6 8 11 9 9 10 3 11
REMARK H PARENT 3 12 3 13
ROOT
ATOM      1  C   UNL     1      13.500  -7.035  -6.666  1.00  0.00     0.079 C 
ATOM      2  C   UNL     1      12.442  -8.005  -6.114  1.00  0.00     0.029 C 
ENDROOT
BRANCH   1   3
ATOM      3  C   UNL     1      13.263  -5.624  -6.234  1.00  0.00    -0.011 A 
ATOM      4  C   UNL     1      14.291  -4.682  -6.189  1.00  0.00     0.064 A 
ATOM      5  C   UNL     1      14.022  -3.375  -5.779  1.00  0.00     0.060 A 
ATOM      6  C   UNL     1      11.966  -5.260  -5.870  1.00  0.00     0.007 A 
ATOM      7  C   UNL     1      12.726  -3.011  -5.414  1.00  0.00     0.022 A 
ATOM      8  C   UNL     1      11.699  -3.954  -5.460  1.00  0.00     0.002 A 
ATOM      9  Cl  UNL     1      15.894  -5.159  -6.647  1.00  0.00    -0.082 Cl
ATOM     10  Cl  UNL     1      15.248  -2.158  -5.700  1.00  0.00    -0.083 Cl
ENDBRANCH   1   3
BRANCH   1  11
ATOM     11  N   UNL     1      13.551  -7.167  -8.133  1.00  0.00    -0.324 NA
ATOM     12  H   UNL     1      13.142  -8.059  -8.410  1.00  0.00     0.119 HD
ATOM     13  H   UNL     1      14.523  -7.192  -8.437  1.00  0.00     0.119 HD
ENDBRANCH   1  11
TORSDOF 2
ENDMDL
