MODEL 1
REMARK VINA RESULT:    -5.864      0.000      0.000
REMARK INTER + INTRA:          -6.531
REMARK INTER:                  -6.378
REMARK INTRA:                  -0.153
REMARK UNBOUND:                -0.153
REMARK SMILES C[C@@H](N)c1cccc(Cl)c1Cl
REMARK SMILES IDX 2 1 1 2 4 3 10 4 8 5 5 6 7 7 6 8 11 9 9 10 3 11
REMARK H PARENT 3 12 3 13
ROOT
ATOM      1  C   UNL     1       9.310  -2.463  -3.915  1.00  0.00     0.079 C 
ATOM      2  C   UNL     1       9.289  -3.976  -3.646  1.00  0.00     0.029 C 
ENDROOT
BRANCH   1   3
ATOM      3  C   UNL     1       8.401  -1.707  -3.000  1.00  0.00    -0.011 A 
ATOM      4  C   UNL     1       8.889  -0.937  -1.944  1.00  0.00     0.064 A 
ATOM      5  C   UNL     1       8.002  -0.249  -1.115  1.00  0.00     0.060 A 
ATOM      6  C   UNL     1       7.027  -1.789  -3.227  1.00  0.00     0.007 A 
ATOM      7  C   UNL     1       6.628  -0.331  -1.342  1.00  0.00     0.022 A 
ATOM      8  C   UNL     1       6.141  -1.101  -2.398  1.00  0.00     0.002 A 
ATOM      9  Cl  UNL     1      10.601  -0.852  -1.682  1.00  0.00    -0.082 Cl
ATOM     10  Cl  UNL     1       8.538   0.724   0.211  1.00  0.00    -0.083 Cl
ENDBRANCH   1   3
BRANCH   1  11
ATOM     11  N   UNL     1       8.994  -2.225  -5.334  1.00  0.00    -0.324 NA
ATOM     12  H   UNL     1       8.022  -1.929  -5.423  1.00  0.00     0.119 HD
ATOM     13  H   UNL     1       9.073  -3.100  -5.850  1.00  0.00     0.119 HD
ENDBRANCH   1  11
TORSDOF 2
ENDMDL
MODEL 2
REMARK VINA RESULT:    -5.720      1.966      2.753
REMARK INTER + INTRA:          -6.375
REMARK INTER:                  -6.223
REMARK INTRA:                  -0.152
REMARK UNBOUND:                -0.153
REMARK SMILES C[C@@H](N)c1cccc(Cl)c1Cl
REMARK SMILES IDX 2 1 1 2 4 3 10 4 8 5 5 6 7 7 6 8 11 9 9 10 3 11
REMARK H PARENT 3 12 3 13
ROOT
ATOM      1  C   UNL     1       7.902  -2.873  -3.194  1.00  0.00     0.079 C 
ATOM      2  C   UNL     1       8.240  -2.784  -4.691  1.00  0.00     0.029 C 
ENDROOT
BRANCH   1   3
ATOM      3  C   UNL     1       8.618  -1.841  -2.384  1.00  0.00    -0.011 A 
ATOM      4  C   UNL     1       7.934  -0.859  -1.667  1.00  0.00     0.064 A 
ATOM      5  C   UNL     1       8.645   0.085  -0.924  1.00  0.00     0.060 A 
ATOM      6  C   UNL     1      10.012  -1.881  -2.357  1.00  0.00     0.007 A 
ATOM      7  C   UNL     1      10.039   0.046  -0.898  1.00  0.00     0.022 A 
ATOM      8  C   UNL     1      10.722  -0.937  -1.615  1.00  0.00     0.002 A 
ATOM      9  Cl  UNL     1       6.201  -0.830  -1.716  1.00  0.00    -0.082 Cl
ATOM     10  Cl  UNL     1       7.862   1.329  -0.013  1.00  0.00    -0.083 Cl
ENDBRANCH   1   3
BRANCH   1  11
ATOM     11  N   UNL     1       8.178  -4.241  -2.722  1.00  0.00    -0.324 NA
ATOM     12  H   UNL     1       7.305  -4.693  -2.454  1.00  0.00     0.119 HD
ATOM     13  H   UNL     1       8.749  -4.199  -1.879  1.00  0.00     0.119 HD
ENDBRANCH   1  11
TORSDOF 2
ENDMDL
MODEL 3
REMARK VINA RESULT:    -5.237      2.798      4.250
REMARK INTER + INTRA:          -5.850
REMARK INTER:                  -6.041
REMARK INTRA:                   0.192
REMARK UNBOUND:                -0.153
REMARK SMILES C[C@@H](N)c1cccc(Cl)c1Cl
REMARK SMILES IDX 2 1 1 2 4 3 10 4 8 5 5 6 7 7 6 8 11 9 9 10 3 11
REMARK H PARENT 3 12 3 13
ROOT
ATOM      1  C   UNL     1       8.714  -0.237  -1.645  1.00  0.00     0.079 C 
ATOM      2  C   UNL     1       7.876  -0.385  -0.364  1.00  0.00     0.029 C 
ENDROOT
BRANCH   1   3
ATOM      3  C   UNL     1       8.564  -1.406  -2.565  1.00  0.00    -0.011 A 
ATOM      4  C   UNL     1       7.333  -1.757  -3.119  1.00  0.00     0.064 A 
ATOM      5  C   UNL     1       7.240  -2.857  -3.972  1.00  0.00     0.060 A 
ATOM      6  C   UNL     1       9.702  -2.155  -2.864  1.00  0.00     0.007 A 
ATOM      7  C   UNL     1       8.378  -3.606  -4.271  1.00  0.00     0.022 A 
ATOM      8  C   UNL     1       9.609  -3.255  -3.717  1.00  0.00     0.002 A 
ATOM      9  Cl  UNL     1       5.932  -0.810  -2.731  1.00  0.00    -0.082 Cl
ATOM     10  Cl  UNL     1       5.747  -3.347  -4.694  1.00  0.00    -0.083 Cl
ENDBRANCH   1   3
BRANCH   1  11
ATOM     11  N   UNL     1      10.120  -0.000  -1.272  1.00  0.00    -0.324 NA
ATOM     12  H   UNL     1      10.599  -0.894  -1.161  1.00  0.00     0.119 HD
ATOM     13  H   UNL     1      10.156   0.457  -0.362  1.00  0.00     0.119 HD
ENDBRANCH   1  11
TORSDOF 2
ENDMDL
MODEL 4
REMARK VINA RESULT:    -5.128      2.299      2.795
REMARK INTER + INTRA:          -5.731
REMARK INTER:                  -5.783
REMARK INTRA:                   0.052
REMARK UNBOUND:                -0.153
REMARK SMILES C[C@@H](N)c1cccc(Cl)c1Cl
REMARK SMILES IDX 2 1 1 2 4 3 10 4 8 5 5 6 7 7 6 8 11 9 9 10 3 11
REMARK H PARENT 3 12 3 13
ROOT
ATOM      1  C   UNL     1       9.744  -3.012  -4.339  1.00  0.00     0.079 C 
ATOM      2  C   UNL     1      11.279  -2.932  -4.372  1.00  0.00     0.029 C 
ENDROOT
BRANCH   1   3
ATOM      3  C   UNL     1       9.145  -2.086  -3.330  1.00  0.00    -0.011 A 
ATOM      4  C   UNL     1       7.768  -1.881  -3.241  1.00  0.00     0.064 A 
ATOM      5  C   UNL     1       7.254  -1.006  -2.283  1.00  0.00     0.060 A 
ATOM      6  C   UNL     1      10.008  -1.416  -2.462  1.00  0.00     0.007 A 
ATOM      7  C   UNL     1       8.116  -0.336  -1.415  1.00  0.00     0.022 A 
ATOM      8  C   UNL     1       9.493  -0.542  -1.505  1.00  0.00     0.002 A 
ATOM      9  Cl  UNL     1       6.716  -2.724  -4.332  1.00  0.00    -0.082 Cl
ATOM     10  Cl  UNL     1       5.559  -0.705  -2.116  1.00  0.00    -0.083 Cl
ENDBRANCH   1   3
BRANCH   1  11
ATOM     11  N   UNL     1       9.343  -4.412  -4.116  1.00  0.00    -0.324 NA
ATOM     12  H   UNL     1       9.163  -4.562  -3.124  1.00  0.00     0.119 HD
ATOM     13  H   UNL     1      10.116  -5.029  -4.362  1.00  0.00     0.119 HD
ENDBRANCH   1  11
TORSDOF 2
ENDMDL
MODEL 5
REMARK VINA RESULT:    -5.127      2.669      3.340
REMARK INTER + INTRA:          -5.729
REMARK INTER:                  -5.670
REMARK INTRA:                  -0.060
REMARK UNBOUND:                -0.153
REMARK SMILES C[C@@H](N)c1cccc(Cl)c1Cl
REMARK SMILES IDX 2 1 1 2 4 3 10 4 8 5 5 6 7 7 6 8 11 9 9 10 3 11
REMARK H PARENT 3 12 3 13
ROOT
ATOM      1  C   UNL     1      10.090  -1.539  -2.292  1.00  0.00     0.079 C 
ATOM      2  C   UNL     1      10.760  -0.459  -1.426  1.00  0.00     0.029 C 
ENDROOT
BRANCH   1   3
ATOM      3  C   UNL     1       8.604  -1.389  -2.344  1.00  0.00    -0.011 A 
ATOM      4  C   UNL     1       7.829  -2.033  -3.309  1.00  0.00     0.064 A 
ATOM      5  C   UNL     1       6.444  -1.863  -3.320  1.00  0.00     0.060 A 
ATOM      6  C   UNL     1       7.993  -0.576  -1.388  1.00  0.00     0.007 A 
ATOM      7  C   UNL     1       5.834  -1.050  -2.365  1.00  0.00     0.022 A 
ATOM      8  C   UNL     1       6.609  -0.406  -1.399  1.00  0.00     0.002 A 
ATOM      9  Cl  UNL     1       8.612  -3.038  -4.487  1.00  0.00    -0.082 Cl
ATOM     10  Cl  UNL     1       5.424  -2.631  -4.486  1.00  0.00    -0.083 Cl
ENDBRANCH   1   3
BRANCH   1  11
ATOM     11  N   UNL     1      10.498  -2.867  -1.801  1.00  0.00    -0.324 NA
ATOM     12  H   UNL     1      10.208  -2.976  -0.829  1.00  0.00     0.119 HD
ATOM     13  H   UNL     1      11.515  -2.930  -1.803  1.00  0.00     0.119 HD
ENDBRANCH   1  11
TORSDOF 2
ENDMDL
MODEL 6
REMARK VINA RESULT:    -5.092      1.299      1.832
REMARK INTER + INTRA:          -5.691
REMARK INTER:                  -5.950
REMARK INTRA:                   0.259
REMARK UNBOUND:                -0.153
REMARK SMILES C[C@@H](N)c1cccc(Cl)c1Cl
REMARK SMILES IDX 2 1 1 2 4 3 10 4 8 5 5 6 7 7 6 8 11 9 9 10 3 11
REMARK H PARENT 3 12 3 13
ROOT
ATOM      1  C   UNL     1       7.576  -3.000  -3.894  1.00  0.00     0.079 C 
ATOM      2  C   UNL     1       6.092  -3.111  -4.278  1.00  0.00     0.029 C 
ENDROOT
BRANCH   1   3
ATOM      3  C   UNL     1       7.828  -1.918  -2.894  1.00  0.00    -0.011 A 
ATOM      4  C   UNL     1       9.115  -1.592  -2.465  1.00  0.00     0.064 A 
ATOM      5  C   UNL     1       9.303  -0.574  -1.529  1.00  0.00     0.060 A 
ATOM      6  C   UNL     1       6.728  -1.225  -2.387  1.00  0.00     0.007 A 
ATOM      7  C   UNL     1       8.203   0.118  -1.022  1.00  0.00     0.022 A 
ATOM      8  C   UNL     1       6.916  -0.208  -1.451  1.00  0.00     0.002 A 
ATOM      9  Cl  UNL     1      10.467  -2.468  -3.110  1.00  0.00    -0.082 Cl
ATOM     10  Cl  UNL     1      10.869  -0.119  -0.955  1.00  0.00    -0.083 Cl
ENDBRANCH   1   3
BRANCH   1  11
ATOM     11  N   UNL     1       8.376  -2.822  -5.119  1.00  0.00    -0.324 NA
ATOM     12  H   UNL     1       7.983  -3.392  -5.868  1.00  0.00     0.119 HD
ATOM     13  H   UNL     1       9.320  -3.171  -4.960  1.00  0.00     0.119 HD
ENDBRANCH   1  11
TORSDOF 2
ENDMDL
MODEL 7
REMARK VINA RESULT:    -4.899      2.088      3.852
REMARK INTER + INTRA:          -5.482
REMARK INTER:                  -5.901
REMARK INTRA:                   0.419
REMARK UNBOUND:                -0.153
REMARK SMILES C[C@@H](N)c1cccc(Cl)c1Cl
REMARK SMILES IDX 2 1 1 2 4 3 10 4 8 5 5 6 7 7 6 8 11 9 9 10 3 11
REMARK H PARENT 3 12 3 13
ROOT
ATOM      1  C   UNL     1       7.739  -0.937  -1.399  1.00  0.00     0.079 C 
ATOM      2  C   UNL     1       8.432   0.436  -1.372  1.00  0.00     0.029 C 
ENDROOT
BRANCH   1   3
ATOM      3  C   UNL     1       8.204  -1.789  -2.536  1.00  0.00    -0.011 A 
ATOM      4  C   UNL     1       9.557  -2.014  -2.786  1.00  0.00     0.064 A 
ATOM      5  C   UNL     1       9.945  -2.817  -3.860  1.00  0.00     0.060 A 
ATOM      6  C   UNL     1       7.237  -2.367  -3.360  1.00  0.00     0.007 A 
ATOM      7  C   UNL     1       8.978  -3.394  -4.684  1.00  0.00     0.022 A 
ATOM      8  C   UNL     1       7.624  -3.168  -4.433  1.00  0.00     0.002 A 
ATOM      9  Cl  UNL     1      10.741  -1.284  -1.749  1.00  0.00    -0.082 Cl
ATOM     10  Cl  UNL     1      11.604  -3.138  -4.227  1.00  0.00    -0.083 Cl
ENDBRANCH   1   3
BRANCH   1  11
ATOM     11  N   UNL     1       6.280  -0.736  -1.415  1.00  0.00    -0.324 NA
ATOM     12  H   UNL     1       5.840  -1.468  -1.972  1.00  0.00     0.119 HD
ATOM     13  H   UNL     1       6.065   0.145  -1.880  1.00  0.00     0.119 HD
ENDBRANCH   1  11
TORSDOF 2
ENDMDL
MODEL 8
REMARK VINA RESULT:    -4.893      4.876      7.170
REMARK INTER + INTRA:          -5.476
REMARK INTER:                  -5.322
REMARK INTRA:                  -0.154
REMARK UNBOUND:                -0.153
REMARK SMILES C[C@@H](N)c1cccc(Cl)c1Cl
REMARK SMILES IDX 2 1 1 2 4 3 10 4 8 5 5 6 7 7 6 8 11 9 9 10 3 11
REMARK H PARENT 3 12 3 13
ROOT
ATOM      1  C   UNL     1      10.622  -3.476  -4.742  1.00  0.00     0.079 C 
ATOM      2  C   UNL     1      10.835  -2.944  -3.315  1.00  0.00     0.029 C 
ENDROOT
BRANCH   1   3
ATOM      3  C   UNL     1      11.910  -3.667  -5.478  1.00  0.00    -0.011 A 
ATOM      4  C   UNL     1      12.275  -4.899  -6.020  1.00  0.00     0.064 A 
ATOM      5  C   UNL     1      13.488  -5.031  -6.699  1.00  0.00     0.060 A 
ATOM      6  C   UNL     1      12.755  -2.566  -5.615  1.00  0.00     0.007 A 
ATOM      7  C   UNL     1      14.333  -3.930  -6.836  1.00  0.00     0.022 A 
ATOM      8  C   UNL     1      13.966  -2.698  -6.293  1.00  0.00     0.002 A 
ATOM      9  Cl  UNL     1      11.207  -6.253  -5.836  1.00  0.00    -0.082 Cl
ATOM     10  Cl  UNL     1      14.003  -6.527  -7.396  1.00  0.00    -0.083 Cl
ENDBRANCH   1   3
BRANCH   1  11
ATOM     11  N   UNL     1       9.701  -2.576  -5.456  1.00  0.00    -0.324 NA
ATOM     12  H   UNL     1       9.587  -1.713  -4.925  1.00  0.00     0.119 HD
ATOM     13  H   UNL     1       8.778  -3.005  -5.505  1.00  0.00     0.119 HD
ENDBRANCH   1  11
TORSDOF 2
ENDMDL
MODEL 9
REMARK VINA RESULT:    -4.661      6.286      7.526
REMARK INTER + INTRA:          -5.223
REMARK INTER:                  -5.150
REMARK INTRA:                  -0.073
REMARK UNBOUND:                -0.153
REMARK SMILES C[C@@H](N)c1cccc(Cl)c1Cl
REMARK SMILES IDX 2 1 1 2 4 3 10 4 8 5 5 6 7 7 6 8 11 9 9 10 3 11
REMARK H PARENT 3 12 3 13
ROOT
ATOM      1  C   UNL     1      13.504  -7.027  -6.643  1.00  0.00     0.079 C 
ATOM      2  C   UNL     1      12.350  -7.957  -6.234  1.00  0.00     0.029 C 
ENDROOT
BRANCH   1   3
ATOM      3  C   UNL     1      13.284  -5.615  -6.202  1.00  0.00    -0.011 A 
ATOM      4  C   UNL     1      14.325  -4.689  -6.144  1.00  0.00     0.064 A 
ATOM      5  C   UNL     1      14.072  -3.381  -5.726  1.00  0.00     0.060 A 
ATOM      6  C   UNL     1      11.990  -5.236  -5.843  1.00  0.00     0.007 A 
ATOM      7  C   UNL     1      12.779  -3.001  -5.367  1.00  0.00     0.022 A 
ATOM      8  C   UNL     1      11.739  -3.929  -5.426  1.00  0.00     0.002 A 
ATOM      9  Cl  UNL     1      15.924  -5.185  -6.595  1.00  0.00    -0.082 Cl
ATOM     10  Cl  UNL     1      15.314  -2.181  -5.631  1.00  0.00    -0.083 Cl
ENDBRANCH   1   3
BRANCH   1  11
ATOM     11  N   UNL     1      13.709  -7.130  -8.098  1.00  0.00    -0.324 NA
ATOM     12  H   UNL     1      14.042  -8.065  -8.331  1.00  0.00     0.119 HD
ATOM     13  H   UNL     1      14.446  -6.486  -8.382  1.00  0.00     0.119 HD
ENDBRANCH   1  11
TORSDOF 2
ENDMDL
