MODEL 1
REMARK VINA RESULT:    -5.981      0.000      0.000
REMARK INTER + INTRA:          -6.649
REMARK INTER:                  -6.506
REMARK INTRA:                  -0.144
REMARK UNBOUND:                -0.144
REMARK SMILES C[C@H](N)c1cccc(Cl)c1Cl
REMARK SMILES IDX 1 1 2 2 3 3 4 6 5 7 10 8 6 9 8 10 7 11 11 12 9 13
REMARK H PARENT 3 4 3 5
ROOT
ATOM      1  C   UNL     1       8.591  -4.468  -2.853  1.00  0.00     0.029 C 
ATOM      2  C   UNL     1       7.841  -3.138  -2.927  1.00  0.00     0.079 C 
ENDROOT
BRANCH   2   3
ATOM      3  N   UNL     1       7.473  -2.806  -4.301  1.00  0.00    -0.324 NA
ATOM      4  H   UNL     1       6.660  -2.194  -4.305  1.00  0.00     0.119 HD
ATOM      5  H   UNL     1       8.232  -2.293  -4.745  1.00  0.00     0.119 HD
ENDBRANCH   2   3
BRANCH   2   6
ATOM      6  C   UNL     1       8.571  -1.995  -2.237  1.00  0.00    -0.011 A 
ATOM      7  C   UNL     1       9.982  -2.006  -2.306  1.00  0.00     0.007 A 
ATOM      8  C   UNL     1       7.946  -0.932  -1.544  1.00  0.00     0.064 A 
ATOM      9  C   UNL     1      10.752  -1.005  -1.714  1.00  0.00     0.002 A 
ATOM     10  C   UNL     1       8.732   0.075  -0.950  1.00  0.00     0.060 A 
ATOM     11  C   UNL     1      10.127   0.036  -1.037  1.00  0.00     0.022 A 
ATOM     12  Cl  UNL     1       6.217  -0.842  -1.403  1.00  0.00    -0.082 Cl
ATOM     13  Cl  UNL     1       8.047   1.412  -0.086  1.00  0.00    -0.083 Cl
ENDBRANCH   2   6
TORSDOF 2
ENDMDL
MODEL 2
REMARK VINA RESULT:    -5.715      1.927      2.762
REMARK INTER + INTRA:          -6.360
REMARK INTER:                  -6.304
REMARK INTRA:                  -0.056
REMARK UNBOUND:                -0.144
REMARK SMILES C[C@H](N)c1cccc(Cl)c1Cl
REMARK SMILES IDX 1 1 2 2 3 3 4 6 5 7 10 8 6 9 8 10 7 11 11 12 9 13
REMARK H PARENT 3 4 3 5
ROOT
ATOM      1  C   UNL     1       5.370  -1.489  -3.068  1.00  0.00     0.029 C 
ATOM      2  C   UNL     1       6.465  -2.072  -3.962  1.00  0.00     0.079 C 
ENDROOT
BRANCH   2   3
ATOM      3  N   UNL     1       6.002  -3.264  -4.667  1.00  0.00    -0.324 NA
ATOM      4  H   UNL     1       6.067  -4.076  -4.057  1.00  0.00     0.119 HD
ATOM      5  H   UNL     1       5.020  -3.157  -4.913  1.00  0.00     0.119 HD
ENDBRANCH   2   3
BRANCH   2   6
ATOM      6  C   UNL     1       7.777  -2.313  -3.230  1.00  0.00    -0.011 A 
ATOM      7  C   UNL     1       8.174  -3.658  -3.057  1.00  0.00     0.007 A 
ATOM      8  C   UNL     1       8.621  -1.299  -2.719  1.00  0.00     0.064 A 
ATOM      9  C   UNL     1       9.361  -3.994  -2.406  1.00  0.00     0.002 A 
ATOM     10  C   UNL     1       9.818  -1.648  -2.063  1.00  0.00     0.060 A 
ATOM     11  C   UNL     1      10.183  -2.989  -1.911  1.00  0.00     0.022 A 
ATOM     12  Cl  UNL     1       8.208   0.381  -2.878  1.00  0.00    -0.082 Cl
ATOM     13  Cl  UNL     1      10.908  -0.469  -1.412  1.00  0.00    -0.083 Cl
ENDBRANCH   2   6
TORSDOF 2
ENDMDL
MODEL 3
REMARK VINA RESULT:    -5.406      2.132      2.704
REMARK INTER + INTRA:          -6.024
REMARK INTER:                  -5.903
REMARK INTRA:                  -0.121
REMARK UNBOUND:                -0.144
REMARK SMILES C[C@H](N)c1cccc(Cl)c1Cl
REMARK SMILES IDX 1 1 2 2 3 3 4 6 5 7 10 8 6 9 8 10 7 11 11 12 9 13
REMARK H PARENT 3 4 3 5
ROOT
ATOM      1  C   UNL     1       6.668  -3.104  -4.321  1.00  0.00     0.029 C 
ATOM      2  C   UNL     1       7.995  -3.157  -3.562  1.00  0.00     0.079 C 
ENDROOT
BRANCH   2   3
ATOM      3  N   UNL     1       8.155  -4.424  -2.852  1.00  0.00    -0.324 NA
ATOM      4  H   UNL     1       7.845  -4.323  -1.888  1.00  0.00     0.119 HD
ATOM      5  H   UNL     1       7.565  -5.134  -3.280  1.00  0.00     0.119 HD
ENDBRANCH   2   3
BRANCH   2   6
ATOM      6  C   UNL     1       8.218  -1.958  -2.653  1.00  0.00    -0.011 A 
ATOM      7  C   UNL     1       7.075  -1.208  -2.295  1.00  0.00     0.007 A 
ATOM      8  C   UNL     1       9.472  -1.547  -2.142  1.00  0.00     0.064 A 
ATOM      9  C   UNL     1       7.163  -0.092  -1.462  1.00  0.00     0.002 A 
ATOM     10  C   UNL     1       9.550  -0.419  -1.301  1.00  0.00     0.060 A 
ATOM     11  C   UNL     1       8.400   0.300  -0.964  1.00  0.00     0.022 A 
ATOM     12  Cl  UNL     1      10.929  -2.405  -2.536  1.00  0.00    -0.082 Cl
ATOM     13  Cl  UNL     1      11.044   0.148  -0.631  1.00  0.00    -0.083 Cl
ENDBRANCH   2   6
TORSDOF 2
ENDMDL
MODEL 4
REMARK VINA RESULT:    -5.358      2.099      3.895
REMARK INTER + INTRA:          -5.972
REMARK INTER:                  -5.887
REMARK INTRA:                  -0.085
REMARK UNBOUND:                -0.144
REMARK SMILES C[C@H](N)c1cccc(Cl)c1Cl
REMARK SMILES IDX 1 1 2 2 3 3 4 6 5 7 10 8 6 9 8 10 7 11 11 12 9 13
REMARK H PARENT 3 4 3 5
ROOT
ATOM      1  C   UNL     1      10.474   0.029  -0.938  1.00  0.00     0.029 C 
ATOM      2  C   UNL     1       9.003  -0.144  -1.318  1.00  0.00     0.079 C 
ENDROOT
BRANCH   2   3
ATOM      3  N   UNL     1       8.131  -0.016  -0.153  1.00  0.00    -0.324 NA
ATOM      4  H   UNL     1       7.509   0.781  -0.271  1.00  0.00     0.119 HD
ATOM      5  H   UNL     1       7.541  -0.842  -0.074  1.00  0.00     0.119 HD
ENDBRANCH   2   3
BRANCH   2   6
ATOM      6  C   UNL     1       8.729  -1.418  -2.103  1.00  0.00    -0.011 A 
ATOM      7  C   UNL     1       9.751  -2.394  -2.112  1.00  0.00     0.007 A 
ATOM      8  C   UNL     1       7.536  -1.696  -2.811  1.00  0.00     0.064 A 
ATOM      9  C   UNL     1       9.604  -3.602  -2.794  1.00  0.00     0.002 A 
ATOM     10  C   UNL     1       7.397  -2.920  -3.496  1.00  0.00     0.060 A 
ATOM     11  C   UNL     1       8.427  -3.865  -3.485  1.00  0.00     0.022 A 
ATOM     12  Cl  UNL     1       6.231  -0.552  -2.860  1.00  0.00    -0.082 Cl
ATOM     13  Cl  UNL     1       5.970  -3.339  -4.385  1.00  0.00    -0.083 Cl
ENDBRANCH   2   6
TORSDOF 2
ENDMDL
MODEL 5
REMARK VINA RESULT:    -4.936     10.061     11.517
REMARK INTER + INTRA:          -5.512
REMARK INTER:                  -5.380
REMARK INTRA:                  -0.133
REMARK UNBOUND:                -0.144
REMARK SMILES C[C@H](N)c1cccc(Cl)c1Cl
REMARK SMILES IDX 1 1 2 2 3 3 4 6 5 7 10 8 6 9 8 10 7 11 11 12 9 13
REMARK H PARENT 3 4 3 5
ROOT
ATOM      1  C   UNL     1      14.163 -13.527  -6.826  1.00  0.00     0.029 C 
ATOM      2  C   UNL     1      13.839 -12.648  -5.616  1.00  0.00     0.079 C 
ENDROOT
BRANCH   2   3
ATOM      3  N   UNL     1      12.965 -13.338  -4.672  1.00  0.00    -0.324 NA
ATOM      4  H   UNL     1      12.986 -12.866  -3.771  1.00  0.00     0.119 HD
ATOM      5  H   UNL     1      12.003 -13.300  -5.004  1.00  0.00     0.119 HD
ENDBRANCH   2   3
BRANCH   2   6
ATOM      6  C   UNL     1      13.304 -11.275  -5.995  1.00  0.00    -0.011 A 
ATOM      7  C   UNL     1      12.015 -11.230  -6.572  1.00  0.00     0.007 A 
ATOM      8  C   UNL     1      13.994 -10.054  -5.809  1.00  0.00     0.064 A 
ATOM      9  C   UNL     1      11.424 -10.024  -6.951  1.00  0.00     0.002 A 
ATOM     10  C   UNL     1      13.389  -8.841  -6.195  1.00  0.00     0.060 A 
ATOM     11  C   UNL     1      12.111  -8.831  -6.761  1.00  0.00     0.022 A 
ATOM     12  Cl  UNL     1      15.586 -10.016  -5.115  1.00  0.00    -0.082 Cl
ATOM     13  Cl  UNL     1      14.163  -7.304  -6.000  1.00  0.00    -0.083 Cl
ENDBRANCH   2   6
TORSDOF 2
ENDMDL
MODEL 6
REMARK VINA RESULT:    -4.914     10.496     11.622
REMARK INTER + INTRA:          -5.489
REMARK INTER:                  -5.349
REMARK INTRA:                  -0.140
REMARK UNBOUND:                -0.144
REMARK SMILES C[C@H](N)c1cccc(Cl)c1Cl
REMARK SMILES IDX 1 1 2 2 3 3 4 6 5 7 10 8 6 9 8 10 7 11 11 12 9 13
REMARK H PARENT 3 4 3 5
ROOT
ATOM      1  C   UNL     1      14.729  -7.736  -5.884  1.00  0.00     0.029 C 
ATOM      2  C   UNL     1      14.217  -7.759  -7.325  1.00  0.00     0.079 C 
ENDROOT
BRANCH   2   3
ATOM      3  N   UNL     1      13.763  -6.439  -7.754  1.00  0.00    -0.324 NA
ATOM      4  H   UNL     1      13.174  -6.525  -8.579  1.00  0.00     0.119 HD
ATOM      5  H   UNL     1      13.190  -6.019  -7.024  1.00  0.00     0.119 HD
ENDBRANCH   2   3
BRANCH   2   6
ATOM      6  C   UNL     1      13.169  -8.834  -7.575  1.00  0.00    -0.011 A 
ATOM      7  C   UNL     1      12.189  -9.015  -6.573  1.00  0.00     0.007 A 
ATOM      8  C   UNL     1      13.103  -9.653  -8.726  1.00  0.00     0.064 A 
ATOM      9  C   UNL     1      11.178  -9.967  -6.701  1.00  0.00     0.002 A 
ATOM     10  C   UNL     1      12.078 -10.613  -8.846  1.00  0.00     0.060 A 
ATOM     11  C   UNL     1      11.122 -10.765  -7.838  1.00  0.00     0.022 A 
ATOM     12  Cl  UNL     1      14.271  -9.506 -10.004  1.00  0.00    -0.082 Cl
ATOM     13  Cl  UNL     1      11.924 -11.653 -10.223  1.00  0.00    -0.083 Cl
ENDBRANCH   2   6
TORSDOF 2
ENDMDL
MODEL 7
REMARK VINA RESULT:    -4.878     11.476     13.458
REMARK INTER + INTRA:          -5.449
REMARK INTER:                  -5.305
REMARK INTRA:                  -0.144
REMARK UNBOUND:                -0.144
REMARK SMILES C[C@H](N)c1cccc(Cl)c1Cl
REMARK SMILES IDX 1 1 2 2 3 3 4 6 5 7 10 8 6 9 8 10 7 11 11 12 9 13
REMARK H PARENT 3 4 3 5
ROOT
ATOM      1  C   UNL     1      11.495  -9.457  -6.719  1.00  0.00     0.029 C 
ATOM      2  C   UNL     1      11.676 -10.448  -7.869  1.00  0.00     0.079 C 
ENDROOT
BRANCH   2   3
ATOM      3  N   UNL     1      10.393 -10.967  -8.336  1.00  0.00    -0.324 NA
ATOM      4  H   UNL     1      10.412 -11.985  -8.343  1.00  0.00     0.119 HD
ATOM      5  H   UNL     1       9.656 -10.690  -7.690  1.00  0.00     0.119 HD
ENDBRANCH   2   3
BRANCH   2   6
ATOM      6  C   UNL     1      12.665 -11.561  -7.556  1.00  0.00    -0.011 A 
ATOM      7  C   UNL     1      12.834 -11.899  -6.194  1.00  0.00     0.007 A 
ATOM      8  C   UNL     1      13.414 -12.278  -8.518  1.00  0.00     0.064 A 
ATOM      9  C   UNL     1      13.710 -12.908  -5.794  1.00  0.00     0.002 A 
ATOM     10  C   UNL     1      14.297 -13.295  -8.103  1.00  0.00     0.060 A 
ATOM     11  C   UNL     1      14.440 -13.606  -6.748  1.00  0.00     0.022 A 
ATOM     12  Cl  UNL     1      13.275 -11.924 -10.213  1.00  0.00    -0.082 Cl
ATOM     13  Cl  UNL     1      15.249 -14.221  -9.216  1.00  0.00    -0.083 Cl
ENDBRANCH   2   6
TORSDOF 2
ENDMDL
MODEL 8
REMARK VINA RESULT:    -4.832      9.823     11.047
REMARK INTER + INTRA:          -5.400
REMARK INTER:                  -5.263
REMARK INTRA:                  -0.137
REMARK UNBOUND:                -0.144
REMARK SMILES C[C@H](N)c1cccc(Cl)c1Cl
REMARK SMILES IDX 1 1 2 2 3 3 4 6 5 7 10 8 6 9 8 10 7 11 11 12 9 13
REMARK H PARENT 3 4 3 5
ROOT
ATOM      1  C   UNL     1      10.809 -10.822  -8.446  1.00  0.00     0.029 C 
ATOM      2  C   UNL     1      12.107 -10.917  -7.643  1.00  0.00     0.079 C 
ENDROOT
BRANCH   2   3
ATOM      3  N   UNL     1      11.900 -11.602  -6.370  1.00  0.00    -0.324 NA
ATOM      4  H   UNL     1      11.153 -12.287  -6.461  1.00  0.00     0.119 HD
ATOM      5  H   UNL     1      12.742 -12.116  -6.117  1.00  0.00     0.119 HD
ENDBRANCH   2   3
BRANCH   2   6
ATOM      6  C   UNL     1      12.805  -9.577  -7.466  1.00  0.00    -0.011 A 
ATOM      7  C   UNL     1      12.301  -8.723  -6.460  1.00  0.00     0.007 A 
ATOM      8  C   UNL     1      13.914  -9.132  -8.224  1.00  0.00     0.064 A 
ATOM      9  C   UNL     1      12.869  -7.474  -6.208  1.00  0.00     0.002 A 
ATOM     10  C   UNL     1      14.481  -7.869  -7.961  1.00  0.00     0.060 A 
ATOM     11  C   UNL     1      13.959  -7.048  -6.957  1.00  0.00     0.022 A 
ATOM     12  Cl  UNL     1      14.594 -10.113  -9.486  1.00  0.00    -0.082 Cl
ATOM     13  Cl  UNL     1      15.839  -7.250  -8.840  1.00  0.00    -0.083 Cl
ENDBRANCH   2   6
TORSDOF 2
ENDMDL
MODEL 9
REMARK VINA RESULT:    -4.788     10.199     11.877
REMARK INTER + INTRA:          -5.352
REMARK INTER:                  -5.210
REMARK INTRA:                  -0.142
REMARK UNBOUND:                -0.144
REMARK SMILES C[C@H](N)c1cccc(Cl)c1Cl
REMARK SMILES IDX 1 1 2 2 3 3 4 6 5 7 10 8 6 9 8 10 7 11 11 12 9 13
REMARK H PARENT 3 4 3 5
ROOT
ATOM      1  C   UNL     1      11.861 -12.323 -10.345  1.00  0.00     0.029 C 
ATOM      2  C   UNL     1      13.086 -11.718  -9.658  1.00  0.00     0.079 C 
ENDROOT
BRANCH   2   3
ATOM      3  N   UNL     1      13.985 -12.754  -9.156  1.00  0.00    -0.324 NA
ATOM      4  H   UNL     1      14.716 -12.939  -9.839  1.00  0.00     0.119 HD
ATOM      5  H   UNL     1      14.446 -12.427  -8.310  1.00  0.00     0.119 HD
ENDBRANCH   2   3
BRANCH   2   6
ATOM      6  C   UNL     1      12.733 -10.697  -8.586  1.00  0.00    -0.011 A 
ATOM      7  C   UNL     1      11.602 -10.977  -7.786  1.00  0.00     0.007 A 
ATOM      8  C   UNL     1      13.449  -9.504  -8.332  1.00  0.00     0.064 A 
ATOM      9  C   UNL     1      11.192 -10.114  -6.770  1.00  0.00     0.002 A 
ATOM     10  C   UNL     1      13.027  -8.638  -7.303  1.00  0.00     0.060 A 
ATOM     11  C   UNL     1      11.905  -8.946  -6.529  1.00  0.00     0.022 A 
ATOM     12  Cl  UNL     1      14.846  -9.075  -9.272  1.00  0.00    -0.082 Cl
ATOM     13  Cl  UNL     1      13.848  -7.160  -6.926  1.00  0.00    -0.083 Cl
ENDBRANCH   2   6
TORSDOF 2
ENDMDL
