MODEL 1
REMARK VINA RESULT:    -4.534      0.000      0.000
REMARK INTER + INTRA:          -5.049
REMARK INTER:                  -4.931
REMARK INTRA:                  -0.118
REMARK UNBOUND:                -0.118
REMARK SMILES C[C@H](N)c1cccc(Cl)c1Cl
REMARK SMILES IDX 1 1 2 2 3 3 4 6 5 7 10 8 6 9 8 10 7 11 11 12 9 13
REMARK H PARENT 3 4 3 5
ROOT
ATOM      1  C   UNL     1      10.845  -2.277   4.785  1.00  0.00     0.029 C 
ATOM      2  C   UNL     1       9.934  -3.316   4.131  1.00  0.00     0.079 C 
ENDROOT
BRANCH   2   3
ATOM      3  N   UNL     1       8.938  -2.686   3.268  1.00  0.00    -0.324 NA
ATOM      4  H   UNL     1       9.397  -2.077   2.595  1.00  0.00     0.119 HD
ATOM      5  H   UNL     1       8.447  -3.401   2.733  1.00  0.00     0.119 HD
ENDBRANCH   2   3
BRANCH   2   6
ATOM      6  C   UNL     1       9.304  -4.278   5.127  1.00  0.00    -0.011 A 
ATOM      7  C   UNL     1       9.286  -3.873   6.481  1.00  0.00     0.007 A 
ATOM      8  C   UNL     1       8.736  -5.531   4.799  1.00  0.00     0.064 A 
ATOM      9  C   UNL     1       8.728  -4.673   7.477  1.00  0.00     0.002 A 
ATOM     10  C   UNL     1       8.175  -6.333   5.813  1.00  0.00     0.060 A 
ATOM     11  C   UNL     1       8.172  -5.902   7.143  1.00  0.00     0.022 A 
ATOM     12  Cl  UNL     1       8.722  -6.112   3.163  1.00  0.00    -0.082 Cl
ATOM     13  Cl  UNL     1       7.458  -7.878   5.497  1.00  0.00    -0.083 Cl
ENDBRANCH   2   6
TORSDOF 2
ENDMDL
MODEL 2
REMARK VINA RESULT:    -4.412      5.219      6.829
REMARK INTER + INTRA:          -4.916
REMARK INTER:                  -4.783
REMARK INTRA:                  -0.133
REMARK UNBOUND:                -0.118
REMARK SMILES C[C@H](N)c1cccc(Cl)c1Cl
REMARK SMILES IDX 1 1 2 2 3 3 4 6 5 7 10 8 6 9 8 10 7 11 11 12 9 13
REMARK H PARENT 3 4 3 5
ROOT
ATOM      1  C   UNL     1      11.526  -7.694  -0.592  1.00  0.00     0.029 C 
ATOM      2  C   UNL     1      11.073  -6.319  -0.099  1.00  0.00     0.079 C 
ENDROOT
BRANCH   2   3
ATOM      3  N   UNL     1      10.294  -5.615  -1.114  1.00  0.00    -0.324 NA
ATOM      4  H   UNL     1      10.917  -5.113  -1.743  1.00  0.00     0.119 HD
ATOM      5  H   UNL     1       9.783  -6.288  -1.681  1.00  0.00     0.119 HD
ENDBRANCH   2   3
BRANCH   2   6
ATOM      6  C   UNL     1      12.211  -5.467   0.443  1.00  0.00    -0.011 A 
ATOM      7  C   UNL     1      13.152  -4.987  -0.496  1.00  0.00     0.007 A 
ATOM      8  C   UNL     1      12.391  -5.121   1.803  1.00  0.00     0.064 A 
ATOM      9  C   UNL     1      14.231  -4.193  -0.111  1.00  0.00     0.002 A 
ATOM     10  C   UNL     1      13.485  -4.318   2.182  1.00  0.00     0.060 A 
ATOM     11  C   UNL     1      14.397  -3.857   1.228  1.00  0.00     0.022 A 
ATOM     12  Cl  UNL     1      11.290  -5.674   3.026  1.00  0.00    -0.082 Cl
ATOM     13  Cl  UNL     1      13.777  -3.847   3.824  1.00  0.00    -0.083 Cl
ENDBRANCH   2   6
TORSDOF 2
ENDMDL
MODEL 3
REMARK VINA RESULT:    -4.372      2.031      2.663
REMARK INTER + INTRA:          -4.873
REMARK INTER:                  -4.763
REMARK INTRA:                  -0.110
REMARK UNBOUND:                -0.118
REMARK SMILES C[C@H](N)c1cccc(Cl)c1Cl
REMARK SMILES IDX 1 1 2 2 3 3 4 6 5 7 10 8 6 9 8 10 7 11 11 12 9 13
REMARK H PARENT 3 4 3 5
ROOT
ATOM      1  C   UNL     1      13.566  -3.738   4.090  1.00  0.00     0.029 C 
ATOM      2  C   UNL     1      12.397  -2.815   3.744  1.00  0.00     0.079 C 
ENDROOT
BRANCH   2   3
ATOM      3  N   UNL     1      12.658  -1.441   4.164  1.00  0.00    -0.324 NA
ATOM      4  H   UNL     1      11.929  -1.129   4.802  1.00  0.00     0.119 HD
ATOM      5  H   UNL     1      13.537  -1.400   4.676  1.00  0.00     0.119 HD
ENDBRANCH   2   3
BRANCH   2   6
ATOM      6  C   UNL     1      11.056  -3.324   4.250  1.00  0.00    -0.011 A 
ATOM      7  C   UNL     1      10.499  -2.657   5.365  1.00  0.00     0.007 A 
ATOM      8  C   UNL     1      10.332  -4.403   3.690  1.00  0.00     0.064 A 
ATOM      9  C   UNL     1       9.272  -3.036   5.907  1.00  0.00     0.002 A 
ATOM     10  C   UNL     1       9.092  -4.778   4.245  1.00  0.00     0.060 A 
ATOM     11  C   UNL     1       8.568  -4.096   5.347  1.00  0.00     0.022 A 
ATOM     12  Cl  UNL     1      10.943  -5.285   2.325  1.00  0.00    -0.082 Cl
ATOM     13  Cl  UNL     1       8.141  -6.084   3.619  1.00  0.00    -0.083 Cl
ENDBRANCH   2   6
TORSDOF 2
ENDMDL
MODEL 4
REMARK VINA RESULT:    -4.153     14.929     16.137
REMARK INTER + INTRA:          -4.634
REMARK INTER:                  -4.492
REMARK INTRA:                  -0.143
REMARK UNBOUND:                -0.118
REMARK SMILES C[C@H](N)c1cccc(Cl)c1Cl
REMARK SMILES IDX 1 1 2 2 3 3 4 6 5 7 10 8 6 9 8 10 7 11 11 12 9 13
REMARK H PARENT 3 4 3 5
ROOT
ATOM      1  C   UNL     1       5.276 -11.125 -11.929  1.00  0.00     0.029 C 
ATOM      2  C   UNL     1       5.069 -10.540 -10.532  1.00  0.00     0.079 C 
ENDROOT
BRANCH   2   3
ATOM      3  N   UNL     1       3.843  -9.748 -10.459  1.00  0.00    -0.324 NA
ATOM      4  H   UNL     1       3.311 -10.006  -9.631  1.00  0.00     0.119 HD
ATOM      5  H   UNL     1       4.078  -8.762 -10.365  1.00  0.00     0.119 HD
ENDBRANCH   2   3
BRANCH   2   6
ATOM      6  C   UNL     1       6.277  -9.775 -10.013  1.00  0.00    -0.011 A 
ATOM      7  C   UNL     1       7.011  -9.025 -10.958  1.00  0.00     0.007 A 
ATOM      8  C   UNL     1       6.711  -9.757  -8.666  1.00  0.00     0.064 A 
ATOM      9  C   UNL     1       8.133  -8.281 -10.592  1.00  0.00     0.002 A 
ATOM     10  C   UNL     1       7.845  -9.002  -8.306  1.00  0.00     0.060 A 
ATOM     11  C   UNL     1       8.549  -8.269  -9.266  1.00  0.00     0.022 A 
ATOM     12  Cl  UNL     1       5.874 -10.656  -7.439  1.00  0.00    -0.082 Cl
ATOM     13  Cl  UNL     1       8.441  -8.924  -6.680  1.00  0.00    -0.083 Cl
ENDBRANCH   2   6
TORSDOF 2
ENDMDL
MODEL 5
REMARK VINA RESULT:    -4.126     13.413     14.506
REMARK INTER + INTRA:          -4.605
REMARK INTER:                  -4.463
REMARK INTRA:                  -0.142
REMARK UNBOUND:                -0.118
REMARK SMILES C[C@H](N)c1cccc(Cl)c1Cl
REMARK SMILES IDX 1 1 2 2 3 3 4 6 5 7 10 8 6 9 8 10 7 11 11 12 9 13
REMARK H PARENT 3 4 3 5
ROOT
ATOM      1  C   UNL     1       6.803  -9.390 -11.278  1.00  0.00     0.029 C 
ATOM      2  C   UNL     1       6.208  -9.450  -9.870  1.00  0.00     0.079 C 
ENDROOT
BRANCH   2   3
ATOM      3  N   UNL     1       5.040  -8.583  -9.746  1.00  0.00    -0.324 NA
ATOM      4  H   UNL     1       4.194  -9.106  -9.961  1.00  0.00     0.119 HD
ATOM      5  H   UNL     1       4.952  -8.262  -8.784  1.00  0.00     0.119 HD
ENDBRANCH   2   3
BRANCH   2   6
ATOM      6  C   UNL     1       7.231  -9.195  -8.773  1.00  0.00    -0.011 A 
ATOM      7  C   UNL     1       8.368  -8.433  -9.124  1.00  0.00     0.007 A 
ATOM      8  C   UNL     1       7.125  -9.657  -7.440  1.00  0.00     0.064 A 
ATOM      9  C   UNL     1       9.365  -8.134  -8.196  1.00  0.00     0.002 A 
ATOM     10  C   UNL     1       8.137  -9.349  -6.509  1.00  0.00     0.060 A 
ATOM     11  C   UNL     1       9.249  -8.591  -6.889  1.00  0.00     0.022 A 
ATOM     12  Cl  UNL     1       5.767 -10.607  -6.922  1.00  0.00    -0.082 Cl
ATOM     13  Cl  UNL     1       8.084  -9.874  -4.858  1.00  0.00    -0.083 Cl
ENDBRANCH   2   6
TORSDOF 2
ENDMDL
MODEL 6
REMARK VINA RESULT:    -4.100      5.406      6.694
REMARK INTER + INTRA:          -4.578
REMARK INTER:                  -4.645
REMARK INTRA:                   0.068
REMARK UNBOUND:                -0.118
REMARK SMILES C[C@H](N)c1cccc(Cl)c1Cl
REMARK SMILES IDX 1 1 2 2 3 3 4 6 5 7 10 8 6 9 8 10 7 11 11 12 9 13
REMARK H PARENT 3 4 3 5
ROOT
ATOM      1  C   UNL     1      11.554  -7.672  -0.449  1.00  0.00     0.029 C 
ATOM      2  C   UNL     1      10.906  -6.373   0.033  1.00  0.00     0.079 C 
ENDROOT
BRANCH   2   3
ATOM      3  N   UNL     1      10.303  -5.633  -1.073  1.00  0.00    -0.324 NA
ATOM      4  H   UNL     1       9.885  -4.772  -0.727  1.00  0.00     0.119 HD
ATOM      5  H   UNL     1      11.024  -5.366  -1.740  1.00  0.00     0.119 HD
ENDBRANCH   2   3
BRANCH   2   6
ATOM      6  C   UNL     1      11.841  -5.504   0.861  1.00  0.00    -0.011 A 
ATOM      7  C   UNL     1      11.449  -5.233   2.191  1.00  0.00     0.007 A 
ATOM      8  C   UNL     1      13.064  -4.959   0.403  1.00  0.00     0.064 A 
ATOM      9  C   UNL     1      12.233  -4.453   3.041  1.00  0.00     0.002 A 
ATOM     10  C   UNL     1      13.849  -4.173   1.269  1.00  0.00     0.060 A 
ATOM     11  C   UNL     1      13.433  -3.924   2.580  1.00  0.00     0.022 A 
ATOM     12  Cl  UNL     1      13.620  -5.234  -1.220  1.00  0.00    -0.082 Cl
ATOM     13  Cl  UNL     1      15.358  -3.470   0.788  1.00  0.00    -0.083 Cl
ENDBRANCH   2   6
TORSDOF 2
ENDMDL
MODEL 7
REMARK VINA RESULT:    -4.080     13.643     14.370
REMARK INTER + INTRA:          -4.556
REMARK INTER:                  -4.418
REMARK INTRA:                  -0.138
REMARK UNBOUND:                -0.118
REMARK SMILES C[C@H](N)c1cccc(Cl)c1Cl
REMARK SMILES IDX 1 1 2 2 3 3 4 6 5 7 10 8 6 9 8 10 7 11 11 12 9 13
REMARK H PARENT 3 4 3 5
ROOT
ATOM      1  C   UNL     1      10.961  -9.036  -8.126  1.00  0.00     0.029 C 
ATOM      2  C   UNL     1       9.819  -8.030  -7.986  1.00  0.00     0.079 C 
ENDROOT
BRANCH   2   3
ATOM      3  N   UNL     1      10.008  -7.164  -6.825  1.00  0.00    -0.324 NA
ATOM      4  H   UNL     1      10.670  -6.424  -7.047  1.00  0.00     0.119 HD
ATOM      5  H   UNL     1       9.127  -6.712  -6.587  1.00  0.00     0.119 HD
ENDBRANCH   2   3
BRANCH   2   6
ATOM      6  C   UNL     1       8.441  -8.675  -8.002  1.00  0.00    -0.011 A 
ATOM      7  C   UNL     1       7.991  -9.247  -6.790  1.00  0.00     0.007 A 
ATOM      8  C   UNL     1       7.586  -8.740  -9.127  1.00  0.00     0.064 A 
ATOM      9  C   UNL     1       6.742  -9.859  -6.690  1.00  0.00     0.002 A 
ATOM     10  C   UNL     1       6.326  -9.361  -9.015  1.00  0.00     0.060 A 
ATOM     11  C   UNL     1       5.910  -9.915  -7.801  1.00  0.00     0.022 A 
ATOM     12  Cl  UNL     1       8.062  -8.071 -10.658  1.00  0.00    -0.082 Cl
ATOM     13  Cl  UNL     1       5.219  -9.480 -10.343  1.00  0.00    -0.083 Cl
ENDBRANCH   2   6
TORSDOF 2
ENDMDL
MODEL 8
REMARK VINA RESULT:    -4.078      2.359      3.777
REMARK INTER + INTRA:          -4.553
REMARK INTER:                  -4.409
REMARK INTRA:                  -0.144
REMARK UNBOUND:                -0.118
REMARK SMILES C[C@H](N)c1cccc(Cl)c1Cl
REMARK SMILES IDX 1 1 2 2 3 3 4 6 5 7 10 8 6 9 8 10 7 11 11 12 9 13
REMARK H PARENT 3 4 3 5
ROOT
ATOM      1  C   UNL     1       8.787  -1.501   6.226  1.00  0.00     0.029 C 
ATOM      2  C   UNL     1       8.931  -2.991   5.913  1.00  0.00     0.079 C 
ENDROOT
BRANCH   2   3
ATOM      3  N   UNL     1       9.051  -3.786   7.132  1.00  0.00    -0.324 NA
ATOM      4  H   UNL     1       9.828  -4.438   7.046  1.00  0.00     0.119 HD
ATOM      5  H   UNL     1       9.263  -3.176   7.919  1.00  0.00     0.119 HD
ENDBRANCH   2   3
BRANCH   2   6
ATOM      6  C   UNL     1      10.043  -3.293   4.919  1.00  0.00    -0.011 A 
ATOM      7  C   UNL     1      11.175  -2.449   4.953  1.00  0.00     0.007 A 
ATOM      8  C   UNL     1      10.028  -4.349   3.978  1.00  0.00     0.064 A 
ATOM      9  C   UNL     1      12.256  -2.638   4.092  1.00  0.00     0.002 A 
ATOM     10  C   UNL     1      11.124  -4.532   3.112  1.00  0.00     0.060 A 
ATOM     11  C   UNL     1      12.231  -3.680   3.173  1.00  0.00     0.022 A 
ATOM     12  Cl  UNL     1       8.674  -5.430   3.860  1.00  0.00    -0.082 Cl
ATOM     13  Cl  UNL     1      11.187  -5.800   1.933  1.00  0.00    -0.083 Cl
ENDBRANCH   2   6
TORSDOF 2
ENDMDL
