MODEL 1
REMARK VINA RESULT:    -4.508      0.000      0.000
REMARK INTER + INTRA:          -5.033
REMARK INTER:                  -4.904
REMARK INTRA:                  -0.129
REMARK UNBOUND:                -0.129
REMARK SMILES C[C@H](N)c1cccc(Cl)c1Cl
REMARK SMILES IDX 1 1 2 2 3 3 4 6 5 7 10 8 6 9 8 10 7 11 11 12 9 13
REMARK H PARENT 3 4 3 5
ROOT
ATOM      1  C   UNL     1      10.829  -2.286   4.796  1.00  0.00     0.029 C 
ATOM      2  C   UNL     1       9.920  -3.315   4.123  1.00  0.00     0.079 C 
ENDROOT
BRANCH   2   3
ATOM      3  N   UNL     1       8.929  -2.672   3.264  1.00  0.00    -0.324 NA
ATOM      4  H   UNL     1       9.374  -1.954   2.697  1.00  0.00     0.119 HD
ATOM      5  H   UNL     1       8.537  -3.357   2.620  1.00  0.00     0.119 HD
ENDBRANCH   2   3
BRANCH   2   6
ATOM      6  C   UNL     1       9.283  -4.290   5.103  1.00  0.00    -0.011 A 
ATOM      7  C   UNL     1       9.215  -3.882   6.454  1.00  0.00     0.007 A 
ATOM      8  C   UNL     1       8.756  -5.557   4.762  1.00  0.00     0.064 A 
ATOM      9  C   UNL     1       8.647  -4.694   7.436  1.00  0.00     0.002 A 
ATOM     10  C   UNL     1       8.184  -6.370   5.761  1.00  0.00     0.060 A 
ATOM     11  C   UNL     1       8.131  -5.937   7.089  1.00  0.00     0.022 A 
ATOM     12  Cl  UNL     1       8.804  -6.142   3.127  1.00  0.00    -0.082 Cl
ATOM     13  Cl  UNL     1       7.514  -7.933   5.427  1.00  0.00    -0.083 Cl
ENDBRANCH   2   6
TORSDOF 2
ENDMDL
MODEL 2
REMARK VINA RESULT:    -4.414      5.178      6.794
REMARK INTER + INTRA:          -4.930
REMARK INTER:                  -4.797
REMARK INTRA:                  -0.133
REMARK UNBOUND:                -0.129
REMARK SMILES C[C@H](N)c1cccc(Cl)c1Cl
REMARK SMILES IDX 1 1 2 2 3 3 4 6 5 7 10 8 6 9 8 10 7 11 11 12 9 13
REMARK H PARENT 3 4 3 5
ROOT
ATOM      1  C   UNL     1      11.477  -7.706  -0.541  1.00  0.00     0.029 C 
ATOM      2  C   UNL     1      11.028  -6.320  -0.076  1.00  0.00     0.079 C 
ENDROOT
BRANCH   2   3
ATOM      3  N   UNL     1      10.261  -5.631  -1.111  1.00  0.00    -0.324 NA
ATOM      4  H   UNL     1       9.418  -6.159  -1.328  1.00  0.00     0.119 HD
ATOM      5  H   UNL     1       9.960  -4.722  -0.766  1.00  0.00     0.119 HD
ENDBRANCH   2   3
BRANCH   2   6
ATOM      6  C   UNL     1      12.167  -5.465   0.459  1.00  0.00    -0.011 A 
ATOM      7  C   UNL     1      13.101  -4.983  -0.487  1.00  0.00     0.007 A 
ATOM      8  C   UNL     1      12.354  -5.117   1.817  1.00  0.00     0.064 A 
ATOM      9  C   UNL     1      14.180  -4.185  -0.108  1.00  0.00     0.002 A 
ATOM     10  C   UNL     1      13.448  -4.310   2.189  1.00  0.00     0.060 A 
ATOM     11  C   UNL     1      14.353  -3.848   1.229  1.00  0.00     0.022 A 
ATOM     12  Cl  UNL     1      11.261  -5.672   3.047  1.00  0.00    -0.082 Cl
ATOM     13  Cl  UNL     1      13.749  -3.837   3.829  1.00  0.00    -0.083 Cl
ENDBRANCH   2   6
TORSDOF 2
ENDMDL
MODEL 3
REMARK VINA RESULT:    -4.353      2.051      2.724
REMARK INTER + INTRA:          -4.864
REMARK INTER:                  -4.743
REMARK INTRA:                  -0.121
REMARK UNBOUND:                -0.129
REMARK SMILES C[C@H](N)c1cccc(Cl)c1Cl
REMARK SMILES IDX 1 1 2 2 3 3 4 6 5 7 10 8 6 9 8 10 7 11 11 12 9 13
REMARK H PARENT 3 4 3 5
ROOT
ATOM      1  C   UNL     1      13.676  -3.760   4.038  1.00  0.00     0.029 C 
ATOM      2  C   UNL     1      12.504  -2.843   3.689  1.00  0.00     0.079 C 
ENDROOT
BRANCH   2   3
ATOM      3  N   UNL     1      12.771  -1.460   4.078  1.00  0.00    -0.324 NA
ATOM      4  H   UNL     1      13.600  -1.118   3.597  1.00  0.00     0.119 HD
ATOM      5  H   UNL     1      11.996  -0.867   3.790  1.00  0.00     0.119 HD
ENDBRANCH   2   3
BRANCH   2   6
ATOM      6  C   UNL     1      11.169  -3.341   4.222  1.00  0.00    -0.011 A 
ATOM      7  C   UNL     1      10.648  -2.678   5.356  1.00  0.00     0.007 A 
ATOM      8  C   UNL     1      10.418  -4.404   3.668  1.00  0.00     0.064 A 
ATOM      9  C   UNL     1       9.429  -3.047   5.925  1.00  0.00     0.002 A 
ATOM     10  C   UNL     1       9.187  -4.769   4.250  1.00  0.00     0.060 A 
ATOM     11  C   UNL     1       8.699  -4.092   5.371  1.00  0.00     0.022 A 
ATOM     12  Cl  UNL     1      10.985  -5.279   2.280  1.00  0.00    -0.082 Cl
ATOM     13  Cl  UNL     1       8.205  -6.057   3.633  1.00  0.00    -0.083 Cl
ENDBRANCH   2   6
TORSDOF 2
ENDMDL
MODEL 4
REMARK VINA RESULT:    -4.149     14.904     16.111
REMARK INTER + INTRA:          -4.643
REMARK INTER:                  -4.500
REMARK INTRA:                  -0.143
REMARK UNBOUND:                -0.129
REMARK SMILES C[C@H](N)c1cccc(Cl)c1Cl
REMARK SMILES IDX 1 1 2 2 3 3 4 6 5 7 10 8 6 9 8 10 7 11 11 12 9 13
REMARK H PARENT 3 4 3 5
ROOT
ATOM      1  C   UNL     1       5.257 -11.096 -11.954  1.00  0.00     0.029 C 
ATOM      2  C   UNL     1       5.056 -10.530 -10.548  1.00  0.00     0.079 C 
ENDROOT
BRANCH   2   3
ATOM      3  N   UNL     1       3.835  -9.733 -10.461  1.00  0.00    -0.324 NA
ATOM      4  H   UNL     1       3.920  -8.902 -11.043  1.00  0.00     0.119 HD
ATOM      5  H   UNL     1       3.049 -10.269 -10.823  1.00  0.00     0.119 HD
ENDBRANCH   2   3
BRANCH   2   6
ATOM      6  C   UNL     1       6.270  -9.778 -10.021  1.00  0.00    -0.011 A 
ATOM      7  C   UNL     1       7.010  -9.025 -10.960  1.00  0.00     0.007 A 
ATOM      8  C   UNL     1       6.703  -9.776  -8.675  1.00  0.00     0.064 A 
ATOM      9  C   UNL     1       8.137  -8.293 -10.586  1.00  0.00     0.002 A 
ATOM     10  C   UNL     1       7.843  -9.033  -8.307  1.00  0.00     0.060 A 
ATOM     11  C   UNL     1       8.552  -8.296  -9.260  1.00  0.00     0.022 A 
ATOM     12  Cl  UNL     1       5.860 -10.680  -7.455  1.00  0.00    -0.082 Cl
ATOM     13  Cl  UNL     1       8.439  -8.974  -6.681  1.00  0.00    -0.083 Cl
ENDBRANCH   2   6
TORSDOF 2
ENDMDL
MODEL 5
REMARK VINA RESULT:    -4.111      5.221      6.478
REMARK INTER + INTRA:          -4.601
REMARK INTER:                  -4.654
REMARK INTRA:                   0.053
REMARK UNBOUND:                -0.129
REMARK SMILES C[C@H](N)c1cccc(Cl)c1Cl
REMARK SMILES IDX 1 1 2 2 3 3 4 6 5 7 10 8 6 9 8 10 7 11 11 12 9 13
REMARK H PARENT 3 4 3 5
ROOT
ATOM      1  C   UNL     1      11.576  -7.709  -0.624  1.00  0.00     0.029 C 
ATOM      2  C   UNL     1      10.851  -6.495  -0.040  1.00  0.00     0.079 C 
ENDROOT
BRANCH   2   3
ATOM      3  N   UNL     1      10.284  -5.654  -1.091  1.00  0.00    -0.324 NA
ATOM      4  H   UNL     1       9.389  -6.033  -1.394  1.00  0.00     0.119 HD
ATOM      5  H   UNL     1      10.102  -4.723  -0.723  1.00  0.00     0.119 HD
ENDBRANCH   2   3
BRANCH   2   6
ATOM      6  C   UNL     1      11.701  -5.697   0.936  1.00  0.00    -0.011 A 
ATOM      7  C   UNL     1      11.300  -5.712   2.291  1.00  0.00     0.007 A 
ATOM      8  C   UNL     1      12.854  -4.953   0.591  1.00  0.00     0.064 A 
ATOM      9  C   UNL     1      12.010  -5.021   3.273  1.00  0.00     0.002 A 
ATOM     10  C   UNL     1      13.565  -4.258   1.590  1.00  0.00     0.060 A 
ATOM     11  C   UNL     1      13.142  -4.295   2.922  1.00  0.00     0.022 A 
ATOM     12  Cl  UNL     1      13.415  -4.872  -1.051  1.00  0.00    -0.082 Cl
ATOM     13  Cl  UNL     1      14.986  -3.326   1.253  1.00  0.00    -0.083 Cl
ENDBRANCH   2   6
TORSDOF 2
ENDMDL
MODEL 6
REMARK VINA RESULT:    -4.098     13.408     14.500
REMARK INTER + INTRA:          -4.587
REMARK INTER:                  -4.444
REMARK INTRA:                  -0.142
REMARK UNBOUND:                -0.129
REMARK SMILES C[C@H](N)c1cccc(Cl)c1Cl
REMARK SMILES IDX 1 1 2 2 3 3 4 6 5 7 10 8 6 9 8 10 7 11 11 12 9 13
REMARK H PARENT 3 4 3 5
ROOT
ATOM      1  C   UNL     1       6.904  -9.418 -11.319  1.00  0.00     0.029 C 
ATOM      2  C   UNL     1       6.285  -9.485  -9.923  1.00  0.00     0.079 C 
ENDROOT
BRANCH   2   3
ATOM      3  N   UNL     1       5.097  -8.642  -9.822  1.00  0.00    -0.324 NA
ATOM      4  H   UNL     1       4.271  -9.221  -9.683  1.00  0.00     0.119 HD
ATOM      5  H   UNL     1       5.174  -8.037  -9.007  1.00  0.00     0.119 HD
ENDBRANCH   2   3
BRANCH   2   6
ATOM      6  C   UNL     1       7.282  -9.206  -8.808  1.00  0.00    -0.011 A 
ATOM      7  C   UNL     1       8.408  -8.419  -9.141  1.00  0.00     0.007 A 
ATOM      8  C   UNL     1       7.163  -9.667  -7.476  1.00  0.00     0.064 A 
ATOM      9  C   UNL     1       9.381  -8.096  -8.196  1.00  0.00     0.002 A 
ATOM     10  C   UNL     1       8.152  -9.335  -6.528  1.00  0.00     0.060 A 
ATOM     11  C   UNL     1       9.253  -8.554  -6.890  1.00  0.00     0.022 A 
ATOM     12  Cl  UNL     1       5.817 -10.646  -6.979  1.00  0.00    -0.082 Cl
ATOM     13  Cl  UNL     1       8.081  -9.857  -4.877  1.00  0.00    -0.083 Cl
ENDBRANCH   2   6
TORSDOF 2
ENDMDL
MODEL 7
REMARK VINA RESULT:    -4.061     13.667     14.406
REMARK INTER + INTRA:          -4.547
REMARK INTER:                  -4.406
REMARK INTRA:                  -0.141
REMARK UNBOUND:                -0.129
REMARK SMILES C[C@H](N)c1cccc(Cl)c1Cl
REMARK SMILES IDX 1 1 2 2 3 3 4 6 5 7 10 8 6 9 8 10 7 11 11 12 9 13
REMARK H PARENT 3 4 3 5
ROOT
ATOM      1  C   UNL     1      10.947  -8.976  -8.243  1.00  0.00     0.029 C 
ATOM      2  C   UNL     1       9.795  -8.002  -7.992  1.00  0.00     0.079 C 
ENDROOT
BRANCH   2   3
ATOM      3  N   UNL     1       9.990  -7.248  -6.756  1.00  0.00    -0.324 NA
ATOM      4  H   UNL     1      10.770  -6.603  -6.863  1.00  0.00     0.119 HD
ATOM      5  H   UNL     1       9.164  -6.685  -6.564  1.00  0.00     0.119 HD
ENDBRANCH   2   3
BRANCH   2   6
ATOM      6  C   UNL     1       8.425  -8.661  -8.051  1.00  0.00    -0.011 A 
ATOM      7  C   UNL     1       7.941  -9.234  -6.853  1.00  0.00     0.007 A 
ATOM      8  C   UNL     1       7.607  -8.736  -9.203  1.00  0.00     0.064 A 
ATOM      9  C   UNL     1       6.695  -9.858  -6.792  1.00  0.00     0.002 A 
ATOM     10  C   UNL     1       6.350  -9.368  -9.130  1.00  0.00     0.060 A 
ATOM     11  C   UNL     1       5.900  -9.924  -7.930  1.00  0.00     0.022 A 
ATOM     12  Cl  UNL     1       8.125  -8.065 -10.719  1.00  0.00    -0.082 Cl
ATOM     13  Cl  UNL     1       5.288  -9.501 -10.493  1.00  0.00    -0.083 Cl
ENDBRANCH   2   6
TORSDOF 2
ENDMDL
MODEL 8
REMARK VINA RESULT:    -4.037     14.529     15.683
REMARK INTER + INTRA:          -4.521
REMARK INTER:                  -4.408
REMARK INTRA:                  -0.113
REMARK UNBOUND:                -0.129
REMARK SMILES C[C@H](N)c1cccc(Cl)c1Cl
REMARK SMILES IDX 1 1 2 2 3 3 4 6 5 7 10 8 6 9 8 10 7 11 11 12 9 13
REMARK H PARENT 3 4 3 5
ROOT
ATOM      1  C   UNL     1       4.351 -10.155 -10.941  1.00  0.00     0.029 C 
ATOM      2  C   UNL     1       5.796  -9.661 -11.018  1.00  0.00     0.079 C 
ENDROOT
BRANCH   2   3
ATOM      3  N   UNL     1       6.597 -10.484 -11.919  1.00  0.00    -0.324 NA
ATOM      4  H   UNL     1       7.143 -11.156 -11.383  1.00  0.00     0.119 HD
ATOM      5  H   UNL     1       5.983 -11.021 -12.529  1.00  0.00     0.119 HD
ENDBRANCH   2   3
BRANCH   2   6
ATOM      6  C   UNL     1       6.451  -9.500  -9.654  1.00  0.00    -0.011 A 
ATOM      7  C   UNL     1       5.839 -10.167  -8.569  1.00  0.00     0.007 A 
ATOM      8  C   UNL     1       7.619  -8.743  -9.397  1.00  0.00     0.064 A 
ATOM      9  C   UNL     1       6.358 -10.093  -7.277  1.00  0.00     0.002 A 
ATOM     10  C   UNL     1       8.136  -8.675  -8.088  1.00  0.00     0.060 A 
ATOM     11  C   UNL     1       7.507  -9.348  -7.037  1.00  0.00     0.022 A 
ATOM     12  Cl  UNL     1       8.433  -7.884 -10.668  1.00  0.00    -0.082 Cl
ATOM     13  Cl  UNL     1       9.561  -7.774  -7.689  1.00  0.00    -0.083 Cl
ENDBRANCH   2   6
TORSDOF 2
ENDMDL
MODEL 9
REMARK VINA RESULT:    -4.001      2.749      4.534
REMARK INTER + INTRA:          -4.482
REMARK INTER:                  -4.339
REMARK INTRA:                  -0.143
REMARK UNBOUND:                -0.129
REMARK SMILES C[C@H](N)c1cccc(Cl)c1Cl
REMARK SMILES IDX 1 1 2 2 3 3 4 6 5 7 10 8 6 9 8 10 7 11 11 12 9 13
REMARK H PARENT 3 4 3 5
ROOT
ATOM      1  C   UNL     1       8.507  -7.186   5.854  1.00  0.00     0.029 C 
ATOM      2  C   UNL     1       8.149  -6.145   4.794  1.00  0.00     0.079 C 
ENDROOT
BRANCH   2   3
ATOM      3  N   UNL     1       7.449  -6.750   3.664  1.00  0.00    -0.324 NA
ATOM      4  H   UNL     1       7.377  -7.756   3.798  1.00  0.00     0.119 HD
ATOM      5  H   UNL     1       6.498  -6.389   3.618  1.00  0.00     0.119 HD
ENDBRANCH   2   3
BRANCH   2   6
ATOM      6  C   UNL     1       9.338  -5.305   4.348  1.00  0.00    -0.011 A 
ATOM      7  C   UNL     1      10.065  -5.772   3.230  1.00  0.00     0.007 A 
ATOM      8  C   UNL     1       9.759  -4.102   4.962  1.00  0.00     0.064 A 
ATOM      9  C   UNL     1      11.168  -5.078   2.732  1.00  0.00     0.002 A 
ATOM     10  C   UNL     1      10.875  -3.409   4.451  1.00  0.00     0.060 A 
ATOM     11  C   UNL     1      11.572  -3.897   3.342  1.00  0.00     0.022 A 
ATOM     12  Cl  UNL     1       8.930  -3.459   6.345  1.00  0.00    -0.082 Cl
ATOM     13  Cl  UNL     1      11.455  -1.929   5.142  1.00  0.00    -0.083 Cl
ENDBRANCH   2   6
TORSDOF 2
ENDMDL
