MODEL 1
REMARK VINA RESULT:    -4.543      0.000      0.000
REMARK INTER + INTRA:          -5.098
REMARK INTER:                  -4.942
REMARK INTRA:                  -0.157
REMARK UNBOUND:                -0.157
REMARK SMILES C[C@@H](N)c1cccc(Cl)c1Cl
REMARK SMILES IDX 2 1 1 2 4 3 10 4 8 5 5 6 7 7 6 8 11 9 9 10 3 11
REMARK H PARENT 3 12 3 13
ROOT
ATOM      1  C   UNL     1       8.458  -6.668   4.691  1.00  0.00     0.079 C 
ATOM      2  C   UNL     1       7.956  -7.433   5.927  1.00  0.00     0.029 C 
ENDROOT
BRANCH   1   3
ATOM      3  C   UNL     1       8.926  -5.287   5.025  1.00  0.00    -0.011 A 
ATOM      4  C   UNL     1       9.982  -4.681   4.345  1.00  0.00     0.064 A 
ATOM      5  C   UNL     1      10.386  -3.390   4.691  1.00  0.00     0.060 A 
ATOM      6  C   UNL     1       8.272  -4.604   6.051  1.00  0.00     0.007 A 
ATOM      7  C   UNL     1       9.732  -2.707   5.717  1.00  0.00     0.022 A 
ATOM      8  C   UNL     1       8.676  -3.315   6.396  1.00  0.00     0.002 A 
ATOM      9  Cl  UNL     1      10.779  -5.552   3.074  1.00  0.00    -0.082 Cl
ATOM     10  Cl  UNL     1      11.686  -2.579   3.890  1.00  0.00    -0.083 Cl
ENDBRANCH   1   3
BRANCH   1  11
ATOM     11  N   UNL     1       7.397  -6.663   3.668  1.00  0.00    -0.324 NA
ATOM     12  H   UNL     1       7.303  -7.597   3.270  1.00  0.00     0.119 HD
ATOM     13  H   UNL     1       7.671  -6.052   2.900  1.00  0.00     0.119 HD
ENDBRANCH   1  11
TORSDOF 2
ENDMDL
MODEL 2
REMARK VINA RESULT:    -4.310     15.972     16.621
REMARK INTER + INTRA:          -4.844
REMARK INTER:                  -4.688
REMARK INTRA:                  -0.157
REMARK UNBOUND:                -0.157
REMARK SMILES C[C@@H](N)c1cccc(Cl)c1Cl
REMARK SMILES IDX 2 1 1 2 4 3 10 4 8 5 5 6 7 7 6 8 11 9 9 10 3 11
REMARK H PARENT 3 12 3 13
ROOT
ATOM      1  C   UNL     1       7.625   8.199  -3.921  1.00  0.00     0.079 C 
ATOM      2  C   UNL     1       8.590   8.910  -2.958  1.00  0.00     0.029 C 
ENDROOT
BRANCH   1   3
ATOM      3  C   UNL     1       6.191   8.461  -3.588  1.00  0.00    -0.011 A 
ATOM      4  C   UNL     1       5.210   8.563  -4.575  1.00  0.00     0.064 A 
ATOM      5  C   UNL     1       3.884   8.809  -4.218  1.00  0.00     0.060 A 
ATOM      6  C   UNL     1       5.846   8.606  -2.244  1.00  0.00     0.007 A 
ATOM      7  C   UNL     1       3.538   8.953  -2.874  1.00  0.00     0.022 A 
ATOM      8  C   UNL     1       4.520   8.852  -1.888  1.00  0.00     0.002 A 
ATOM      9  Cl  UNL     1       5.664   8.380  -6.239  1.00  0.00    -0.082 Cl
ATOM     10  Cl  UNL     1       2.618   8.945  -5.388  1.00  0.00    -0.083 Cl
ENDBRANCH   1   3
BRANCH   1  11
ATOM     11  N   UNL     1       7.938   6.760  -3.936  1.00  0.00    -0.324 NA
ATOM     12  H   UNL     1       7.088   6.227  -4.118  1.00  0.00     0.119 HD
ATOM     13  H   UNL     1       8.262   6.474  -3.013  1.00  0.00     0.119 HD
ENDBRANCH   1  11
TORSDOF 2
ENDMDL
MODEL 3
REMARK VINA RESULT:    -4.248     14.665     15.701
REMARK INTER + INTRA:          -4.777
REMARK INTER:                  -4.622
REMARK INTRA:                  -0.155
REMARK UNBOUND:                -0.157
REMARK SMILES C[C@@H](N)c1cccc(Cl)c1Cl
REMARK SMILES IDX 2 1 1 2 4 3 10 4 8 5 5 6 7 7 6 8 11 9 9 10 3 11
REMARK H PARENT 3 12 3 13
ROOT
ATOM      1  C   UNL     1       3.988   8.196  -3.735  1.00  0.00     0.079 C 
ATOM      2  C   UNL     1       3.526   8.952  -2.477  1.00  0.00     0.029 C 
ENDROOT
BRANCH   1   3
ATOM      3  C   UNL     1       5.454   7.903  -3.719  1.00  0.00    -0.011 A 
ATOM      4  C   UNL     1       5.952   6.617  -3.927  1.00  0.00     0.064 A 
ATOM      5  C   UNL     1       7.329   6.389  -3.903  1.00  0.00     0.060 A 
ATOM      6  C   UNL     1       6.331   8.962  -3.487  1.00  0.00     0.007 A 
ATOM      7  C   UNL     1       8.207   7.449  -3.671  1.00  0.00     0.022 A 
ATOM      8  C   UNL     1       7.707   8.735  -3.463  1.00  0.00     0.002 A 
ATOM      9  Cl  UNL     1       4.841   5.316  -4.212  1.00  0.00    -0.082 Cl
ATOM     10  Cl  UNL     1       8.015   4.822  -4.154  1.00  0.00    -0.083 Cl
ENDBRANCH   1   3
BRANCH   1  11
ATOM     11  N   UNL     1       3.587   8.962  -4.927  1.00  0.00    -0.324 NA
ATOM     12  H   UNL     1       4.327   9.616  -5.179  1.00  0.00     0.119 HD
ATOM     13  H   UNL     1       2.769   9.528  -4.706  1.00  0.00     0.119 HD
ENDBRANCH   1  11
TORSDOF 2
ENDMDL
MODEL 4
REMARK VINA RESULT:    -4.231      1.370      1.790
REMARK INTER + INTRA:          -4.759
REMARK INTER:                  -4.607
REMARK INTRA:                  -0.152
REMARK UNBOUND:                -0.157
REMARK SMILES C[C@@H](N)c1cccc(Cl)c1Cl
REMARK SMILES IDX 2 1 1 2 4 3 10 4 8 5 5 6 7 7 6 8 11 9 9 10 3 11
REMARK H PARENT 3 12 3 13
ROOT
ATOM      1  C   UNL     1       8.958  -5.485   3.915  1.00  0.00     0.079 C 
ATOM      2  C   UNL     1       8.744  -6.355   5.164  1.00  0.00     0.029 C 
ENDROOT
BRANCH   1   3
ATOM      3  C   UNL     1       9.907  -4.356   4.160  1.00  0.00    -0.011 A 
ATOM      4  C   UNL     1      11.138  -4.271   3.509  1.00  0.00     0.064 A 
ATOM      5  C   UNL     1      11.993  -3.199   3.770  1.00  0.00     0.060 A 
ATOM      6  C   UNL     1       9.530  -3.369   5.071  1.00  0.00     0.007 A 
ATOM      7  C   UNL     1      11.616  -2.212   4.681  1.00  0.00     0.022 A 
ATOM      8  C   UNL     1      10.385  -2.298   5.331  1.00  0.00     0.002 A 
ATOM      9  Cl  UNL     1      11.584  -5.511   2.381  1.00  0.00    -0.082 Cl
ATOM     10  Cl  UNL     1      13.532  -3.031   2.999  1.00  0.00    -0.083 Cl
ENDBRANCH   1   3
BRANCH   1  11
ATOM     11  N   UNL     1       7.649  -5.015   3.430  1.00  0.00    -0.324 NA
ATOM     12  H   UNL     1       7.703  -4.825   2.429  1.00  0.00     0.119 HD
ATOM     13  H   UNL     1       7.421  -4.127   3.876  1.00  0.00     0.119 HD
ENDBRANCH   1  11
TORSDOF 2
ENDMDL
MODEL 5
REMARK VINA RESULT:    -4.169      2.365      3.938
REMARK INTER + INTRA:          -4.691
REMARK INTER:                  -4.559
REMARK INTRA:                  -0.132
REMARK UNBOUND:                -0.157
REMARK SMILES C[C@@H](N)c1cccc(Cl)c1Cl
REMARK SMILES IDX 2 1 1 2 4 3 10 4 8 5 5 6 7 7 6 8 11 9 9 10 3 11
REMARK H PARENT 3 12 3 13
ROOT
ATOM      1  C   UNL     1       9.467  -3.374   4.610  1.00  0.00     0.079 C 
ATOM      2  C   UNL     1       9.368  -1.981   5.254  1.00  0.00     0.029 C 
ENDROOT
BRANCH   1   3
ATOM      3  C   UNL     1       9.000  -4.461   5.524  1.00  0.00    -0.011 A 
ATOM      4  C   UNL     1       8.521  -5.678   5.040  1.00  0.00     0.064 A 
ATOM      5  C   UNL     1       8.094  -6.665   5.931  1.00  0.00     0.060 A 
ATOM      6  C   UNL     1       9.052  -4.229   6.898  1.00  0.00     0.007 A 
ATOM      7  C   UNL     1       8.147  -6.433   7.305  1.00  0.00     0.022 A 
ATOM      8  C   UNL     1       8.626  -5.214   7.788  1.00  0.00     0.002 A 
ATOM      9  Cl  UNL     1       8.465  -5.943   3.326  1.00  0.00    -0.082 Cl
ATOM     10  Cl  UNL     1       7.491  -8.196   5.400  1.00  0.00    -0.083 Cl
ENDBRANCH   1   3
BRANCH   1  11
ATOM     11  N   UNL     1      10.850  -3.591   4.149  1.00  0.00    -0.324 NA
ATOM     12  H   UNL     1      11.212  -2.731   3.739  1.00  0.00     0.119 HD
ATOM     13  H   UNL     1      10.853  -4.286   3.405  1.00  0.00     0.119 HD
ENDBRANCH   1  11
TORSDOF 2
ENDMDL
MODEL 6
REMARK VINA RESULT:    -4.150     13.765     14.819
REMARK INTER + INTRA:          -4.671
REMARK INTER:                  -4.525
REMARK INTRA:                  -0.146
REMARK UNBOUND:                -0.157
REMARK SMILES C[C@@H](N)c1cccc(Cl)c1Cl
REMARK SMILES IDX 2 1 1 2 4 3 10 4 8 5 5 6 7 7 6 8 11 9 9 10 3 11
REMARK H PARENT 3 12 3 13
ROOT
ATOM      1  C   UNL     1       5.825  -9.459 -10.564  1.00  0.00     0.079 C 
ATOM      2  C   UNL     1       6.286 -10.647 -11.425  1.00  0.00     0.029 C 
ENDROOT
BRANCH   1   3
ATOM      3  C   UNL     1       6.506  -9.418  -9.234  1.00  0.00    -0.011 A 
ATOM      4  C   UNL     1       7.713  -8.746  -9.043  1.00  0.00     0.064 A 
ATOM      5  C   UNL     1       8.314  -8.735  -7.783  1.00  0.00     0.060 A 
ATOM      6  C   UNL     1       5.899 -10.079  -8.166  1.00  0.00     0.007 A 
ATOM      7  C   UNL     1       7.707  -9.396  -6.715  1.00  0.00     0.022 A 
ATOM      8  C   UNL     1       6.500 -10.068  -6.908  1.00  0.00     0.002 A 
ATOM      9  Cl  UNL     1       8.449  -7.932 -10.387  1.00  0.00    -0.082 Cl
ATOM     10  Cl  UNL     1       9.809  -7.922  -7.475  1.00  0.00    -0.083 Cl
ENDBRANCH   1   3
BRANCH   1  11
ATOM     11  N   UNL     1       4.358  -9.503 -10.436  1.00  0.00    -0.324 NA
ATOM     12  H   UNL     1       4.093  -9.320  -9.468  1.00  0.00     0.119 HD
ATOM     13  H   UNL     1       4.027 -10.443 -10.649  1.00  0.00     0.119 HD
ENDBRANCH   1  11
TORSDOF 2
ENDMDL
MODEL 7
REMARK VINA RESULT:    -4.096      4.423      5.229
REMARK INTER + INTRA:          -4.612
REMARK INTER:                  -4.458
REMARK INTRA:                  -0.154
REMARK UNBOUND:                -0.157
REMARK SMILES C[C@@H](N)c1cccc(Cl)c1Cl
REMARK SMILES IDX 2 1 1 2 4 3 10 4 8 5 5 6 7 7 6 8 11 9 9 10 3 11
REMARK H PARENT 3 12 3 13
ROOT
ATOM      1  C   UNL     1      11.461  -6.160  -0.695  1.00  0.00     0.079 C 
ATOM      2  C   UNL     1      11.314  -7.690  -0.702  1.00  0.00     0.029 C 
ENDROOT
BRANCH   1   3
ATOM      3  C   UNL     1      11.877  -5.631   0.640  1.00  0.00    -0.011 A 
ATOM      4  C   UNL     1      13.029  -4.862   0.804  1.00  0.00     0.064 A 
ATOM      5  C   UNL     1      13.380  -4.390   2.070  1.00  0.00     0.060 A 
ATOM      6  C   UNL     1      11.075  -5.930   1.742  1.00  0.00     0.007 A 
ATOM      7  C   UNL     1      12.578  -4.689   3.172  1.00  0.00     0.022 A 
ATOM      8  C   UNL     1      11.426  -5.458   3.007  1.00  0.00     0.002 A 
ATOM      9  Cl  UNL     1      14.011  -4.505  -0.581  1.00  0.00    -0.082 Cl
ATOM     10  Cl  UNL     1      14.792  -3.431   2.344  1.00  0.00    -0.083 Cl
ENDBRANCH   1   3
BRANCH   1  11
ATOM     11  N   UNL     1      10.201  -5.556  -1.163  1.00  0.00    -0.324 NA
ATOM     12  H   UNL     1      10.224  -4.550  -1.003  1.00  0.00     0.119 HD
ATOM     13  H   UNL     1       9.427  -5.916  -0.607  1.00  0.00     0.119 HD
ENDBRANCH   1  11
TORSDOF 2
ENDMDL
MODEL 8
REMARK VINA RESULT:    -4.076     13.603     14.734
REMARK INTER + INTRA:          -4.590
REMARK INTER:                  -4.436
REMARK INTRA:                  -0.154
REMARK UNBOUND:                -0.157
REMARK SMILES C[C@@H](N)c1cccc(Cl)c1Cl
REMARK SMILES IDX 2 1 1 2 4 3 10 4 8 5 5 6 7 7 6 8 11 9 9 10 3 11
REMARK H PARENT 3 12 3 13
ROOT
ATOM      1  C   UNL     1       9.112  -8.641  -6.986  1.00  0.00     0.079 C 
ATOM      2  C   UNL     1       9.989  -9.881  -6.747  1.00  0.00     0.029 C 
ENDROOT
BRANCH   1   3
ATOM      3  C   UNL     1       8.499  -8.629  -8.350  1.00  0.00    -0.011 A 
ATOM      4  C   UNL     1       7.187  -9.047  -8.573  1.00  0.00     0.064 A 
ATOM      5  C   UNL     1       6.656  -9.020  -9.864  1.00  0.00     0.060 A 
ATOM      6  C   UNL     1       9.280  -8.183  -9.416  1.00  0.00     0.007 A 
ATOM      7  C   UNL     1       7.437  -8.573 -10.930  1.00  0.00     0.022 A 
ATOM      8  C   UNL     1       8.749  -8.155 -10.705  1.00  0.00     0.002 A 
ATOM      9  Cl  UNL     1       6.236  -9.599  -7.231  1.00  0.00    -0.082 Cl
ATOM     10  Cl  UNL     1       5.039  -9.523 -10.212  1.00  0.00    -0.083 Cl
ENDBRANCH   1   3
BRANCH   1  11
ATOM     11  N   UNL     1       9.912  -7.431  -6.726  1.00  0.00    -0.324 NA
ATOM     12  H   UNL     1       9.329  -6.725  -6.278  1.00  0.00     0.119 HD
ATOM     13  H   UNL     1      10.216  -7.030  -7.612  1.00  0.00     0.119 HD
ENDBRANCH   1  11
TORSDOF 2
ENDMDL
MODEL 9
REMARK VINA RESULT:    -3.969     14.313     15.308
REMARK INTER + INTRA:          -4.474
REMARK INTER:                  -4.328
REMARK INTRA:                  -0.146
REMARK UNBOUND:                -0.157
REMARK SMILES C[C@@H](N)c1cccc(Cl)c1Cl
REMARK SMILES IDX 2 1 1 2 4 3 10 4 8 5 5 6 7 7 6 8 11 9 9 10 3 11
REMARK H PARENT 3 12 3 13
ROOT
ATOM      1  C   UNL     1       5.479 -10.290  -9.483  1.00  0.00     0.079 C 
ATOM      2  C   UNL     1       4.457 -10.123 -10.620  1.00  0.00     0.029 C 
ENDROOT
BRANCH   1   3
ATOM      3  C   UNL     1       6.705  -9.460  -9.691  1.00  0.00    -0.011 A 
ATOM      4  C   UNL     1       7.473  -8.997  -8.623  1.00  0.00     0.064 A 
ATOM      5  C   UNL     1       8.610  -8.225  -8.864  1.00  0.00     0.060 A 
ATOM      6  C   UNL     1       7.073  -9.151 -11.001  1.00  0.00     0.007 A 
ATOM      7  C   UNL     1       8.978  -7.916 -10.173  1.00  0.00     0.022 A 
ATOM      8  C   UNL     1       8.209  -8.379 -11.241  1.00  0.00     0.002 A 
ATOM      9  Cl  UNL     1       6.994  -9.394  -7.003  1.00  0.00    -0.082 Cl
ATOM     10  Cl  UNL     1       9.608  -7.619  -7.588  1.00  0.00    -0.083 Cl
ENDBRANCH   1   3
BRANCH   1  11
ATOM     11  N   UNL     1       5.795 -11.721  -9.331  1.00  0.00    -0.324 NA
ATOM     12  H   UNL     1       4.944 -12.237  -9.108  1.00  0.00     0.119 HD
ATOM     13  H   UNL     1       6.420 -11.846  -8.536  1.00  0.00     0.119 HD
ENDBRANCH   1  11
TORSDOF 2
ENDMDL
