MODEL 1
REMARK VINA RESULT:    -4.538      0.000      0.000
REMARK INTER + INTRA:          -5.093
REMARK INTER:                  -4.936
REMARK INTRA:                  -0.157
REMARK UNBOUND:                -0.157
REMARK SMILES C[C@@H](N)c1cccc(Cl)c1Cl
REMARK SMILES IDX 2 1 1 2 4 3 10 4 8 5 5 6 7 7 6 8 11 9 9 10 3 11
REMARK H PARENT 3 12 3 13
ROOT
ATOM      1  C   UNL     1       8.448  -6.696   4.664  1.00  0.00     0.079 C 
ATOM      2  C   UNL     1       7.946  -7.487   5.883  1.00  0.00     0.029 C 
ENDROOT
BRANCH   1   3
ATOM      3  C   UNL     1       8.906  -5.319   5.026  1.00  0.00    -0.011 A 
ATOM      4  C   UNL     1       9.968  -4.698   4.368  1.00  0.00     0.064 A 
ATOM      5  C   UNL     1      10.362  -3.411   4.740  1.00  0.00     0.060 A 
ATOM      6  C   UNL     1       8.239  -4.656   6.055  1.00  0.00     0.007 A 
ATOM      7  C   UNL     1       9.694  -2.748   5.770  1.00  0.00     0.022 A 
ATOM      8  C   UNL     1       8.633  -3.371   6.427  1.00  0.00     0.002 A 
ATOM      9  Cl  UNL     1      10.783  -5.544   3.092  1.00  0.00    -0.082 Cl
ATOM     10  Cl  UNL     1      11.668  -2.582   3.968  1.00  0.00    -0.083 Cl
ENDBRANCH   1   3
BRANCH   1  11
ATOM     11  N   UNL     1       7.391  -6.677   3.637  1.00  0.00    -0.324 NA
ATOM     12  H   UNL     1       6.605  -6.118   3.966  1.00  0.00     0.119 HD
ATOM     13  H   UNL     1       7.032  -7.622   3.504  1.00  0.00     0.119 HD
ENDBRANCH   1  11
TORSDOF 2
ENDMDL
MODEL 2
REMARK VINA RESULT:    -4.254      1.460      1.918
REMARK INTER + INTRA:          -4.784
REMARK INTER:                  -4.632
REMARK INTRA:                  -0.153
REMARK UNBOUND:                -0.157
REMARK SMILES C[C@@H](N)c1cccc(Cl)c1Cl
REMARK SMILES IDX 2 1 1 2 4 3 10 4 8 5 5 6 7 7 6 8 11 9 9 10 3 11
REMARK H PARENT 3 12 3 13
ROOT
ATOM      1  C   UNL     1       9.021  -5.557   3.856  1.00  0.00     0.079 C 
ATOM      2  C   UNL     1       8.884  -6.447   5.103  1.00  0.00     0.029 C 
ENDROOT
BRANCH   1   3
ATOM      3  C   UNL     1       9.976  -4.426   4.063  1.00  0.00    -0.011 A 
ATOM      4  C   UNL     1      11.237  -4.405   3.467  1.00  0.00     0.064 A 
ATOM      5  C   UNL     1      12.096  -3.327   3.690  1.00  0.00     0.060 A 
ATOM      6  C   UNL     1       9.573  -3.370   4.882  1.00  0.00     0.007 A 
ATOM      7  C   UNL     1      11.693  -2.272   4.508  1.00  0.00     0.022 A 
ATOM      8  C   UNL     1      10.432  -2.294   5.104  1.00  0.00     0.002 A 
ATOM      9  Cl  UNL     1      11.714  -5.729   2.454  1.00  0.00    -0.082 Cl
ATOM     10  Cl  UNL     1      13.671  -3.235   2.982  1.00  0.00    -0.083 Cl
ENDBRANCH   1   3
BRANCH   1  11
ATOM     11  N   UNL     1       7.683  -5.089   3.453  1.00  0.00    -0.324 NA
ATOM     12  H   UNL     1       7.710  -4.772   2.484  1.00  0.00     0.119 HD
ATOM     13  H   UNL     1       7.427  -4.277   4.012  1.00  0.00     0.119 HD
ENDBRANCH   1  11
TORSDOF 2
ENDMDL
MODEL 3
REMARK VINA RESULT:    -4.143     13.758     14.833
REMARK INTER + INTRA:          -4.663
REMARK INTER:                  -4.515
REMARK INTRA:                  -0.148
REMARK UNBOUND:                -0.157
REMARK SMILES C[C@@H](N)c1cccc(Cl)c1Cl
REMARK SMILES IDX 2 1 1 2 4 3 10 4 8 5 5 6 7 7 6 8 11 9 9 10 3 11
REMARK H PARENT 3 12 3 13
ROOT
ATOM      1  C   UNL     1       5.817  -9.465 -10.576  1.00  0.00     0.079 C 
ATOM      2  C   UNL     1       6.272 -10.654 -11.438  1.00  0.00     0.029 C 
ENDROOT
BRANCH   1   3
ATOM      3  C   UNL     1       6.505  -9.425  -9.249  1.00  0.00    -0.011 A 
ATOM      4  C   UNL     1       7.709  -8.745  -9.062  1.00  0.00     0.064 A 
ATOM      5  C   UNL     1       8.316  -8.735  -7.805  1.00  0.00     0.060 A 
ATOM      6  C   UNL     1       5.908 -10.094  -8.181  1.00  0.00     0.007 A 
ATOM      7  C   UNL     1       7.719  -9.405  -6.737  1.00  0.00     0.022 A 
ATOM      8  C   UNL     1       6.515 -10.084  -6.925  1.00  0.00     0.002 A 
ATOM      9  Cl  UNL     1       8.432  -7.921 -10.406  1.00  0.00    -0.082 Cl
ATOM     10  Cl  UNL     1       9.807  -7.913  -7.502  1.00  0.00    -0.083 Cl
ENDBRANCH   1   3
BRANCH   1  11
ATOM     11  N   UNL     1       4.350  -9.506 -10.440  1.00  0.00    -0.324 NA
ATOM     12  H   UNL     1       3.920  -9.083 -11.262  1.00  0.00     0.119 HD
ATOM     13  H   UNL     1       4.068  -8.935  -9.645  1.00  0.00     0.119 HD
ENDBRANCH   1  11
TORSDOF 2
ENDMDL
MODEL 4
REMARK VINA RESULT:    -4.089     13.602     14.757
REMARK INTER + INTRA:          -4.605
REMARK INTER:                  -4.451
REMARK INTRA:                  -0.154
REMARK UNBOUND:                -0.157
REMARK SMILES C[C@@H](N)c1cccc(Cl)c1Cl
REMARK SMILES IDX 2 1 1 2 4 3 10 4 8 5 5 6 7 7 6 8 11 9 9 10 3 11
REMARK H PARENT 3 12 3 13
ROOT
ATOM      1  C   UNL     1       9.117  -8.646  -6.997  1.00  0.00     0.079 C 
ATOM      2  C   UNL     1       9.967  -9.901  -6.741  1.00  0.00     0.029 C 
ENDROOT
BRANCH   1   3
ATOM      3  C   UNL     1       8.528  -8.625  -8.371  1.00  0.00    -0.011 A 
ATOM      4  C   UNL     1       7.207  -9.001  -8.614  1.00  0.00     0.064 A 
ATOM      5  C   UNL     1       6.700  -8.967  -9.914  1.00  0.00     0.060 A 
ATOM      6  C   UNL     1       9.342  -8.214  -9.426  1.00  0.00     0.007 A 
ATOM      7  C   UNL     1       7.514  -8.556 -10.970  1.00  0.00     0.022 A 
ATOM      8  C   UNL     1       8.835  -8.180 -10.725  1.00  0.00     0.002 A 
ATOM      9  Cl  UNL     1       6.215  -9.509  -7.285  1.00  0.00    -0.082 Cl
ATOM     10  Cl  UNL     1       5.073  -9.419 -10.287  1.00  0.00    -0.083 Cl
ENDBRANCH   1   3
BRANCH   1  11
ATOM     11  N   UNL     1       9.934  -7.451  -6.724  1.00  0.00    -0.324 NA
ATOM     12  H   UNL     1      10.194  -7.432  -5.738  1.00  0.00     0.119 HD
ATOM     13  H   UNL     1       9.375  -6.614  -6.887  1.00  0.00     0.119 HD
ENDBRANCH   1  11
TORSDOF 2
ENDMDL
MODEL 5
REMARK VINA RESULT:    -3.979     13.833     15.042
REMARK INTER + INTRA:          -4.484
REMARK INTER:                  -4.327
REMARK INTRA:                  -0.157
REMARK UNBOUND:                -0.157
REMARK SMILES C[C@@H](N)c1cccc(Cl)c1Cl
REMARK SMILES IDX 2 1 1 2 4 3 10 4 8 5 5 6 7 7 6 8 11 9 9 10 3 11
REMARK H PARENT 3 12 3 13
ROOT
ATOM      1  C   UNL     1      10.469  -7.518  -9.345  1.00  0.00     0.079 C 
ATOM      2  C   UNL     1      11.322  -7.851 -10.581  1.00  0.00     0.029 C 
ENDROOT
BRANCH   1   3
ATOM      3  C   UNL     1       9.093  -8.097  -9.428  1.00  0.00    -0.011 A 
ATOM      4  C   UNL     1       8.436  -8.605  -8.307  1.00  0.00     0.064 A 
ATOM      5  C   UNL     1       7.152  -9.136  -8.432  1.00  0.00     0.060 A 
ATOM      6  C   UNL     1       8.466  -8.121 -10.674  1.00  0.00     0.007 A 
ATOM      7  C   UNL     1       6.525  -9.160  -9.678  1.00  0.00     0.022 A 
ATOM      8  C   UNL     1       7.183  -8.653 -10.798  1.00  0.00     0.002 A 
ATOM      9  Cl  UNL     1       9.237  -8.564  -6.769  1.00  0.00    -0.082 Cl
ATOM     10  Cl  UNL     1       6.280  -9.781  -7.085  1.00  0.00    -0.083 Cl
ENDBRANCH   1   3
BRANCH   1  11
ATOM     11  N   UNL     1      10.447  -6.057  -9.159  1.00  0.00    -0.324 NA
ATOM     12  H   UNL     1      10.547  -5.838  -8.168  1.00  0.00     0.119 HD
ATOM     13  H   UNL     1       9.538  -5.694  -9.441  1.00  0.00     0.119 HD
ENDBRANCH   1  11
TORSDOF 2
ENDMDL
MODEL 6
REMARK VINA RESULT:    -3.977      4.859      6.308
REMARK INTER + INTRA:          -4.482
REMARK INTER:                  -4.330
REMARK INTRA:                  -0.152
REMARK UNBOUND:                -0.157
REMARK SMILES C[C@@H](N)c1cccc(Cl)c1Cl
REMARK SMILES IDX 2 1 1 2 4 3 10 4 8 5 5 6 7 7 6 8 11 9 9 10 3 11
REMARK H PARENT 3 12 3 13
ROOT
ATOM      1  C   UNL     1      13.245  -3.817   3.502  1.00  0.00     0.079 C 
ATOM      2  C   UNL     1      14.431  -4.421   4.273  1.00  0.00     0.029 C 
ENDROOT
BRANCH   1   3
ATOM      3  C   UNL     1      13.212  -4.251   2.072  1.00  0.00    -0.011 A 
ATOM      4  C   UNL     1      12.158  -5.003   1.552  1.00  0.00     0.064 A 
ATOM      5  C   UNL     1      12.170  -5.386   0.210  1.00  0.00     0.060 A 
ATOM      6  C   UNL     1      14.278  -3.883   1.251  1.00  0.00     0.007 A 
ATOM      7  C   UNL     1      13.236  -5.018  -0.611  1.00  0.00     0.022 A 
ATOM      8  C   UNL     1      14.290  -4.266  -0.090  1.00  0.00     0.002 A 
ATOM      9  Cl  UNL     1      10.845  -5.449   2.593  1.00  0.00    -0.082 Cl
ATOM     10  Cl  UNL     1      10.898  -6.317  -0.500  1.00  0.00    -0.083 Cl
ENDBRANCH   1   3
BRANCH   1  11
ATOM     11  N   UNL     1      13.284  -2.350   3.637  1.00  0.00    -0.324 NA
ATOM     12  H   UNL     1      14.216  -2.059   3.932  1.00  0.00     0.119 HD
ATOM     13  H   UNL     1      12.647  -2.062   4.379  1.00  0.00     0.119 HD
ENDBRANCH   1  11
TORSDOF 2
ENDMDL
MODEL 7
REMARK VINA RESULT:    -3.942     14.272     15.295
REMARK INTER + INTRA:          -4.445
REMARK INTER:                  -4.296
REMARK INTRA:                  -0.149
REMARK UNBOUND:                -0.157
REMARK SMILES C[C@@H](N)c1cccc(Cl)c1Cl
REMARK SMILES IDX 2 1 1 2 4 3 10 4 8 5 5 6 7 7 6 8 11 9 9 10 3 11
REMARK H PARENT 3 12 3 13
ROOT
ATOM      1  C   UNL     1       5.464 -10.339  -9.476  1.00  0.00     0.079 C 
ATOM      2  C   UNL     1       4.429 -10.141 -10.596  1.00  0.00     0.029 C 
ENDROOT
BRANCH   1   3
ATOM      3  C   UNL     1       6.681  -9.492  -9.667  1.00  0.00    -0.011 A 
ATOM      4  C   UNL     1       7.445  -9.044  -8.589  1.00  0.00     0.064 A 
ATOM      5  C   UNL     1       8.574  -8.254  -8.814  1.00  0.00     0.060 A 
ATOM      6  C   UNL     1       7.045  -9.151 -10.969  1.00  0.00     0.007 A 
ATOM      7  C   UNL     1       8.938  -7.913 -10.117  1.00  0.00     0.022 A 
ATOM      8  C   UNL     1       8.172  -8.362 -11.194  1.00  0.00     0.002 A 
ATOM      9  Cl  UNL     1       6.972  -9.481  -6.978  1.00  0.00    -0.082 Cl
ATOM     10  Cl  UNL     1       9.566  -7.666  -7.526  1.00  0.00    -0.083 Cl
ENDBRANCH   1   3
BRANCH   1  11
ATOM     11  N   UNL     1       5.793 -11.771  -9.377  1.00  0.00    -0.324 NA
ATOM     12  H   UNL     1       6.746 -11.880  -9.032  1.00  0.00     0.119 HD
ATOM     13  H   UNL     1       5.777 -12.187 -10.307  1.00  0.00     0.119 HD
ENDBRANCH   1  11
TORSDOF 2
ENDMDL
MODEL 8
REMARK VINA RESULT:    -3.885      3.210      4.200
REMARK INTER + INTRA:          -4.382
REMARK INTER:                  -4.302
REMARK INTRA:                  -0.080
REMARK UNBOUND:                -0.157
REMARK SMILES C[C@@H](N)c1cccc(Cl)c1Cl
REMARK SMILES IDX 2 1 1 2 4 3 10 4 8 5 5 6 7 7 6 8 11 9 9 10 3 11
REMARK H PARENT 3 12 3 13
ROOT
ATOM      1  C   UNL     1      12.547  -3.276   4.161  1.00  0.00     0.079 C 
ATOM      2  C   UNL     1      12.441  -4.151   2.901  1.00  0.00     0.029 C 
ENDROOT
BRANCH   1   3
ATOM      3  C   UNL     1      11.267  -3.226   4.931  1.00  0.00    -0.011 A 
ATOM      4  C   UNL     1      10.868  -4.266   5.770  1.00  0.00     0.064 A 
ATOM      5  C   UNL     1       9.663  -4.176   6.469  1.00  0.00     0.060 A 
ATOM      6  C   UNL     1      10.462  -2.095   4.790  1.00  0.00     0.007 A 
ATOM      7  C   UNL     1       8.858  -3.045   6.329  1.00  0.00     0.022 A 
ATOM      8  C   UNL     1       9.259  -2.005   5.489  1.00  0.00     0.002 A 
ATOM      9  Cl  UNL     1      11.885  -5.662   5.927  1.00  0.00    -0.082 Cl
ATOM     10  Cl  UNL     1       9.108  -5.427   7.526  1.00  0.00    -0.083 Cl
ENDBRANCH   1   3
BRANCH   1  11
ATOM     11  N   UNL     1      13.016  -1.935   3.773  1.00  0.00    -0.324 NA
ATOM     12  H   UNL     1      13.206  -1.384   4.610  1.00  0.00     0.119 HD
ATOM     13  H   UNL     1      12.273  -1.448   3.273  1.00  0.00     0.119 HD
ENDBRANCH   1  11
TORSDOF 2
ENDMDL
MODEL 9
REMARK VINA RESULT:    -3.872     13.716     14.678
REMARK INTER + INTRA:          -4.368
REMARK INTER:                  -4.216
REMARK INTRA:                  -0.153
REMARK UNBOUND:                -0.157
REMARK SMILES C[C@@H](N)c1cccc(Cl)c1Cl
REMARK SMILES IDX 2 1 1 2 4 3 10 4 8 5 5 6 7 7 6 8 11 9 9 10 3 11
REMARK H PARENT 3 12 3 13
ROOT
ATOM      1  C   UNL     1      10.067  -8.030  -8.872  1.00  0.00     0.079 C 
ATOM      2  C   UNL     1      10.285  -6.600  -8.352  1.00  0.00     0.029 C 
ENDROOT
BRANCH   1   3
ATOM      3  C   UNL     1       8.708  -8.558  -8.539  1.00  0.00    -0.011 A 
ATOM      4  C   UNL     1       7.704  -8.672  -9.501  1.00  0.00     0.064 A 
ATOM      5  C   UNL     1       6.450  -9.170  -9.144  1.00  0.00     0.060 A 
ATOM      6  C   UNL     1       8.459  -8.942  -7.221  1.00  0.00     0.007 A 
ATOM      7  C   UNL     1       6.201  -9.554  -7.826  1.00  0.00     0.022 A 
ATOM      8  C   UNL     1       7.206  -9.440  -6.866  1.00  0.00     0.002 A 
ATOM      9  Cl  UNL     1       8.038  -8.187 -11.133  1.00  0.00    -0.082 Cl
ATOM     10  Cl  UNL     1       5.160  -9.339 -10.284  1.00  0.00    -0.083 Cl
ENDBRANCH   1   3
BRANCH   1  11
ATOM     11  N   UNL     1      11.141  -8.896  -8.356  1.00  0.00    -0.324 NA
ATOM     12  H   UNL     1      11.692  -9.257  -9.134  1.00  0.00     0.119 HD
ATOM     13  H   UNL     1      10.731  -9.707  -7.896  1.00  0.00     0.119 HD
ENDBRANCH   1  11
TORSDOF 2
ENDMDL
