MODEL 1
REMARK VINA RESULT:    -4.530      0.000      0.000
REMARK INTER + INTRA:          -5.084
REMARK INTER:                  -4.927
REMARK INTRA:                  -0.157
REMARK UNBOUND:                -0.157
REMARK SMILES C[C@@H](N)c1cccc(Cl)c1Cl
REMARK SMILES IDX 2 1 1 2 4 3 10 4 8 5 5 6 7 7 6 8 11 9 9 10 3 11
REMARK H PARENT 3 12 3 13
ROOT
ATOM      1  C   UNL     1       8.463  -6.689   4.670  1.00  0.00     0.079 C 
ATOM      2  C   UNL     1       7.976  -7.480   5.896  1.00  0.00     0.029 C 
ENDROOT
BRANCH   1   3
ATOM      3  C   UNL     1       8.933  -5.315   5.027  1.00  0.00    -0.011 A 
ATOM      4  C   UNL     1       9.997  -4.703   4.364  1.00  0.00     0.064 A 
ATOM      5  C   UNL     1      10.402  -3.419   4.731  1.00  0.00     0.060 A 
ATOM      6  C   UNL     1       8.274  -4.644   6.057  1.00  0.00     0.007 A 
ATOM      7  C   UNL     1       9.743  -2.747   5.761  1.00  0.00     0.022 A 
ATOM      8  C   UNL     1       8.679  -3.361   6.423  1.00  0.00     0.002 A 
ATOM      9  Cl  UNL     1      10.801  -5.559   3.087  1.00  0.00    -0.082 Cl
ATOM     10  Cl  UNL     1      11.711  -2.601   3.952  1.00  0.00    -0.083 Cl
ENDBRANCH   1   3
BRANCH   1  11
ATOM     11  N   UNL     1       7.390  -6.665   3.660  1.00  0.00    -0.324 NA
ATOM     12  H   UNL     1       6.509  -6.406   4.103  1.00  0.00     0.119 HD
ATOM     13  H   UNL     1       7.257  -7.603   3.286  1.00  0.00     0.119 HD
ENDBRANCH   1  11
TORSDOF 2
ENDMDL
MODEL 2
REMARK VINA RESULT:    -4.250      1.405      1.837
REMARK INTER + INTRA:          -4.779
REMARK INTER:                  -4.628
REMARK INTRA:                  -0.152
REMARK UNBOUND:                -0.157
REMARK SMILES C[C@@H](N)c1cccc(Cl)c1Cl
REMARK SMILES IDX 2 1 1 2 4 3 10 4 8 5 5 6 7 7 6 8 11 9 9 10 3 11
REMARK H PARENT 3 12 3 13
ROOT
ATOM      1  C   UNL     1       9.004  -5.514   3.866  1.00  0.00     0.079 C 
ATOM      2  C   UNL     1       8.842  -6.409   5.105  1.00  0.00     0.029 C 
ENDROOT
BRANCH   1   3
ATOM      3  C   UNL     1       9.938  -4.371   4.104  1.00  0.00    -0.011 A 
ATOM      4  C   UNL     1      11.184  -4.293   3.483  1.00  0.00     0.064 A 
ATOM      5  C   UNL     1      12.024  -3.207   3.736  1.00  0.00     0.060 A 
ATOM      6  C   UNL     1       9.530  -3.363   4.979  1.00  0.00     0.007 A 
ATOM      7  C   UNL     1      11.616  -2.200   4.611  1.00  0.00     0.022 A 
ATOM      8  C   UNL     1      10.369  -2.279   5.232  1.00  0.00     0.002 A 
ATOM      9  Cl  UNL     1      11.669  -5.559   2.400  1.00  0.00    -0.082 Cl
ATOM     10  Cl  UNL     1      13.580  -3.046   3.000  1.00  0.00    -0.083 Cl
ENDBRANCH   1   3
BRANCH   1  11
ATOM     11  N   UNL     1       7.673  -5.062   3.425  1.00  0.00    -0.324 NA
ATOM     12  H   UNL     1       7.006  -5.828   3.510  1.00  0.00     0.119 HD
ATOM     13  H   UNL     1       7.708  -4.823   2.434  1.00  0.00     0.119 HD
ENDBRANCH   1  11
TORSDOF 2
ENDMDL
MODEL 3
REMARK VINA RESULT:    -4.161      2.389      3.937
REMARK INTER + INTRA:          -4.683
REMARK INTER:                  -4.555
REMARK INTRA:                  -0.128
REMARK UNBOUND:                -0.157
REMARK SMILES C[C@@H](N)c1cccc(Cl)c1Cl
REMARK SMILES IDX 2 1 1 2 4 3 10 4 8 5 5 6 7 7 6 8 11 9 9 10 3 11
REMARK H PARENT 3 12 3 13
ROOT
ATOM      1  C   UNL     1       9.399  -3.405   4.557  1.00  0.00     0.079 C 
ATOM      2  C   UNL     1       9.359  -2.011   5.205  1.00  0.00     0.029 C 
ENDROOT
BRANCH   1   3
ATOM      3  C   UNL     1       8.984  -4.487   5.503  1.00  0.00    -0.011 A 
ATOM      4  C   UNL     1       8.474  -5.705   5.054  1.00  0.00     0.064 A 
ATOM      5  C   UNL     1       8.100  -6.686   5.974  1.00  0.00     0.060 A 
ATOM      6  C   UNL     1       9.120  -4.249   6.871  1.00  0.00     0.007 A 
ATOM      7  C   UNL     1       8.235  -6.448   7.342  1.00  0.00     0.022 A 
ATOM      8  C   UNL     1       8.745  -5.229   7.789  1.00  0.00     0.002 A 
ATOM      9  Cl  UNL     1       8.314  -5.977   3.348  1.00  0.00    -0.082 Cl
ATOM     10  Cl  UNL     1       7.461  -8.218   5.487  1.00  0.00    -0.083 Cl
ENDBRANCH   1   3
BRANCH   1  11
ATOM     11  N   UNL     1      10.744  -3.637   4.003  1.00  0.00    -0.324 NA
ATOM     12  H   UNL     1      11.289  -2.777   4.058  1.00  0.00     0.119 HD
ATOM     13  H   UNL     1      10.667  -3.863   3.012  1.00  0.00     0.119 HD
ENDBRANCH   1  11
TORSDOF 2
ENDMDL
MODEL 4
REMARK VINA RESULT:    -4.151     13.743     14.819
REMARK INTER + INTRA:          -4.672
REMARK INTER:                  -4.525
REMARK INTRA:                  -0.147
REMARK UNBOUND:                -0.157
REMARK SMILES C[C@@H](N)c1cccc(Cl)c1Cl
REMARK SMILES IDX 2 1 1 2 4 3 10 4 8 5 5 6 7 7 6 8 11 9 9 10 3 11
REMARK H PARENT 3 12 3 13
ROOT
ATOM      1  C   UNL     1       5.818  -9.466 -10.564  1.00  0.00     0.079 C 
ATOM      2  C   UNL     1       6.290 -10.647 -11.428  1.00  0.00     0.029 C 
ENDROOT
BRANCH   1   3
ATOM      3  C   UNL     1       6.487  -9.433  -9.227  1.00  0.00    -0.011 A 
ATOM      4  C   UNL     1       7.689  -8.758  -9.019  1.00  0.00     0.064 A 
ATOM      5  C   UNL     1       8.278  -8.755  -7.753  1.00  0.00     0.060 A 
ATOM      6  C   UNL     1       5.872 -10.105  -8.170  1.00  0.00     0.007 A 
ATOM      7  C   UNL     1       7.663  -9.427  -6.696  1.00  0.00     0.022 A 
ATOM      8  C   UNL     1       6.460 -10.102  -6.906  1.00  0.00     0.002 A 
ATOM      9  Cl  UNL     1       8.435  -7.930 -10.348  1.00  0.00    -0.082 Cl
ATOM     10  Cl  UNL     1       9.766  -7.938  -7.424  1.00  0.00    -0.083 Cl
ENDBRANCH   1   3
BRANCH   1  11
ATOM     11  N   UNL     1       4.350  -9.512 -10.450  1.00  0.00    -0.324 NA
ATOM     12  H   UNL     1       4.074 -10.343  -9.928  1.00  0.00     0.119 HD
ATOM     13  H   UNL     1       3.942  -9.610 -11.379  1.00  0.00     0.119 HD
ENDBRANCH   1  11
TORSDOF 2
ENDMDL
MODEL 5
REMARK VINA RESULT:    -4.096     13.581     14.732
REMARK INTER + INTRA:          -4.612
REMARK INTER:                  -4.458
REMARK INTRA:                  -0.154
REMARK UNBOUND:                -0.157
REMARK SMILES C[C@@H](N)c1cccc(Cl)c1Cl
REMARK SMILES IDX 2 1 1 2 4 3 10 4 8 5 5 6 7 7 6 8 11 9 9 10 3 11
REMARK H PARENT 3 12 3 13
ROOT
ATOM      1  C   UNL     1       9.121  -8.643  -6.974  1.00  0.00     0.079 C 
ATOM      2  C   UNL     1       9.966  -9.903  -6.722  1.00  0.00     0.029 C 
ENDROOT
BRANCH   1   3
ATOM      3  C   UNL     1       8.523  -8.621  -8.344  1.00  0.00    -0.011 A 
ATOM      4  C   UNL     1       7.200  -8.994  -8.579  1.00  0.00     0.064 A 
ATOM      5  C   UNL     1       6.684  -8.958  -9.876  1.00  0.00     0.060 A 
ATOM      6  C   UNL     1       9.331  -8.211  -9.405  1.00  0.00     0.007 A 
ATOM      7  C   UNL     1       7.492  -8.548 -10.937  1.00  0.00     0.022 A 
ATOM      8  C   UNL     1       8.816  -8.175 -10.700  1.00  0.00     0.002 A 
ATOM      9  Cl  UNL     1       6.216  -9.501  -7.244  1.00  0.00    -0.082 Cl
ATOM     10  Cl  UNL     1       5.054  -9.407 -10.238  1.00  0.00    -0.083 Cl
ENDBRANCH   1   3
BRANCH   1  11
ATOM     11  N   UNL     1       9.947  -7.452  -6.708  1.00  0.00    -0.324 NA
ATOM     12  H   UNL     1      10.033  -7.314  -5.702  1.00  0.00     0.119 HD
ATOM     13  H   UNL     1       9.475  -6.625  -7.071  1.00  0.00     0.119 HD
ENDBRANCH   1  11
TORSDOF 2
ENDMDL
MODEL 6
REMARK VINA RESULT:    -3.979     13.837     15.044
REMARK INTER + INTRA:          -4.484
REMARK INTER:                  -4.327
REMARK INTRA:                  -0.157
REMARK UNBOUND:                -0.157
REMARK SMILES C[C@@H](N)c1cccc(Cl)c1Cl
REMARK SMILES IDX 2 1 1 2 4 3 10 4 8 5 5 6 7 7 6 8 11 9 9 10 3 11
REMARK H PARENT 3 12 3 13
ROOT
ATOM      1  C   UNL     1      10.469  -7.518  -9.345  1.00  0.00     0.079 C 
ATOM      2  C   UNL     1      11.322  -7.851 -10.581  1.00  0.00     0.029 C 
ENDROOT
BRANCH   1   3
ATOM      3  C   UNL     1       9.093  -8.097  -9.428  1.00  0.00    -0.011 A 
ATOM      4  C   UNL     1       8.436  -8.605  -8.307  1.00  0.00     0.064 A 
ATOM      5  C   UNL     1       7.152  -9.136  -8.432  1.00  0.00     0.060 A 
ATOM      6  C   UNL     1       8.466  -8.121 -10.674  1.00  0.00     0.007 A 
ATOM      7  C   UNL     1       6.525  -9.160  -9.678  1.00  0.00     0.022 A 
ATOM      8  C   UNL     1       7.183  -8.653 -10.798  1.00  0.00     0.002 A 
ATOM      9  Cl  UNL     1       9.237  -8.564  -6.769  1.00  0.00    -0.082 Cl
ATOM     10  Cl  UNL     1       6.280  -9.781  -7.085  1.00  0.00    -0.083 Cl
ENDBRANCH   1   3
BRANCH   1  11
ATOM     11  N   UNL     1      10.447  -6.057  -9.159  1.00  0.00    -0.324 NA
ATOM     12  H   UNL     1      10.547  -5.838  -8.168  1.00  0.00     0.119 HD
ATOM     13  H   UNL     1       9.538  -5.694  -9.441  1.00  0.00     0.119 HD
ENDBRANCH   1  11
TORSDOF 2
ENDMDL
MODEL 7
REMARK VINA RESULT:    -3.969     14.281     15.298
REMARK INTER + INTRA:          -4.475
REMARK INTER:                  -4.332
REMARK INTRA:                  -0.143
REMARK UNBOUND:                -0.157
REMARK SMILES C[C@@H](N)c1cccc(Cl)c1Cl
REMARK SMILES IDX 2 1 1 2 4 3 10 4 8 5 5 6 7 7 6 8 11 9 9 10 3 11
REMARK H PARENT 3 12 3 13
ROOT
ATOM      1  C   UNL     1       5.470 -10.295  -9.481  1.00  0.00     0.079 C 
ATOM      2  C   UNL     1       4.454 -10.122 -10.622  1.00  0.00     0.029 C 
ENDROOT
BRANCH   1   3
ATOM      3  C   UNL     1       6.695  -9.460  -9.676  1.00  0.00    -0.011 A 
ATOM      4  C   UNL     1       7.465  -9.016  -8.601  1.00  0.00     0.064 A 
ATOM      5  C   UNL     1       8.601  -8.238  -8.830  1.00  0.00     0.060 A 
ATOM      6  C   UNL     1       7.060  -9.126 -10.980  1.00  0.00     0.007 A 
ATOM      7  C   UNL     1       8.966  -7.904 -10.134  1.00  0.00     0.022 A 
ATOM      8  C   UNL     1       8.195  -8.349 -11.208  1.00  0.00     0.002 A 
ATOM      9  Cl  UNL     1       6.990  -9.443  -6.988  1.00  0.00    -0.082 Cl
ATOM     10  Cl  UNL     1       9.600  -7.655  -7.545  1.00  0.00    -0.083 Cl
ENDBRANCH   1   3
BRANCH   1  11
ATOM     11  N   UNL     1       5.790 -11.726  -9.339  1.00  0.00    -0.324 NA
ATOM     12  H   UNL     1       6.240 -12.062 -10.190  1.00  0.00     0.119 HD
ATOM     13  H   UNL     1       4.926 -12.258  -9.244  1.00  0.00     0.119 HD
ENDBRANCH   1  11
TORSDOF 2
ENDMDL
MODEL 8
REMARK VINA RESULT:    -3.968      4.741      6.199
REMARK INTER + INTRA:          -4.473
REMARK INTER:                  -4.320
REMARK INTRA:                  -0.153
REMARK UNBOUND:                -0.157
REMARK SMILES C[C@@H](N)c1cccc(Cl)c1Cl
REMARK SMILES IDX 2 1 1 2 4 3 10 4 8 5 5 6 7 7 6 8 11 9 9 10 3 11
REMARK H PARENT 3 12 3 13
ROOT
ATOM      1  C   UNL     1      13.068  -3.633   3.515  1.00  0.00     0.079 C 
ATOM      2  C   UNL     1      14.141  -4.298   4.393  1.00  0.00     0.029 C 
ENDROOT
BRANCH   1   3
ATOM      3  C   UNL     1      13.064  -4.163   2.117  1.00  0.00    -0.011 A 
ATOM      4  C   UNL     1      12.048  -4.995   1.646  1.00  0.00     0.064 A 
ATOM      5  C   UNL     1      12.086  -5.467   0.333  1.00  0.00     0.060 A 
ATOM      6  C   UNL     1      14.117  -3.803   1.276  1.00  0.00     0.007 A 
ATOM      7  C   UNL     1      13.139  -5.108  -0.508  1.00  0.00     0.022 A 
ATOM      8  C   UNL     1      14.154  -4.276  -0.035  1.00  0.00     0.002 A 
ATOM      9  Cl  UNL     1      10.749  -5.429   2.711  1.00  0.00    -0.082 Cl
ATOM     10  Cl  UNL     1      10.860  -6.500  -0.317  1.00  0.00    -0.083 Cl
ENDBRANCH   1   3
BRANCH   1  11
ATOM     11  N   UNL     1      13.256  -2.172   3.555  1.00  0.00    -0.324 NA
ATOM     12  H   UNL     1      12.622  -1.728   2.891  1.00  0.00     0.119 HD
ATOM     13  H   UNL     1      14.200  -1.944   3.245  1.00  0.00     0.119 HD
ENDBRANCH   1  11
TORSDOF 2
ENDMDL
MODEL 9
REMARK VINA RESULT:    -3.904     13.645     14.612
REMARK INTER + INTRA:          -4.403
REMARK INTER:                  -4.250
REMARK INTRA:                  -0.154
REMARK UNBOUND:                -0.157
REMARK SMILES C[C@@H](N)c1cccc(Cl)c1Cl
REMARK SMILES IDX 2 1 1 2 4 3 10 4 8 5 5 6 7 7 6 8 11 9 9 10 3 11
REMARK H PARENT 3 12 3 13
ROOT
ATOM      1  C   UNL     1      10.069  -8.000  -8.782  1.00  0.00     0.079 C 
ATOM      2  C   UNL     1      10.242  -6.538  -8.339  1.00  0.00     0.029 C 
ENDROOT
BRANCH   1   3
ATOM      3  C   UNL     1       8.711  -8.537  -8.463  1.00  0.00    -0.011 A 
ATOM      4  C   UNL     1       7.714  -8.648  -9.433  1.00  0.00     0.064 A 
ATOM      5  C   UNL     1       6.459  -9.154  -9.090  1.00  0.00     0.060 A 
ATOM      6  C   UNL     1       8.454  -8.932  -7.150  1.00  0.00     0.007 A 
ATOM      7  C   UNL     1       6.202  -9.549  -7.777  1.00  0.00     0.022 A 
ATOM      8  C   UNL     1       7.200  -9.438  -6.808  1.00  0.00     0.002 A 
ATOM      9  Cl  UNL     1       8.057  -8.149 -11.058  1.00  0.00    -0.082 Cl
ATOM     10  Cl  UNL     1       5.179  -9.319 -10.240  1.00  0.00    -0.083 Cl
ENDBRANCH   1   3
BRANCH   1  11
ATOM     11  N   UNL     1      11.142  -8.812  -8.182  1.00  0.00    -0.324 NA
ATOM     12  H   UNL     1      11.227  -9.694  -8.688  1.00  0.00     0.119 HD
ATOM     13  H   UNL     1      10.888  -9.056  -7.226  1.00  0.00     0.119 HD
ENDBRANCH   1  11
TORSDOF 2
ENDMDL
