MODEL 1
REMARK VINA RESULT:    -4.520      0.000      0.000
REMARK INTER + INTRA:          -5.018
REMARK INTER:                  -4.916
REMARK INTRA:                  -0.101
REMARK UNBOUND:                -0.101
REMARK SMILES C[C@H](N)c1cccc(Cl)c1Cl
REMARK SMILES IDX 1 1 2 2 3 3 4 6 5 7 10 8 6 9 8 10 7 11 11 12 9 13
REMARK H PARENT 3 4 3 5
ROOT
ATOM      1  C   UNL     1      10.787  -2.272   4.992  1.00  0.00     0.029 C 
ATOM      2  C   UNL     1       9.954  -3.333   4.271  1.00  0.00     0.079 C 
ENDROOT
BRANCH   2   3
ATOM      3  N   UNL     1       8.989  -2.727   3.358  1.00  0.00    -0.324 NA
ATOM      4  H   UNL     1       8.231  -3.379   3.170  1.00  0.00     0.119 HD
ATOM      5  H   UNL     1       8.572  -1.907   3.795  1.00  0.00     0.119 HD
ENDBRANCH   2   3
BRANCH   2   6
ATOM      6  C   UNL     1       9.302  -4.332   5.215  1.00  0.00    -0.011 A 
ATOM      7  C   UNL     1       9.240  -3.973   6.580  1.00  0.00     0.007 A 
ATOM      8  C   UNL     1       8.754  -5.577   4.828  1.00  0.00     0.064 A 
ATOM      9  C   UNL     1       8.658  -4.810   7.532  1.00  0.00     0.002 A 
ATOM     10  C   UNL     1       8.168  -6.416   5.797  1.00  0.00     0.060 A 
ATOM     11  C   UNL     1       8.121  -6.031   7.140  1.00  0.00     0.022 A 
ATOM     12  Cl  UNL     1       8.793  -6.104   3.174  1.00  0.00    -0.082 Cl
ATOM     13  Cl  UNL     1       7.473  -7.955   5.408  1.00  0.00    -0.083 Cl
ENDBRANCH   2   6
TORSDOF 2
ENDMDL
MODEL 2
REMARK VINA RESULT:    -4.449      5.278      6.908
REMARK INTER + INTRA:          -4.940
REMARK INTER:                  -4.808
REMARK INTRA:                  -0.133
REMARK UNBOUND:                -0.101
REMARK SMILES C[C@H](N)c1cccc(Cl)c1Cl
REMARK SMILES IDX 1 1 2 2 3 3 4 6 5 7 10 8 6 9 8 10 7 11 11 12 9 13
REMARK H PARENT 3 4 3 5
ROOT
ATOM      1  C   UNL     1      11.506  -7.673  -0.567  1.00  0.00     0.029 C 
ATOM      2  C   UNL     1      11.065  -6.283  -0.109  1.00  0.00     0.079 C 
ENDROOT
BRANCH   2   3
ATOM      3  N   UNL     1      10.304  -5.593  -1.147  1.00  0.00    -0.324 NA
ATOM      4  H   UNL     1       9.340  -5.469  -0.846  1.00  0.00     0.119 HD
ATOM      5  H   UNL     1      10.690  -4.662  -1.294  1.00  0.00     0.119 HD
ENDBRANCH   2   3
BRANCH   2   6
ATOM      6  C   UNL     1      12.209  -5.432   0.424  1.00  0.00    -0.011 A 
ATOM      7  C   UNL     1      13.160  -4.980  -0.519  1.00  0.00     0.007 A 
ATOM      8  C   UNL     1      12.385  -5.062   1.778  1.00  0.00     0.064 A 
ATOM      9  C   UNL     1      14.245  -4.189  -0.142  1.00  0.00     0.002 A 
ATOM     10  C   UNL     1      13.485  -4.263   2.149  1.00  0.00     0.060 A 
ATOM     11  C   UNL     1      14.407  -3.830   1.191  1.00  0.00     0.022 A 
ATOM     12  Cl  UNL     1      11.270  -5.580   3.005  1.00  0.00    -0.082 Cl
ATOM     13  Cl  UNL     1      13.772  -3.764   3.783  1.00  0.00    -0.083 Cl
ENDBRANCH   2   6
TORSDOF 2
ENDMDL
MODEL 3
REMARK VINA RESULT:    -4.368      2.008      2.671
REMARK INTER + INTRA:          -4.853
REMARK INTER:                  -4.737
REMARK INTRA:                  -0.116
REMARK UNBOUND:                -0.101
REMARK SMILES C[C@H](N)c1cccc(Cl)c1Cl
REMARK SMILES IDX 1 1 2 2 3 3 4 6 5 7 10 8 6 9 8 10 7 11 11 12 9 13
REMARK H PARENT 3 4 3 5
ROOT
ATOM      1  C   UNL     1      13.585  -3.775   4.076  1.00  0.00     0.029 C 
ATOM      2  C   UNL     1      12.403  -2.863   3.745  1.00  0.00     0.079 C 
ENDROOT
BRANCH   2   3
ATOM      3  N   UNL     1      12.655  -1.487   4.162  1.00  0.00    -0.324 NA
ATOM      4  H   UNL     1      12.943  -0.928   3.362  1.00  0.00     0.119 HD
ATOM      5  H   UNL     1      11.796  -1.074   4.519  1.00  0.00     0.119 HD
ENDBRANCH   2   3
BRANCH   2   6
ATOM      6  C   UNL     1      11.073  -3.386   4.267  1.00  0.00    -0.011 A 
ATOM      7  C   UNL     1      10.534  -2.738   5.402  1.00  0.00     0.007 A 
ATOM      8  C   UNL     1      10.343  -4.459   3.703  1.00  0.00     0.064 A 
ATOM      9  C   UNL     1       9.318  -3.131   5.961  1.00  0.00     0.002 A 
ATOM     10  C   UNL     1       9.115  -4.848   4.275  1.00  0.00     0.060 A 
ATOM     11  C   UNL     1       8.609  -4.185   5.397  1.00  0.00     0.022 A 
ATOM     12  Cl  UNL     1      10.934  -5.317   2.314  1.00  0.00    -0.082 Cl
ATOM     13  Cl  UNL     1       8.158  -6.148   3.646  1.00  0.00    -0.083 Cl
ENDBRANCH   2   6
TORSDOF 2
ENDMDL
MODEL 4
REMARK VINA RESULT:    -4.205     14.590     15.896
REMARK INTER + INTRA:          -4.675
REMARK INTER:                  -4.539
REMARK INTRA:                  -0.136
REMARK UNBOUND:                -0.101
REMARK SMILES C[C@H](N)c1cccc(Cl)c1Cl
REMARK SMILES IDX 1 1 2 2 3 3 4 6 5 7 10 8 6 9 8 10 7 11 11 12 9 13
REMARK H PARENT 3 4 3 5
ROOT
ATOM      1  C   UNL     1       5.610 -11.560  -9.968  1.00  0.00     0.029 C 
ATOM      2  C   UNL     1       5.450 -10.085  -9.595  1.00  0.00     0.079 C 
ENDROOT
BRANCH   2   3
ATOM      3  N   UNL     1       4.399  -9.445 -10.382  1.00  0.00    -0.324 NA
ATOM      4  H   UNL     1       4.700  -8.519 -10.675  1.00  0.00     0.119 HD
ATOM      5  H   UNL     1       4.229  -9.983 -11.229  1.00  0.00     0.119 HD
ENDBRANCH   2   3
BRANCH   2   6
ATOM      6  C   UNL     1       6.757  -9.307  -9.644  1.00  0.00    -0.011 A 
ATOM      7  C   UNL     1       7.230  -8.934 -10.922  1.00  0.00     0.007 A 
ATOM      8  C   UNL     1       7.520  -8.929  -8.514  1.00  0.00     0.064 A 
ATOM      9  C   UNL     1       8.414  -8.213 -11.083  1.00  0.00     0.002 A 
ATOM     10  C   UNL     1       8.714  -8.201  -8.687  1.00  0.00     0.060 A 
ATOM     11  C   UNL     1       9.155  -7.846  -9.965  1.00  0.00     0.022 A 
ATOM     12  Cl  UNL     1       7.018  -9.352  -6.906  1.00  0.00    -0.082 Cl
ATOM     13  Cl  UNL     1       9.706  -7.698  -7.358  1.00  0.00    -0.083 Cl
ENDBRANCH   2   6
TORSDOF 2
ENDMDL
MODEL 5
REMARK VINA RESULT:    -4.183     14.881     16.103
REMARK INTER + INTRA:          -4.651
REMARK INTER:                  -4.509
REMARK INTRA:                  -0.142
REMARK UNBOUND:                -0.101
REMARK SMILES C[C@H](N)c1cccc(Cl)c1Cl
REMARK SMILES IDX 1 1 2 2 3 3 4 6 5 7 10 8 6 9 8 10 7 11 11 12 9 13
REMARK H PARENT 3 4 3 5
ROOT
ATOM      1  C   UNL     1       5.255 -11.077 -11.884  1.00  0.00     0.029 C 
ATOM      2  C   UNL     1       5.032 -10.502 -10.485  1.00  0.00     0.079 C 
ENDROOT
BRANCH   2   3
ATOM      3  N   UNL     1       3.820  -9.688 -10.427  1.00  0.00    -0.324 NA
ATOM      4  H   UNL     1       3.899  -9.000  -9.682  1.00  0.00     0.119 HD
ATOM      5  H   UNL     1       3.713  -9.171 -11.297  1.00  0.00     0.119 HD
ENDBRANCH   2   3
BRANCH   2   6
ATOM      6  C   UNL     1       6.244  -9.764  -9.936  1.00  0.00    -0.011 A 
ATOM      7  C   UNL     1       6.994  -8.997 -10.856  1.00  0.00     0.007 A 
ATOM      8  C   UNL     1       6.667  -9.786  -8.587  1.00  0.00     0.064 A 
ATOM      9  C   UNL     1       8.120  -8.275 -10.461  1.00  0.00     0.002 A 
ATOM     10  C   UNL     1       7.807  -9.054  -8.197  1.00  0.00     0.060 A 
ATOM     11  C   UNL     1       8.525  -8.303  -9.132  1.00  0.00     0.022 A 
ATOM     12  Cl  UNL     1       5.811 -10.709  -7.390  1.00  0.00    -0.082 Cl
ATOM     13  Cl  UNL     1       8.390  -9.025  -6.566  1.00  0.00    -0.083 Cl
ENDBRANCH   2   6
TORSDOF 2
ENDMDL
MODEL 6
REMARK VINA RESULT:    -4.123      5.199      6.491
REMARK INTER + INTRA:          -4.586
REMARK INTER:                  -4.640
REMARK INTRA:                   0.054
REMARK UNBOUND:                -0.101
REMARK SMILES C[C@H](N)c1cccc(Cl)c1Cl
REMARK SMILES IDX 1 1 2 2 3 3 4 6 5 7 10 8 6 9 8 10 7 11 11 12 9 13
REMARK H PARENT 3 4 3 5
ROOT
ATOM      1  C   UNL     1      11.564  -7.712  -0.519  1.00  0.00     0.029 C 
ATOM      2  C   UNL     1      10.836  -6.473   0.005  1.00  0.00     0.079 C 
ENDROOT
BRANCH   2   3
ATOM      3  N   UNL     1      10.311  -5.659  -1.088  1.00  0.00    -0.324 NA
ATOM      4  H   UNL     1      10.627  -6.030  -1.981  1.00  0.00     0.119 HD
ATOM      5  H   UNL     1       9.294  -5.705  -1.092  1.00  0.00     0.119 HD
ENDBRANCH   2   3
BRANCH   2   6
ATOM      6  C   UNL     1      11.667  -5.654   0.981  1.00  0.00    -0.011 A 
ATOM      7  C   UNL     1      11.225  -5.620   2.323  1.00  0.00     0.007 A 
ATOM      8  C   UNL     1      12.840  -4.936   0.648  1.00  0.00     0.064 A 
ATOM      9  C   UNL     1      11.914  -4.906   3.303  1.00  0.00     0.002 A 
ATOM     10  C   UNL     1      13.529  -4.217   1.646  1.00  0.00     0.060 A 
ATOM     11  C   UNL     1      13.065  -4.206   2.965  1.00  0.00     0.022 A 
ATOM     12  Cl  UNL     1      13.451  -4.914  -0.977  1.00  0.00    -0.082 Cl
ATOM     13  Cl  UNL     1      14.972  -3.314   1.323  1.00  0.00    -0.083 Cl
ENDBRANCH   2   6
TORSDOF 2
ENDMDL
MODEL 7
REMARK VINA RESULT:    -4.092     13.726     14.469
REMARK INTER + INTRA:          -4.553
REMARK INTER:                  -4.412
REMARK INTRA:                  -0.141
REMARK UNBOUND:                -0.101
REMARK SMILES C[C@H](N)c1cccc(Cl)c1Cl
REMARK SMILES IDX 1 1 2 2 3 3 4 6 5 7 10 8 6 9 8 10 7 11 11 12 9 13
REMARK H PARENT 3 4 3 5
ROOT
ATOM      1  C   UNL     1      10.934  -8.973  -8.258  1.00  0.00     0.029 C 
ATOM      2  C   UNL     1       9.783  -7.993  -8.023  1.00  0.00     0.079 C 
ENDROOT
BRANCH   2   3
ATOM      3  N   UNL     1       9.984  -7.213  -6.806  1.00  0.00    -0.324 NA
ATOM      4  H   UNL     1      10.905  -6.779  -6.819  1.00  0.00     0.119 HD
ATOM      5  H   UNL     1       9.302  -6.458  -6.766  1.00  0.00     0.119 HD
ENDBRANCH   2   3
BRANCH   2   6
ATOM      6  C   UNL     1       8.413  -8.654  -8.061  1.00  0.00    -0.011 A 
ATOM      7  C   UNL     1       7.942  -9.215  -6.853  1.00  0.00     0.007 A 
ATOM      8  C   UNL     1       7.584  -8.740  -9.204  1.00  0.00     0.064 A 
ATOM      9  C   UNL     1       6.697  -9.839  -6.772  1.00  0.00     0.002 A 
ATOM     10  C   UNL     1       6.327  -9.373  -9.112  1.00  0.00     0.060 A 
ATOM     11  C   UNL     1       5.890  -9.917  -7.901  1.00  0.00     0.022 A 
ATOM     12  Cl  UNL     1       8.085  -8.085 -10.732  1.00  0.00    -0.082 Cl
ATOM     13  Cl  UNL     1       5.251  -9.520 -10.462  1.00  0.00    -0.083 Cl
ENDBRANCH   2   6
TORSDOF 2
ENDMDL
MODEL 8
REMARK VINA RESULT:    -4.085      2.378      3.782
REMARK INTER + INTRA:          -4.545
REMARK INTER:                  -4.401
REMARK INTRA:                  -0.144
REMARK UNBOUND:                -0.101
REMARK SMILES C[C@H](N)c1cccc(Cl)c1Cl
REMARK SMILES IDX 1 1 2 2 3 3 4 6 5 7 10 8 6 9 8 10 7 11 11 12 9 13
REMARK H PARENT 3 4 3 5
ROOT
ATOM      1  C   UNL     1       8.806  -1.533   6.168  1.00  0.00     0.029 C 
ATOM      2  C   UNL     1       8.956  -3.028   5.886  1.00  0.00     0.079 C 
ENDROOT
BRANCH   2   3
ATOM      3  N   UNL     1       9.091  -3.796   7.121  1.00  0.00    -0.324 NA
ATOM      4  H   UNL     1       9.184  -4.786   6.906  1.00  0.00     0.119 HD
ATOM      5  H   UNL     1       9.941  -3.518   7.607  1.00  0.00     0.119 HD
ENDBRANCH   2   3
BRANCH   2   6
ATOM      6  C   UNL     1      10.063  -3.345   4.891  1.00  0.00    -0.011 A 
ATOM      7  C   UNL     1      11.211  -2.523   4.930  1.00  0.00     0.007 A 
ATOM      8  C   UNL     1      10.027  -4.395   3.943  1.00  0.00     0.064 A 
ATOM      9  C   UNL     1      12.288  -2.727   4.068  1.00  0.00     0.002 A 
ATOM     10  C   UNL     1      11.121  -4.593   3.076  1.00  0.00     0.060 A 
ATOM     11  C   UNL     1      12.243  -3.763   3.142  1.00  0.00     0.022 A 
ATOM     12  Cl  UNL     1       8.653  -5.449   3.818  1.00  0.00    -0.082 Cl
ATOM     13  Cl  UNL     1      11.159  -5.855   1.889  1.00  0.00    -0.083 Cl
ENDBRANCH   2   6
TORSDOF 2
ENDMDL
MODEL 9
REMARK VINA RESULT:    -4.032     14.629     15.797
REMARK INTER + INTRA:          -4.487
REMARK INTER:                  -4.365
REMARK INTRA:                  -0.122
REMARK UNBOUND:                -0.101
REMARK SMILES C[C@H](N)c1cccc(Cl)c1Cl
REMARK SMILES IDX 1 1 2 2 3 3 4 6 5 7 10 8 6 9 8 10 7 11 11 12 9 13
REMARK H PARENT 3 4 3 5
ROOT
ATOM      1  C   UNL     1       4.336 -10.160 -11.001  1.00  0.00     0.029 C 
ATOM      2  C   UNL     1       5.791  -9.692 -11.061  1.00  0.00     0.079 C 
ENDROOT
BRANCH   2   3
ATOM      3  N   UNL     1       6.586 -10.530 -11.955  1.00  0.00    -0.324 NA
ATOM      4  H   UNL     1       7.188  -9.948 -12.533  1.00  0.00     0.119 HD
ATOM      5  H   UNL     1       7.195 -11.134 -11.407  1.00  0.00     0.119 HD
ENDBRANCH   2   3
BRANCH   2   6
ATOM      6  C   UNL     1       6.434  -9.545  -9.690  1.00  0.00    -0.011 A 
ATOM      7  C   UNL     1       5.816 -10.229  -8.619  1.00  0.00     0.007 A 
ATOM      8  C   UNL     1       7.594  -8.785  -9.414  1.00  0.00     0.064 A 
ATOM      9  C   UNL     1       6.324 -10.169  -7.322  1.00  0.00     0.002 A 
ATOM     10  C   UNL     1       8.100  -8.730  -8.100  1.00  0.00     0.060 A 
ATOM     11  C   UNL     1       7.466  -9.421  -7.063  1.00  0.00     0.022 A 
ATOM     12  Cl  UNL     1       8.413  -7.905 -10.667  1.00  0.00    -0.082 Cl
ATOM     13  Cl  UNL     1       9.516  -7.826  -7.677  1.00  0.00    -0.083 Cl
ENDBRANCH   2   6
TORSDOF 2
ENDMDL
