MODEL 1
REMARK VINA RESULT:    -4.967      0.000      0.000
REMARK INTER + INTRA:          -5.537
REMARK INTER:                  -5.402
REMARK INTRA:                  -0.134
REMARK UNBOUND:                -0.134
REMARK SMILES C[C@H](N)c1cccc(Cl)c1Cl
REMARK SMILES IDX 1 1 2 2 3 3 4 6 5 7 10 8 6 9 8 10 7 11 11 12 9 13
REMARK H PARENT 3 4 3 5
ROOT
ATOM      1  C   UNL     1       5.744   8.961  -5.983  1.00  0.00     0.029 C 
ATOM      2  C   UNL     1       5.310   8.196  -4.733  1.00  0.00     0.079 C 
ENDROOT
BRANCH   2   3
ATOM      3  N   UNL     1       4.340   8.956  -3.949  1.00  0.00    -0.324 NA
ATOM      4  H   UNL     1       3.765   9.526  -4.565  1.00  0.00     0.119 HD
ATOM      5  H   UNL     1       3.712   8.317  -3.466  1.00  0.00     0.119 HD
ENDBRANCH   2   3
BRANCH   2   6
ATOM      6  C   UNL     1       6.478   7.712  -3.886  1.00  0.00    -0.011 A 
ATOM      7  C   UNL     1       7.467   8.666  -3.559  1.00  0.00     0.007 A 
ATOM      8  C   UNL     1       6.641   6.391  -3.405  1.00  0.00     0.064 A 
ATOM      9  C   UNL     1       8.578   8.333  -2.783  1.00  0.00     0.002 A 
ATOM     10  C   UNL     1       7.766   6.065  -2.622  1.00  0.00     0.060 A 
ATOM     11  C   UNL     1       8.726   7.034  -2.314  1.00  0.00     0.022 A 
ATOM     12  Cl  UNL     1       5.479   5.152  -3.765  1.00  0.00    -0.082 Cl
ATOM     13  Cl  UNL     1       8.040   4.475  -1.991  1.00  0.00    -0.083 Cl
ENDBRANCH   2   6
TORSDOF 2
ENDMDL
MODEL 2
REMARK VINA RESULT:    -4.768      1.781      2.474
REMARK INTER + INTRA:          -5.320
REMARK INTER:                  -5.374
REMARK INTRA:                   0.054
REMARK UNBOUND:                -0.134
REMARK SMILES C[C@H](N)c1cccc(Cl)c1Cl
REMARK SMILES IDX 1 1 2 2 3 3 4 6 5 7 10 8 6 9 8 10 7 11 11 12 9 13
REMARK H PARENT 3 4 3 5
ROOT
ATOM      1  C   UNL     1       5.740   8.899  -5.458  1.00  0.00     0.029 C 
ATOM      2  C   UNL     1       5.025   8.077  -4.385  1.00  0.00     0.079 C 
ENDROOT
BRANCH   2   3
ATOM      3  N   UNL     1       4.425   8.934  -3.366  1.00  0.00    -0.324 NA
ATOM      4  H   UNL     1       3.658   9.468  -3.768  1.00  0.00     0.119 HD
ATOM      5  H   UNL     1       4.029   8.359  -2.625  1.00  0.00     0.119 HD
ENDBRANCH   2   3
BRANCH   2   6
ATOM      6  C   UNL     1       5.899   6.990  -3.778  1.00  0.00    -0.011 A 
ATOM      7  C   UNL     1       5.493   5.653  -3.991  1.00  0.00     0.007 A 
ATOM      8  C   UNL     1       7.076   7.217  -3.028  1.00  0.00     0.064 A 
ATOM      9  C   UNL     1       6.222   4.577  -3.486  1.00  0.00     0.002 A 
ATOM     10  C   UNL     1       7.806   6.123  -2.521  1.00  0.00     0.060 A 
ATOM     11  C   UNL     1       7.379   4.812  -2.752  1.00  0.00     0.022 A 
ATOM     12  Cl  UNL     1       7.644   8.827  -2.710  1.00  0.00    -0.082 Cl
ATOM     13  Cl  UNL     1       9.259   6.313  -1.596  1.00  0.00    -0.083 Cl
ENDBRANCH   2   6
TORSDOF 2
ENDMDL
MODEL 3
REMARK VINA RESULT:    -4.509      2.353      3.947
REMARK INTER + INTRA:          -5.039
REMARK INTER:                  -4.901
REMARK INTRA:                  -0.138
REMARK UNBOUND:                -0.134
REMARK SMILES C[C@H](N)c1cccc(Cl)c1Cl
REMARK SMILES IDX 1 1 2 2 3 3 4 6 5 7 10 8 6 9 8 10 7 11 11 12 9 13
REMARK H PARENT 3 4 3 5
ROOT
ATOM      1  C   UNL     1       8.099   5.646  -0.829  1.00  0.00     0.029 C 
ATOM      2  C   UNL     1       7.745   5.356  -2.288  1.00  0.00     0.079 C 
ENDROOT
BRANCH   2   3
ATOM      3  N   UNL     1       8.862   4.738  -2.998  1.00  0.00    -0.324 NA
ATOM      4  H   UNL     1       9.260   5.398  -3.662  1.00  0.00     0.119 HD
ATOM      5  H   UNL     1       9.600   4.502  -2.337  1.00  0.00     0.119 HD
ENDBRANCH   2   3
BRANCH   2   6
ATOM      6  C   UNL     1       7.198   6.568  -3.027  1.00  0.00    -0.011 A 
ATOM      7  C   UNL     1       7.888   7.789  -2.850  1.00  0.00     0.007 A 
ATOM      8  C   UNL     1       6.064   6.561  -3.873  1.00  0.00     0.064 A 
ATOM      9  C   UNL     1       7.477   8.961  -3.485  1.00  0.00     0.002 A 
ATOM     10  C   UNL     1       5.657   7.751  -4.510  1.00  0.00     0.060 A 
ATOM     11  C   UNL     1       6.362   8.941  -4.315  1.00  0.00     0.022 A 
ATOM     12  Cl  UNL     1       5.151   5.108  -4.142  1.00  0.00    -0.082 Cl
ATOM     13  Cl  UNL     1       4.282   7.827  -5.562  1.00  0.00    -0.083 Cl
ENDBRANCH   2   6
TORSDOF 2
ENDMDL
MODEL 4
REMARK VINA RESULT:    -4.475     13.768     15.385
REMARK INTER + INTRA:          -5.002
REMARK INTER:                  -4.901
REMARK INTRA:                  -0.101
REMARK UNBOUND:                -0.134
REMARK SMILES C[C@H](N)c1cccc(Cl)c1Cl
REMARK SMILES IDX 1 1 2 2 3 3 4 6 5 7 10 8 6 9 8 10 7 11 11 12 9 13
REMARK H PARENT 3 4 3 5
ROOT
ATOM      1  C   UNL     1      10.749  -2.307   4.988  1.00  0.00     0.029 C 
ATOM      2  C   UNL     1       9.910  -3.363   4.267  1.00  0.00     0.079 C 
ENDROOT
BRANCH   2   3
ATOM      3  N   UNL     1       8.941  -2.751   3.362  1.00  0.00    -0.324 NA
ATOM      4  H   UNL     1       9.393  -2.503   2.485  1.00  0.00     0.119 HD
ATOM      5  H   UNL     1       8.210  -3.423   3.138  1.00  0.00     0.119 HD
ENDBRANCH   2   3
BRANCH   2   6
ATOM      6  C   UNL     1       9.260  -4.364   5.211  1.00  0.00    -0.011 A 
ATOM      7  C   UNL     1       9.208  -4.010   6.579  1.00  0.00     0.007 A 
ATOM      8  C   UNL     1       8.706  -5.606   4.823  1.00  0.00     0.064 A 
ATOM      9  C   UNL     1       8.629  -4.849   7.531  1.00  0.00     0.002 A 
ATOM     10  C   UNL     1       8.124  -6.447   5.793  1.00  0.00     0.060 A 
ATOM     11  C   UNL     1       8.087  -6.067   7.137  1.00  0.00     0.022 A 
ATOM     12  Cl  UNL     1       8.733  -6.126   3.166  1.00  0.00    -0.082 Cl
ATOM     13  Cl  UNL     1       7.422  -7.982   5.402  1.00  0.00    -0.083 Cl
ENDBRANCH   2   6
TORSDOF 2
ENDMDL
MODEL 5
REMARK VINA RESULT:    -4.405     14.297     14.639
REMARK INTER + INTRA:          -4.926
REMARK INTER:                  -4.793
REMARK INTRA:                  -0.133
REMARK UNBOUND:                -0.134
REMARK SMILES C[C@H](N)c1cccc(Cl)c1Cl
REMARK SMILES IDX 1 1 2 2 3 3 4 6 5 7 10 8 6 9 8 10 7 11 11 12 9 13
REMARK H PARENT 3 4 3 5
ROOT
ATOM      1  C   UNL     1      11.464  -7.679  -0.585  1.00  0.00     0.029 C 
ATOM      2  C   UNL     1      11.020  -6.314  -0.059  1.00  0.00     0.079 C 
ENDROOT
BRANCH   2   3
ATOM      3  N   UNL     1      10.209  -5.599  -1.041  1.00  0.00    -0.324 NA
ATOM      4  H   UNL     1       9.324  -5.320  -0.625  1.00  0.00     0.119 HD
ATOM      5  H   UNL     1      10.686  -4.744  -1.323  1.00  0.00     0.119 HD
ENDBRANCH   2   3
BRANCH   2   6
ATOM      6  C   UNL     1      12.170  -5.465   0.462  1.00  0.00    -0.011 A 
ATOM      7  C   UNL     1      13.107  -5.006  -0.492  1.00  0.00     0.007 A 
ATOM      8  C   UNL     1      12.365  -5.102   1.815  1.00  0.00     0.064 A 
ATOM      9  C   UNL     1      14.197  -4.216  -0.127  1.00  0.00     0.002 A 
ATOM     10  C   UNL     1      13.470  -4.303   2.174  1.00  0.00     0.060 A 
ATOM     11  C   UNL     1      14.377  -3.864   1.206  1.00  0.00     0.022 A 
ATOM     12  Cl  UNL     1      11.269  -5.628   3.055  1.00  0.00    -0.082 Cl
ATOM     13  Cl  UNL     1      13.780  -3.812   3.806  1.00  0.00    -0.083 Cl
ENDBRANCH   2   6
TORSDOF 2
ENDMDL
MODEL 6
REMARK VINA RESULT:    -4.353     13.889     14.457
REMARK INTER + INTRA:          -4.869
REMARK INTER:                  -4.745
REMARK INTRA:                  -0.125
REMARK UNBOUND:                -0.134
REMARK SMILES C[C@H](N)c1cccc(Cl)c1Cl
REMARK SMILES IDX 1 1 2 2 3 3 4 6 5 7 10 8 6 9 8 10 7 11 11 12 9 13
REMARK H PARENT 3 4 3 5
ROOT
ATOM      1  C   UNL     1      13.644  -3.749   4.084  1.00  0.00     0.029 C 
ATOM      2  C   UNL     1      12.467  -2.845   3.715  1.00  0.00     0.079 C 
ENDROOT
BRANCH   2   3
ATOM      3  N   UNL     1      12.718  -1.457   4.094  1.00  0.00    -0.324 NA
ATOM      4  H   UNL     1      12.075  -0.841   3.601  1.00  0.00     0.119 HD
ATOM      5  H   UNL     1      12.541  -1.336   5.088  1.00  0.00     0.119 HD
ENDBRANCH   2   3
BRANCH   2   6
ATOM      6  C   UNL     1      11.132  -3.350   4.241  1.00  0.00    -0.011 A 
ATOM      7  C   UNL     1      10.601  -2.690   5.372  1.00  0.00     0.007 A 
ATOM      8  C   UNL     1      10.389  -4.417   3.683  1.00  0.00     0.064 A 
ATOM      9  C   UNL     1       9.381  -3.066   5.934  1.00  0.00     0.002 A 
ATOM     10  C   UNL     1       9.157  -4.789   4.257  1.00  0.00     0.060 A 
ATOM     11  C   UNL     1       8.659  -4.115   5.376  1.00  0.00     0.022 A 
ATOM     12  Cl  UNL     1      10.969  -5.289   2.298  1.00  0.00    -0.082 Cl
ATOM     13  Cl  UNL     1       8.185  -6.081   3.635  1.00  0.00    -0.083 Cl
ENDBRANCH   2   6
TORSDOF 2
ENDMDL
MODEL 7
REMARK VINA RESULT:    -4.315      2.357      3.862
REMARK INTER + INTRA:          -4.828
REMARK INTER:                  -4.718
REMARK INTRA:                  -0.110
REMARK UNBOUND:                -0.134
REMARK SMILES C[C@H](N)c1cccc(Cl)c1Cl
REMARK SMILES IDX 1 1 2 2 3 3 4 6 5 7 10 8 6 9 8 10 7 11 11 12 9 13
REMARK H PARENT 3 4 3 5
ROOT
ATOM      1  C   UNL     1       9.921   8.959  -1.336  1.00  0.00     0.029 C 
ATOM      2  C   UNL     1       9.597   7.476  -1.520  1.00  0.00     0.079 C 
ENDROOT
BRANCH   2   3
ATOM      3  N   UNL     1      10.770   6.720  -1.952  1.00  0.00    -0.324 NA
ATOM      4  H   UNL     1      11.605   7.294  -1.862  1.00  0.00     0.119 HD
ATOM      5  H   UNL     1      10.899   5.912  -1.347  1.00  0.00     0.119 HD
ENDBRANCH   2   3
BRANCH   2   6
ATOM      6  C   UNL     1       8.393   7.228  -2.417  1.00  0.00    -0.011 A 
ATOM      7  C   UNL     1       7.983   8.300  -3.242  1.00  0.00     0.007 A 
ATOM      8  C   UNL     1       7.667   6.017  -2.488  1.00  0.00     0.064 A 
ATOM      9  C   UNL     1       6.896   8.181  -4.108  1.00  0.00     0.002 A 
ATOM     10  C   UNL     1       6.570   5.907  -3.366  1.00  0.00     0.060 A 
ATOM     11  C   UNL     1       6.191   6.985  -4.171  1.00  0.00     0.022 A 
ATOM     12  Cl  UNL     1       8.096   4.651  -1.504  1.00  0.00    -0.082 Cl
ATOM     13  Cl  UNL     1       5.630   4.459  -3.515  1.00  0.00    -0.083 Cl
ENDBRANCH   2   6
TORSDOF 2
ENDMDL
MODEL 8
REMARK VINA RESULT:    -4.220      2.725      3.970
REMARK INTER + INTRA:          -4.725
REMARK INTER:                  -4.956
REMARK INTRA:                   0.232
REMARK UNBOUND:                -0.134
REMARK SMILES C[C@H](N)c1cccc(Cl)c1Cl
REMARK SMILES IDX 1 1 2 2 3 3 4 6 5 7 10 8 6 9 8 10 7 11 11 12 9 13
REMARK H PARENT 3 4 3 5
ROOT
ATOM      1  C   UNL     1       5.498   3.782  -3.152  1.00  0.00     0.029 C 
ATOM      2  C   UNL     1       6.906   4.303  -2.864  1.00  0.00     0.079 C 
ENDROOT
BRANCH   2   3
ATOM      3  N   UNL     1       7.340   3.957  -1.513  1.00  0.00    -0.324 NA
ATOM      4  H   UNL     1       7.790   4.758  -1.076  1.00  0.00     0.119 HD
ATOM      5  H   UNL     1       6.529   3.726  -0.941  1.00  0.00     0.119 HD
ENDBRANCH   2   3
BRANCH   2   6
ATOM      6  C   UNL     1       7.072   5.787  -3.156  1.00  0.00    -0.011 A 
ATOM      7  C   UNL     1       6.009   6.425  -3.835  1.00  0.00     0.007 A 
ATOM      8  C   UNL     1       8.197   6.566  -2.798  1.00  0.00     0.064 A 
ATOM      9  C   UNL     1       6.052   7.784  -4.148  1.00  0.00     0.002 A 
ATOM     10  C   UNL     1       8.231   7.937  -3.119  1.00  0.00     0.060 A 
ATOM     11  C   UNL     1       7.162   8.539  -3.790  1.00  0.00     0.022 A 
ATOM     12  Cl  UNL     1       9.552   5.862  -1.970  1.00  0.00    -0.082 Cl
ATOM     13  Cl  UNL     1       9.568   8.962  -2.715  1.00  0.00    -0.083 Cl
ENDBRANCH   2   6
TORSDOF 2
ENDMDL
MODEL 9
REMARK VINA RESULT:    -4.134     17.178     17.991
REMARK INTER + INTRA:          -4.631
REMARK INTER:                  -4.489
REMARK INTRA:                  -0.143
REMARK UNBOUND:                -0.134
REMARK SMILES C[C@H](N)c1cccc(Cl)c1Cl
REMARK SMILES IDX 1 1 2 2 3 3 4 6 5 7 10 8 6 9 8 10 7 11 11 12 9 13
REMARK H PARENT 3 4 3 5
ROOT
ATOM      1  C   UNL     1       5.281 -11.126 -11.936  1.00  0.00     0.029 C 
ATOM      2  C   UNL     1       5.067 -10.529 -10.545  1.00  0.00     0.079 C 
ENDROOT
BRANCH   2   3
ATOM      3  N   UNL     1       3.848  -9.728 -10.487  1.00  0.00    -0.324 NA
ATOM      4  H   UNL     1       3.898  -9.075  -9.708  1.00  0.00     0.119 HD
ATOM      5  H   UNL     1       3.764  -9.170 -11.335  1.00  0.00     0.119 HD
ENDBRANCH   2   3
BRANCH   2   6
ATOM      6  C   UNL     1       6.278  -9.769 -10.023  1.00  0.00    -0.011 A 
ATOM      7  C   UNL     1       7.015  -9.018 -10.966  1.00  0.00     0.007 A 
ATOM      8  C   UNL     1       6.712  -9.757  -8.676  1.00  0.00     0.064 A 
ATOM      9  C   UNL     1       8.138  -8.278 -10.597  1.00  0.00     0.002 A 
ATOM     10  C   UNL     1       7.848  -9.007  -8.313  1.00  0.00     0.060 A 
ATOM     11  C   UNL     1       8.554  -8.272  -9.270  1.00  0.00     0.022 A 
ATOM     12  Cl  UNL     1       5.872 -10.658  -7.452  1.00  0.00    -0.082 Cl
ATOM     13  Cl  UNL     1       8.444  -8.936  -6.688  1.00  0.00    -0.083 Cl
ENDBRANCH   2   6
TORSDOF 2
ENDMDL
