MODEL 1
REMARK VINA RESULT:    -4.515      0.000      0.000
REMARK INTER + INTRA:          -5.068
REMARK INTER:                  -4.911
REMARK INTRA:                  -0.157
REMARK UNBOUND:                -0.157
REMARK SMILES C[C@@H](N)c1cccc(Cl)c1Cl
REMARK SMILES IDX 2 1 1 2 4 3 10 4 8 5 5 6 7 7 6 8 11 9 9 10 3 11
REMARK H PARENT 3 12 3 13
ROOT
ATOM      1  C   UNL     1       8.417  -6.796   4.708  1.00  0.00     0.079 C 
ATOM      2  C   UNL     1       7.976  -7.551   5.973  1.00  0.00     0.029 C 
ENDROOT
BRANCH   1   3
ATOM      3  C   UNL     1       8.884  -5.407   5.005  1.00  0.00    -0.011 A 
ATOM      4  C   UNL     1       9.906  -4.800   4.277  1.00  0.00     0.064 A 
ATOM      5  C   UNL     1      10.310  -3.501   4.590  1.00  0.00     0.060 A 
ATOM      6  C   UNL     1       8.265  -4.716   6.048  1.00  0.00     0.007 A 
ATOM      7  C   UNL     1       9.691  -2.810   5.632  1.00  0.00     0.022 A 
ATOM      8  C   UNL     1       8.669  -3.419   6.360  1.00  0.00     0.002 A 
ATOM      9  Cl  UNL     1      10.661  -5.679   2.986  1.00  0.00    -0.082 Cl
ATOM     10  Cl  UNL     1      11.570  -2.688   3.728  1.00  0.00    -0.083 Cl
ENDBRANCH   1   3
BRANCH   1  11
ATOM     11  N   UNL     1       7.314  -6.814   3.731  1.00  0.00    -0.324 NA
ATOM     12  H   UNL     1       6.486  -7.230   4.158  1.00  0.00     0.119 HD
ATOM     13  H   UNL     1       7.565  -7.417   2.949  1.00  0.00     0.119 HD
ENDBRANCH   1  11
TORSDOF 2
ENDMDL
MODEL 2
REMARK VINA RESULT:    -4.231      1.430      1.880
REMARK INTER + INTRA:          -4.759
REMARK INTER:                  -4.607
REMARK INTRA:                  -0.152
REMARK UNBOUND:                -0.157
REMARK SMILES C[C@@H](N)c1cccc(Cl)c1Cl
REMARK SMILES IDX 2 1 1 2 4 3 10 4 8 5 5 6 7 7 6 8 11 9 9 10 3 11
REMARK H PARENT 3 12 3 13
ROOT
ATOM      1  C   UNL     1       8.978  -5.522   3.914  1.00  0.00     0.079 C 
ATOM      2  C   UNL     1       8.769  -6.379   5.173  1.00  0.00     0.029 C 
ENDROOT
BRANCH   1   3
ATOM      3  C   UNL     1       9.937  -4.397   4.141  1.00  0.00    -0.011 A 
ATOM      4  C   UNL     1      11.176  -4.342   3.504  1.00  0.00     0.064 A 
ATOM      5  C   UNL     1      12.039  -3.273   3.747  1.00  0.00     0.060 A 
ATOM      6  C   UNL     1       9.559  -3.383   5.022  1.00  0.00     0.007 A 
ATOM      7  C   UNL     1      11.662  -2.258   4.627  1.00  0.00     0.022 A 
ATOM      8  C   UNL     1      10.422  -2.315   5.264  1.00  0.00     0.002 A 
ATOM      9  Cl  UNL     1      11.623  -5.616   2.414  1.00  0.00    -0.082 Cl
ATOM     10  Cl  UNL     1      13.589  -3.141   2.991  1.00  0.00    -0.083 Cl
ENDBRANCH   1   3
BRANCH   1  11
ATOM     11  N   UNL     1       7.668  -5.049   3.434  1.00  0.00    -0.324 NA
ATOM     12  H   UNL     1       7.575  -4.052   3.626  1.00  0.00     0.119 HD
ATOM     13  H   UNL     1       6.928  -5.511   3.960  1.00  0.00     0.119 HD
ENDBRANCH   1  11
TORSDOF 2
ENDMDL
MODEL 3
REMARK VINA RESULT:    -4.160      2.348      3.923
REMARK INTER + INTRA:          -4.681
REMARK INTER:                  -4.582
REMARK INTRA:                  -0.099
REMARK UNBOUND:                -0.157
REMARK SMILES C[C@@H](N)c1cccc(Cl)c1Cl
REMARK SMILES IDX 2 1 1 2 4 3 10 4 8 5 5 6 7 7 6 8 11 9 9 10 3 11
REMARK H PARENT 3 12 3 13
ROOT
ATOM      1  C   UNL     1       9.378  -3.364   4.568  1.00  0.00     0.079 C 
ATOM      2  C   UNL     1       9.360  -1.977   5.231  1.00  0.00     0.029 C 
ENDROOT
BRANCH   1   3
ATOM      3  C   UNL     1       8.953  -4.450   5.503  1.00  0.00    -0.011 A 
ATOM      4  C   UNL     1       8.501  -5.687   5.043  1.00  0.00     0.064 A 
ATOM      5  C   UNL     1       8.115  -6.671   5.954  1.00  0.00     0.060 A 
ATOM      6  C   UNL     1       9.019  -4.197   6.874  1.00  0.00     0.007 A 
ATOM      7  C   UNL     1       8.180  -6.418   7.324  1.00  0.00     0.022 A 
ATOM      8  C   UNL     1       8.633  -5.181   7.783  1.00  0.00     0.002 A 
ATOM      9  Cl  UNL     1       8.428  -5.977   3.334  1.00  0.00    -0.082 Cl
ATOM     10  Cl  UNL     1       7.546  -8.226   5.453  1.00  0.00    -0.083 Cl
ENDBRANCH   1   3
BRANCH   1  11
ATOM     11  N   UNL     1      10.717  -3.607   4.004  1.00  0.00    -0.324 NA
ATOM     12  H   UNL     1      10.757  -4.547   3.610  1.00  0.00     0.119 HD
ATOM     13  H   UNL     1      11.409  -3.584   4.753  1.00  0.00     0.119 HD
ENDBRANCH   1  11
TORSDOF 2
ENDMDL
MODEL 4
REMARK VINA RESULT:    -4.143     13.741     14.751
REMARK INTER + INTRA:          -4.663
REMARK INTER:                  -4.516
REMARK INTRA:                  -0.147
REMARK UNBOUND:                -0.157
REMARK SMILES C[C@@H](N)c1cccc(Cl)c1Cl
REMARK SMILES IDX 2 1 1 2 4 3 10 4 8 5 5 6 7 7 6 8 11 9 9 10 3 11
REMARK H PARENT 3 12 3 13
ROOT
ATOM      1  C   UNL     1       5.827  -9.462 -10.568  1.00  0.00     0.079 C 
ATOM      2  C   UNL     1       6.289 -10.646 -11.434  1.00  0.00     0.029 C 
ENDROOT
BRANCH   1   3
ATOM      3  C   UNL     1       6.510  -9.426  -9.239  1.00  0.00    -0.011 A 
ATOM      4  C   UNL     1       7.714  -8.748  -9.045  1.00  0.00     0.064 A 
ATOM      5  C   UNL     1       8.316  -8.742  -7.785  1.00  0.00     0.060 A 
ATOM      6  C   UNL     1       5.908 -10.098  -8.174  1.00  0.00     0.007 A 
ATOM      7  C   UNL     1       7.714  -9.413  -6.721  1.00  0.00     0.022 A 
ATOM      8  C   UNL     1       6.510 -10.091  -6.916  1.00  0.00     0.002 A 
ATOM      9  Cl  UNL     1       8.443  -7.921 -10.384  1.00  0.00    -0.082 Cl
ATOM     10  Cl  UNL     1       9.806  -7.922  -7.474  1.00  0.00    -0.083 Cl
ENDBRANCH   1   3
BRANCH   1  11
ATOM     11  N   UNL     1       4.360  -9.508 -10.439  1.00  0.00    -0.324 NA
ATOM     12  H   UNL     1       3.972  -8.584 -10.625  1.00  0.00     0.119 HD
ATOM     13  H   UNL     1       4.113  -9.732  -9.476  1.00  0.00     0.119 HD
ENDBRANCH   1  11
TORSDOF 2
ENDMDL
MODEL 5
REMARK VINA RESULT:    -4.097     13.584     14.674
REMARK INTER + INTRA:          -4.613
REMARK INTER:                  -4.459
REMARK INTRA:                  -0.154
REMARK UNBOUND:                -0.157
REMARK SMILES C[C@@H](N)c1cccc(Cl)c1Cl
REMARK SMILES IDX 2 1 1 2 4 3 10 4 8 5 5 6 7 7 6 8 11 9 9 10 3 11
REMARK H PARENT 3 12 3 13
ROOT
ATOM      1  C   UNL     1       9.111  -8.654  -7.009  1.00  0.00     0.079 C 
ATOM      2  C   UNL     1       9.969  -9.907  -6.768  1.00  0.00     0.029 C 
ENDROOT
BRANCH   1   3
ATOM      3  C   UNL     1       8.506  -8.629  -8.376  1.00  0.00    -0.011 A 
ATOM      4  C   UNL     1       7.186  -9.017  -8.606  1.00  0.00     0.064 A 
ATOM      5  C   UNL     1       6.663  -8.979  -9.899  1.00  0.00     0.060 A 
ATOM      6  C   UNL     1       9.303  -8.204  -9.438  1.00  0.00     0.007 A 
ATOM      7  C   UNL     1       7.460  -8.553 -10.962  1.00  0.00     0.022 A 
ATOM      8  C   UNL     1       8.780  -8.166 -10.730  1.00  0.00     0.002 A 
ATOM      9  Cl  UNL     1       6.214  -9.543  -7.268  1.00  0.00    -0.082 Cl
ATOM     10  Cl  UNL     1       5.036  -9.444 -10.256  1.00  0.00    -0.083 Cl
ENDBRANCH   1   3
BRANCH   1  11
ATOM     11  N   UNL     1       9.928  -7.457  -6.741  1.00  0.00    -0.324 NA
ATOM     12  H   UNL     1      10.280  -7.490  -5.785  1.00  0.00     0.119 HD
ATOM     13  H   UNL     1       9.340  -6.626  -6.801  1.00  0.00     0.119 HD
ENDBRANCH   1  11
TORSDOF 2
ENDMDL
MODEL 6
REMARK VINA RESULT:    -4.076      4.355      5.182
REMARK INTER + INTRA:          -4.590
REMARK INTER:                  -4.436
REMARK INTRA:                  -0.154
REMARK UNBOUND:                -0.157
REMARK SMILES C[C@@H](N)c1cccc(Cl)c1Cl
REMARK SMILES IDX 2 1 1 2 4 3 10 4 8 5 5 6 7 7 6 8 11 9 9 10 3 11
REMARK H PARENT 3 12 3 13
ROOT
ATOM      1  C   UNL     1      11.474  -6.185  -0.643  1.00  0.00     0.079 C 
ATOM      2  C   UNL     1      11.366  -7.718  -0.647  1.00  0.00     0.029 C 
ENDROOT
BRANCH   1   3
ATOM      3  C   UNL     1      11.864  -5.643   0.695  1.00  0.00    -0.011 A 
ATOM      4  C   UNL     1      12.986  -4.832   0.866  1.00  0.00     0.064 A 
ATOM      5  C   UNL     1      13.312  -4.350   2.134  1.00  0.00     0.060 A 
ATOM      6  C   UNL     1      11.067  -5.972   1.792  1.00  0.00     0.007 A 
ATOM      7  C   UNL     1      12.515  -4.678   3.231  1.00  0.00     0.022 A 
ATOM      8  C   UNL     1      11.393  -5.489   3.059  1.00  0.00     0.002 A 
ATOM      9  Cl  UNL     1      13.961  -4.438  -0.514  1.00  0.00    -0.082 Cl
ATOM     10  Cl  UNL     1      14.687  -3.340   2.417  1.00  0.00    -0.083 Cl
ENDBRANCH   1   3
BRANCH   1  11
ATOM     11  N   UNL     1      10.204  -5.614  -1.125  1.00  0.00    -0.324 NA
ATOM     12  H   UNL     1      10.348  -4.642  -1.397  1.00  0.00     0.119 HD
ATOM     13  H   UNL     1       9.529  -5.600  -0.363  1.00  0.00     0.119 HD
ENDBRANCH   1  11
TORSDOF 2
ENDMDL
MODEL 7
REMARK VINA RESULT:    -3.979     14.289     15.249
REMARK INTER + INTRA:          -4.484
REMARK INTER:                  -4.334
REMARK INTRA:                  -0.151
REMARK UNBOUND:                -0.157
REMARK SMILES C[C@@H](N)c1cccc(Cl)c1Cl
REMARK SMILES IDX 2 1 1 2 4 3 10 4 8 5 5 6 7 7 6 8 11 9 9 10 3 11
REMARK H PARENT 3 12 3 13
ROOT
ATOM      1  C   UNL     1       5.472 -10.259  -9.525  1.00  0.00     0.079 C 
ATOM      2  C   UNL     1       4.462 -10.062 -10.668  1.00  0.00     0.029 C 
ENDROOT
BRANCH   1   3
ATOM      3  C   UNL     1       6.714  -9.448  -9.715  1.00  0.00    -0.011 A 
ATOM      4  C   UNL     1       7.466  -8.986  -8.635  1.00  0.00     0.064 A 
ATOM      5  C   UNL     1       8.619  -8.231  -8.859  1.00  0.00     0.060 A 
ATOM      6  C   UNL     1       7.114  -9.156 -11.019  1.00  0.00     0.007 A 
ATOM      7  C   UNL     1       9.019  -7.940 -10.163  1.00  0.00     0.022 A 
ATOM      8  C   UNL     1       8.265  -8.402 -11.242  1.00  0.00     0.002 A 
ATOM      9  Cl  UNL     1       6.948  -9.361  -7.022  1.00  0.00    -0.082 Cl
ATOM     10  Cl  UNL     1       9.598  -7.628  -7.568  1.00  0.00    -0.083 Cl
ENDBRANCH   1   3
BRANCH   1  11
ATOM     11  N   UNL     1       5.763 -11.696  -9.386  1.00  0.00    -0.324 NA
ATOM     12  H   UNL     1       4.896 -12.205  -9.212  1.00  0.00     0.119 HD
ATOM     13  H   UNL     1       6.350 -11.845  -8.566  1.00  0.00     0.119 HD
ENDBRANCH   1  11
TORSDOF 2
ENDMDL
MODEL 8
REMARK VINA RESULT:    -3.978      2.869      3.939
REMARK INTER + INTRA:          -4.483
REMARK INTER:                  -4.344
REMARK INTRA:                  -0.139
REMARK UNBOUND:                -0.157
REMARK SMILES C[C@@H](N)c1cccc(Cl)c1Cl
REMARK SMILES IDX 2 1 1 2 4 3 10 4 8 5 5 6 7 7 6 8 11 9 9 10 3 11
REMARK H PARENT 3 12 3 13
ROOT
ATOM      1  C   UNL     1       9.365  -2.906   4.789  1.00  0.00     0.079 C 
ATOM      2  C   UNL     1       9.237  -3.414   6.235  1.00  0.00     0.029 C 
ENDROOT
BRANCH   1   3
ATOM      3  C   UNL     1      10.654  -3.315   4.152  1.00  0.00    -0.011 A 
ATOM      4  C   UNL     1      10.798  -4.538   3.495  1.00  0.00     0.064 A 
ATOM      5  C   UNL     1      12.021  -4.878   2.915  1.00  0.00     0.060 A 
ATOM      6  C   UNL     1      11.732  -2.433   4.229  1.00  0.00     0.007 A 
ATOM      7  C   UNL     1      13.099  -3.996   2.992  1.00  0.00     0.022 A 
ATOM      8  C   UNL     1      12.954  -2.774   3.649  1.00  0.00     0.002 A 
ATOM      9  Cl  UNL     1       9.443  -5.618   3.414  1.00  0.00    -0.082 Cl
ATOM     10  Cl  UNL     1      12.269  -6.375   2.086  1.00  0.00    -0.083 Cl
ENDBRANCH   1   3
BRANCH   1  11
ATOM     11  N   UNL     1       9.179  -1.445   4.778  1.00  0.00    -0.324 NA
ATOM     12  H   UNL     1       9.905  -1.012   4.208  1.00  0.00     0.119 HD
ATOM     13  H   UNL     1       9.301  -1.080   5.722  1.00  0.00     0.119 HD
ENDBRANCH   1  11
TORSDOF 2
ENDMDL
MODEL 9
REMARK VINA RESULT:    -1.529     14.682     15.626
REMARK INTER + INTRA:          -1.820
REMARK INTER:                  -1.667
REMARK INTRA:                  -0.153
REMARK UNBOUND:                -0.157
REMARK SMILES C[C@@H](N)c1cccc(Cl)c1Cl
REMARK SMILES IDX 2 1 1 2 4 3 10 4 8 5 5 6 7 7 6 8 11 9 9 10 3 11
REMARK H PARENT 3 12 3 13
ROOT
ATOM      1  C   UNL     1       4.211   8.111  -3.519  1.00  0.00     0.079 C 
ATOM      2  C   UNL     1       3.789   8.742  -2.182  1.00  0.00     0.029 C 
ENDROOT
BRANCH   1   3
ATOM      3  C   UNL     1       5.684   7.865  -3.595  1.00  0.00    -0.011 A 
ATOM      4  C   UNL     1       6.210   6.593  -3.820  1.00  0.00     0.064 A 
ATOM      5  C   UNL     1       7.592   6.411  -3.882  1.00  0.00     0.060 A 
ATOM      6  C   UNL     1       6.539   8.955  -3.432  1.00  0.00     0.007 A 
ATOM      7  C   UNL     1       8.448   7.501  -3.720  1.00  0.00     0.022 A 
ATOM      8  C   UNL     1       7.920   8.773  -3.495  1.00  0.00     0.002 A 
ATOM      9  Cl  UNL     1       5.126   5.254  -4.018  1.00  0.00    -0.082 Cl
ATOM     10  Cl  UNL     1       8.312   4.863  -4.159  1.00  0.00    -0.083 Cl
ENDBRANCH   1   3
BRANCH   1  11
ATOM     11  N   UNL     1       3.732   8.962  -4.622  1.00  0.00    -0.324 NA
ATOM     12  H   UNL     1       4.515   9.479  -5.020  1.00  0.00     0.119 HD
ATOM     13  H   UNL     1       3.087   9.660  -4.255  1.00  0.00     0.119 HD
ENDBRANCH   1  11
TORSDOF 2
ENDMDL
