MODEL 1
REMARK VINA RESULT:    -4.528      0.000      0.000
REMARK INTER + INTRA:          -5.051
REMARK INTER:                  -4.925
REMARK INTRA:                  -0.126
REMARK UNBOUND:                -0.126
REMARK SMILES C[C@H](N)c1cccc(Cl)c1Cl
REMARK SMILES IDX 1 1 2 2 3 3 4 6 5 7 10 8 6 9 8 10 7 11 11 12 9 13
REMARK H PARENT 3 4 3 5
ROOT
ATOM      1  C   UNL     1      10.833  -2.267   4.782  1.00  0.00     0.029 C 
ATOM      2  C   UNL     1       9.923  -3.303   4.121  1.00  0.00     0.079 C 
ENDROOT
BRANCH   2   3
ATOM      3  N   UNL     1       8.931  -2.670   3.256  1.00  0.00    -0.324 NA
ATOM      4  H   UNL     1       8.173  -3.321   3.062  1.00  0.00     0.119 HD
ATOM      5  H   UNL     1       8.519  -1.871   3.734  1.00  0.00     0.119 HD
ENDBRANCH   2   3
BRANCH   2   6
ATOM      6  C   UNL     1       9.287  -4.267   5.113  1.00  0.00    -0.011 A 
ATOM      7  C   UNL     1       9.236  -3.852   6.463  1.00  0.00     0.007 A 
ATOM      8  C   UNL     1       8.745  -5.531   4.784  1.00  0.00     0.064 A 
ATOM      9  C   UNL     1       8.670  -4.653   7.454  1.00  0.00     0.002 A 
ATOM     10  C   UNL     1       8.175  -6.333   5.793  1.00  0.00     0.060 A 
ATOM     11  C   UNL     1       8.139  -5.892   7.119  1.00  0.00     0.022 A 
ATOM     12  Cl  UNL     1       8.772  -6.125   3.152  1.00  0.00    -0.082 Cl
ATOM     13  Cl  UNL     1       7.488  -7.892   5.475  1.00  0.00    -0.083 Cl
ENDBRANCH   2   6
TORSDOF 2
ENDMDL
MODEL 2
REMARK VINA RESULT:    -4.443      5.171      6.798
REMARK INTER + INTRA:          -4.958
REMARK INTER:                  -4.826
REMARK INTRA:                  -0.133
REMARK UNBOUND:                -0.126
REMARK SMILES C[C@H](N)c1cccc(Cl)c1Cl
REMARK SMILES IDX 1 1 2 2 3 3 4 6 5 7 10 8 6 9 8 10 7 11 11 12 9 13
REMARK H PARENT 3 4 3 5
ROOT
ATOM      1  C   UNL     1      11.479  -7.696  -0.530  1.00  0.00     0.029 C 
ATOM      2  C   UNL     1      11.026  -6.307  -0.077  1.00  0.00     0.079 C 
ENDROOT
BRANCH   2   3
ATOM      3  N   UNL     1      10.263  -5.626  -1.119  1.00  0.00    -0.324 NA
ATOM      4  H   UNL     1      10.327  -4.618  -0.994  1.00  0.00     0.119 HD
ATOM      5  H   UNL     1      10.664  -5.837  -2.031  1.00  0.00     0.119 HD
ENDBRANCH   2   3
BRANCH   2   6
ATOM      6  C   UNL     1      12.161  -5.447   0.457  1.00  0.00    -0.011 A 
ATOM      7  C   UNL     1      13.125  -5.009  -0.479  1.00  0.00     0.007 A 
ATOM      8  C   UNL     1      12.319  -5.055   1.807  1.00  0.00     0.064 A 
ATOM      9  C   UNL     1      14.204  -4.211  -0.101  1.00  0.00     0.002 A 
ATOM     10  C   UNL     1      13.413  -4.249   2.180  1.00  0.00     0.060 A 
ATOM     11  C   UNL     1      14.347  -3.830   1.228  1.00  0.00     0.022 A 
ATOM     12  Cl  UNL     1      11.188  -5.554   3.027  1.00  0.00    -0.082 Cl
ATOM     13  Cl  UNL     1      13.678  -3.723   3.810  1.00  0.00    -0.083 Cl
ENDBRANCH   2   6
TORSDOF 2
ENDMDL
MODEL 3
REMARK VINA RESULT:    -4.356      2.052      2.735
REMARK INTER + INTRA:          -4.864
REMARK INTER:                  -4.738
REMARK INTRA:                  -0.126
REMARK UNBOUND:                -0.126
REMARK SMILES C[C@H](N)c1cccc(Cl)c1Cl
REMARK SMILES IDX 1 1 2 2 3 3 4 6 5 7 10 8 6 9 8 10 7 11 11 12 9 13
REMARK H PARENT 3 4 3 5
ROOT
ATOM      1  C   UNL     1      13.698  -3.782   4.036  1.00  0.00     0.029 C 
ATOM      2  C   UNL     1      12.528  -2.864   3.681  1.00  0.00     0.079 C 
ENDROOT
BRANCH   2   3
ATOM      3  N   UNL     1      12.799  -1.480   4.062  1.00  0.00    -0.324 NA
ATOM      4  H   UNL     1      13.733  -1.213   3.759  1.00  0.00     0.119 HD
ATOM      5  H   UNL     1      12.145  -0.860   3.589  1.00  0.00     0.119 HD
ENDBRANCH   2   3
BRANCH   2   6
ATOM      6  C   UNL     1      11.191  -3.355   4.217  1.00  0.00    -0.011 A 
ATOM      7  C   UNL     1      10.682  -2.697   5.359  1.00  0.00     0.007 A 
ATOM      8  C   UNL     1      10.428  -4.407   3.659  1.00  0.00     0.064 A 
ATOM      9  C   UNL     1       9.462  -3.061   5.931  1.00  0.00     0.002 A 
ATOM     10  C   UNL     1       9.198  -4.767   4.244  1.00  0.00     0.060 A 
ATOM     11  C   UNL     1       8.721  -4.095   5.373  1.00  0.00     0.022 A 
ATOM     12  Cl  UNL     1      10.982  -5.277   2.261  1.00  0.00    -0.082 Cl
ATOM     13  Cl  UNL     1       8.202  -6.041   3.622  1.00  0.00    -0.083 Cl
ENDBRANCH   2   6
TORSDOF 2
ENDMDL
MODEL 4
REMARK VINA RESULT:    -4.159     14.502     15.765
REMARK INTER + INTRA:          -4.650
REMARK INTER:                  -4.505
REMARK INTRA:                  -0.145
REMARK UNBOUND:                -0.126
REMARK SMILES C[C@H](N)c1cccc(Cl)c1Cl
REMARK SMILES IDX 1 1 2 2 3 3 4 6 5 7 10 8 6 9 8 10 7 11 11 12 9 13
REMARK H PARENT 3 4 3 5
ROOT
ATOM      1  C   UNL     1       5.733 -10.266 -11.437  1.00  0.00     0.029 C 
ATOM      2  C   UNL     1       5.880  -9.586 -10.075  1.00  0.00     0.079 C 
ENDROOT
BRANCH   2   3
ATOM      3  N   UNL     1       4.791  -8.646  -9.825  1.00  0.00    -0.324 NA
ATOM      4  H   UNL     1       3.945  -8.962 -10.293  1.00  0.00     0.119 HD
ATOM      5  H   UNL     1       4.585  -8.617  -8.828  1.00  0.00     0.119 HD
ENDBRANCH   2   3
BRANCH   2   6
ATOM      6  C   UNL     1       7.246  -8.951  -9.864  1.00  0.00    -0.011 A 
ATOM      7  C   UNL     1       7.931  -8.511 -11.019  1.00  0.00     0.007 A 
ATOM      8  C   UNL     1       7.872  -8.766  -8.608  1.00  0.00     0.064 A 
ATOM      9  C   UNL     1       9.187  -7.908 -10.941  1.00  0.00     0.002 A 
ATOM     10  C   UNL     1       9.140  -8.156  -8.540  1.00  0.00     0.060 A 
ATOM     11  C   UNL     1       9.790  -7.730  -9.702  1.00  0.00     0.022 A 
ATOM     12  Cl  UNL     1       7.107  -9.283  -7.137  1.00  0.00    -0.082 Cl
ATOM     13  Cl  UNL     1       9.973  -7.890  -7.044  1.00  0.00    -0.083 Cl
ENDBRANCH   2   6
TORSDOF 2
ENDMDL
MODEL 5
REMARK VINA RESULT:    -4.124     14.920     16.126
REMARK INTER + INTRA:          -4.612
REMARK INTER:                  -4.469
REMARK INTRA:                  -0.142
REMARK UNBOUND:                -0.126
REMARK SMILES C[C@H](N)c1cccc(Cl)c1Cl
REMARK SMILES IDX 1 1 2 2 3 3 4 6 5 7 10 8 6 9 8 10 7 11 11 12 9 13
REMARK H PARENT 3 4 3 5
ROOT
ATOM      1  C   UNL     1       5.274 -11.158 -11.916  1.00  0.00     0.029 C 
ATOM      2  C   UNL     1       5.061 -10.562 -10.524  1.00  0.00     0.079 C 
ENDROOT
BRANCH   2   3
ATOM      3  N   UNL     1       3.836  -9.767 -10.464  1.00  0.00    -0.324 NA
ATOM      4  H   UNL     1       3.596  -9.430 -11.393  1.00  0.00     0.119 HD
ATOM      5  H   UNL     1       3.063 -10.352 -10.152  1.00  0.00     0.119 HD
ENDBRANCH   2   3
BRANCH   2   6
ATOM      6  C   UNL     1       6.268  -9.794 -10.005  1.00  0.00    -0.011 A 
ATOM      7  C   UNL     1       6.992  -9.031 -10.949  1.00  0.00     0.007 A 
ATOM      8  C   UNL     1       6.710  -9.786  -8.662  1.00  0.00     0.064 A 
ATOM      9  C   UNL     1       8.111  -8.284 -10.582  1.00  0.00     0.002 A 
ATOM     10  C   UNL     1       7.842  -9.028  -8.301  1.00  0.00     0.060 A 
ATOM     11  C   UNL     1       8.535  -8.282  -9.259  1.00  0.00     0.022 A 
ATOM     12  Cl  UNL     1       5.886 -10.701  -7.437  1.00  0.00    -0.082 Cl
ATOM     13  Cl  UNL     1       8.448  -8.961  -6.679  1.00  0.00    -0.083 Cl
ENDBRANCH   2   6
TORSDOF 2
ENDMDL
MODEL 6
REMARK VINA RESULT:    -4.118      5.227      6.482
REMARK INTER + INTRA:          -4.605
REMARK INTER:                  -4.662
REMARK INTRA:                   0.057
REMARK UNBOUND:                -0.126
REMARK SMILES C[C@H](N)c1cccc(Cl)c1Cl
REMARK SMILES IDX 1 1 2 2 3 3 4 6 5 7 10 8 6 9 8 10 7 11 11 12 9 13
REMARK H PARENT 3 4 3 5
ROOT
ATOM      1  C   UNL     1      11.536  -7.725  -0.580  1.00  0.00     0.029 C 
ATOM      2  C   UNL     1      10.831  -6.488  -0.022  1.00  0.00     0.079 C 
ENDROOT
BRANCH   2   3
ATOM      3  N   UNL     1      10.289  -5.653  -1.090  1.00  0.00    -0.324 NA
ATOM      4  H   UNL     1       9.902  -4.796  -0.699  1.00  0.00     0.119 HD
ATOM      5  H   UNL     1      11.036  -5.377  -1.724  1.00  0.00     0.119 HD
ENDBRANCH   2   3
BRANCH   2   6
ATOM      6  C   UNL     1      11.691  -5.691   0.948  1.00  0.00    -0.011 A 
ATOM      7  C   UNL     1      11.293  -5.695   2.304  1.00  0.00     0.007 A 
ATOM      8  C   UNL     1      12.849  -4.959   0.596  1.00  0.00     0.064 A 
ATOM      9  C   UNL     1      12.011  -5.003   3.280  1.00  0.00     0.002 A 
ATOM     10  C   UNL     1      13.567  -4.263   1.589  1.00  0.00     0.060 A 
ATOM     11  C   UNL     1      13.148  -4.289   2.922  1.00  0.00     0.022 A 
ATOM     12  Cl  UNL     1      13.406  -4.891  -1.048  1.00  0.00    -0.082 Cl
ATOM     13  Cl  UNL     1      14.996  -3.345   1.243  1.00  0.00    -0.083 Cl
ENDBRANCH   2   6
TORSDOF 2
ENDMDL
MODEL 7
REMARK VINA RESULT:    -4.071     13.633     14.361
REMARK INTER + INTRA:          -4.554
REMARK INTER:                  -4.416
REMARK INTRA:                  -0.138
REMARK UNBOUND:                -0.126
REMARK SMILES C[C@H](N)c1cccc(Cl)c1Cl
REMARK SMILES IDX 1 1 2 2 3 3 4 6 5 7 10 8 6 9 8 10 7 11 11 12 9 13
REMARK H PARENT 3 4 3 5
ROOT
ATOM      1  C   UNL     1      10.954  -9.040  -8.138  1.00  0.00     0.029 C 
ATOM      2  C   UNL     1       9.813  -8.032  -7.992  1.00  0.00     0.079 C 
ENDROOT
BRANCH   2   3
ATOM      3  N   UNL     1      10.006  -7.169  -6.830  1.00  0.00    -0.324 NA
ATOM      4  H   UNL     1      10.381  -7.711  -6.054  1.00  0.00     0.119 HD
ATOM      5  H   UNL     1      10.692  -6.449  -7.047  1.00  0.00     0.119 HD
ENDBRANCH   2   3
BRANCH   2   6
ATOM      6  C   UNL     1       8.435  -8.676  -8.006  1.00  0.00    -0.011 A 
ATOM      7  C   UNL     1       7.984  -9.244  -6.793  1.00  0.00     0.007 A 
ATOM      8  C   UNL     1       7.579  -8.742  -9.131  1.00  0.00     0.064 A 
ATOM      9  C   UNL     1       6.734  -9.855  -6.690  1.00  0.00     0.002 A 
ATOM     10  C   UNL     1       6.318  -9.361  -9.017  1.00  0.00     0.060 A 
ATOM     11  C   UNL     1       5.902  -9.913  -7.801  1.00  0.00     0.022 A 
ATOM     12  Cl  UNL     1       8.054  -8.078 -10.663  1.00  0.00    -0.082 Cl
ATOM     13  Cl  UNL     1       5.210  -9.483 -10.343  1.00  0.00    -0.083 Cl
ENDBRANCH   2   6
TORSDOF 2
ENDMDL
MODEL 8
REMARK VINA RESULT:    -4.036     14.543     15.695
REMARK INTER + INTRA:          -4.516
REMARK INTER:                  -4.408
REMARK INTRA:                  -0.108
REMARK UNBOUND:                -0.126
REMARK SMILES C[C@H](N)c1cccc(Cl)c1Cl
REMARK SMILES IDX 1 1 2 2 3 3 4 6 5 7 10 8 6 9 8 10 7 11 11 12 9 13
REMARK H PARENT 3 4 3 5
ROOT
ATOM      1  C   UNL     1       4.356 -10.157 -10.941  1.00  0.00     0.029 C 
ATOM      2  C   UNL     1       5.797  -9.651 -11.011  1.00  0.00     0.079 C 
ENDROOT
BRANCH   2   3
ATOM      3  N   UNL     1       6.605 -10.457 -11.922  1.00  0.00    -0.324 NA
ATOM      4  H   UNL     1       6.931  -9.884 -12.697  1.00  0.00     0.119 HD
ATOM      5  H   UNL     1       7.433 -10.797 -11.436  1.00  0.00     0.119 HD
ENDBRANCH   2   3
BRANCH   2   6
ATOM      6  C   UNL     1       6.450  -9.502  -9.644  1.00  0.00    -0.011 A 
ATOM      7  C   UNL     1       5.833 -10.175  -8.566  1.00  0.00     0.007 A 
ATOM      8  C   UNL     1       7.620  -8.752  -9.379  1.00  0.00     0.064 A 
ATOM      9  C   UNL     1       6.350 -10.113  -7.272  1.00  0.00     0.002 A 
ATOM     10  C   UNL     1       8.135  -8.696  -8.068  1.00  0.00     0.060 A 
ATOM     11  C   UNL     1       7.501  -9.374  -7.024  1.00  0.00     0.022 A 
ATOM     12  Cl  UNL     1       8.440  -7.887 -10.643  1.00  0.00    -0.082 Cl
ATOM     13  Cl  UNL     1       9.562  -7.803  -7.660  1.00  0.00    -0.083 Cl
ENDBRANCH   2   6
TORSDOF 2
ENDMDL
