MODEL 1
REMARK VINA RESULT:    -4.965      0.000      0.000
REMARK INTER + INTRA:          -5.552
REMARK INTER:                  -5.400
REMARK INTRA:                  -0.152
REMARK UNBOUND:                -0.152
REMARK SMILES C[C@@H](N)c1cccc(Cl)c1Cl
REMARK SMILES IDX 2 1 1 2 4 3 10 4 8 5 5 6 7 7 6 8 11 9 9 10 3 11
REMARK H PARENT 3 12 3 13
ROOT
ATOM      1  C   UNL     1       5.650   8.560  -4.170  1.00  0.00     0.079 C 
ATOM      2  C   UNL     1       5.454   8.786  -5.679  1.00  0.00     0.029 C 
ENDROOT
BRANCH   1   3
ATOM      3  C   UNL     1       6.052   7.156  -3.850  1.00  0.00    -0.011 A 
ATOM      4  C   UNL     1       7.297   6.851  -3.300  1.00  0.00     0.064 A 
ATOM      5  C   UNL     1       7.630   5.525  -3.018  1.00  0.00     0.060 A 
ATOM      6  C   UNL     1       5.139   6.136  -4.118  1.00  0.00     0.007 A 
ATOM      7  C   UNL     1       6.717   4.505  -3.286  1.00  0.00     0.022 A 
ATOM      8  C   UNL     1       5.472   4.811  -3.836  1.00  0.00     0.002 A 
ATOM      9  Cl  UNL     1       8.415   8.137  -2.976  1.00  0.00    -0.082 Cl
ATOM     10  Cl  UNL     1       9.154   5.076  -2.335  1.00  0.00    -0.083 Cl
ENDBRANCH   1   3
BRANCH   1  11
ATOM     11  N   UNL     1       4.422   8.962  -3.463  1.00  0.00    -0.324 NA
ATOM     12  H   UNL     1       4.379   9.979  -3.403  1.00  0.00     0.119 HD
ATOM     13  H   UNL     1       4.458   8.621  -2.503  1.00  0.00     0.119 HD
ENDBRANCH   1  11
TORSDOF 2
ENDMDL
MODEL 2
REMARK VINA RESULT:    -4.756      1.911      2.718
REMARK INTER + INTRA:          -5.325
REMARK INTER:                  -5.172
REMARK INTRA:                  -0.154
REMARK UNBOUND:                -0.152
REMARK SMILES C[C@@H](N)c1cccc(Cl)c1Cl
REMARK SMILES IDX 2 1 1 2 4 3 10 4 8 5 5 6 7 7 6 8 11 9 9 10 3 11
REMARK H PARENT 3 12 3 13
ROOT
ATOM      1  C   UNL     1       5.396   8.162  -4.665  1.00  0.00     0.079 C 
ATOM      2  C   UNL     1       4.348   8.962  -3.874  1.00  0.00     0.029 C 
ENDROOT
BRANCH   1   3
ATOM      3  C   UNL     1       6.548   7.732  -3.814  1.00  0.00    -0.011 A 
ATOM      4  C   UNL     1       6.677   6.423  -3.352  1.00  0.00     0.064 A 
ATOM      5  C   UNL     1       7.769   6.067  -2.559  1.00  0.00     0.060 A 
ATOM      6  C   UNL     1       7.511   8.687  -3.484  1.00  0.00     0.007 A 
ATOM      7  C   UNL     1       8.732   7.021  -2.229  1.00  0.00     0.022 A 
ATOM      8  C   UNL     1       8.602   8.330  -2.692  1.00  0.00     0.002 A 
ATOM      9  Cl  UNL     1       5.466   5.255  -3.775  1.00  0.00    -0.082 Cl
ATOM     10  Cl  UNL     1       7.991   4.463  -1.953  1.00  0.00    -0.083 Cl
ENDBRANCH   1   3
BRANCH   1  11
ATOM     11  N   UNL     1       5.830   8.959  -5.826  1.00  0.00    -0.324 NA
ATOM     12  H   UNL     1       6.846   8.921  -5.906  1.00  0.00     0.119 HD
ATOM     13  H   UNL     1       5.592   9.938  -5.672  1.00  0.00     0.119 HD
ENDBRANCH   1  11
TORSDOF 2
ENDMDL
MODEL 3
REMARK VINA RESULT:    -4.522     13.955     15.128
REMARK INTER + INTRA:          -5.071
REMARK INTER:                  -4.914
REMARK INTRA:                  -0.156
REMARK UNBOUND:                -0.152
REMARK SMILES C[C@@H](N)c1cccc(Cl)c1Cl
REMARK SMILES IDX 2 1 1 2 4 3 10 4 8 5 5 6 7 7 6 8 11 9 9 10 3 11
REMARK H PARENT 3 12 3 13
ROOT
ATOM      1  C   UNL     1       8.435  -6.741   4.693  1.00  0.00     0.079 C 
ATOM      2  C   UNL     1       7.945  -7.526   5.921  1.00  0.00     0.029 C 
ENDROOT
BRANCH   1   3
ATOM      3  C   UNL     1       8.897  -5.363   5.041  1.00  0.00    -0.011 A 
ATOM      4  C   UNL     1       9.937  -4.736   4.355  1.00  0.00     0.064 A 
ATOM      5  C   UNL     1      10.335  -3.448   4.716  1.00  0.00     0.060 A 
ATOM      6  C   UNL     1       8.254  -4.702   6.088  1.00  0.00     0.007 A 
ATOM      7  C   UNL     1       9.692  -2.787   5.763  1.00  0.00     0.022 A 
ATOM      8  C   UNL     1       8.652  -3.415   6.448  1.00  0.00     0.002 A 
ATOM      9  Cl  UNL     1      10.721  -5.579   3.057  1.00  0.00    -0.082 Cl
ATOM     10  Cl  UNL     1      11.615  -2.613   3.908  1.00  0.00    -0.083 Cl
ENDBRANCH   1   3
BRANCH   1  11
ATOM     11  N   UNL     1       7.368  -6.730   3.676  1.00  0.00    -0.324 NA
ATOM     12  H   UNL     1       7.770  -6.531   2.761  1.00  0.00     0.119 HD
ATOM     13  H   UNL     1       6.720  -5.969   3.875  1.00  0.00     0.119 HD
ENDBRANCH   1  11
TORSDOF 2
ENDMDL
MODEL 4
REMARK VINA RESULT:    -4.466      2.458      3.619
REMARK INTER + INTRA:          -5.010
REMARK INTER:                  -4.871
REMARK INTRA:                  -0.139
REMARK UNBOUND:                -0.152
REMARK SMILES C[C@@H](N)c1cccc(Cl)c1Cl
REMARK SMILES IDX 2 1 1 2 4 3 10 4 8 5 5 6 7 7 6 8 11 9 9 10 3 11
REMARK H PARENT 3 12 3 13
ROOT
ATOM      1  C   UNL     1       6.482   5.690  -3.253  1.00  0.00     0.079 C 
ATOM      2  C   UNL     1       5.207   6.252  -3.904  1.00  0.00     0.029 C 
ENDROOT
BRANCH   1   3
ATOM      3  C   UNL     1       7.523   6.741  -3.037  1.00  0.00    -0.011 A 
ATOM      4  C   UNL     1       8.488   6.630  -2.035  1.00  0.00     0.064 A 
ATOM      5  C   UNL     1       9.440   7.636  -1.869  1.00  0.00     0.060 A 
ATOM      6  C   UNL     1       7.510   7.858  -3.872  1.00  0.00     0.007 A 
ATOM      7  C   UNL     1       9.428   8.753  -2.705  1.00  0.00     0.022 A 
ATOM      8  C   UNL     1       8.462   8.863  -3.706  1.00  0.00     0.002 A 
ATOM      9  Cl  UNL     1       8.482   5.232  -1.008  1.00  0.00    -0.082 Cl
ATOM     10  Cl  UNL     1      10.664   7.563  -0.650  1.00  0.00    -0.083 Cl
ENDBRANCH   1   3
BRANCH   1  11
ATOM     11  N   UNL     1       6.983   4.571  -4.069  1.00  0.00    -0.324 NA
ATOM     12  H   UNL     1       7.432   3.883  -3.466  1.00  0.00     0.119 HD
ATOM     13  H   UNL     1       7.705   4.911  -4.703  1.00  0.00     0.119 HD
ENDBRANCH   1  11
TORSDOF 2
ENDMDL
MODEL 5
REMARK VINA RESULT:    -4.241     13.488     14.282
REMARK INTER + INTRA:          -4.765
REMARK INTER:                  -4.613
REMARK INTRA:                  -0.152
REMARK UNBOUND:                -0.152
REMARK SMILES C[C@@H](N)c1cccc(Cl)c1Cl
REMARK SMILES IDX 2 1 1 2 4 3 10 4 8 5 5 6 7 7 6 8 11 9 9 10 3 11
REMARK H PARENT 3 12 3 13
ROOT
ATOM      1  C   UNL     1       8.975  -5.496   3.864  1.00  0.00     0.079 C 
ATOM      2  C   UNL     1       8.753  -6.312   5.148  1.00  0.00     0.029 C 
ENDROOT
BRANCH   1   3
ATOM      3  C   UNL     1       9.947  -4.377   4.059  1.00  0.00    -0.011 A 
ATOM      4  C   UNL     1      11.196  -4.365   3.438  1.00  0.00     0.064 A 
ATOM      5  C   UNL     1      12.071  -3.299   3.650  1.00  0.00     0.060 A 
ATOM      6  C   UNL     1       9.572  -3.322   4.891  1.00  0.00     0.007 A 
ATOM      7  C   UNL     1      11.696  -2.244   4.482  1.00  0.00     0.022 A 
ATOM      8  C   UNL     1      10.447  -2.256   5.103  1.00  0.00     0.002 A 
ATOM      9  Cl  UNL     1      11.639  -5.689   2.408  1.00  0.00    -0.082 Cl
ATOM     10  Cl  UNL     1      13.633  -3.220   2.912  1.00  0.00    -0.083 Cl
ENDBRANCH   1   3
BRANCH   1  11
ATOM     11  N   UNL     1       7.672  -5.022   3.367  1.00  0.00    -0.324 NA
ATOM     12  H   UNL     1       7.477  -5.447   2.461  1.00  0.00     0.119 HD
ATOM     13  H   UNL     1       7.717  -4.016   3.207  1.00  0.00     0.119 HD
ENDBRANCH   1  11
TORSDOF 2
ENDMDL
MODEL 6
REMARK VINA RESULT:    -4.182      2.680      3.636
REMARK INTER + INTRA:          -4.701
REMARK INTER:                  -4.894
REMARK INTRA:                   0.193
REMARK UNBOUND:                -0.152
REMARK SMILES C[C@@H](N)c1cccc(Cl)c1Cl
REMARK SMILES IDX 2 1 1 2 4 3 10 4 8 5 5 6 7 7 6 8 11 9 9 10 3 11
REMARK H PARENT 3 12 3 13
ROOT
ATOM      1  C   UNL     1       8.813   8.442  -2.190  1.00  0.00     0.079 C 
ATOM      2  C   UNL     1       9.996   8.579  -1.217  1.00  0.00     0.029 C 
ENDROOT
BRANCH   1   3
ATOM      3  C   UNL     1       8.248   7.058  -2.211  1.00  0.00    -0.011 A 
ATOM      4  C   UNL     1       7.175   6.710  -3.031  1.00  0.00     0.064 A 
ATOM      5  C   UNL     1       6.680   5.405  -3.017  1.00  0.00     0.060 A 
ATOM      6  C   UNL     1       8.827   6.101  -1.376  1.00  0.00     0.007 A 
ATOM      7  C   UNL     1       7.259   4.448  -2.183  1.00  0.00     0.022 A 
ATOM      8  C   UNL     1       8.332   4.797  -1.363  1.00  0.00     0.002 A 
ATOM      9  Cl  UNL     1       6.472   7.917  -4.060  1.00  0.00    -0.082 Cl
ATOM     10  Cl  UNL     1       5.354   4.905  -4.009  1.00  0.00    -0.083 Cl
ENDBRANCH   1   3
BRANCH   1  11
ATOM     11  N   UNL     1       9.239   8.889  -3.527  1.00  0.00    -0.324 NA
ATOM     12  H   UNL     1       8.463   8.794  -4.182  1.00  0.00     0.119 HD
ATOM     13  H   UNL     1       9.978   8.276  -3.869  1.00  0.00     0.119 HD
ENDBRANCH   1  11
TORSDOF 2
ENDMDL
MODEL 7
REMARK VINA RESULT:    -4.150     16.305     17.062
REMARK INTER + INTRA:          -4.665
REMARK INTER:                  -4.520
REMARK INTRA:                  -0.146
REMARK UNBOUND:                -0.152
REMARK SMILES C[C@@H](N)c1cccc(Cl)c1Cl
REMARK SMILES IDX 2 1 1 2 4 3 10 4 8 5 5 6 7 7 6 8 11 9 9 10 3 11
REMARK H PARENT 3 12 3 13
ROOT
ATOM      1  C   UNL     1       5.810  -9.443 -10.573  1.00  0.00     0.079 C 
ATOM      2  C   UNL     1       6.273 -10.618 -11.451  1.00  0.00     0.029 C 
ENDROOT
BRANCH   1   3
ATOM      3  C   UNL     1       6.492  -9.420  -9.243  1.00  0.00    -0.011 A 
ATOM      4  C   UNL     1       7.701  -8.752  -9.044  1.00  0.00     0.064 A 
ATOM      5  C   UNL     1       8.302  -8.758  -7.785  1.00  0.00     0.060 A 
ATOM      6  C   UNL     1       5.885 -10.094  -8.183  1.00  0.00     0.007 A 
ATOM      7  C   UNL     1       7.695  -9.432  -6.725  1.00  0.00     0.022 A 
ATOM      8  C   UNL     1       6.486 -10.099  -6.925  1.00  0.00     0.002 A 
ATOM      9  Cl  UNL     1       8.437  -7.922 -10.378  1.00  0.00    -0.082 Cl
ATOM     10  Cl  UNL     1       9.798  -7.951  -7.468  1.00  0.00    -0.083 Cl
ENDBRANCH   1   3
BRANCH   1  11
ATOM     11  N   UNL     1       4.343  -9.491 -10.445  1.00  0.00    -0.324 NA
ATOM     12  H   UNL     1       3.913  -9.218 -11.328  1.00  0.00     0.119 HD
ATOM     13  H   UNL     1       4.041  -8.803  -9.756  1.00  0.00     0.119 HD
ENDBRANCH   1  11
TORSDOF 2
ENDMDL
MODEL 8
REMARK VINA RESULT:    -4.099     16.267     16.901
REMARK INTER + INTRA:          -4.611
REMARK INTER:                  -4.457
REMARK INTRA:                  -0.154
REMARK UNBOUND:                -0.152
REMARK SMILES C[C@@H](N)c1cccc(Cl)c1Cl
REMARK SMILES IDX 2 1 1 2 4 3 10 4 8 5 5 6 7 7 6 8 11 9 9 10 3 11
REMARK H PARENT 3 12 3 13
ROOT
ATOM      1  C   UNL     1       9.133  -8.654  -6.993  1.00  0.00     0.079 C 
ATOM      2  C   UNL     1       9.986  -9.909  -6.748  1.00  0.00     0.029 C 
ENDROOT
BRANCH   1   3
ATOM      3  C   UNL     1       8.540  -8.624  -8.365  1.00  0.00    -0.011 A 
ATOM      4  C   UNL     1       7.214  -8.986  -8.605  1.00  0.00     0.064 A 
ATOM      5  C   UNL     1       6.703  -8.944  -9.903  1.00  0.00     0.060 A 
ATOM      6  C   UNL     1       9.354  -8.219  -9.422  1.00  0.00     0.007 A 
ATOM      7  C   UNL     1       7.518  -8.539 -10.960  1.00  0.00     0.022 A 
ATOM      8  C   UNL     1       8.843  -8.177 -10.719  1.00  0.00     0.002 A 
ATOM      9  Cl  UNL     1       6.221  -9.487  -7.273  1.00  0.00    -0.082 Cl
ATOM     10  Cl  UNL     1       5.070  -9.378 -10.271  1.00  0.00    -0.083 Cl
ENDBRANCH   1   3
BRANCH   1  11
ATOM     11  N   UNL     1       9.949  -7.459  -6.714  1.00  0.00    -0.324 NA
ATOM     12  H   UNL     1      10.297  -7.071  -7.590  1.00  0.00     0.119 HD
ATOM     13  H   UNL     1      10.771  -7.730  -6.175  1.00  0.00     0.119 HD
ENDBRANCH   1  11
TORSDOF 2
ENDMDL
