MODEL 1
REMARK VINA RESULT:    -4.830      0.000      0.000
REMARK INTER + INTRA:          -5.410
REMARK INTER:                  -5.254
REMARK INTRA:                  -0.156
REMARK UNBOUND:                -0.156
REMARK SMILES C[C@@H](N)c1cccc(Cl)c1Cl
REMARK SMILES IDX 2 1 1 2 4 3 10 4 8 5 5 6 7 7 6 8 11 9 9 10 3 11
REMARK H PARENT 3 12 3 13
ROOT
ATOM      1  C   UNL     1       5.420   8.489  -4.230  1.00  0.00     0.079 C 
ATOM      2  C   UNL     1       4.836   8.552  -5.651  1.00  0.00     0.029 C 
ENDROOT
BRANCH   1   3
ATOM      3  C   UNL     1       5.932   7.128  -3.883  1.00  0.00    -0.011 A 
ATOM      4  C   UNL     1       7.195   6.934  -3.323  1.00  0.00     0.064 A 
ATOM      5  C   UNL     1       7.632   5.645  -3.015  1.00  0.00     0.060 A 
ATOM      6  C   UNL     1       5.106   6.033  -4.136  1.00  0.00     0.007 A 
ATOM      7  C   UNL     1       6.805   4.550  -3.268  1.00  0.00     0.022 A 
ATOM      8  C   UNL     1       5.543   4.745  -3.828  1.00  0.00     0.002 A 
ATOM      9  Cl  UNL     1       8.205   8.312  -3.019  1.00  0.00    -0.082 Cl
ATOM     10  Cl  UNL     1       9.184   5.333  -2.319  1.00  0.00    -0.083 Cl
ENDBRANCH   1   3
BRANCH   1  11
ATOM     11  N   UNL     1       4.405   8.962  -3.274  1.00  0.00    -0.324 NA
ATOM     12  H   UNL     1       3.940   8.162  -2.846  1.00  0.00     0.119 HD
ATOM     13  H   UNL     1       3.682   9.477  -3.775  1.00  0.00     0.119 HD
ENDBRANCH   1  11
TORSDOF 2
ENDMDL
MODEL 2
REMARK VINA RESULT:    -4.805      1.957      2.715
REMARK INTER + INTRA:          -5.382
REMARK INTER:                  -5.228
REMARK INTRA:                  -0.154
REMARK UNBOUND:                -0.156
REMARK SMILES C[C@@H](N)c1cccc(Cl)c1Cl
REMARK SMILES IDX 2 1 1 2 4 3 10 4 8 5 5 6 7 7 6 8 11 9 9 10 3 11
REMARK H PARENT 3 12 3 13
ROOT
ATOM      1  C   UNL     1       5.421   8.086  -4.795  1.00  0.00     0.079 C 
ATOM      2  C   UNL     1       4.355   8.880  -4.021  1.00  0.00     0.029 C 
ENDROOT
BRANCH   1   3
ATOM      3  C   UNL     1       6.562   7.664  -3.926  1.00  0.00    -0.011 A 
ATOM      4  C   UNL     1       6.651   6.376  -3.397  1.00  0.00     0.064 A 
ATOM      5  C   UNL     1       7.735   6.026  -2.590  1.00  0.00     0.060 A 
ATOM      6  C   UNL     1       7.555   8.603  -3.647  1.00  0.00     0.007 A 
ATOM      7  C   UNL     1       8.728   6.965  -2.311  1.00  0.00     0.022 A 
ATOM      8  C   UNL     1       8.638   8.253  -2.840  1.00  0.00     0.002 A 
ATOM      9  Cl  UNL     1       5.403   5.227  -3.757  1.00  0.00    -0.082 Cl
ATOM     10  Cl  UNL     1       7.909   4.449  -1.903  1.00  0.00    -0.083 Cl
ENDBRANCH   1   3
BRANCH   1  11
ATOM     11  N   UNL     1       5.867   8.884  -5.950  1.00  0.00    -0.324 NA
ATOM     12  H   UNL     1       5.115   8.942  -6.636  1.00  0.00     0.119 HD
ATOM     13  H   UNL     1       6.640   8.407  -6.412  1.00  0.00     0.119 HD
ENDBRANCH   1  11
TORSDOF 2
ENDMDL
MODEL 3
REMARK VINA RESULT:    -4.532     13.970     15.100
REMARK INTER + INTRA:          -5.085
REMARK INTER:                  -4.928
REMARK INTRA:                  -0.157
REMARK UNBOUND:                -0.156
REMARK SMILES C[C@@H](N)c1cccc(Cl)c1Cl
REMARK SMILES IDX 2 1 1 2 4 3 10 4 8 5 5 6 7 7 6 8 11 9 9 10 3 11
REMARK H PARENT 3 12 3 13
ROOT
ATOM      1  C   UNL     1       8.470  -6.684   4.672  1.00  0.00     0.079 C 
ATOM      2  C   UNL     1       7.972  -7.454   5.906  1.00  0.00     0.029 C 
ENDROOT
BRANCH   1   3
ATOM      3  C   UNL     1       8.942  -5.306   5.010  1.00  0.00    -0.011 A 
ATOM      4  C   UNL     1      10.011  -4.707   4.342  1.00  0.00     0.064 A 
ATOM      5  C   UNL     1      10.418  -3.419   4.692  1.00  0.00     0.060 A 
ATOM      6  C   UNL     1       8.281  -4.618   6.027  1.00  0.00     0.007 A 
ATOM      7  C   UNL     1       9.756  -2.730   5.709  1.00  0.00     0.022 A 
ATOM      8  C   UNL     1       8.688  -3.331   6.376  1.00  0.00     0.002 A 
ATOM      9  Cl  UNL     1      10.818  -5.584   3.082  1.00  0.00    -0.082 Cl
ATOM     10  Cl  UNL     1      11.733  -2.616   3.907  1.00  0.00    -0.083 Cl
ENDBRANCH   1   3
BRANCH   1  11
ATOM     11  N   UNL     1       7.405  -6.672   3.654  1.00  0.00    -0.324 NA
ATOM     12  H   UNL     1       7.668  -7.278   2.877  1.00  0.00     0.119 HD
ATOM     13  H   UNL     1       7.317  -5.734   3.267  1.00  0.00     0.119 HD
ENDBRANCH   1  11
TORSDOF 2
ENDMDL
MODEL 4
REMARK VINA RESULT:    -4.452      2.434      3.590
REMARK INTER + INTRA:          -4.998
REMARK INTER:                  -4.858
REMARK INTRA:                  -0.140
REMARK UNBOUND:                -0.156
REMARK SMILES C[C@@H](N)c1cccc(Cl)c1Cl
REMARK SMILES IDX 2 1 1 2 4 3 10 4 8 5 5 6 7 7 6 8 11 9 9 10 3 11
REMARK H PARENT 3 12 3 13
ROOT
ATOM      1  C   UNL     1       6.455   5.664  -3.295  1.00  0.00     0.079 C 
ATOM      2  C   UNL     1       5.175   6.210  -3.948  1.00  0.00     0.029 C 
ENDROOT
BRANCH   1   3
ATOM      3  C   UNL     1       7.483   6.728  -3.074  1.00  0.00    -0.011 A 
ATOM      4  C   UNL     1       8.445   6.628  -2.069  1.00  0.00     0.064 A 
ATOM      5  C   UNL     1       9.385   7.646  -1.899  1.00  0.00     0.060 A 
ATOM      6  C   UNL     1       7.460   7.844  -3.910  1.00  0.00     0.007 A 
ATOM      7  C   UNL     1       9.362   8.763  -2.734  1.00  0.00     0.022 A 
ATOM      8  C   UNL     1       8.399   8.861  -3.739  1.00  0.00     0.002 A 
ATOM      9  Cl  UNL     1       8.452   5.230  -1.042  1.00  0.00    -0.082 Cl
ATOM     10  Cl  UNL     1      10.604   7.588  -0.674  1.00  0.00    -0.083 Cl
ENDBRANCH   1   3
BRANCH   1  11
ATOM     11  N   UNL     1       6.973   4.552  -4.112  1.00  0.00    -0.324 NA
ATOM     12  H   UNL     1       7.227   3.773  -3.506  1.00  0.00     0.119 HD
ATOM     13  H   UNL     1       7.831   4.845  -4.576  1.00  0.00     0.119 HD
ENDBRANCH   1  11
TORSDOF 2
ENDMDL
MODEL 5
REMARK VINA RESULT:    -4.329      2.797      4.064
REMARK INTER + INTRA:          -4.865
REMARK INTER:                  -4.789
REMARK INTRA:                  -0.076
REMARK UNBOUND:                -0.156
REMARK SMILES C[C@@H](N)c1cccc(Cl)c1Cl
REMARK SMILES IDX 2 1 1 2 4 3 10 4 8 5 5 6 7 7 6 8 11 9 9 10 3 11
REMARK H PARENT 3 12 3 13
ROOT
ATOM      1  C   UNL     1       9.670   7.569  -2.232  1.00  0.00     0.079 C 
ATOM      2  C   UNL     1      10.301   8.962  -2.399  1.00  0.00     0.029 C 
ENDROOT
BRANCH   1   3
ATOM      3  C   UNL     1       8.267   7.512  -2.745  1.00  0.00    -0.011 A 
ATOM      4  C   UNL     1       7.633   6.303  -3.028  1.00  0.00     0.064 A 
ATOM      5  C   UNL     1       6.322   6.298  -3.506  1.00  0.00     0.060 A 
ATOM      6  C   UNL     1       7.592   8.717  -2.940  1.00  0.00     0.007 A 
ATOM      7  C   UNL     1       5.646   7.502  -3.701  1.00  0.00     0.022 A 
ATOM      8  C   UNL     1       6.282   8.711  -3.418  1.00  0.00     0.002 A 
ATOM      9  Cl  UNL     1       8.495   4.818  -2.778  1.00  0.00    -0.082 Cl
ATOM     10  Cl  UNL     1       5.475   4.836  -3.877  1.00  0.00    -0.083 Cl
ENDBRANCH   1   3
BRANCH   1  11
ATOM     11  N   UNL     1       9.762   7.170  -0.817  1.00  0.00    -0.324 NA
ATOM     12  H   UNL     1       9.035   7.643  -0.281  1.00  0.00     0.119 HD
ATOM     13  H   UNL     1      10.651   7.485  -0.433  1.00  0.00     0.119 HD
ENDBRANCH   1  11
TORSDOF 2
ENDMDL
MODEL 6
REMARK VINA RESULT:    -4.255     13.554     14.355
REMARK INTER + INTRA:          -4.784
REMARK INTER:                  -4.631
REMARK INTRA:                  -0.152
REMARK UNBOUND:                -0.156
REMARK SMILES C[C@@H](N)c1cccc(Cl)c1Cl
REMARK SMILES IDX 2 1 1 2 4 3 10 4 8 5 5 6 7 7 6 8 11 9 9 10 3 11
REMARK H PARENT 3 12 3 13
ROOT
ATOM      1  C   UNL     1       9.017  -5.542   3.867  1.00  0.00     0.079 C 
ATOM      2  C   UNL     1       8.854  -6.399   5.132  1.00  0.00     0.029 C 
ENDROOT
BRANCH   1   3
ATOM      3  C   UNL     1       9.978  -4.413   4.061  1.00  0.00    -0.011 A 
ATOM      4  C   UNL     1      11.238  -4.403   3.461  1.00  0.00     0.064 A 
ATOM      5  C   UNL     1      12.103  -3.328   3.672  1.00  0.00     0.060 A 
ATOM      6  C   UNL     1       9.584  -3.349   4.872  1.00  0.00     0.007 A 
ATOM      7  C   UNL     1      11.708  -2.264   4.482  1.00  0.00     0.022 A 
ATOM      8  C   UNL     1      10.448  -2.275   5.082  1.00  0.00     0.002 A 
ATOM      9  Cl  UNL     1      11.706  -5.739   2.458  1.00  0.00    -0.082 Cl
ATOM     10  Cl  UNL     1      13.676  -3.251   2.959  1.00  0.00    -0.083 Cl
ENDBRANCH   1   3
BRANCH   1  11
ATOM     11  N   UNL     1       7.690  -5.073   3.432  1.00  0.00    -0.324 NA
ATOM     12  H   UNL     1       7.770  -4.133   3.045  1.00  0.00     0.119 HD
ATOM     13  H   UNL     1       7.076  -4.998   4.241  1.00  0.00     0.119 HD
ENDBRANCH   1  11
TORSDOF 2
ENDMDL
MODEL 7
REMARK VINA RESULT:    -4.163      2.764      3.913
REMARK INTER + INTRA:          -4.684
REMARK INTER:                  -4.829
REMARK INTRA:                   0.145
REMARK UNBOUND:                -0.156
REMARK SMILES C[C@@H](N)c1cccc(Cl)c1Cl
REMARK SMILES IDX 2 1 1 2 4 3 10 4 8 5 5 6 7 7 6 8 11 9 9 10 3 11
REMARK H PARENT 3 12 3 13
ROOT
ATOM      1  C   UNL     1       9.242   8.264  -1.815  1.00  0.00     0.079 C 
ATOM      2  C   UNL     1      10.449   7.988  -0.903  1.00  0.00     0.029 C 
ENDROOT
BRANCH   1   3
ATOM      3  C   UNL     1       8.475   7.022  -2.139  1.00  0.00    -0.011 A 
ATOM      4  C   UNL     1       7.318   7.050  -2.916  1.00  0.00     0.064 A 
ATOM      5  C   UNL     1       6.634   5.865  -3.192  1.00  0.00     0.060 A 
ATOM      6  C   UNL     1       8.950   5.810  -1.638  1.00  0.00     0.007 A 
ATOM      7  C   UNL     1       7.108   4.653  -2.691  1.00  0.00     0.022 A 
ATOM      8  C   UNL     1       8.267   4.626  -1.914  1.00  0.00     0.002 A 
ATOM      9  Cl  UNL     1       6.747   8.570  -3.527  1.00  0.00    -0.082 Cl
ATOM     10  Cl  UNL     1       5.193   5.827  -4.148  1.00  0.00    -0.083 Cl
ENDBRANCH   1   3
BRANCH   1  11
ATOM     11  N   UNL     1       9.707   8.962  -3.026  1.00  0.00    -0.324 NA
ATOM     12  H   UNL     1       9.411   8.445  -3.853  1.00  0.00     0.119 HD
ATOM     13  H   UNL     1      10.726   8.968  -3.043  1.00  0.00     0.119 HD
ENDBRANCH   1  11
TORSDOF 2
ENDMDL
MODEL 8
REMARK VINA RESULT:    -4.158     16.332     17.088
REMARK INTER + INTRA:          -4.678
REMARK INTER:                  -4.531
REMARK INTRA:                  -0.147
REMARK UNBOUND:                -0.156
REMARK SMILES C[C@@H](N)c1cccc(Cl)c1Cl
REMARK SMILES IDX 2 1 1 2 4 3 10 4 8 5 5 6 7 7 6 8 11 9 9 10 3 11
REMARK H PARENT 3 12 3 13
ROOT
ATOM      1  C   UNL     1       5.802  -9.477 -10.561  1.00  0.00     0.079 C 
ATOM      2  C   UNL     1       6.275 -10.652 -11.432  1.00  0.00     0.029 C 
ENDROOT
BRANCH   1   3
ATOM      3  C   UNL     1       6.475  -9.448  -9.226  1.00  0.00    -0.011 A 
ATOM      4  C   UNL     1       7.674  -8.765  -9.017  1.00  0.00     0.064 A 
ATOM      5  C   UNL     1       8.267  -8.766  -7.754  1.00  0.00     0.060 A 
ATOM      6  C   UNL     1       5.870 -10.132  -8.172  1.00  0.00     0.007 A 
ATOM      7  C   UNL     1       7.661  -9.450  -6.700  1.00  0.00     0.022 A 
ATOM      8  C   UNL     1       6.463 -10.133  -6.910  1.00  0.00     0.002 A 
ATOM      9  Cl  UNL     1       8.408  -7.923 -10.344  1.00  0.00    -0.082 Cl
ATOM     10  Cl  UNL     1       9.750  -7.940  -7.425  1.00  0.00    -0.083 Cl
ENDBRANCH   1   3
BRANCH   1  11
ATOM     11  N   UNL     1       4.335  -9.529 -10.442  1.00  0.00    -0.324 NA
ATOM     12  H   UNL     1       3.998  -8.684  -9.982  1.00  0.00     0.119 HD
ATOM     13  H   UNL     1       4.072 -10.307  -9.838  1.00  0.00     0.119 HD
ENDBRANCH   1  11
TORSDOF 2
ENDMDL
MODEL 9
REMARK VINA RESULT:    -4.085     16.308     16.954
REMARK INTER + INTRA:          -4.599
REMARK INTER:                  -4.445
REMARK INTRA:                  -0.154
REMARK UNBOUND:                -0.156
REMARK SMILES C[C@@H](N)c1cccc(Cl)c1Cl
REMARK SMILES IDX 2 1 1 2 4 3 10 4 8 5 5 6 7 7 6 8 11 9 9 10 3 11
REMARK H PARENT 3 12 3 13
ROOT
ATOM      1  C   UNL     1       9.126  -8.648  -6.997  1.00  0.00     0.079 C 
ATOM      2  C   UNL     1       9.979  -9.902  -6.740  1.00  0.00     0.029 C 
ENDROOT
BRANCH   1   3
ATOM      3  C   UNL     1       8.537  -8.630  -8.371  1.00  0.00    -0.011 A 
ATOM      4  C   UNL     1       7.221  -9.023  -8.616  1.00  0.00     0.064 A 
ATOM      5  C   UNL     1       6.713  -8.990  -9.916  1.00  0.00     0.060 A 
ATOM      6  C   UNL     1       9.346  -8.204  -9.425  1.00  0.00     0.007 A 
ATOM      7  C   UNL     1       7.522  -8.564 -10.970  1.00  0.00     0.022 A 
ATOM      8  C   UNL     1       8.838  -8.171 -10.724  1.00  0.00     0.002 A 
ATOM      9  Cl  UNL     1       6.236  -9.549  -7.289  1.00  0.00    -0.082 Cl
ATOM     10  Cl  UNL     1       5.093  -9.461 -10.291  1.00  0.00    -0.083 Cl
ENDBRANCH   1   3
BRANCH   1  11
ATOM     11  N   UNL     1       9.941  -7.452  -6.726  1.00  0.00    -0.324 NA
ATOM     12  H   UNL     1      10.538  -7.621  -5.917  1.00  0.00     0.119 HD
ATOM     13  H   UNL     1       9.330  -6.677  -6.471  1.00  0.00     0.119 HD
ENDBRANCH   1  11
TORSDOF 2
ENDMDL
