MODEL 1
REMARK VINA RESULT:    -4.971      0.000      0.000
REMARK INTER + INTRA:          -5.543
REMARK INTER:                  -5.407
REMARK INTRA:                  -0.137
REMARK UNBOUND:                -0.137
REMARK SMILES C[C@H](N)c1cccc(Cl)c1Cl
REMARK SMILES IDX 1 1 2 2 3 3 4 6 5 7 10 8 6 9 8 10 7 11 11 12 9 13
REMARK H PARENT 3 4 3 5
ROOT
ATOM      1  C   UNL     1       5.793   8.961  -5.889  1.00  0.00     0.029 C 
ATOM      2  C   UNL     1       5.355   8.141  -4.676  1.00  0.00     0.079 C 
ENDROOT
BRANCH   2   3
ATOM      3  N   UNL     1       4.337   8.840  -3.896  1.00  0.00    -0.324 NA
ATOM      4  H   UNL     1       3.636   8.179  -3.567  1.00  0.00     0.119 HD
ATOM      5  H   UNL     1       4.763   9.254  -3.069  1.00  0.00     0.119 HD
ENDBRANCH   2   3
BRANCH   2   6
ATOM      6  C   UNL     1       6.517   7.672  -3.813  1.00  0.00    -0.011 A 
ATOM      7  C   UNL     1       7.497   8.636  -3.485  1.00  0.00     0.007 A 
ATOM      8  C   UNL     1       6.683   6.358  -3.316  1.00  0.00     0.064 A 
ATOM      9  C   UNL     1       8.601   8.318  -2.695  1.00  0.00     0.002 A 
ATOM     10  C   UNL     1       7.803   6.047  -2.518  1.00  0.00     0.060 A 
ATOM     11  C   UNL     1       8.753   7.024  -2.211  1.00  0.00     0.022 A 
ATOM     12  Cl  UNL     1       5.533   5.108  -3.676  1.00  0.00    -0.082 Cl
ATOM     13  Cl  UNL     1       8.080   4.464  -1.869  1.00  0.00    -0.083 Cl
ENDBRANCH   2   6
TORSDOF 2
ENDMDL
MODEL 2
REMARK VINA RESULT:    -4.840      1.871      2.706
REMARK INTER + INTRA:          -5.401
REMARK INTER:                  -5.261
REMARK INTRA:                  -0.140
REMARK UNBOUND:                -0.137
REMARK SMILES C[C@H](N)c1cccc(Cl)c1Cl
REMARK SMILES IDX 1 1 2 2 3 3 4 6 5 7 10 8 6 9 8 10 7 11 11 12 9 13
REMARK H PARENT 3 4 3 5
ROOT
ATOM      1  C   UNL     1       4.124   8.962  -4.052  1.00  0.00     0.029 C 
ATOM      2  C   UNL     1       5.577   8.661  -4.422  1.00  0.00     0.079 C 
ENDROOT
BRANCH   2   3
ATOM      3  N   UNL     1       5.828   8.894  -5.842  1.00  0.00    -0.324 NA
ATOM      4  H   UNL     1       5.071   9.443  -6.243  1.00  0.00     0.119 HD
ATOM      5  H   UNL     1       6.680   9.439  -5.954  1.00  0.00     0.119 HD
ENDBRANCH   2   3
BRANCH   2   6
ATOM      6  C   UNL     1       6.039   7.282  -3.976  1.00  0.00    -0.011 A 
ATOM      7  C   UNL     1       5.133   6.214  -4.165  1.00  0.00     0.007 A 
ATOM      8  C   UNL     1       7.298   6.993  -3.398  1.00  0.00     0.064 A 
ATOM      9  C   UNL     1       5.455   4.907  -3.799  1.00  0.00     0.002 A 
ATOM     10  C   UNL     1       7.614   5.669  -3.032  1.00  0.00     0.060 A 
ATOM     11  C   UNL     1       6.695   4.635  -3.234  1.00  0.00     0.022 A 
ATOM     12  Cl  UNL     1       8.470   8.245  -3.122  1.00  0.00    -0.082 Cl
ATOM     13  Cl  UNL     1       9.132   5.230  -2.321  1.00  0.00    -0.083 Cl
ENDBRANCH   2   6
TORSDOF 2
ENDMDL
MODEL 3
REMARK VINA RESULT:    -4.500      2.389      3.963
REMARK INTER + INTRA:          -5.031
REMARK INTER:                  -4.898
REMARK INTRA:                  -0.133
REMARK UNBOUND:                -0.137
REMARK SMILES C[C@H](N)c1cccc(Cl)c1Cl
REMARK SMILES IDX 1 1 2 2 3 3 4 6 5 7 10 8 6 9 8 10 7 11 11 12 9 13
REMARK H PARENT 3 4 3 5
ROOT
ATOM      1  C   UNL     1       7.753   5.245  -0.758  1.00  0.00     0.029 C 
ATOM      2  C   UNL     1       7.891   5.193  -2.280  1.00  0.00     0.079 C 
ENDROOT
BRANCH   2   3
ATOM      3  N   UNL     1       9.254   4.860  -2.684  1.00  0.00    -0.324 NA
ATOM      4  H   UNL     1       9.842   5.689  -2.639  1.00  0.00     0.119 HD
ATOM      5  H   UNL     1       9.649   4.183  -2.033  1.00  0.00     0.119 HD
ENDBRANCH   2   3
BRANCH   2   6
ATOM      6  C   UNL     1       7.377   6.445  -2.975  1.00  0.00    -0.011 A 
ATOM      7  C   UNL     1       8.133   7.626  -2.802  1.00  0.00     0.007 A 
ATOM      8  C   UNL     1       6.213   6.510  -3.777  1.00  0.00     0.064 A 
ATOM      9  C   UNL     1       7.757   8.830  -3.398  1.00  0.00     0.002 A 
ATOM     10  C   UNL     1       5.842   7.731  -4.375  1.00  0.00     0.060 A 
ATOM     11  C   UNL     1       6.613   8.881  -4.185  1.00  0.00     0.022 A 
ATOM     12  Cl  UNL     1       5.220   5.110  -4.037  1.00  0.00    -0.082 Cl
ATOM     13  Cl  UNL     1       4.435   7.896  -5.372  1.00  0.00    -0.083 Cl
ENDBRANCH   2   6
TORSDOF 2
ENDMDL
MODEL 4
REMARK VINA RESULT:    -4.478     13.686     15.304
REMARK INTER + INTRA:          -5.007
REMARK INTER:                  -4.913
REMARK INTRA:                  -0.094
REMARK UNBOUND:                -0.137
REMARK SMILES C[C@H](N)c1cccc(Cl)c1Cl
REMARK SMILES IDX 1 1 2 2 3 3 4 6 5 7 10 8 6 9 8 10 7 11 11 12 9 13
REMARK H PARENT 3 4 3 5
ROOT
ATOM      1  C   UNL     1      10.731  -2.254   5.023  1.00  0.00     0.029 C 
ATOM      2  C   UNL     1       9.934  -3.335   4.292  1.00  0.00     0.079 C 
ENDROOT
BRANCH   2   3
ATOM      3  N   UNL     1       8.970  -2.753   3.361  1.00  0.00    -0.324 NA
ATOM      4  H   UNL     1       8.154  -3.355   3.284  1.00  0.00     0.119 HD
ATOM      5  H   UNL     1       8.644  -1.858   3.720  1.00  0.00     0.119 HD
ENDBRANCH   2   3
BRANCH   2   6
ATOM      6  C   UNL     1       9.287  -4.344   5.229  1.00  0.00    -0.011 A 
ATOM      7  C   UNL     1       9.214  -3.990   6.596  1.00  0.00     0.007 A 
ATOM      8  C   UNL     1       8.754  -5.594   4.836  1.00  0.00     0.064 A 
ATOM      9  C   UNL     1       8.637  -4.837   7.542  1.00  0.00     0.002 A 
ATOM     10  C   UNL     1       8.172  -6.443   5.799  1.00  0.00     0.060 A 
ATOM     11  C   UNL     1       8.115  -6.062   7.143  1.00  0.00     0.022 A 
ATOM     12  Cl  UNL     1       8.807  -6.114   3.180  1.00  0.00    -0.082 Cl
ATOM     13  Cl  UNL     1       7.496  -7.987   5.401  1.00  0.00    -0.083 Cl
ENDBRANCH   2   6
TORSDOF 2
ENDMDL
MODEL 5
REMARK VINA RESULT:    -4.454     14.261     14.538
REMARK INTER + INTRA:          -4.981
REMARK INTER:                  -4.848
REMARK INTRA:                  -0.133
REMARK UNBOUND:                -0.137
REMARK SMILES C[C@H](N)c1cccc(Cl)c1Cl
REMARK SMILES IDX 1 1 2 2 3 3 4 6 5 7 10 8 6 9 8 10 7 11 11 12 9 13
REMARK H PARENT 3 4 3 5
ROOT
ATOM      1  C   UNL     1      11.370  -7.679  -0.608  1.00  0.00     0.029 C 
ATOM      2  C   UNL     1      10.979  -6.282  -0.126  1.00  0.00     0.079 C 
ENDROOT
BRANCH   2   3
ATOM      3  N   UNL     1      10.203  -5.565  -1.134  1.00  0.00    -0.324 NA
ATOM      4  H   UNL     1       9.981  -6.187  -1.909  1.00  0.00     0.119 HD
ATOM      5  H   UNL     1       9.317  -5.263  -0.734  1.00  0.00     0.119 HD
ENDBRANCH   2   3
BRANCH   2   6
ATOM      6  C   UNL     1      12.160  -5.465   0.377  1.00  0.00    -0.011 A 
ATOM      7  C   UNL     1      13.128  -5.087  -0.581  1.00  0.00     0.007 A 
ATOM      8  C   UNL     1      12.354  -5.055   1.717  1.00  0.00     0.064 A 
ATOM      9  C   UNL     1      14.248  -4.332  -0.233  1.00  0.00     0.002 A 
ATOM     10  C   UNL     1      13.489  -4.293   2.059  1.00  0.00     0.060 A 
ATOM     11  C   UNL     1      14.427  -3.935   1.087  1.00  0.00     0.022 A 
ATOM     12  Cl  UNL     1      11.220  -5.481   2.961  1.00  0.00    -0.082 Cl
ATOM     13  Cl  UNL     1      13.801  -3.750   3.675  1.00  0.00    -0.083 Cl
ENDBRANCH   2   6
TORSDOF 2
ENDMDL
MODEL 6
REMARK VINA RESULT:    -4.428      2.433      3.950
REMARK INTER + INTRA:          -4.953
REMARK INTER:                  -4.821
REMARK INTRA:                  -0.131
REMARK UNBOUND:                -0.137
REMARK SMILES C[C@H](N)c1cccc(Cl)c1Cl
REMARK SMILES IDX 1 1 2 2 3 3 4 6 5 7 10 8 6 9 8 10 7 11 11 12 9 13
REMARK H PARENT 3 4 3 5
ROOT
ATOM      1  C   UNL     1      10.231   8.959  -1.208  1.00  0.00     0.029 C 
ATOM      2  C   UNL     1       9.840   7.489  -1.368  1.00  0.00     0.079 C 
ENDROOT
BRANCH   2   3
ATOM      3  N   UNL     1      10.992   6.664  -1.724  1.00  0.00    -0.324 NA
ATOM      4  H   UNL     1      11.816   6.984  -1.221  1.00  0.00     0.119 HD
ATOM      5  H   UNL     1      10.825   5.702  -1.438  1.00  0.00     0.119 HD
ENDBRANCH   2   3
BRANCH   2   6
ATOM      6  C   UNL     1       8.668   7.277  -2.316  1.00  0.00    -0.011 A 
ATOM      7  C   UNL     1       8.407   8.306  -3.248  1.00  0.00     0.007 A 
ATOM      8  C   UNL     1       7.834   6.134  -2.334  1.00  0.00     0.064 A 
ATOM      9  C   UNL     1       7.362   8.214  -4.167  1.00  0.00     0.002 A 
ATOM     10  C   UNL     1       6.781   6.050  -3.266  1.00  0.00     0.060 A 
ATOM     11  C   UNL     1       6.550   7.086  -4.177  1.00  0.00     0.022 A 
ATOM     12  Cl  UNL     1       8.077   4.825  -1.219  1.00  0.00    -0.082 Cl
ATOM     13  Cl  UNL     1       5.716   4.687  -3.357  1.00  0.00    -0.083 Cl
ENDBRANCH   2   6
TORSDOF 2
ENDMDL
MODEL 7
REMARK VINA RESULT:    -4.337     13.784     14.344
REMARK INTER + INTRA:          -4.854
REMARK INTER:                  -4.751
REMARK INTRA:                  -0.103
REMARK UNBOUND:                -0.137
REMARK SMILES C[C@H](N)c1cccc(Cl)c1Cl
REMARK SMILES IDX 1 1 2 2 3 3 4 6 5 7 10 8 6 9 8 10 7 11 11 12 9 13
REMARK H PARENT 3 4 3 5
ROOT
ATOM      1  C   UNL     1      13.629  -3.738   4.029  1.00  0.00     0.029 C 
ATOM      2  C   UNL     1      12.459  -2.811   3.694  1.00  0.00     0.079 C 
ENDROOT
BRANCH   2   3
ATOM      3  N   UNL     1      12.723  -1.440   4.122  1.00  0.00    -0.324 NA
ATOM      4  H   UNL     1      12.749  -1.391   5.138  1.00  0.00     0.119 HD
ATOM      5  H   UNL     1      13.640  -1.147   3.789  1.00  0.00     0.119 HD
ENDBRANCH   2   3
BRANCH   2   6
ATOM      6  C   UNL     1      11.120  -3.323   4.205  1.00  0.00    -0.011 A 
ATOM      7  C   UNL     1      10.560  -2.649   5.314  1.00  0.00     0.007 A 
ATOM      8  C   UNL     1      10.400  -4.408   3.652  1.00  0.00     0.064 A 
ATOM      9  C   UNL     1       9.334  -3.029   5.859  1.00  0.00     0.002 A 
ATOM     10  C   UNL     1       9.162  -4.785   4.211  1.00  0.00     0.060 A 
ATOM     11  C   UNL     1       8.636  -4.096   5.307  1.00  0.00     0.022 A 
ATOM     12  Cl  UNL     1      11.017  -5.299   2.295  1.00  0.00    -0.082 Cl
ATOM     13  Cl  UNL     1       8.218  -6.100   3.594  1.00  0.00    -0.083 Cl
ENDBRANCH   2   6
TORSDOF 2
ENDMDL
MODEL 8
REMARK VINA RESULT:    -4.147     17.165     17.973
REMARK INTER + INTRA:          -4.647
REMARK INTER:                  -4.503
REMARK INTRA:                  -0.143
REMARK UNBOUND:                -0.137
REMARK SMILES C[C@H](N)c1cccc(Cl)c1Cl
REMARK SMILES IDX 1 1 2 2 3 3 4 6 5 7 10 8 6 9 8 10 7 11 11 12 9 13
REMARK H PARENT 3 4 3 5
ROOT
ATOM      1  C   UNL     1       5.267 -11.055 -11.964  1.00  0.00     0.029 C 
ATOM      2  C   UNL     1       5.072 -10.493 -10.555  1.00  0.00     0.079 C 
ENDROOT
BRANCH   2   3
ATOM      3  N   UNL     1       3.860  -9.684 -10.464  1.00  0.00    -0.324 NA
ATOM      4  H   UNL     1       3.335  -9.746 -11.334  1.00  0.00     0.119 HD
ATOM      5  H   UNL     1       3.258 -10.050  -9.729  1.00  0.00     0.119 HD
ENDBRANCH   2   3
BRANCH   2   6
ATOM      6  C   UNL     1       6.294  -9.756 -10.026  1.00  0.00    -0.011 A 
ATOM      7  C   UNL     1       7.058  -9.030 -10.968  1.00  0.00     0.007 A 
ATOM      8  C   UNL     1       6.713  -9.741  -8.675  1.00  0.00     0.064 A 
ATOM      9  C   UNL     1       8.194  -8.313 -10.592  1.00  0.00     0.002 A 
ATOM     10  C   UNL     1       7.862  -9.014  -8.305  1.00  0.00     0.060 A 
ATOM     11  C   UNL     1       8.595  -8.305  -9.261  1.00  0.00     0.022 A 
ATOM     12  Cl  UNL     1       5.839 -10.612  -7.452  1.00  0.00    -0.082 Cl
ATOM     13  Cl  UNL     1       8.441  -8.942  -6.674  1.00  0.00    -0.083 Cl
ENDBRANCH   2   6
TORSDOF 2
ENDMDL
MODEL 9
REMARK VINA RESULT:    -4.092     16.542     17.185
REMARK INTER + INTRA:          -4.587
REMARK INTER:                  -4.444
REMARK INTRA:                  -0.142
REMARK UNBOUND:                -0.137
REMARK SMILES C[C@H](N)c1cccc(Cl)c1Cl
REMARK SMILES IDX 1 1 2 2 3 3 4 6 5 7 10 8 6 9 8 10 7 11 11 12 9 13
REMARK H PARENT 3 4 3 5
ROOT
ATOM      1  C   UNL     1       6.904  -9.418 -11.319  1.00  0.00     0.029 C 
ATOM      2  C   UNL     1       6.285  -9.485  -9.923  1.00  0.00     0.079 C 
ENDROOT
BRANCH   2   3
ATOM      3  N   UNL     1       5.097  -8.642  -9.822  1.00  0.00    -0.324 NA
ATOM      4  H   UNL     1       4.271  -9.221  -9.683  1.00  0.00     0.119 HD
ATOM      5  H   UNL     1       5.174  -8.037  -9.007  1.00  0.00     0.119 HD
ENDBRANCH   2   3
BRANCH   2   6
ATOM      6  C   UNL     1       7.282  -9.206  -8.808  1.00  0.00    -0.011 A 
ATOM      7  C   UNL     1       8.408  -8.419  -9.141  1.00  0.00     0.007 A 
ATOM      8  C   UNL     1       7.163  -9.667  -7.476  1.00  0.00     0.064 A 
ATOM      9  C   UNL     1       9.381  -8.096  -8.196  1.00  0.00     0.002 A 
ATOM     10  C   UNL     1       8.152  -9.335  -6.528  1.00  0.00     0.060 A 
ATOM     11  C   UNL     1       9.253  -8.554  -6.890  1.00  0.00     0.022 A 
ATOM     12  Cl  UNL     1       5.817 -10.646  -6.979  1.00  0.00    -0.082 Cl
ATOM     13  Cl  UNL     1       8.081  -9.857  -4.877  1.00  0.00    -0.083 Cl
ENDBRANCH   2   6
TORSDOF 2
ENDMDL
