MODEL 1
REMARK VINA RESULT:    -5.018      0.000      0.000
REMARK INTER + INTRA:          -5.610
REMARK INTER:                  -5.458
REMARK INTRA:                  -0.152
REMARK UNBOUND:                -0.152
REMARK SMILES C[C@@H](N)c1cccc(Cl)c1Cl
REMARK SMILES IDX 2 1 1 2 4 3 10 4 8 5 5 6 7 7 6 8 11 9 9 10 3 11
REMARK H PARENT 3 12 3 13
ROOT
ATOM      1  C   UNL     1       5.661   8.605  -4.194  1.00  0.00     0.079 C 
ATOM      2  C   UNL     1       5.618   8.860  -5.710  1.00  0.00     0.029 C 
ENDROOT
BRANCH   1   3
ATOM      3  C   UNL     1       6.063   7.203  -3.862  1.00  0.00    -0.011 A 
ATOM      4  C   UNL     1       7.308   6.903  -3.309  1.00  0.00     0.064 A 
ATOM      5  C   UNL     1       7.640   5.579  -3.016  1.00  0.00     0.060 A 
ATOM      6  C   UNL     1       5.150   6.181  -4.122  1.00  0.00     0.007 A 
ATOM      7  C   UNL     1       6.727   4.557  -3.276  1.00  0.00     0.022 A 
ATOM      8  C   UNL     1       5.482   4.859  -3.829  1.00  0.00     0.002 A 
ATOM      9  Cl  UNL     1       8.426   8.191  -2.996  1.00  0.00    -0.082 Cl
ATOM     10  Cl  UNL     1       9.164   5.135  -2.330  1.00  0.00    -0.083 Cl
ENDBRANCH   1   3
BRANCH   1  11
ATOM     11  N   UNL     1       4.356   8.962  -3.611  1.00  0.00    -0.324 NA
ATOM     12  H   UNL     1       4.472   9.179  -2.622  1.00  0.00     0.119 HD
ATOM     13  H   UNL     1       3.734   8.156  -3.656  1.00  0.00     0.119 HD
ENDBRANCH   1  11
TORSDOF 2
ENDMDL
MODEL 2
REMARK VINA RESULT:    -4.761      1.905      2.706
REMARK INTER + INTRA:          -5.331
REMARK INTER:                  -5.178
REMARK INTRA:                  -0.154
REMARK UNBOUND:                -0.152
REMARK SMILES C[C@@H](N)c1cccc(Cl)c1Cl
REMARK SMILES IDX 2 1 1 2 4 3 10 4 8 5 5 6 7 7 6 8 11 9 9 10 3 11
REMARK H PARENT 3 12 3 13
ROOT
ATOM      1  C   UNL     1       5.404   8.161  -4.742  1.00  0.00     0.079 C 
ATOM      2  C   UNL     1       4.349   8.962  -3.961  1.00  0.00     0.029 C 
ENDROOT
BRANCH   1   3
ATOM      3  C   UNL     1       6.548   7.732  -3.881  1.00  0.00    -0.011 A 
ATOM      4  C   UNL     1       6.666   6.426  -3.406  1.00  0.00     0.064 A 
ATOM      5  C   UNL     1       7.752   6.070  -2.604  1.00  0.00     0.060 A 
ATOM      6  C   UNL     1       7.515   8.683  -3.554  1.00  0.00     0.007 A 
ATOM      7  C   UNL     1       8.719   7.021  -2.277  1.00  0.00     0.022 A 
ATOM      8  C   UNL     1       8.599   8.327  -2.753  1.00  0.00     0.002 A 
ATOM      9  Cl  UNL     1       5.451   5.261  -3.826  1.00  0.00    -0.082 Cl
ATOM     10  Cl  UNL     1       7.961   4.470  -1.983  1.00  0.00    -0.083 Cl
ENDBRANCH   1   3
BRANCH   1  11
ATOM     11  N   UNL     1       5.847   8.956  -5.900  1.00  0.00    -0.324 NA
ATOM     12  H   UNL     1       6.665   8.518  -6.323  1.00  0.00     0.119 HD
ATOM     13  H   UNL     1       6.148   9.877  -5.583  1.00  0.00     0.119 HD
ENDBRANCH   1  11
TORSDOF 2
ENDMDL
MODEL 3
REMARK VINA RESULT:    -4.531     13.973     15.158
REMARK INTER + INTRA:          -5.081
REMARK INTER:                  -4.924
REMARK INTRA:                  -0.156
REMARK UNBOUND:                -0.152
REMARK SMILES C[C@@H](N)c1cccc(Cl)c1Cl
REMARK SMILES IDX 2 1 1 2 4 3 10 4 8 5 5 6 7 7 6 8 11 9 9 10 3 11
REMARK H PARENT 3 12 3 13
ROOT
ATOM      1  C   UNL     1       8.421  -6.742   4.706  1.00  0.00     0.079 C 
ATOM      2  C   UNL     1       7.924  -7.491   5.953  1.00  0.00     0.029 C 
ENDROOT
BRANCH   1   3
ATOM      3  C   UNL     1       8.895  -5.359   5.021  1.00  0.00    -0.011 A 
ATOM      4  C   UNL     1       9.941  -4.760   4.320  1.00  0.00     0.064 A 
ATOM      5  C   UNL     1      10.351  -3.466   4.649  1.00  0.00     0.060 A 
ATOM      6  C   UNL     1       8.258  -4.667   6.050  1.00  0.00     0.007 A 
ATOM      7  C   UNL     1       9.714  -2.774   5.679  1.00  0.00     0.022 A 
ATOM      8  C   UNL     1       8.667  -3.375   6.379  1.00  0.00     0.002 A 
ATOM      9  Cl  UNL     1      10.719  -5.641   3.044  1.00  0.00    -0.082 Cl
ATOM     10  Cl  UNL     1      11.640  -2.663   3.822  1.00  0.00    -0.083 Cl
ENDBRANCH   1   3
BRANCH   1  11
ATOM     11  N   UNL     1       7.355  -6.746   3.689  1.00  0.00    -0.324 NA
ATOM     12  H   UNL     1       6.458  -6.552   4.133  1.00  0.00     0.119 HD
ATOM     13  H   UNL     1       7.277  -7.678   3.284  1.00  0.00     0.119 HD
ENDBRANCH   1  11
TORSDOF 2
ENDMDL
MODEL 4
REMARK VINA RESULT:    -4.456      2.513      3.879
REMARK INTER + INTRA:          -5.000
REMARK INTER:                  -4.892
REMARK INTRA:                  -0.107
REMARK UNBOUND:                -0.152
REMARK SMILES C[C@@H](N)c1cccc(Cl)c1Cl
REMARK SMILES IDX 2 1 1 2 4 3 10 4 8 5 5 6 7 7 6 8 11 9 9 10 3 11
REMARK H PARENT 3 12 3 13
ROOT
ATOM      1  C   UNL     1       8.856   5.886  -2.394  1.00  0.00     0.079 C 
ATOM      2  C   UNL     1       8.831   6.452  -0.964  1.00  0.00     0.029 C 
ENDROOT
BRANCH   1   3
ATOM      3  C   UNL     1       7.569   6.109  -3.120  1.00  0.00    -0.011 A 
ATOM      4  C   UNL     1       7.272   7.322  -3.742  1.00  0.00     0.064 A 
ATOM      5  C   UNL     1       6.056   7.485  -4.408  1.00  0.00     0.060 A 
ATOM      6  C   UNL     1       6.651   5.060  -3.163  1.00  0.00     0.007 A 
ATOM      7  C   UNL     1       5.138   6.436  -4.452  1.00  0.00     0.022 A 
ATOM      8  C   UNL     1       5.436   5.223  -3.829  1.00  0.00     0.002 A 
ATOM      9  Cl  UNL     1       8.429   8.612  -3.673  1.00  0.00    -0.082 Cl
ATOM     10  Cl  UNL     1       5.624   8.960  -5.201  1.00  0.00    -0.083 Cl
ENDBRANCH   1   3
BRANCH   1  11
ATOM     11  N   UNL     1       9.223   4.460  -2.337  1.00  0.00    -0.324 NA
ATOM     12  H   UNL     1       9.327   4.173  -1.364  1.00  0.00     0.119 HD
ATOM     13  H   UNL     1      10.134   4.328  -2.773  1.00  0.00     0.119 HD
ENDBRANCH   1  11
TORSDOF 2
ENDMDL
MODEL 5
REMARK VINA RESULT:    -4.344      2.773      3.911
REMARK INTER + INTRA:          -4.877
REMARK INTER:                  -4.850
REMARK INTRA:                  -0.026
REMARK UNBOUND:                -0.152
REMARK SMILES C[C@@H](N)c1cccc(Cl)c1Cl
REMARK SMILES IDX 2 1 1 2 4 3 10 4 8 5 5 6 7 7 6 8 11 9 9 10 3 11
REMARK H PARENT 3 12 3 13
ROOT
ATOM      1  C   UNL     1       9.656   7.564  -2.253  1.00  0.00     0.079 C 
ATOM      2  C   UNL     1      10.279   8.962  -2.404  1.00  0.00     0.029 C 
ENDROOT
BRANCH   1   3
ATOM      3  C   UNL     1       8.272   7.491  -2.815  1.00  0.00    -0.011 A 
ATOM      4  C   UNL     1       7.625   6.275  -3.031  1.00  0.00     0.064 A 
ATOM      5  C   UNL     1       6.333   6.255  -3.558  1.00  0.00     0.060 A 
ATOM      6  C   UNL     1       7.628   8.689  -3.127  1.00  0.00     0.007 A 
ATOM      7  C   UNL     1       5.689   7.452  -3.870  1.00  0.00     0.022 A 
ATOM      8  C   UNL     1       6.337   8.669  -3.654  1.00  0.00     0.002 A 
ATOM      9  Cl  UNL     1       8.448   4.799  -2.635  1.00  0.00    -0.082 Cl
ATOM     10  Cl  UNL     1       5.473   4.783  -3.850  1.00  0.00    -0.083 Cl
ENDBRANCH   1   3
BRANCH   1  11
ATOM     11  N   UNL     1       9.700   7.172  -0.834  1.00  0.00    -0.324 NA
ATOM     12  H   UNL     1       9.092   7.784  -0.291  1.00  0.00     0.119 HD
ATOM     13  H   UNL     1      10.643   7.313  -0.473  1.00  0.00     0.119 HD
ENDBRANCH   1  11
TORSDOF 2
ENDMDL
MODEL 6
REMARK VINA RESULT:    -4.251      2.752      4.402
REMARK INTER + INTRA:          -4.776
REMARK INTER:                  -4.623
REMARK INTRA:                  -0.153
REMARK UNBOUND:                -0.152
REMARK SMILES C[C@@H](N)c1cccc(Cl)c1Cl
REMARK SMILES IDX 2 1 1 2 4 3 10 4 8 5 5 6 7 7 6 8 11 9 9 10 3 11
REMARK H PARENT 3 12 3 13
ROOT
ATOM      1  C   UNL     1       7.567   5.432  -2.126  1.00  0.00     0.079 C 
ATOM      2  C   UNL     1       8.892   4.887  -2.685  1.00  0.00     0.029 C 
ENDROOT
BRANCH   1   3
ATOM      3  C   UNL     1       7.062   6.608  -2.899  1.00  0.00    -0.011 A 
ATOM      4  C   UNL     1       5.976   6.509  -3.769  1.00  0.00     0.064 A 
ATOM      5  C   UNL     1       5.539   7.634  -4.471  1.00  0.00     0.060 A 
ATOM      6  C   UNL     1       7.712   7.831  -2.731  1.00  0.00     0.007 A 
ATOM      7  C   UNL     1       6.189   8.857  -4.302  1.00  0.00     0.022 A 
ATOM      8  C   UNL     1       7.276   8.954  -3.433  1.00  0.00     0.002 A 
ATOM      9  Cl  UNL     1       5.184   4.978  -3.962  1.00  0.00    -0.082 Cl
ATOM     10  Cl  UNL     1       4.200   7.584  -5.563  1.00  0.00    -0.083 Cl
ENDBRANCH   1   3
BRANCH   1  11
ATOM     11  N   UNL     1       7.741   5.740  -0.696  1.00  0.00    -0.324 NA
ATOM     12  H   UNL     1       7.130   5.142  -0.141  1.00  0.00     0.119 HD
ATOM     13  H   UNL     1       7.443   6.698  -0.518  1.00  0.00     0.119 HD
ENDBRANCH   1  11
TORSDOF 2
ENDMDL
MODEL 7
REMARK VINA RESULT:    -4.196     13.560     14.347
REMARK INTER + INTRA:          -4.716
REMARK INTER:                  -4.564
REMARK INTRA:                  -0.152
REMARK UNBOUND:                -0.152
REMARK SMILES C[C@@H](N)c1cccc(Cl)c1Cl
REMARK SMILES IDX 2 1 1 2 4 3 10 4 8 5 5 6 7 7 6 8 11 9 9 10 3 11
REMARK H PARENT 3 12 3 13
ROOT
ATOM      1  C   UNL     1       9.006  -5.512   3.831  1.00  0.00     0.079 C 
ATOM      2  C   UNL     1       8.746  -6.312   5.118  1.00  0.00     0.029 C 
ENDROOT
BRANCH   1   3
ATOM      3  C   UNL     1       9.987  -4.403   4.036  1.00  0.00    -0.011 A 
ATOM      4  C   UNL     1      11.242  -4.405   3.428  1.00  0.00     0.064 A 
ATOM      5  C   UNL     1      12.126  -3.348   3.648  1.00  0.00     0.060 A 
ATOM      6  C   UNL     1       9.615  -3.344   4.864  1.00  0.00     0.007 A 
ATOM      7  C   UNL     1      11.754  -2.289   4.477  1.00  0.00     0.022 A 
ATOM      8  C   UNL     1      10.498  -2.288   5.084  1.00  0.00     0.002 A 
ATOM      9  Cl  UNL     1      11.682  -5.733   2.402  1.00  0.00    -0.082 Cl
ATOM     10  Cl  UNL     1      13.696  -3.285   2.926  1.00  0.00    -0.083 Cl
ENDBRANCH   1   3
BRANCH   1  11
ATOM     11  N   UNL     1       7.719  -5.027   3.302  1.00  0.00    -0.324 NA
ATOM     12  H   UNL     1       7.768  -4.018   3.159  1.00  0.00     0.119 HD
ATOM     13  H   UNL     1       6.988  -5.183   3.994  1.00  0.00     0.119 HD
ENDBRANCH   1  11
TORSDOF 2
ENDMDL
MODEL 8
REMARK VINA RESULT:    -4.145     16.325     17.102
REMARK INTER + INTRA:          -4.661
REMARK INTER:                  -4.513
REMARK INTRA:                  -0.148
REMARK UNBOUND:                -0.152
REMARK SMILES C[C@@H](N)c1cccc(Cl)c1Cl
REMARK SMILES IDX 2 1 1 2 4 3 10 4 8 5 5 6 7 7 6 8 11 9 9 10 3 11
REMARK H PARENT 3 12 3 13
ROOT
ATOM      1  C   UNL     1       5.820  -9.467 -10.573  1.00  0.00     0.079 C 
ATOM      2  C   UNL     1       6.274 -10.658 -11.435  1.00  0.00     0.029 C 
ENDROOT
BRANCH   1   3
ATOM      3  C   UNL     1       6.507  -9.427  -9.246  1.00  0.00    -0.011 A 
ATOM      4  C   UNL     1       7.710  -8.746  -9.058  1.00  0.00     0.064 A 
ATOM      5  C   UNL     1       8.317  -8.736  -7.801  1.00  0.00     0.060 A 
ATOM      6  C   UNL     1       5.911 -10.098  -8.179  1.00  0.00     0.007 A 
ATOM      7  C   UNL     1       7.720  -9.407  -6.733  1.00  0.00     0.022 A 
ATOM      8  C   UNL     1       6.517 -10.088  -6.923  1.00  0.00     0.002 A 
ATOM      9  Cl  UNL     1       8.433  -7.920 -10.401  1.00  0.00    -0.082 Cl
ATOM     10  Cl  UNL     1       9.806  -7.912  -7.496  1.00  0.00    -0.083 Cl
ENDBRANCH   1   3
BRANCH   1  11
ATOM     11  N   UNL     1       4.353  -9.506 -10.439  1.00  0.00    -0.324 NA
ATOM     12  H   UNL     1       4.083 -10.315  -9.880  1.00  0.00     0.119 HD
ATOM     13  H   UNL     1       3.933  -9.641 -11.357  1.00  0.00     0.119 HD
ENDBRANCH   1  11
TORSDOF 2
ENDMDL
MODEL 9
REMARK VINA RESULT:    -4.100     16.295     16.927
REMARK INTER + INTRA:          -4.612
REMARK INTER:                  -4.458
REMARK INTRA:                  -0.154
REMARK UNBOUND:                -0.152
REMARK SMILES C[C@@H](N)c1cccc(Cl)c1Cl
REMARK SMILES IDX 2 1 1 2 4 3 10 4 8 5 5 6 7 7 6 8 11 9 9 10 3 11
REMARK H PARENT 3 12 3 13
ROOT
ATOM      1  C   UNL     1       9.133  -8.638  -6.995  1.00  0.00     0.079 C 
ATOM      2  C   UNL     1       9.998  -9.887  -6.762  1.00  0.00     0.029 C 
ENDROOT
BRANCH   1   3
ATOM      3  C   UNL     1       8.528  -8.608  -8.362  1.00  0.00    -0.011 A 
ATOM      4  C   UNL     1       7.206  -8.989  -8.593  1.00  0.00     0.064 A 
ATOM      5  C   UNL     1       6.683  -8.946  -9.886  1.00  0.00     0.060 A 
ATOM      6  C   UNL     1       9.328  -8.185  -9.423  1.00  0.00     0.007 A 
ATOM      7  C   UNL     1       7.483  -8.523 -10.948  1.00  0.00     0.022 A 
ATOM      8  C   UNL     1       8.805  -8.142 -10.716  1.00  0.00     0.002 A 
ATOM      9  Cl  UNL     1       6.232  -9.512  -7.256  1.00  0.00    -0.082 Cl
ATOM     10  Cl  UNL     1       5.054  -9.402 -10.244  1.00  0.00    -0.083 Cl
ENDBRANCH   1   3
BRANCH   1  11
ATOM     11  N   UNL     1       9.942  -7.438  -6.719  1.00  0.00    -0.324 NA
ATOM     12  H   UNL     1      10.075  -7.339  -5.713  1.00  0.00     0.119 HD
ATOM     13  H   UNL     1       9.433  -6.609  -7.023  1.00  0.00     0.119 HD
ENDBRANCH   1  11
TORSDOF 2
ENDMDL
