MODEL 1
REMARK VINA RESULT:    -4.838      0.000      0.000
REMARK INTER + INTRA:          -5.393
REMARK INTER:                  -5.262
REMARK INTRA:                  -0.131
REMARK UNBOUND:                -0.131
REMARK SMILES C[C@H](N)c1cccc(Cl)c1Cl
REMARK SMILES IDX 1 1 2 2 3 3 4 6 5 7 10 8 6 9 8 10 7 11 11 12 9 13
REMARK H PARENT 3 4 3 5
ROOT
ATOM      1  C   UNL     1       4.313   8.961  -3.418  1.00  0.00     0.029 C 
ATOM      2  C   UNL     1       5.611   8.596  -4.139  1.00  0.00     0.079 C 
ENDROOT
BRANCH   2   3
ATOM      3  N   UNL     1       5.499   8.800  -5.581  1.00  0.00    -0.324 NA
ATOM      4  H   UNL     1       5.609   7.913  -6.067  1.00  0.00     0.119 HD
ATOM      5  H   UNL     1       4.569   9.147  -5.807  1.00  0.00     0.119 HD
ENDBRANCH   2   3
BRANCH   2   6
ATOM      6  C   UNL     1       6.120   7.204  -3.795  1.00  0.00    -0.011 A 
ATOM      7  C   UNL     1       5.254   6.122  -4.071  1.00  0.00     0.007 A 
ATOM      8  C   UNL     1       7.385   6.917  -3.230  1.00  0.00     0.064 A 
ATOM      9  C   UNL     1       5.621   4.803  -3.802  1.00  0.00     0.002 A 
ATOM     10  C   UNL     1       7.746   5.582  -2.962  1.00  0.00     0.060 A 
ATOM     11  C   UNL     1       6.867   4.534  -3.248  1.00  0.00     0.022 A 
ATOM     12  Cl  UNL     1       8.509   8.186  -2.851  1.00  0.00    -0.082 Cl
ATOM     13  Cl  UNL     1       9.275   5.145  -2.273  1.00  0.00    -0.083 Cl
ENDBRANCH   2   6
TORSDOF 2
ENDMDL
MODEL 2
REMARK VINA RESULT:    -4.659      2.015      3.479
REMARK INTER + INTRA:          -5.198
REMARK INTER:                  -5.153
REMARK INTRA:                  -0.045
REMARK UNBOUND:                -0.131
REMARK SMILES C[C@H](N)c1cccc(Cl)c1Cl
REMARK SMILES IDX 1 1 2 2 3 3 4 6 5 7 10 8 6 9 8 10 7 11 11 12 9 13
REMARK H PARENT 3 4 3 5
ROOT
ATOM      1  C   UNL     1       6.629   4.519  -3.824  1.00  0.00     0.029 C 
ATOM      2  C   UNL     1       6.178   5.867  -3.260  1.00  0.00     0.079 C 
ENDROOT
BRANCH   2   3
ATOM      3  N   UNL     1       5.126   6.465  -4.078  1.00  0.00    -0.324 NA
ATOM      4  H   UNL     1       5.295   7.462  -4.185  1.00  0.00     0.119 HD
ATOM      5  H   UNL     1       5.145   6.059  -5.011  1.00  0.00     0.119 HD
ENDBRANCH   2   3
BRANCH   2   6
ATOM      6  C   UNL     1       7.328   6.831  -3.010  1.00  0.00    -0.011 A 
ATOM      7  C   UNL     1       7.373   7.992  -3.814  1.00  0.00     0.007 A 
ATOM      8  C   UNL     1       8.342   6.653  -2.040  1.00  0.00     0.064 A 
ATOM      9  C   UNL     1       8.379   8.947  -3.667  1.00  0.00     0.002 A 
ATOM     10  C   UNL     1       9.355   7.624  -1.899  1.00  0.00     0.060 A 
ATOM     11  C   UNL     1       9.369   8.762  -2.709  1.00  0.00     0.022 A 
ATOM     12  Cl  UNL     1       8.371   5.252  -1.014  1.00  0.00    -0.082 Cl
ATOM     13  Cl  UNL     1      10.631   7.484  -0.735  1.00  0.00    -0.083 Cl
ENDBRANCH   2   6
TORSDOF 2
ENDMDL
MODEL 3
REMARK VINA RESULT:    -4.631      2.960      4.546
REMARK INTER + INTRA:          -5.168
REMARK INTER:                  -5.026
REMARK INTRA:                  -0.142
REMARK UNBOUND:                -0.131
REMARK SMILES C[C@H](N)c1cccc(Cl)c1Cl
REMARK SMILES IDX 1 1 2 2 3 3 4 6 5 7 10 8 6 9 8 10 7 11 11 12 9 13
REMARK H PARENT 3 4 3 5
ROOT
ATOM      1  C   UNL     1       7.685   4.663  -0.877  1.00  0.00     0.029 C 
ATOM      2  C   UNL     1       8.176   4.910  -2.304  1.00  0.00     0.079 C 
ENDROOT
BRANCH   2   3
ATOM      3  N   UNL     1       9.627   4.778  -2.402  1.00  0.00    -0.324 NA
ATOM      4  H   UNL     1       9.917   3.864  -2.060  1.00  0.00     0.119 HD
ATOM      5  H   UNL     1       9.911   4.832  -3.378  1.00  0.00     0.119 HD
ENDBRANCH   2   3
BRANCH   2   6
ATOM      6  C   UNL     1       7.679   6.221  -2.895  1.00  0.00    -0.011 A 
ATOM      7  C   UNL     1       8.482   7.363  -2.678  1.00  0.00     0.007 A 
ATOM      8  C   UNL     1       6.486   6.377  -3.640  1.00  0.00     0.064 A 
ATOM      9  C   UNL     1       8.125   8.615  -3.179  1.00  0.00     0.002 A 
ATOM     10  C   UNL     1       6.135   7.646  -4.142  1.00  0.00     0.060 A 
ATOM     11  C   UNL     1       6.952   8.756  -3.911  1.00  0.00     0.022 A 
ATOM     12  Cl  UNL     1       5.434   5.030  -3.947  1.00  0.00    -0.082 Cl
ATOM     13  Cl  UNL     1       4.695   7.922  -5.065  1.00  0.00    -0.083 Cl
ENDBRANCH   2   6
TORSDOF 2
ENDMDL
MODEL 4
REMARK VINA RESULT:    -4.541      3.209      4.422
REMARK INTER + INTRA:          -5.070
REMARK INTER:                  -4.941
REMARK INTRA:                  -0.129
REMARK UNBOUND:                -0.131
REMARK SMILES C[C@H](N)c1cccc(Cl)c1Cl
REMARK SMILES IDX 1 1 2 2 3 3 4 6 5 7 10 8 6 9 8 10 7 11 11 12 9 13
REMARK H PARENT 3 4 3 5
ROOT
ATOM      1  C   UNL     1      10.657   8.962  -1.052  1.00  0.00     0.029 C 
ATOM      2  C   UNL     1      10.228   7.514  -1.292  1.00  0.00     0.079 C 
ENDROOT
BRANCH   2   3
ATOM      3  N   UNL     1      11.358   6.681  -1.697  1.00  0.00    -0.324 NA
ATOM      4  H   UNL     1      11.801   6.275  -0.876  1.00  0.00     0.119 HD
ATOM      5  H   UNL     1      11.025   5.906  -2.267  1.00  0.00     0.119 HD
ENDBRANCH   2   3
BRANCH   2   6
ATOM      6  C   UNL     1       9.050   7.384  -2.246  1.00  0.00    -0.011 A 
ATOM      7  C   UNL     1       8.808   8.474  -3.113  1.00  0.00     0.007 A 
ATOM      8  C   UNL     1       8.192   6.263  -2.331  1.00  0.00     0.064 A 
ATOM      9  C   UNL     1       7.759   8.460  -4.032  1.00  0.00     0.002 A 
ATOM     10  C   UNL     1       7.135   6.258  -3.263  1.00  0.00     0.060 A 
ATOM     11  C   UNL     1       6.924   7.352  -4.108  1.00  0.00     0.022 A 
ATOM     12  Cl  UNL     1       8.410   4.883  -1.300  1.00  0.00    -0.082 Cl
ATOM     13  Cl  UNL     1       6.041   4.925  -3.433  1.00  0.00    -0.083 Cl
ENDBRANCH   2   6
TORSDOF 2
ENDMDL
MODEL 5
REMARK VINA RESULT:    -4.504     13.535     15.079
REMARK INTER + INTRA:          -5.031
REMARK INTER:                  -4.909
REMARK INTRA:                  -0.122
REMARK UNBOUND:                -0.131
REMARK SMILES C[C@H](N)c1cccc(Cl)c1Cl
REMARK SMILES IDX 1 1 2 2 3 3 4 6 5 7 10 8 6 9 8 10 7 11 11 12 9 13
REMARK H PARENT 3 4 3 5
ROOT
ATOM      1  C   UNL     1      10.824  -2.284   4.819  1.00  0.00     0.029 C 
ATOM      2  C   UNL     1       9.933  -3.327   4.143  1.00  0.00     0.079 C 
ENDROOT
BRANCH   2   3
ATOM      3  N   UNL     1       8.942  -2.701   3.272  1.00  0.00    -0.324 NA
ATOM      4  H   UNL     1       8.645  -1.812   3.667  1.00  0.00     0.119 HD
ATOM      5  H   UNL     1       9.361  -2.498   2.367  1.00  0.00     0.119 HD
ENDBRANCH   2   3
BRANCH   2   6
ATOM      6  C   UNL     1       9.300  -4.305   5.122  1.00  0.00    -0.011 A 
ATOM      7  C   UNL     1       9.242  -3.905   6.476  1.00  0.00     0.007 A 
ATOM      8  C   UNL     1       8.767  -5.570   4.778  1.00  0.00     0.064 A 
ATOM      9  C   UNL     1       8.677  -4.720   7.457  1.00  0.00     0.002 A 
ATOM     10  C   UNL     1       8.199  -6.386   5.776  1.00  0.00     0.060 A 
ATOM     11  C   UNL     1       8.155  -5.959   7.107  1.00  0.00     0.022 A 
ATOM     12  Cl  UNL     1       8.804  -6.146   3.140  1.00  0.00    -0.082 Cl
ATOM     13  Cl  UNL     1       7.523  -7.945   5.439  1.00  0.00    -0.083 Cl
ENDBRANCH   2   6
TORSDOF 2
ENDMDL
MODEL 6
REMARK VINA RESULT:    -4.439     14.064     14.455
REMARK INTER + INTRA:          -4.959
REMARK INTER:                  -4.827
REMARK INTRA:                  -0.133
REMARK UNBOUND:                -0.131
REMARK SMILES C[C@H](N)c1cccc(Cl)c1Cl
REMARK SMILES IDX 1 1 2 2 3 3 4 6 5 7 10 8 6 9 8 10 7 11 11 12 9 13
REMARK H PARENT 3 4 3 5
ROOT
ATOM      1  C   UNL     1      11.480  -7.694  -0.576  1.00  0.00     0.029 C 
ATOM      2  C   UNL     1      11.035  -6.309  -0.105  1.00  0.00     0.079 C 
ENDROOT
BRANCH   2   3
ATOM      3  N   UNL     1      10.265  -5.616  -1.135  1.00  0.00    -0.324 NA
ATOM      4  H   UNL     1       9.573  -6.245  -1.534  1.00  0.00     0.119 HD
ATOM      5  H   UNL     1       9.754  -4.841  -0.716  1.00  0.00     0.119 HD
ENDBRANCH   2   3
BRANCH   2   6
ATOM      6  C   UNL     1      12.178  -5.457   0.427  1.00  0.00    -0.011 A 
ATOM      7  C   UNL     1      13.149  -5.035  -0.510  1.00  0.00     0.007 A 
ATOM      8  C   UNL     1      12.335  -5.058   1.775  1.00  0.00     0.064 A 
ATOM      9  C   UNL     1      14.235  -4.246  -0.133  1.00  0.00     0.002 A 
ATOM     10  C   UNL     1      13.437  -4.261   2.146  1.00  0.00     0.060 A 
ATOM     11  C   UNL     1      14.378  -3.858   1.194  1.00  0.00     0.022 A 
ATOM     12  Cl  UNL     1      11.196  -5.538   2.994  1.00  0.00    -0.082 Cl
ATOM     13  Cl  UNL     1      13.701  -3.727   3.773  1.00  0.00    -0.083 Cl
ENDBRANCH   2   6
TORSDOF 2
ENDMDL
MODEL 7
REMARK VINA RESULT:    -4.393      2.245      3.714
REMARK INTER + INTRA:          -4.909
REMARK INTER:                  -5.107
REMARK INTRA:                   0.197
REMARK UNBOUND:                -0.131
REMARK SMILES C[C@H](N)c1cccc(Cl)c1Cl
REMARK SMILES IDX 1 1 2 2 3 3 4 6 5 7 10 8 6 9 8 10 7 11 11 12 9 13
REMARK H PARENT 3 4 3 5
ROOT
ATOM      1  C   UNL     1       5.489   3.715  -3.215  1.00  0.00     0.029 C 
ATOM      2  C   UNL     1       6.877   4.266  -2.882  1.00  0.00     0.079 C 
ENDROOT
BRANCH   2   3
ATOM      3  N   UNL     1       7.275   3.925  -1.519  1.00  0.00    -0.324 NA
ATOM      4  H   UNL     1       7.539   2.943  -1.469  1.00  0.00     0.119 HD
ATOM      5  H   UNL     1       8.097   4.465  -1.257  1.00  0.00     0.119 HD
ENDBRANCH   2   3
BRANCH   2   6
ATOM      6  C   UNL     1       7.019   5.754  -3.166  1.00  0.00    -0.011 A 
ATOM      7  C   UNL     1       5.944   6.381  -3.836  1.00  0.00     0.007 A 
ATOM      8  C   UNL     1       8.134   6.547  -2.808  1.00  0.00     0.064 A 
ATOM      9  C   UNL     1       5.966   7.742  -4.141  1.00  0.00     0.002 A 
ATOM     10  C   UNL     1       8.147   7.921  -3.120  1.00  0.00     0.060 A 
ATOM     11  C   UNL     1       7.067   8.511  -3.782  1.00  0.00     0.022 A 
ATOM     12  Cl  UNL     1       9.503   5.858  -1.990  1.00  0.00    -0.082 Cl
ATOM     13  Cl  UNL     1       9.471   8.962  -2.715  1.00  0.00    -0.083 Cl
ENDBRANCH   2   6
TORSDOF 2
ENDMDL
MODEL 8
REMARK VINA RESULT:    -4.342     13.734     14.230
REMARK INTER + INTRA:          -4.854
REMARK INTER:                  -4.751
REMARK INTRA:                  -0.103
REMARK UNBOUND:                -0.131
REMARK SMILES C[C@H](N)c1cccc(Cl)c1Cl
REMARK SMILES IDX 1 1 2 2 3 3 4 6 5 7 10 8 6 9 8 10 7 11 11 12 9 13
REMARK H PARENT 3 4 3 5
ROOT
ATOM      1  C   UNL     1      13.629  -3.738   4.029  1.00  0.00     0.029 C 
ATOM      2  C   UNL     1      12.459  -2.811   3.694  1.00  0.00     0.079 C 
ENDROOT
BRANCH   2   3
ATOM      3  N   UNL     1      12.723  -1.440   4.122  1.00  0.00    -0.324 NA
ATOM      4  H   UNL     1      12.749  -1.391   5.138  1.00  0.00     0.119 HD
ATOM      5  H   UNL     1      13.640  -1.147   3.789  1.00  0.00     0.119 HD
ENDBRANCH   2   3
BRANCH   2   6
ATOM      6  C   UNL     1      11.120  -3.323   4.205  1.00  0.00    -0.011 A 
ATOM      7  C   UNL     1      10.560  -2.649   5.314  1.00  0.00     0.007 A 
ATOM      8  C   UNL     1      10.400  -4.408   3.652  1.00  0.00     0.064 A 
ATOM      9  C   UNL     1       9.334  -3.029   5.859  1.00  0.00     0.002 A 
ATOM     10  C   UNL     1       9.162  -4.785   4.211  1.00  0.00     0.060 A 
ATOM     11  C   UNL     1       8.636  -4.096   5.307  1.00  0.00     0.022 A 
ATOM     12  Cl  UNL     1      11.017  -5.299   2.295  1.00  0.00    -0.082 Cl
ATOM     13  Cl  UNL     1       8.218  -6.100   3.594  1.00  0.00    -0.083 Cl
ENDBRANCH   2   6
TORSDOF 2
ENDMDL
