MODEL 1
REMARK VINA RESULT:    -5.149      0.000      0.000
REMARK INTER + INTRA:          -5.737
REMARK INTER:                  -5.601
REMARK INTRA:                  -0.136
REMARK UNBOUND:                -0.136
REMARK SMILES C[C@H](N)c1cccc(Cl)c1Cl
REMARK SMILES IDX 1 1 2 2 3 3 4 6 5 7 10 8 6 9 8 10 7 11 11 12 9 13
REMARK H PARENT 3 4 3 5
ROOT
ATOM      1  C   UNL     1       5.807   8.962  -6.019  1.00  0.00     0.029 C 
ATOM      2  C   UNL     1       5.351   8.162  -4.798  1.00  0.00     0.079 C 
ENDROOT
BRANCH   2   3
ATOM      3  N   UNL     1       4.342   8.885  -4.030  1.00  0.00    -0.324 NA
ATOM      4  H   UNL     1       4.179   8.416  -3.142  1.00  0.00     0.119 HD
ATOM      5  H   UNL     1       4.681   9.820  -3.813  1.00  0.00     0.119 HD
ENDBRANCH   2   3
BRANCH   2   6
ATOM      6  C   UNL     1       6.503   7.686  -3.925  1.00  0.00    -0.011 A 
ATOM      7  C   UNL     1       7.493   8.640  -3.599  1.00  0.00     0.007 A 
ATOM      8  C   UNL     1       6.651   6.373  -3.418  1.00  0.00     0.064 A 
ATOM      9  C   UNL     1       8.589   8.314  -2.801  1.00  0.00     0.002 A 
ATOM     10  C   UNL     1       7.762   6.054  -2.612  1.00  0.00     0.060 A 
ATOM     11  C   UNL     1       8.723   7.022  -2.307  1.00  0.00     0.022 A 
ATOM     12  Cl  UNL     1       5.487   5.134  -3.775  1.00  0.00    -0.082 Cl
ATOM     13  Cl  UNL     1       8.016   4.473  -1.950  1.00  0.00    -0.083 Cl
ENDBRANCH   2   6
TORSDOF 2
ENDMDL
MODEL 2
REMARK VINA RESULT:    -5.033      1.809      2.507
REMARK INTER + INTRA:          -5.611
REMARK INTER:                  -5.665
REMARK INTRA:                   0.054
REMARK UNBOUND:                -0.136
REMARK SMILES C[C@H](N)c1cccc(Cl)c1Cl
REMARK SMILES IDX 1 1 2 2 3 3 4 6 5 7 10 8 6 9 8 10 7 11 11 12 9 13
REMARK H PARENT 3 4 3 5
ROOT
ATOM      1  C   UNL     1       5.838   8.779  -5.372  1.00  0.00     0.029 C 
ATOM      2  C   UNL     1       5.040   7.969  -4.350  1.00  0.00     0.079 C 
ENDROOT
BRANCH   2   3
ATOM      3  N   UNL     1       4.384   8.836  -3.374  1.00  0.00    -0.324 NA
ATOM      4  H   UNL     1       3.895   8.273  -2.682  1.00  0.00     0.119 HD
ATOM      5  H   UNL     1       5.085   9.378  -2.872  1.00  0.00     0.119 HD
ENDBRANCH   2   3
BRANCH   2   6
ATOM      6  C   UNL     1       5.854   6.870  -3.684  1.00  0.00    -0.011 A 
ATOM      7  C   UNL     1       5.470   5.538  -3.957  1.00  0.00     0.007 A 
ATOM      8  C   UNL     1       6.958   7.082  -2.825  1.00  0.00     0.064 A 
ATOM      9  C   UNL     1       6.150   4.452  -3.405  1.00  0.00     0.002 A 
ATOM     10  C   UNL     1       7.638   5.978  -2.273  1.00  0.00     0.060 A 
ATOM     11  C   UNL     1       7.234   4.673  -2.564  1.00  0.00     0.022 A 
ATOM     12  Cl  UNL     1       7.494   8.686  -2.428  1.00  0.00    -0.082 Cl
ATOM     13  Cl  UNL     1       9.000   6.151  -1.215  1.00  0.00    -0.083 Cl
ENDBRANCH   2   6
TORSDOF 2
ENDMDL
MODEL 3
REMARK VINA RESULT:    -4.648      2.460      4.020
REMARK INTER + INTRA:          -5.192
REMARK INTER:                  -5.050
REMARK INTRA:                  -0.142
REMARK UNBOUND:                -0.136
REMARK SMILES C[C@H](N)c1cccc(Cl)c1Cl
REMARK SMILES IDX 1 1 2 2 3 3 4 6 5 7 10 8 6 9 8 10 7 11 11 12 9 13
REMARK H PARENT 3 4 3 5
ROOT
ATOM      1  C   UNL     1       7.671   4.702  -0.872  1.00  0.00     0.029 C 
ATOM      2  C   UNL     1       8.140   4.915  -2.312  1.00  0.00     0.079 C 
ENDROOT
BRANCH   2   3
ATOM      3  N   UNL     1       9.588   4.770  -2.431  1.00  0.00    -0.324 NA
ATOM      4  H   UNL     1      10.000   4.635  -1.510  1.00  0.00     0.119 HD
ATOM      5  H   UNL     1       9.806   3.939  -2.977  1.00  0.00     0.119 HD
ENDBRANCH   2   3
BRANCH   2   6
ATOM      6  C   UNL     1       7.642   6.217  -2.921  1.00  0.00    -0.011 A 
ATOM      7  C   UNL     1       8.447   7.362  -2.725  1.00  0.00     0.007 A 
ATOM      8  C   UNL     1       6.448   6.363  -3.665  1.00  0.00     0.064 A 
ATOM      9  C   UNL     1       8.090   8.606  -3.245  1.00  0.00     0.002 A 
ATOM     10  C   UNL     1       6.096   7.624  -4.186  1.00  0.00     0.060 A 
ATOM     11  C   UNL     1       6.916   8.736  -3.976  1.00  0.00     0.022 A 
ATOM     12  Cl  UNL     1       5.393   5.012  -3.948  1.00  0.00    -0.082 Cl
ATOM     13  Cl  UNL     1       4.653   7.887  -5.109  1.00  0.00    -0.083 Cl
ENDBRANCH   2   6
TORSDOF 2
ENDMDL
MODEL 4
REMARK VINA RESULT:    -4.644      2.542      4.076
REMARK INTER + INTRA:          -5.188
REMARK INTER:                  -5.050
REMARK INTRA:                  -0.138
REMARK UNBOUND:                -0.136
REMARK SMILES C[C@H](N)c1cccc(Cl)c1Cl
REMARK SMILES IDX 1 1 2 2 3 3 4 6 5 7 10 8 6 9 8 10 7 11 11 12 9 13
REMARK H PARENT 3 4 3 5
ROOT
ATOM      1  C   UNL     1      10.415   8.962  -1.097  1.00  0.00     0.029 C 
ATOM      2  C   UNL     1      10.037   7.493  -1.291  1.00  0.00     0.079 C 
ENDROOT
BRANCH   2   3
ATOM      3  N   UNL     1      11.195   6.688  -1.672  1.00  0.00    -0.324 NA
ATOM      4  H   UNL     1      10.895   5.751  -1.931  1.00  0.00     0.119 HD
ATOM      5  H   UNL     1      11.640   7.094  -2.492  1.00  0.00     0.119 HD
ENDBRANCH   2   3
BRANCH   2   6
ATOM      6  C   UNL     1       8.863   7.293  -2.239  1.00  0.00    -0.011 A 
ATOM      7  C   UNL     1       8.614   8.325  -3.172  1.00  0.00     0.007 A 
ATOM      8  C   UNL     1       8.017   6.160  -2.256  1.00  0.00     0.064 A 
ATOM      9  C   UNL     1       7.569   8.244  -4.091  1.00  0.00     0.002 A 
ATOM     10  C   UNL     1       6.963   6.088  -3.189  1.00  0.00     0.060 A 
ATOM     11  C   UNL     1       6.744   7.125  -4.100  1.00  0.00     0.022 A 
ATOM     12  Cl  UNL     1       8.244   4.849  -1.140  1.00  0.00    -0.082 Cl
ATOM     13  Cl  UNL     1       5.882   4.736  -3.279  1.00  0.00    -0.083 Cl
ENDBRANCH   2   6
TORSDOF 2
ENDMDL
MODEL 5
REMARK VINA RESULT:    -4.636      1.940      2.890
REMARK INTER + INTRA:          -5.178
REMARK INTER:                  -5.113
REMARK INTRA:                  -0.066
REMARK UNBOUND:                -0.136
REMARK SMILES C[C@H](N)c1cccc(Cl)c1Cl
REMARK SMILES IDX 1 1 2 2 3 3 4 6 5 7 10 8 6 9 8 10 7 11 11 12 9 13
REMARK H PARENT 3 4 3 5
ROOT
ATOM      1  C   UNL     1       6.632   4.523  -3.839  1.00  0.00     0.029 C 
ATOM      2  C   UNL     1       6.168   5.845  -3.226  1.00  0.00     0.079 C 
ENDROOT
BRANCH   2   3
ATOM      3  N   UNL     1       5.080   6.441  -3.997  1.00  0.00    -0.324 NA
ATOM      4  H   UNL     1       4.199   5.991  -3.759  1.00  0.00     0.119 HD
ATOM      5  H   UNL     1       4.985   7.424  -3.752  1.00  0.00     0.119 HD
ENDBRANCH   2   3
BRANCH   2   6
ATOM      6  C   UNL     1       7.304   6.828  -2.983  1.00  0.00    -0.011 A 
ATOM      7  C   UNL     1       7.324   7.991  -3.786  1.00  0.00     0.007 A 
ATOM      8  C   UNL     1       8.327   6.667  -2.019  1.00  0.00     0.064 A 
ATOM      9  C   UNL     1       8.315   8.962  -3.645  1.00  0.00     0.002 A 
ATOM     10  C   UNL     1       9.324   7.654  -1.884  1.00  0.00     0.060 A 
ATOM     11  C   UNL     1       9.314   8.793  -2.693  1.00  0.00     0.022 A 
ATOM     12  Cl  UNL     1       8.385   5.266  -0.994  1.00  0.00    -0.082 Cl
ATOM     13  Cl  UNL     1      10.609   7.535  -0.728  1.00  0.00    -0.083 Cl
ENDBRANCH   2   6
TORSDOF 2
ENDMDL
MODEL 6
REMARK VINA RESULT:    -4.486      3.001      4.637
REMARK INTER + INTRA:          -5.016
REMARK INTER:                  -4.914
REMARK INTRA:                  -0.102
REMARK UNBOUND:                -0.136
REMARK SMILES C[C@H](N)c1cccc(Cl)c1Cl
REMARK SMILES IDX 1 1 2 2 3 3 4 6 5 7 10 8 6 9 8 10 7 11 11 12 9 13
REMARK H PARENT 3 4 3 5
ROOT
ATOM      1  C   UNL     1       9.625   5.829  -1.945  1.00  0.00     0.029 C 
ATOM      2  C   UNL     1       8.211   5.567  -1.425  1.00  0.00     0.079 C 
ENDROOT
BRANCH   2   3
ATOM      3  N   UNL     1       8.096   4.238  -0.832  1.00  0.00    -0.324 NA
ATOM      4  H   UNL     1       7.629   3.607  -1.480  1.00  0.00     0.119 HD
ATOM      5  H   UNL     1       9.025   3.855  -0.665  1.00  0.00     0.119 HD
ENDBRANCH   2   3
BRANCH   2   6
ATOM      6  C   UNL     1       7.130   5.827  -2.463  1.00  0.00    -0.011 A 
ATOM      7  C   UNL     1       6.491   4.694  -3.016  1.00  0.00     0.007 A 
ATOM      8  C   UNL     1       6.719   7.106  -2.907  1.00  0.00     0.064 A 
ATOM      9  C   UNL     1       5.481   4.816  -3.971  1.00  0.00     0.002 A 
ATOM     10  C   UNL     1       5.698   7.219  -3.872  1.00  0.00     0.060 A 
ATOM     11  C   UNL     1       5.085   6.078  -4.397  1.00  0.00     0.022 A 
ATOM     12  Cl  UNL     1       7.455   8.553  -2.288  1.00  0.00    -0.082 Cl
ATOM     13  Cl  UNL     1       5.135   8.746  -4.466  1.00  0.00    -0.083 Cl
ENDBRANCH   2   6
TORSDOF 2
ENDMDL
MODEL 7
REMARK VINA RESULT:    -4.473     13.753     15.377
REMARK INTER + INTRA:          -5.002
REMARK INTER:                  -4.901
REMARK INTRA:                  -0.101
REMARK UNBOUND:                -0.136
REMARK SMILES C[C@H](N)c1cccc(Cl)c1Cl
REMARK SMILES IDX 1 1 2 2 3 3 4 6 5 7 10 8 6 9 8 10 7 11 11 12 9 13
REMARK H PARENT 3 4 3 5
ROOT
ATOM      1  C   UNL     1      10.749  -2.307   4.988  1.00  0.00     0.029 C 
ATOM      2  C   UNL     1       9.910  -3.363   4.267  1.00  0.00     0.079 C 
ENDROOT
BRANCH   2   3
ATOM      3  N   UNL     1       8.941  -2.751   3.362  1.00  0.00    -0.324 NA
ATOM      4  H   UNL     1       9.393  -2.503   2.485  1.00  0.00     0.119 HD
ATOM      5  H   UNL     1       8.210  -3.423   3.138  1.00  0.00     0.119 HD
ENDBRANCH   2   3
BRANCH   2   6
ATOM      6  C   UNL     1       9.260  -4.364   5.211  1.00  0.00    -0.011 A 
ATOM      7  C   UNL     1       9.208  -4.010   6.579  1.00  0.00     0.007 A 
ATOM      8  C   UNL     1       8.706  -5.606   4.823  1.00  0.00     0.064 A 
ATOM      9  C   UNL     1       8.629  -4.849   7.531  1.00  0.00     0.002 A 
ATOM     10  C   UNL     1       8.124  -6.447   5.793  1.00  0.00     0.060 A 
ATOM     11  C   UNL     1       8.087  -6.067   7.137  1.00  0.00     0.022 A 
ATOM     12  Cl  UNL     1       8.733  -6.126   3.166  1.00  0.00    -0.082 Cl
ATOM     13  Cl  UNL     1       7.422  -7.982   5.402  1.00  0.00    -0.083 Cl
ENDBRANCH   2   6
TORSDOF 2
ENDMDL
MODEL 8
REMARK VINA RESULT:    -4.452     14.281     14.584
REMARK INTER + INTRA:          -4.979
REMARK INTER:                  -4.847
REMARK INTRA:                  -0.132
REMARK UNBOUND:                -0.136
REMARK SMILES C[C@H](N)c1cccc(Cl)c1Cl
REMARK SMILES IDX 1 1 2 2 3 3 4 6 5 7 10 8 6 9 8 10 7 11 11 12 9 13
REMARK H PARENT 3 4 3 5
ROOT
ATOM      1  C   UNL     1      11.441  -7.703  -0.554  1.00  0.00     0.029 C 
ATOM      2  C   UNL     1      11.008  -6.309  -0.098  1.00  0.00     0.079 C 
ENDROOT
BRANCH   2   3
ATOM      3  N   UNL     1      10.231  -5.626  -1.129  1.00  0.00    -0.324 NA
ATOM      4  H   UNL     1      10.610  -5.840  -2.049  1.00  0.00     0.119 HD
ATOM      5  H   UNL     1       9.272  -5.966  -1.117  1.00  0.00     0.119 HD
ENDBRANCH   2   3
BRANCH   2   6
ATOM      6  C   UNL     1      12.161  -5.456   0.411  1.00  0.00    -0.011 A 
ATOM      7  C   UNL     1      13.128  -5.058  -0.540  1.00  0.00     0.007 A 
ATOM      8  C   UNL     1      12.331  -5.034   1.750  1.00  0.00     0.064 A 
ATOM      9  C   UNL     1      14.223  -4.270  -0.185  1.00  0.00     0.002 A 
ATOM     10  C   UNL     1      13.441  -4.238   2.099  1.00  0.00     0.060 A 
ATOM     11  C   UNL     1      14.378  -3.860   1.133  1.00  0.00     0.022 A 
ATOM     12  Cl  UNL     1      11.197  -5.484   2.986  1.00  0.00    -0.082 Cl
ATOM     13  Cl  UNL     1      13.722  -3.678   3.714  1.00  0.00    -0.083 Cl
ENDBRANCH   2   6
TORSDOF 2
ENDMDL
MODEL 9
REMARK VINA RESULT:    -4.350      2.612      3.741
REMARK INTER + INTRA:          -4.868
REMARK INTER:                  -5.017
REMARK INTRA:                   0.149
REMARK UNBOUND:                -0.136
REMARK SMILES C[C@H](N)c1cccc(Cl)c1Cl
REMARK SMILES IDX 1 1 2 2 3 3 4 6 5 7 10 8 6 9 8 10 7 11 11 12 9 13
REMARK H PARENT 3 4 3 5
ROOT
ATOM      1  C   UNL     1       5.474   4.178  -3.808  1.00  0.00     0.029 C 
ATOM      2  C   UNL     1       6.851   4.566  -3.266  1.00  0.00     0.079 C 
ENDROOT
BRANCH   2   3
ATOM      3  N   UNL     1       7.093   3.980  -1.951  1.00  0.00    -0.324 NA
ATOM      4  H   UNL     1       6.500   3.164  -1.819  1.00  0.00     0.119 HD
ATOM      5  H   UNL     1       8.057   3.658  -1.891  1.00  0.00     0.119 HD
ENDBRANCH   2   3
BRANCH   2   6
ATOM      6  C   UNL     1       7.105   6.066  -3.282  1.00  0.00    -0.011 A 
ATOM      7  C   UNL     1       6.107   6.875  -3.871  1.00  0.00     0.007 A 
ATOM      8  C   UNL     1       8.251   6.702  -2.751  1.00  0.00     0.064 A 
ATOM      9  C   UNL     1       6.233   8.263  -3.934  1.00  0.00     0.002 A 
ATOM     10  C   UNL     1       8.369   8.105  -2.819  1.00  0.00     0.060 A 
ATOM     11  C   UNL     1       7.363   8.877  -3.407  1.00  0.00     0.022 A 
ATOM     12  Cl  UNL     1       9.530   5.785  -2.016  1.00  0.00    -0.082 Cl
ATOM     13  Cl  UNL     1       9.738   8.962  -2.191  1.00  0.00    -0.083 Cl
ENDBRANCH   2   6
TORSDOF 2
ENDMDL
