BEGIN_RES GLN A 29
REMARK INDEX MAP 3 1 15 2 18 3 21 4 22 5 23 6 24 7 25 8
ROOT
ATOM      1  CA  GLN A  29      16.975   0.393   8.263  1.00  0.00    +0.171 C 
ENDROOT
BRANCH   1   2
ATOM      2  CB  GLN A  29      16.816  -1.139   8.255  1.00  0.00    +0.045 C 
BRANCH   2   3
ATOM      3  CG  GLN A  29      16.958  -1.732   6.845  1.00  0.00    +0.102 C 
BRANCH   3   4
ATOM      4  CD  GLN A  29      15.791  -1.360   5.937  1.00  0.00    +0.217 C 
ATOM      5  OE1 GLN A  29      14.658  -1.245   6.365  1.00  0.00    -0.275 OA
ATOM      6  NE2 GLN A  29      16.020  -1.158   4.659  1.00  0.00    -0.368 N 
ATOM      7 HE22 GLN A  29      15.244  -0.906   4.030  1.00  0.00    +0.159 HD
ATOM      8 HE21 GLN A  29      16.975  -1.252   4.286  1.00  0.00    +0.159 HD
ENDBRANCH   3   4
ENDBRANCH   2   3
ENDBRANCH   1   2
END_RES GLN A 29
BEGIN_RES LYS A 33
REMARK INDEX MAP 3 1 15 2 18 3 21 4 24 5 27 6 28 7 29 8 30 9
ROOT
ATOM      9  CA  LYS A  33      11.989   3.808   9.373  1.00  0.00    +0.171 C 
ENDROOT
BRANCH   9  10
ATOM     10  CB  LYS A  33      11.876   2.482  10.136  1.00  0.00    +0.035 C 
BRANCH  10  11
ATOM     11  CG  LYS A  33      11.742   1.304   9.165  1.00  0.00    +0.008 C 
BRANCH  11  12
ATOM     12  CD  LYS A  33      11.302   0.042   9.912  1.00  0.00    +0.061 C 
BRANCH  12  13
ATOM     13  CE  LYS A  33      11.018  -1.056   8.886  1.00  0.00    +0.258 C 
BRANCH  13  14
ATOM     14  NZ  LYS A  33      10.288  -2.192   9.500  1.00  0.00    -0.357 N 
ATOM     15  HZ1 LYS A  33      10.336  -2.117  10.526  1.00  0.00    +0.345 HD
ATOM     16  HZ2 LYS A  33       9.303  -2.169   9.200  1.00  0.00    +0.345 HD
ATOM     17  HZ3 LYS A  33      10.718  -3.079   9.200  1.00  0.00    +0.345 HD
ENDBRANCH  13  14
ENDBRANCH  12  13
ENDBRANCH  11  12
ENDBRANCH  10  11
ENDBRANCH   9  10
END_RES LYS A 33
BEGIN_RES SER A 149
REMARK INDEX MAP 3 1 15 2 18 3 19 4
ROOT
ATOM     18  CA  SER A 149       7.343  -2.533  -0.915  1.00  0.00    +0.197 C 
ENDROOT
BRANCH  18  19
ATOM     19  CB  SER A 149       7.142  -1.337   0.020  1.00  0.00    +0.191 C 
BRANCH  19  20
ATOM     20  OG  SER A 149       7.247  -0.125  -0.701  1.00  0.00    -0.392 OA
ATOM     21  HG  SER A 149       7.313   0.632  -0.066  1.00  0.00    +0.210 HD
ENDBRANCH  19  20
ENDBRANCH  18  19
END_RES SER A 149
BEGIN_RES VAL A 150
REMARK INDEX MAP 3 1 15 2 17 3 18 4
ROOT
ATOM     22  CA  VAL A 150       6.162  -5.910   0.524  1.00  0.00    +0.173 C 
ENDROOT
BRANCH  22  23
ATOM     23  CB  VAL A 150       4.686  -6.355   0.550  1.00  0.00    +0.015 C 
ATOM     24  CG1 VAL A 150       3.861  -5.316   1.328  1.00  0.00    +0.010 C 
ATOM     25  CG2 VAL A 150       4.123  -6.570  -0.857  1.00  0.00    +0.010 C 
ENDBRANCH  22  23
END_RES VAL A 150
BEGIN_RES GLN A 151
REMARK INDEX MAP 3 1 15 2 18 3 21 4 22 5 23 6 24 7 25 8
ROOT
ATOM     26  CA  GLN A 151       8.198  -9.163   0.318  1.00  0.00    +0.171 C 
ENDROOT
BRANCH  26  27
ATOM     27  CB  GLN A 151       8.689  -9.980   1.515  1.00  0.00    +0.045 C 
BRANCH  27  28
ATOM     28  CG  GLN A 151       9.618  -9.177   2.432  1.00  0.00    +0.102 C 
BRANCH  28  29
ATOM     29  CD  GLN A 151      10.186 -10.024   3.564  1.00  0.00    +0.217 C 
ATOM     30  OE1 GLN A 151       9.897 -11.199   3.732  1.00  0.00    -0.275 OA
ATOM     31  NE2 GLN A 151      11.043  -9.460   4.386  1.00  0.00    -0.368 N 
ATOM     32 HE22 GLN A 151      11.446 -10.004   5.162  1.00  0.00    +0.159 HD
ATOM     33 HE21 GLN A 151      11.311  -8.474   4.254  1.00  0.00    +0.159 HD
ENDBRANCH  28  29
ENDBRANCH  27  28
ENDBRANCH  26  27
END_RES GLN A 151
BEGIN_RES GLU A 192
REMARK INDEX MAP 3 1 15 2 18 3 21 4 22 5 23 6
ROOT
ATOM     34  CA  GLU A 192      15.855   0.073  -7.983  1.00  0.00    +0.171 C 
ENDROOT
BRANCH  34  35
ATOM     35  CB  GLU A 192      15.246  -1.153  -8.688  1.00  0.00    +0.041 C 
BRANCH  35  36
ATOM     36  CG  GLU A 192      14.509  -2.038  -7.677  1.00  0.00    +0.055 C 
BRANCH  36  37
ATOM     37  CD  GLU A 192      13.802  -3.216  -8.333  1.00  0.00    +0.041 C 
ATOM     38  OE1 GLU A 192      14.251  -4.359  -8.075  1.00  0.00    -0.548 OA
ATOM     39  OE2 GLU A 192      12.749  -2.973  -8.964  1.00  0.00    -0.549 OA
ENDBRANCH  36  37
ENDBRANCH  35  36
ENDBRANCH  34  35
END_RES GLU A 192
BEGIN_RES LYS A 196
REMARK INDEX MAP 3 1 15 2 18 3 21 4 24 5 27 6 28 7 29 8 30 9
ROOT
ATOM     40  CA  LYS A 196      14.847  -0.109  -2.051  1.00  0.00    +0.171 C 
ENDROOT
BRANCH  40  41
ATOM     41  CB  LYS A 196      15.401  -1.519  -2.305  1.00  0.00    +0.035 C 
BRANCH  41  42
ATOM     42  CG  LYS A 196      14.594  -2.260  -3.378  1.00  0.00    +0.008 C 
BRANCH  42  43
ATOM     43  CD  LYS A 196      15.282  -3.566  -3.795  1.00  0.00    +0.061 C 
BRANCH  43  44
ATOM     44  CE  LYS A 196      14.371  -4.259  -4.811  1.00  0.00    +0.258 C 
BRANCH  44  45
ATOM     45  NZ  LYS A 196      15.059  -5.273  -5.640  1.00  0.00    -0.357 N 
ATOM     46  HZ1 LYS A 196      15.524  -5.959  -5.028  1.00  0.00    +0.345 HD
ATOM     47  HZ2 LYS A 196      14.370  -5.755  -6.235  1.00  0.00    +0.345 HD
ATOM     48  HZ3 LYS A 196      15.762  -4.811  -6.235  1.00  0.00    +0.345 HD
ENDBRANCH  44  45
ENDBRANCH  43  44
ENDBRANCH  42  43
ENDBRANCH  41  42
ENDBRANCH  40  41
END_RES LYS A 196
BEGIN_RES HIS A 197
REMARK INDEX MAP 3 1 15 2 18 3 19 4 20 5 21 6 22 7 25 8
ROOT
ATOM     49  CA  HIS A 197      16.925   1.640   0.668  1.00  0.00    +0.177 C 
ENDROOT
BRANCH  49  50
ATOM     50  CB  HIS A 197      18.448   1.811   0.600  1.00  0.00    +0.093 C 
BRANCH  50  51
ATOM     51  CG  HIS A 197      19.194   0.507   0.499  1.00  0.00    +0.061 A 
ATOM     52  ND1 HIS A 197      18.943  -0.625   1.241  1.00  0.00    -0.242 NA
ATOM     53  CD2 HIS A 197      20.249   0.222  -0.326  1.00  0.00    +0.107 A 
ATOM     54  CE1 HIS A 197      19.828  -1.567   0.877  1.00  0.00    +0.196 A 
ATOM     55  NE2 HIS A 197      20.652  -1.092  -0.063  1.00  0.00    -0.350 N 
ATOM     56  HE2 HIS A 197      21.433  -1.596  -0.508  1.00  0.00    +0.167 HD
ENDBRANCH  50  51
ENDBRANCH  49  50
END_RES HIS A 197
BEGIN_RES ILE A 198
REMARK INDEX MAP 3 1 15 2 17 3 18 4 24 5
ROOT
ATOM     57  CA  ILE A 198      15.384   5.175   0.385  1.00  0.00    +0.174 C 
ENDROOT
BRANCH  57  58
ATOM     58  CB  ILE A 198      16.001   6.256  -0.525  1.00  0.00    +0.018 C 
ATOM     59  CG2 ILE A 198      17.486   6.435  -0.165  1.00  0.00    +0.010 C 
BRANCH  58  60
ATOM     60  CG1 ILE A 198      15.818   5.928  -2.022  1.00  0.00    +0.002 C 
ATOM     61  CD1 ILE A 198      16.123   7.095  -2.965  1.00  0.00    +0.004 C 
ENDBRANCH  58  60
ENDBRANCH  57  58
END_RES ILE A 198
BEGIN_RES ASP A 200
REMARK INDEX MAP 3 1 15 2 18 3 19 4 20 5
ROOT
ATOM     62  CA  ASP A 200      11.340   1.754   2.515  1.00  0.00    +0.176 C 
ENDROOT
BRANCH  62  63
ATOM     63  CB  ASP A 200      10.261   2.408   3.406  1.00  0.00    +0.087 C 
BRANCH  63  64
ATOM     64  CG  ASP A 200      10.072   1.720   4.769  1.00  0.00    +0.044 C 
ATOM     65  OD1 ASP A 200      11.045   1.109   5.273  1.00  0.00    -0.548 OA
ATOM     66  OD2 ASP A 200       8.992   1.899   5.378  1.00  0.00    -0.549 OA
ENDBRANCH  63  64
ENDBRANCH  62  63
END_RES ASP A 200
BEGIN_RES CYS A 202
REMARK INDEX MAP 3 1 15 2 18 3 19 4
ROOT
ATOM     67  CA  CYS A 202       9.840  -0.148  -2.684  1.00  0.00    +0.181 C 
ENDROOT
BRANCH  67  68
ATOM     68  CB  CYS A 202       9.556   1.346  -2.861  1.00  0.00    +0.101 C 
BRANCH  68  69
ATOM     69  SG  CYS A 202       8.851   1.705  -4.489  1.00  0.00    -0.177 SA
ATOM     70  HG  CYS A 202       7.638   2.323  -4.335  1.00  0.00    +0.102 HD
ENDBRANCH  68  69
ENDBRANCH  67  68
END_RES CYS A 202
BEGIN_RES ASN A 203
REMARK INDEX MAP 3 1 15 2 18 3 19 4 20 5 21 6 22 7
ROOT
ATOM     71  CA  ASN A 203      10.562  -2.205  -5.856  1.00  0.00    +0.180 C 
ENDROOT
BRANCH  71  72
ATOM     72  CB  ASN A 203      10.282  -3.714  -5.873  1.00  0.00    +0.134 C 
BRANCH  72  73
ATOM     73  CG  ASN A 203      11.024  -4.501  -4.814  1.00  0.00    +0.220 C 
ATOM     74  OD1 ASN A 203      11.647  -3.999  -3.908  1.00  0.00    -0.275 OA
ATOM     75  ND2 ASN A 203      11.011  -5.810  -4.905  1.00  0.00    -0.368 N 
ATOM     76 HD22 ASN A 203      11.505  -6.380  -4.203  1.00  0.00    +0.159 HD
ATOM     77 HD21 ASN A 203      10.507  -6.268  -5.678  1.00  0.00    +0.159 HD
ENDBRANCH  72  73
ENDBRANCH  71  72
END_RES ASN A 203
BEGIN_RES LEU A 204
REMARK INDEX MAP 3 1 15 2 18 3 20 4 21 5
ROOT
ATOM     78  CA  LEU A 204      10.344   0.047  -8.968  1.00  0.00    +0.172 C 
ENDROOT
BRANCH  78  79
ATOM     79  CB  LEU A 204      11.507   0.932  -9.440  1.00  0.00    +0.038 C 
BRANCH  79  80
ATOM     80  CG  LEU A 204      11.935   2.009  -8.430  1.00  0.00    -0.015 C 
ATOM     81  CD1 LEU A 204      13.144   2.753  -8.992  1.00  0.00    +0.007 C 
ATOM     82  CD2 LEU A 204      10.809   3.008  -8.160  1.00  0.00    +0.007 C 
ENDBRANCH  79  80
ENDBRANCH  78  79
END_RES LEU A 204
BEGIN_RES THR A 205
REMARK INDEX MAP 3 1 15 2 17 3 18 4 22 5
ROOT
ATOM     83  CA  THR A 205      10.171  -2.845 -11.498  1.00  0.00    +0.199 C 
ENDROOT
BRANCH  83  84
ATOM     84  CB  THR A 205      11.447  -3.524 -12.008  1.00  0.00    +0.143 C 
ATOM     85  CG2 THR A 205      12.508  -2.511 -12.437  1.00  0.00    +0.041 C 
BRANCH  84  86
ATOM     86  OG1 THR A 205      12.011  -4.369 -11.031  1.00  0.00    -0.389 OA
ATOM     87  HG1 THR A 205      11.784  -4.029 -10.129  1.00  0.00    +0.211 HD
ENDBRANCH  84  86
ENDBRANCH  83  84
END_RES THR A 205
BEGIN_RES ARG A 206
REMARK INDEX MAP 3 1 15 2 18 3 21 4 24 5 25 6 26 7 27 8 28 9 29 10 30 11 31 12
REMARK INDEX MAP 32 13
ROOT
ATOM     88  CA  ARG A 206       7.295  -4.660  -9.716  1.00  0.00    +0.171 C 
ENDROOT
BRANCH  88  89
ATOM     89  CB  ARG A 206       6.943  -4.502  -8.237  1.00  0.00    +0.038 C 
BRANCH  89  90
ATOM     90  CG  ARG A 206       6.140  -5.728  -7.777  1.00  0.00    +0.040 C 
BRANCH  90  91
ATOM     91  CD  ARG A 206       6.055  -5.821  -6.262  1.00  0.00    +0.197 C 
BRANCH  91  92
ATOM     92  NE  ARG A 206       7.377  -6.039  -5.634  1.00  0.00    -0.278 N 
ATOM     93  HE  ARG A 206       8.207  -6.017  -6.243  1.00  0.00    +0.260 HD
ATOM     94  CZ  ARG A 206       7.564  -6.259  -4.348  1.00  0.00    +0.339 C 
ATOM     95  NH1 ARG A 206       8.723  -6.549  -3.842  1.00  0.00    -0.290 N 
ATOM     96  NH2 ARG A 206       6.587  -6.203  -3.508  1.00  0.00    -0.290 N 
ATOM     97 HH12 ARG A 206       8.817  -6.712  -2.829  1.00  0.00    +0.256 HD
ATOM     98 HH11 ARG A 206       9.549  -6.616  -4.453  1.00  0.00    +0.256 HD
ATOM     99 HH22 ARG A 206       6.757  -6.379  -2.507  1.00  0.00    +0.256 HD
ATOM    100 HH21 ARG A 206       5.636  -5.983  -3.838  1.00  0.00    +0.256 HD
ENDBRANCH  91  92
ENDBRANCH  90  91
ENDBRANCH  89  90
ENDBRANCH  88  89
END_RES ARG A 206
BEGIN_RES GLU A 207
REMARK INDEX MAP 3 1 15 2 18 3 21 4 22 5 23 6
ROOT
ATOM    101  CA  GLU A 207       4.503  -5.915 -11.996  1.00  0.00    +0.171 C 
ENDROOT
BRANCH 101 102
ATOM    102  CB  GLU A 207       4.773  -7.004 -13.033  1.00  0.00    +0.041 C 
BRANCH 102 103
ATOM    103  CG  GLU A 207       6.016  -6.758 -13.887  1.00  0.00    +0.055 C 
BRANCH 103 104
ATOM    104  CD  GLU A 207       6.002  -7.808 -14.987  1.00  0.00    +0.041 C 
ATOM    105  OE1 GLU A 207       5.434  -7.540 -16.068  1.00  0.00    -0.548 OA
ATOM    106  OE2 GLU A 207       6.356  -8.981 -14.729  1.00  0.00    -0.549 OA
ENDBRANCH 103 104
ENDBRANCH 102 103
ENDBRANCH 101 102
END_RES GLU A 207
BEGIN_RES THR A 208
REMARK INDEX MAP 3 1 15 2 17 3 18 4 22 5
ROOT
ATOM    107  CA  THR A 208       1.776  -5.557  -9.298  1.00  0.00    +0.199 C 
ENDROOT
BRANCH 107 108
ATOM    108  CB  THR A 208       1.641  -4.339  -8.378  1.00  0.00    +0.143 C 
ATOM    109  CG2 THR A 208       0.694  -4.579  -7.214  1.00  0.00    +0.041 C 
BRANCH 108 110
ATOM    110  OG1 THR A 208       2.893  -3.979  -7.832  1.00  0.00    -0.389 OA
ATOM    111  HG1 THR A 208       2.839  -3.995  -6.844  1.00  0.00    +0.211 HD
ENDBRANCH 108 110
ENDBRANCH 107 108
END_RES THR A 208
BEGIN_RES ASP A 211
REMARK INDEX MAP 3 1 15 2 18 3 19 4 20 5
ROOT
ATOM    112  CA  ASP A 211      -0.213 -10.060  -8.774  1.00  0.00    +0.176 C 
ENDROOT
BRANCH 112 113
ATOM    113  CB  ASP A 211       0.609  -9.358  -7.683  1.00  0.00    +0.087 C 
BRANCH 113 114
ATOM    114  CG  ASP A 211       2.099  -9.697  -7.728  1.00  0.00    +0.044 C 
ATOM    115  OD1 ASP A 211       2.423 -10.901  -7.607  1.00  0.00    -0.548 OA
ATOM    116  OD2 ASP A 211       2.908  -8.743  -7.765  1.00  0.00    -0.549 OA
ENDBRANCH 113 114
ENDBRANCH 112 113
END_RES ASP A 211
