BEGIN_RES GLN A 29
REMARK INDEX MAP 3 1 15 2 18 3 21 4 22 5 23 6 24 7 25 8
ROOT
ATOM      1  CA  GLN A  29      16.975   0.393   8.263  1.00  0.00    +0.171 C 
ENDROOT
BRANCH   1   2
ATOM      2  CB  GLN A  29      16.816  -1.139   8.255  1.00  0.00    +0.045 C 
BRANCH   2   3
ATOM      3  CG  GLN A  29      16.958  -1.732   6.845  1.00  0.00    +0.102 C 
BRANCH   3   4
ATOM      4  CD  GLN A  29      15.791  -1.360   5.937  1.00  0.00    +0.217 C 
ATOM      5  OE1 GLN A  29      14.658  -1.245   6.365  1.00  0.00    -0.275 OA
ATOM      6  NE2 GLN A  29      16.020  -1.158   4.659  1.00  0.00    -0.368 N 
ATOM      7 HE22 GLN A  29      15.244  -0.906   4.030  1.00  0.00    +0.159 HD
ATOM      8 HE21 GLN A  29      16.975  -1.252   4.286  1.00  0.00    +0.159 HD
ENDBRANCH   3   4
ENDBRANCH   2   3
ENDBRANCH   1   2
END_RES GLN A 29
BEGIN_RES LYS A 33
REMARK INDEX MAP 3 1 15 2 18 3 21 4 24 5 27 6 28 7 29 8 30 9
ROOT
ATOM      9  CA  LYS A  33      11.989   3.808   9.373  1.00  0.00    +0.171 C 
ENDROOT
BRANCH   9  10
ATOM     10  CB  LYS A  33      11.876   2.482  10.136  1.00  0.00    +0.035 C 
BRANCH  10  11
ATOM     11  CG  LYS A  33      11.742   1.304   9.165  1.00  0.00    +0.008 C 
BRANCH  11  12
ATOM     12  CD  LYS A  33      11.302   0.042   9.912  1.00  0.00    +0.061 C 
BRANCH  12  13
ATOM     13  CE  LYS A  33      11.018  -1.056   8.886  1.00  0.00    +0.258 C 
BRANCH  13  14
ATOM     14  NZ  LYS A  33      10.288  -2.192   9.500  1.00  0.00    -0.357 N 
ATOM     15  HZ1 LYS A  33      10.336  -2.117  10.526  1.00  0.00    +0.345 HD
ATOM     16  HZ2 LYS A  33       9.303  -2.169   9.200  1.00  0.00    +0.345 HD
ATOM     17  HZ3 LYS A  33      10.718  -3.079   9.200  1.00  0.00    +0.345 HD
ENDBRANCH  13  14
ENDBRANCH  12  13
ENDBRANCH  11  12
ENDBRANCH  10  11
ENDBRANCH   9  10
END_RES LYS A 33
BEGIN_RES SER A 149
REMARK INDEX MAP 3 1 15 2 18 3 19 4
ROOT
ATOM     18  CA  SER A 149       7.343  -2.533  -0.915  1.00  0.00    +0.197 C 
ENDROOT
BRANCH  18  19
ATOM     19  CB  SER A 149       7.142  -1.337   0.020  1.00  0.00    +0.191 C 
BRANCH  19  20
ATOM     20  OG  SER A 149       7.247  -0.125  -0.701  1.00  0.00    -0.392 OA
ATOM     21  HG  SER A 149       7.313   0.632  -0.066  1.00  0.00    +0.210 HD
ENDBRANCH  19  20
ENDBRANCH  18  19
END_RES SER A 149
BEGIN_RES VAL A 150
REMARK INDEX MAP 3 1 15 2 17 3 18 4
ROOT
ATOM     22  CA  VAL A 150       6.162  -5.910   0.524  1.00  0.00    +0.173 C 
ENDROOT
BRANCH  22  23
ATOM     23  CB  VAL A 150       4.686  -6.355   0.550  1.00  0.00    +0.015 C 
ATOM     24  CG1 VAL A 150       3.861  -5.316   1.328  1.00  0.00    +0.010 C 
ATOM     25  CG2 VAL A 150       4.123  -6.570  -0.857  1.00  0.00    +0.010 C 
ENDBRANCH  22  23
END_RES VAL A 150
BEGIN_RES GLN A 151
REMARK INDEX MAP 3 1 15 2 18 3 21 4 22 5 23 6 24 7 25 8
ROOT
ATOM     26  CA  GLN A 151       8.198  -9.163   0.318  1.00  0.00    +0.171 C 
ENDROOT
BRANCH  26  27
ATOM     27  CB  GLN A 151       8.689  -9.980   1.515  1.00  0.00    +0.045 C 
BRANCH  27  28
ATOM     28  CG  GLN A 151       9.618  -9.177   2.432  1.00  0.00    +0.102 C 
BRANCH  28  29
ATOM     29  CD  GLN A 151      10.186 -10.024   3.564  1.00  0.00    +0.217 C 
ATOM     30  OE1 GLN A 151       9.897 -11.199   3.732  1.00  0.00    -0.275 OA
ATOM     31  NE2 GLN A 151      11.043  -9.460   4.386  1.00  0.00    -0.368 N 
ATOM     32 HE22 GLN A 151      11.446 -10.004   5.162  1.00  0.00    +0.159 HD
ATOM     33 HE21 GLN A 151      11.311  -8.474   4.254  1.00  0.00    +0.159 HD
ENDBRANCH  28  29
ENDBRANCH  27  28
ENDBRANCH  26  27
END_RES GLN A 151
BEGIN_RES GLU A 192
REMARK INDEX MAP 3 1 15 2 18 3 21 4 22 5 23 6
ROOT
ATOM     34  CA  GLU A 192      15.855   0.073  -7.983  1.00  0.00    +0.171 C 
ENDROOT
BRANCH  34  35
ATOM     35  CB  GLU A 192      15.246  -1.153  -8.688  1.00  0.00    +0.041 C 
BRANCH  35  36
ATOM     36  CG  GLU A 192      14.509  -2.038  -7.677  1.00  0.00    +0.055 C 
BRANCH  36  37
ATOM     37  CD  GLU A 192      13.802  -3.216  -8.333  1.00  0.00    +0.041 C 
ATOM     38  OE1 GLU A 192      14.251  -4.359  -8.075  1.00  0.00    -0.548 OA
ATOM     39  OE2 GLU A 192      12.749  -2.973  -8.964  1.00  0.00    -0.549 OA
ENDBRANCH  36  37
ENDBRANCH  35  36
ENDBRANCH  34  35
END_RES GLU A 192
BEGIN_RES LYS A 196
REMARK INDEX MAP 3 1 15 2 18 3 21 4 24 5 27 6 28 7 29 8 30 9
ROOT
ATOM     40  CA  LYS A 196      14.847  -0.109  -2.051  1.00  0.00    +0.171 C 
ENDROOT
BRANCH  40  41
ATOM     41  CB  LYS A 196      15.401  -1.519  -2.305  1.00  0.00    +0.035 C 
BRANCH  41  42
ATOM     42  CG  LYS A 196      14.594  -2.260  -3.378  1.00  0.00    +0.008 C 
BRANCH  42  43
ATOM     43  CD  LYS A 196      15.282  -3.566  -3.795  1.00  0.00    +0.061 C 
BRANCH  43  44
ATOM     44  CE  LYS A 196      14.371  -4.259  -4.811  1.00  0.00    +0.258 C 
BRANCH  44  45
ATOM     45  NZ  LYS A 196      15.059  -5.273  -5.640  1.00  0.00    -0.357 N 
ATOM     46  HZ1 LYS A 196      15.524  -5.959  -5.028  1.00  0.00    +0.345 HD
ATOM     47  HZ2 LYS A 196      14.370  -5.755  -6.235  1.00  0.00    +0.345 HD
ATOM     48  HZ3 LYS A 196      15.762  -4.811  -6.235  1.00  0.00    +0.345 HD
ENDBRANCH  44  45
ENDBRANCH  43  44
ENDBRANCH  42  43
ENDBRANCH  41  42
ENDBRANCH  40  41
END_RES LYS A 196
BEGIN_RES LEU A 197
REMARK INDEX MAP 3 1 15 2 18 3 20 4 21 5
ROOT
ATOM     49  CA  LEU A 197      16.925   1.640   0.668  1.00  0.00    +0.172 C 
ENDROOT
BRANCH  49  50
ATOM     50  CB  LEU A 197      18.443   1.798   0.503  1.00  0.00    +0.038 C 
BRANCH  50  51
ATOM     51  CG  LEU A 197      19.181   2.089   1.809  1.00  0.00    -0.015 C 
ATOM     52  CD1 LEU A 197      19.072   0.932   2.801  1.00  0.00    +0.007 C 
ATOM     53  CD2 LEU A 197      20.657   2.278   1.494  1.00  0.00    +0.007 C 
ENDBRANCH  50  51
ENDBRANCH  49  50
END_RES LEU A 197
BEGIN_RES LEU A 198
REMARK INDEX MAP 3 1 15 2 18 3 20 4 21 5
ROOT
ATOM     54  CA  LEU A 198      15.384   5.175   0.385  1.00  0.00    +0.172 C 
ENDROOT
BRANCH  54  55
ATOM     55  CB  LEU A 198      15.993   6.186  -0.603  1.00  0.00    +0.038 C 
BRANCH  55  56
ATOM     56  CG  LEU A 198      17.494   6.466  -0.392  1.00  0.00    -0.015 C 
ATOM     57  CD1 LEU A 198      18.020   7.324  -1.542  1.00  0.00    +0.007 C 
ATOM     58  CD2 LEU A 198      17.765   7.208   0.918  1.00  0.00    +0.007 C 
ENDBRANCH  55  56
ENDBRANCH  54  55
END_RES LEU A 198
BEGIN_RES ASP A 200
REMARK INDEX MAP 3 1 15 2 18 3 19 4 20 5
ROOT
ATOM     59  CA  ASP A 200      11.340   1.754   2.515  1.00  0.00    +0.176 C 
ENDROOT
BRANCH  59  60
ATOM     60  CB  ASP A 200      10.261   2.408   3.406  1.00  0.00    +0.087 C 
BRANCH  60  61
ATOM     61  CG  ASP A 200      10.072   1.720   4.769  1.00  0.00    +0.044 C 
ATOM     62  OD1 ASP A 200      11.045   1.109   5.273  1.00  0.00    -0.548 OA
ATOM     63  OD2 ASP A 200       8.992   1.899   5.378  1.00  0.00    -0.549 OA
ENDBRANCH  60  61
ENDBRANCH  59  60
END_RES ASP A 200
BEGIN_RES CYS A 202
REMARK INDEX MAP 3 1 15 2 18 3 19 4
ROOT
ATOM     64  CA  CYS A 202       9.840  -0.148  -2.684  1.00  0.00    +0.181 C 
ENDROOT
BRANCH  64  65
ATOM     65  CB  CYS A 202       9.556   1.346  -2.861  1.00  0.00    +0.101 C 
BRANCH  65  66
ATOM     66  SG  CYS A 202       8.851   1.705  -4.489  1.00  0.00    -0.177 SA
ATOM     67  HG  CYS A 202       7.638   2.323  -4.335  1.00  0.00    +0.102 HD
ENDBRANCH  65  66
ENDBRANCH  64  65
END_RES CYS A 202
BEGIN_RES CYS A 203
REMARK INDEX MAP 3 1 15 2 18 3 19 4
ROOT
ATOM     68  CA  CYS A 203      10.562  -2.205  -5.856  1.00  0.00    +0.181 C 
ENDROOT
BRANCH  68  69
ATOM     69  CB  CYS A 203      10.246  -3.705  -5.867  1.00  0.00    +0.101 C 
BRANCH  69  70
ATOM     70  SG  CYS A 203      11.051  -4.529  -4.463  1.00  0.00    -0.177 SA
ATOM     71  HG  CYS A 203      10.556  -4.022  -3.291  1.00  0.00    +0.102 HD
ENDBRANCH  69  70
ENDBRANCH  68  69
END_RES CYS A 203
BEGIN_RES LEU A 204
REMARK INDEX MAP 3 1 15 2 18 3 20 4 21 5
ROOT
ATOM     72  CA  LEU A 204      10.344   0.047  -8.968  1.00  0.00    +0.172 C 
ENDROOT
BRANCH  72  73
ATOM     73  CB  LEU A 204      11.507   0.932  -9.440  1.00  0.00    +0.038 C 
BRANCH  73  74
ATOM     74  CG  LEU A 204      11.935   2.009  -8.430  1.00  0.00    -0.015 C 
ATOM     75  CD1 LEU A 204      13.144   2.753  -8.992  1.00  0.00    +0.007 C 
ATOM     76  CD2 LEU A 204      10.809   3.008  -8.160  1.00  0.00    +0.007 C 
ENDBRANCH  73  74
ENDBRANCH  72  73
END_RES LEU A 204
BEGIN_RES THR A 205
REMARK INDEX MAP 3 1 15 2 17 3 18 4 22 5
ROOT
ATOM     77  CA  THR A 205      10.171  -2.845 -11.498  1.00  0.00    +0.199 C 
ENDROOT
BRANCH  77  78
ATOM     78  CB  THR A 205      11.447  -3.524 -12.008  1.00  0.00    +0.143 C 
ATOM     79  CG2 THR A 205      12.508  -2.511 -12.437  1.00  0.00    +0.041 C 
BRANCH  78  80
ATOM     80  OG1 THR A 205      12.011  -4.369 -11.031  1.00  0.00    -0.389 OA
ATOM     81  HG1 THR A 205      11.784  -4.029 -10.129  1.00  0.00    +0.211 HD
ENDBRANCH  78  80
ENDBRANCH  77  78
END_RES THR A 205
BEGIN_RES ARG A 206
REMARK INDEX MAP 3 1 15 2 18 3 21 4 24 5 25 6 26 7 27 8 28 9 29 10 30 11 31 12
REMARK INDEX MAP 32 13
ROOT
ATOM     82  CA  ARG A 206       7.295  -4.660  -9.716  1.00  0.00    +0.171 C 
ENDROOT
BRANCH  82  83
ATOM     83  CB  ARG A 206       6.943  -4.502  -8.237  1.00  0.00    +0.038 C 
BRANCH  83  84
ATOM     84  CG  ARG A 206       6.140  -5.728  -7.777  1.00  0.00    +0.040 C 
BRANCH  84  85
ATOM     85  CD  ARG A 206       6.055  -5.821  -6.262  1.00  0.00    +0.197 C 
BRANCH  85  86
ATOM     86  NE  ARG A 206       7.377  -6.039  -5.634  1.00  0.00    -0.278 N 
ATOM     87  HE  ARG A 206       8.207  -6.017  -6.243  1.00  0.00    +0.260 HD
ATOM     88  CZ  ARG A 206       7.564  -6.259  -4.348  1.00  0.00    +0.339 C 
ATOM     89  NH1 ARG A 206       8.723  -6.549  -3.842  1.00  0.00    -0.290 N 
ATOM     90  NH2 ARG A 206       6.587  -6.203  -3.508  1.00  0.00    -0.290 N 
ATOM     91 HH12 ARG A 206       8.817  -6.712  -2.829  1.00  0.00    +0.256 HD
ATOM     92 HH11 ARG A 206       9.549  -6.616  -4.453  1.00  0.00    +0.256 HD
ATOM     93 HH22 ARG A 206       6.757  -6.379  -2.507  1.00  0.00    +0.256 HD
ATOM     94 HH21 ARG A 206       5.636  -5.983  -3.838  1.00  0.00    +0.256 HD
ENDBRANCH  85  86
ENDBRANCH  84  85
ENDBRANCH  83  84
ENDBRANCH  82  83
END_RES ARG A 206
BEGIN_RES GLU A 207
REMARK INDEX MAP 3 1 15 2 18 3 21 4 22 5 23 6
ROOT
ATOM     95  CA  GLU A 207       4.503  -5.915 -11.996  1.00  0.00    +0.171 C 
ENDROOT
BRANCH  95  96
ATOM     96  CB  GLU A 207       4.773  -7.004 -13.033  1.00  0.00    +0.041 C 
BRANCH  96  97
ATOM     97  CG  GLU A 207       6.016  -6.758 -13.887  1.00  0.00    +0.055 C 
BRANCH  97  98
ATOM     98  CD  GLU A 207       6.002  -7.808 -14.987  1.00  0.00    +0.041 C 
ATOM     99  OE1 GLU A 207       5.434  -7.540 -16.068  1.00  0.00    -0.548 OA
ATOM    100  OE2 GLU A 207       6.356  -8.981 -14.729  1.00  0.00    -0.549 OA
ENDBRANCH  97  98
ENDBRANCH  96  97
ENDBRANCH  95  96
END_RES GLU A 207
BEGIN_RES THR A 208
REMARK INDEX MAP 3 1 15 2 17 3 18 4 22 5
ROOT
ATOM    101  CA  THR A 208       1.776  -5.557  -9.298  1.00  0.00    +0.199 C 
ENDROOT
BRANCH 101 102
ATOM    102  CB  THR A 208       1.641  -4.339  -8.378  1.00  0.00    +0.143 C 
ATOM    103  CG2 THR A 208       0.694  -4.579  -7.214  1.00  0.00    +0.041 C 
BRANCH 102 104
ATOM    104  OG1 THR A 208       2.893  -3.979  -7.832  1.00  0.00    -0.389 OA
ATOM    105  HG1 THR A 208       2.839  -3.995  -6.844  1.00  0.00    +0.211 HD
ENDBRANCH 102 104
ENDBRANCH 101 102
END_RES THR A 208
BEGIN_RES ASP A 211
REMARK INDEX MAP 3 1 15 2 18 3 19 4 20 5
ROOT
ATOM    106  CA  ASP A 211      -0.213 -10.060  -8.774  1.00  0.00    +0.176 C 
ENDROOT
BRANCH 106 107
ATOM    107  CB  ASP A 211       0.609  -9.358  -7.683  1.00  0.00    +0.087 C 
BRANCH 107 108
ATOM    108  CG  ASP A 211       2.099  -9.697  -7.728  1.00  0.00    +0.044 C 
ATOM    109  OD1 ASP A 211       2.423 -10.901  -7.607  1.00  0.00    -0.548 OA
ATOM    110  OD2 ASP A 211       2.908  -8.743  -7.765  1.00  0.00    -0.549 OA
ENDBRANCH 107 108
ENDBRANCH 106 107
END_RES ASP A 211
